Membrane in water
40347
    1TMC1    C1    1   3.517   3.485  11.037  0.0039  0.1286 -0.4670
    1TMC1    C2    2   3.522   3.469  10.903 -0.6383  0.0411  0.8331
    1TMC1    C3    3   3.571   3.572  10.831  0.6330  0.1521  0.2866
    1TMC1    C4    4   3.572   3.592  11.104 -0.0440  0.2162  0.1242
    1TMC1    C5    5   3.623   3.689  11.030  0.0905  0.2765  1.2080
    1TMC1    C6    6   3.618   3.685  10.894 -0.1708 -0.2006 -0.0729
    1TMC1     C    7   3.490   3.363  11.105  0.6240  0.7536  0.0503
    1TMC1     O    8   3.418   3.275  11.058 -0.0755 -0.1125 -0.2062
    1TMC1     H    9   3.499   3.375  10.855  0.6681  0.2217 -0.1585
    1TMC1    H1   10   3.553   3.610  11.209  0.6037 -0.5564  0.3752
    1TMC1    H2   11   3.663   3.750  10.819 -0.2971 -0.2459 -0.1877
    1TMC1    C7   12   3.631   3.814  11.098 -0.6613  0.4432  0.4777
    1TMC1    C8   13   3.526   3.576  10.695 -0.2102 -0.0761  0.0430
    1TMC1    O1   14   3.631   3.822  11.222  0.4394  0.2151  0.4031
    1TMC1    O2   15   3.417   3.528  10.668  0.3885  0.0652  0.2110
    1TMC1    O3   16   3.579   3.908  11.019  0.2648  0.3987 -0.2266
    1TMC1    H3   17   3.593   3.880  10.926  1.6529  1.1006 -0.2193
    1TMC1    O5   18   3.635   3.555  10.618 -0.1572  0.4420  0.4789
    1TMC1    H5   19   3.723   3.582  10.652 -0.3588  0.2917  1.1222
    2MPD2     C   20   3.634   2.985  11.430  0.2351  0.0486  0.5932
    2MPD2    C1   21   3.515   3.023  11.372  0.0291 -0.4774  0.1716
    2MPD2    C2   22   3.498   3.136  11.292  0.5786  0.1270 -0.0341
    2MPD2    C3   23   3.597   3.227  11.281  0.6737  0.0799  0.3091
    2MPD2    C4   24   3.712   3.197  11.349  0.7033 -0.1920 -0.2122
    2MPD2    C5   25   3.731   3.080  11.417 -0.2407  0.3288 -0.6466
    2MPD2     H   26   3.402   3.144  11.243 -0.1055  1.2864  1.4918
    2MPD2    H1   27   3.792   3.270  11.354  1.9260 -1.5900  0.3914
    2MPD2    H2   28   3.663   2.887  11.466  0.3288 -0.6828 -1.4485
    2MPD2    H3   29   3.826   3.051  11.460  0.7670  2.6922 -1.2727
    2MPD2     N   30   3.588   3.346  11.200 -1.0980 -0.2446  0.0953
    2MPD2    H5   31   3.666   3.411  11.207 -2.0812  0.8992  0.2514
    2MPD2    N1   32   3.414   2.923  11.370 -0.5756 -0.4276 -0.4297
    2MPD2    H7   33   3.324   2.945  11.329  0.3158  2.7174 -0.6565
    3TMC1    C1   34   2.648   4.501  10.573 -1.0321 -0.6214 -0.0678
    3TMC1    C2   35   2.688   4.531  10.443 -0.1027  0.3651 -0.1529
    3TMC1    C3   36   2.745   4.654  10.419 -0.3933 -0.4426  0.4703
    3TMC1    C4   37   2.667   4.591  10.674  0.0804  0.1086  0.6656
    3TMC1    C5   38   2.732   4.709  10.648 -0.2870 -0.9249 -0.1608
    3TMC1    C6   39   2.769   4.739  10.520  0.3190 -0.3622  0.7867
    3TMC1     C   40   2.620   4.367  10.611 -0.4917  0.7592  0.0666
    3TMC1     O   41   2.663   4.281  10.530 -0.4925 -0.2393  0.5238
    3TMC1     H   42   2.684   4.460  10.361  1.7199 -0.1435  0.1978
    3TMC1    H1   43   2.635   4.565  10.774  0.0490 -1.4080  0.2639
    3TMC1    H2   44   2.807   0.096  10.493  0.3818 -0.9713 -1.3060
    3TMC1    C7   45   2.760   0.070  10.752 -0.3450  0.3490 -0.5574
    3TMC1    C8   46   2.817   4.659  10.294  0.0494 -0.0499 -0.4810
    3TMC1    O1   47   2.876   0.117  10.764 -0.1428  0.3960  0.8022
    3TMC1    O2   48   2.819   4.578  10.198 -0.3830  0.1568 -0.2056
    3TMC1    O3   49   2.669   0.064  10.851 -0.1024 -0.0889  0.5545
    3TMC1    H3   50   2.580   0.040  10.819  1.0832 -1.5308 -1.7129
    3TMC1    O5   51   2.866   0.037  10.269 -0.8395 -0.2078 -0.6805
    3TMC1    H5   52   2.903   0.085  10.346  0.4474 -1.1273 -0.7404
    4MPD2     C   53   2.387   3.985  10.881 -0.8070  0.6178 -0.2222
    4MPD2    C1   54   2.340   4.103  10.930 -0.0740  0.2534 -0.0750
    4MPD2    C2   55   2.384   4.215  10.863 -0.3291 -0.3712 -0.5991
    4MPD2    C3   56   2.482   4.225  10.768  0.2968  0.6764  0.0372
    4MPD2    C4   57   2.536   4.102  10.723  0.0849 -0.0436 -0.0455
    4MPD2    C5   58   2.487   3.984  10.779  0.1862 -0.4542  0.4031
    4MPD2     H   59   2.343   4.311  10.890  0.2109 -0.4243  0.4181
    4MPD2    H1   60   2.618   4.093  10.653  0.8751 -0.3626  0.9288
    4MPD2    H2   61   2.366   3.889  10.926  2.1673 -1.2811 -2.8990
    4MPD2    H3   62   2.538   3.890  10.759  0.4475 -0.3967  0.7979
    4MPD2     N   63   2.528   4.347  10.715 -0.5879 -0.4527 -0.3224
    4MPD2    H5   64   2.490   4.431  10.757 -1.1894 -1.3916  1.0187
    4MPD2    N1   65   2.250   4.121  11.034  1.2055  0.2338 -0.0522
    4MPD2    H7   66   2.213   4.215  11.049  0.1000  0.1503 -2.1997
    5TCq1    O1   67   3.350   1.718  11.697 -0.6568 -0.1790 -0.4719
    5TCq1    C1   68   3.481   1.689  11.707 -0.6545 -0.6020  0.1725
    5TCq1    O2   69   3.562   1.722  11.792  0.1176 -0.8675  0.2156
    5TCq1    C2   70   3.490   1.551  11.662  0.1878  0.1755  0.1232
    5TCq1    C3   71   3.520   1.455  11.760  0.2822  0.9996 -0.3644
    5TCq1    C4   72   3.471   1.334  11.733 -0.2093  0.5040 -0.5784
    5TCq1    C5   73   3.410   1.297  11.617 -0.6140  0.2038  0.0079
    5TCq1    C6   74   3.371   1.395  11.532 -0.6377  0.2554 -0.1257
    5TCq1    C7   75   3.413   1.521  11.552  0.1916  0.0498 -0.6690
    5TCq1    C8   76   3.324   1.355  11.402 -0.8631  0.8889  0.6489
    5TCq1    O4   77   3.344   1.240  11.369  0.3169 -0.0336 -0.1171
    5TCq1    C9   78   3.503   1.225  11.816  0.8899  0.4271  0.2136
    5TCq1    O5   79   3.591   1.257  11.900 -0.4083 -0.1273 -0.4941
    5TCq1    O6   80   3.467   1.109  11.782  0.2942  0.5836 -0.9667
    5TCq1    H1   81   3.298   1.653  11.645 -0.7470  0.8321 -1.6389
    5TCq1    H2   82   3.573   1.482  11.850  2.0082 -0.8741 -0.8191
    5TCq1    H3   83   3.377   1.198  11.588 -1.8997  0.5079  0.4435
    5TCq1    H4   84   3.377   1.604  11.492  0.6394  0.1079 -0.8575
    6MPD2     C   85   3.164   1.543  11.133 -1.1385 -0.9263 -0.9173
    6MPD2    C1   86   3.238   1.440  11.182  0.4189  0.1487 -0.2184
    6MPD2    C2   87   3.264   1.330  11.103  0.0173  0.4719  0.6873
    6MPD2    C3   88   3.226   1.321  10.973 -0.0566 -0.1403  0.3705
    6MPD2    C4   89   3.155   1.430  10.922  0.2646  0.3177  0.2757
    6MPD2    C5   90   3.131   1.534  11.005 -0.1348  0.6578  0.2622
    6MPD2     H   91   3.324   1.248  11.140 -0.8799 -0.5362 -0.1302
    6MPD2    H1   92   3.116   1.439  10.822 -0.3511 -0.4006  0.4480
    6MPD2    H2   93   3.137   1.631  11.190 -0.2145 -1.1580 -0.1269
    6MPD2    H3   94   3.070   1.614  10.966 -1.0367  0.1195  0.5557
    6MPD2     N   95   3.245   1.204  10.893  0.9589 -0.1706  0.0027
    6MPD2    H5   96   3.304   1.136  10.939  1.5615  1.3782  1.5057
    6MPD2    N1   97   3.277   1.455  11.318  0.3760  0.1644 -0.4095
    6MPD2    H7   98   3.265   1.545  11.363  0.5468 -0.7197  1.3675
    7TCq1    O1   99   0.138   0.410  12.932 -0.2161  0.1730  0.2403
    7TCq1    C1  100   0.249   0.472  12.899 -0.4892  0.1617 -0.4846
    7TCq1    O2  101   0.258   0.593  12.898 -0.0898 -0.5111 -0.3680
    7TCq1    C2  102   0.361   0.381  12.903  0.3866 -0.0125  0.3293
    7TCq1    C3  103   0.481   0.431  12.934 -0.3975  0.4448  0.4874
    7TCq1    C4  104   0.584   0.340  12.944  0.5892 -0.6151  0.4321
    7TCq1    C5  105   0.571   0.217  12.898  0.3184 -0.2760  0.3821
    7TCq1    C6  106   0.456   0.173  12.853  0.3738  0.1839  0.4733
    7TCq1    C7  107   0.343   0.249  12.871 -0.3244  0.1154 -0.0650
    7TCq1    C8  108   0.436   0.032  12.830 -0.5791 -0.0733 -0.7059
    7TCq1    O4  109   0.327   4.730  12.867  0.0336 -0.3419  0.3275
    7TCq1    C9  110   0.702   0.382  13.002 -0.0654 -0.2340 -0.0738
    7TCq1    O5  111   0.798   0.295  13.013 -0.3225 -0.1050 -0.5924
    7TCq1    O6  112   0.700   0.503  13.045 -0.0710 -0.3027  0.4371
    7TCq1    H1  113   0.150   0.317  12.961 -0.4080 -0.5385 -1.9299
    7TCq1    H2  114   0.489   0.533  12.971 -1.7387  0.3324  1.1057
    7TCq1    H3  115   0.661   0.158  12.897 -0.7305 -1.8657 -0.3257
    7TCq1    H4  116   0.246   0.209  12.844  0.1061 -0.4111 -0.8601
    8MPD2     C  117   0.580   4.315  12.682 -0.5983  0.5503  0.0219
    8MPD2    C1  118   0.474   4.353  12.767 -0.2306  0.2169  0.1397
    8MPD2    C2  119   0.454   4.488  12.789  0.4683 -0.2361 -0.6120
    8MPD2    C3  120   0.546   4.576  12.733 -0.4318 -0.2281  0.2597
    8MPD2    C4  121   0.653   4.531  12.655  0.6660  1.0165 -0.1481
    8MPD2    C5  122   0.659   4.402  12.622  0.1824  0.0312  0.0600
    8MPD2     H  123   0.385   4.521  12.866  0.7657  0.3006 -0.5742
    8MPD2    H1  124   0.725   4.592  12.602  1.5179  1.0019  0.9885
    8MPD2    H2  125   0.586   4.214  12.645  3.8916  0.7308  0.2827
    8MPD2    H3  126   0.745   4.375  12.561  1.5246  2.4159  0.9011
    8MPD2     N  127   0.537   4.713  12.765  0.3060 -0.6865 -1.0908
    8MPD2    H5  128   0.603   0.037  12.724 -0.3300  0.8873  0.4168
    8MPD2    N1  129   0.396   4.246  12.821  0.9401 -0.0949  0.7074
    8MPD2    H7  130   0.419   4.152  12.790 -1.0283 -0.0079 -0.9859
    9TMC1    C1  131   3.533   4.447  10.425  0.3825 -0.2804  0.3006
    9TMC1    C2  132   3.584   4.328  10.372  0.1531  0.7321  0.0103
    9TMC1    C3  133   3.709   4.337  10.311 -0.1693  0.3659  0.0859
    9TMC1    C4  134   3.603   4.565  10.413  0.7886 -0.3532  0.2507
    9TMC1    C5  135   3.727   4.559  10.357  0.5547  0.4038  0.5314
    9TMC1    C6  136   3.778   4.451  10.292  0.9190 -0.3159  0.0149
    9TMC1     C  137   3.498   4.430  10.568  0.5364 -0.3192 -0.0264
    9TMC1     O  138   3.563   4.500  10.644 -0.6798 -0.2414 -0.0872
    9TMC1     H  139   3.543   4.233  10.404  0.9470  0.8930  1.5095
    9TMC1    H1  140   3.564   4.657  10.453 -1.5707 -1.1724 -0.1305
    9TMC1    H2  141   3.872   4.453  10.238  0.9558  0.4275  0.1011
    9TMC1    C7  142   3.791   4.690  10.338 -0.1698 -0.6546 -0.4725
    9TMC1    C8  143   3.731   4.214  10.232  0.8597  0.3256  0.0804
    9TMC1    O1  144   3.734   0.055  10.311 -0.1275 -0.0822 -0.2585
    9TMC1    O2  145   3.644   4.143  10.189  0.0733  0.0927  0.0465
    9TMC1    O3  146   3.917   4.682  10.379  0.3816 -0.6706 -0.0314
    9TMC1    H3  147   3.932   4.601  10.432 -0.1098 -0.2476  0.7433
    9TMC1    O5  148   3.853   4.225  10.183  0.3223  0.3502  0.0687
    9TMC1    H5  149   3.905   4.259  10.259 -0.6842 -0.5264  1.1469
   10MPD2     C  150   3.418   4.354  10.845 -0.0142  0.2568 -0.5117
   10MPD2    C1  151   3.396   4.273  10.735  0.4017  0.3762  0.2550
   10MPD2    C2  152   3.355   4.139  10.760  0.2286  0.1373  0.6895
   10MPD2    C3  153   3.323   4.092  10.885  0.7108  0.0883  0.9405
   10MPD2    C4  154   3.336   4.178  10.991 -0.1470 -0.5219 -0.0466
   10MPD2    C5  155   3.384   4.306  10.967 -0.3973  0.5959 -0.2204
   10MPD2     H  156   3.348   4.068  10.678  1.0665  0.7340  0.1042
   10MPD2    H1  157   3.321   4.146  11.093 -0.6674  0.2583  0.1172
   10MPD2    H2  158   3.452   4.457  10.839  0.4402  0.0449 -1.5493
   10MPD2    H3  159   3.387   4.372  11.052 -0.0937 -1.0638  1.0524
   10MPD2     N  160   3.272   3.964  10.916  0.4019  0.1930  0.2809
   10MPD2    H5  161   3.250   3.953  11.015 -0.2234 -2.3781 -0.1452
   10MPD2    N1  162   3.421   4.317  10.603  0.6054  0.3853 -0.0916
   10MPD2    H7  163   3.380   4.261  10.528  0.2416  1.0868 -0.4219
   11TCq1    O1  164   4.326   3.304  13.968  0.0224 -0.0015 -0.3246
   11TCq1    C1  165   4.247   3.221  13.898 -0.0944  0.1688  0.0280
   11TCq1    O2  166   4.251   3.099  13.899 -0.3116  0.1438 -0.4912
   11TCq1    C2  167   4.119   3.257  13.962 -0.0487  0.7570  0.1632
   11TCq1    C3  168   4.112   3.348  14.066 -0.0883  0.2630 -0.1242
   11TCq1    C4  169   3.993   3.371  14.124 -0.3280  0.0083  0.9673
   11TCq1    C5  170   3.886   3.294  14.089  0.1957 -0.3516  0.5381
   11TCq1    C6  171   3.889   3.203  13.986  0.3551 -0.9521 -0.1560
   11TCq1    C7  172   4.010   3.188  13.915  0.5103  0.3378 -0.4471
   11TCq1    C8  173   3.774   3.116  13.969  0.3894 -0.3485  0.5661
   11TCq1    O4  174   3.661   3.152  13.996 -1.0326  0.4627 -0.2979
   11TCq1    C9  175   3.988   3.478  14.221  0.1249  0.1908  0.3479
   11TCq1    O5  176   3.891   3.478  14.306 -0.4546 -0.1601  0.3824
   11TCq1    O6  177   4.083   3.560  14.223 -0.0561  0.5410  0.3629
   11TCq1    H1  178   4.325   3.394  13.929  2.8261  0.2644  0.2135
   11TCq1    H2  179   4.197   3.402  14.107 -0.5487  0.7899  0.1240
   11TCq1    H3  180   3.790   3.313  14.137 -0.0936 -0.3483 -0.0401
   11TCq1    H4  181   4.014   3.110  13.839 -0.1449 -0.3756  0.2471
   12MPD2     C  182   3.581   2.907  13.876  0.1186  0.2825  0.1437
   12MPD2    C1  183   3.718   2.895  13.858 -0.1639  0.1525 -0.5179
   12MPD2    C2  184   3.774   2.773  13.814  0.3568  0.2245 -0.2486
   12MPD2    C3  185   3.686   2.668  13.780 -0.1474 -0.0212  0.5981
   12MPD2    C4  186   3.552   2.688  13.795  0.7859 -0.3639 -0.0441
   12MPD2    C5  187   3.501   2.807  13.839  0.6550  0.5787 -0.2908
   12MPD2     H  188   3.881   2.753  13.821  0.4883  0.5686 -1.2426
   12MPD2    H1  189   3.482   2.615  13.758  0.9768 -0.7522  0.3557
   12MPD2    H2  190   3.528   2.988  13.926  1.0621  0.6547  0.5461
   12MPD2    H3  191   3.393   2.814  13.846  0.6193  0.0201 -0.2479
   12MPD2     N  192   3.723   2.538  13.735 -0.0255  0.0219  0.2912
   12MPD2    H5  193   3.647   2.473  13.724  0.1648 -0.0632 -0.5230
   12MPD2    N1  194   3.808   2.995  13.908 -0.2617  0.2222  0.9967
   12MPD2    H7  195   3.907   2.975  13.898  0.2590  1.3946  3.8474
   13TCq1    O1  196   3.694   4.479  10.878 -0.3600  0.2919  0.1491
   13TCq1    C1  197   3.736   4.358  10.927  0.0936  0.2374 -0.0788
   13TCq1    O2  198   3.702   4.309  11.034  0.1887 -0.5394  0.3099
   13TCq1    C2  199   3.785   4.284  10.809  1.3994 -0.2569  0.4381
   13TCq1    C3  200   3.869   4.348  10.724  0.1844  0.4873  0.0759
   13TCq1    C4  201   3.899   4.284  10.606  0.2988  0.1209 -0.4320
   13TCq1    C5  202   3.860   4.154  10.591  0.2260  0.2497  0.1650
   13TCq1    C6  203   3.768   4.095  10.677 -0.8425 -0.8711 -0.1233
   13TCq1    C7  204   3.723   4.167  10.784 -0.1097  0.0540 -0.2656
   13TCq1    C8  205   3.673   3.995  10.630 -0.0433 -0.2101 -0.0441
   13TCq1    O4  206   3.596   3.951  10.714 -0.1113 -0.8780  0.3433
   13TCq1    C9  207   3.981   4.349  10.510  0.7349  0.5096  0.0651
   13TCq1    O5  208   4.008   4.472  10.519 -0.0868  0.0916  0.5977
   13TCq1    O6  209   3.996   4.284  10.404  0.7469 -0.3854  0.1027
   13TCq1    H1  210   3.697   4.469  10.781  0.0371  0.1843  0.1712
   13TCq1    H2  211   3.912   4.445  10.741 -1.1308  0.8039  1.5923
   13TCq1    H3  212   3.887   4.109  10.496 -1.4461  1.9219 -1.1164
   13TCq1    H4  213   3.646   4.126  10.847  0.3503  0.6770  0.7033
   14MPD2     C  214   3.628   3.834  10.297 -0.3080  0.1952 -0.7349
   14MPD2    C1  215   3.598   3.879  10.426 -0.3197 -0.4956 -0.2119
   14MPD2    C2  216   3.476   3.850  10.473 -0.8028  0.4240 -0.1952
   14MPD2    C3  217   3.379   3.778  10.397  0.5857 -0.2653  0.4603
   14MPD2    C4  218   3.412   3.748  10.266 -0.2545 -0.2383  0.4194
   14MPD2    C5  219   3.534   3.773  10.217  0.4345  0.1506 -0.2085
   14MPD2     H  220   3.448   3.891  10.569 -2.8525  1.2371 -1.1331
   14MPD2    H1  221   3.338   3.721  10.191 -0.2411 -2.7507  1.3223
   14MPD2    H2  222   3.722   3.862  10.252 -0.0401  0.8953  0.2576
   14MPD2    H3  223   3.563   3.757  10.114 -0.4167  0.2836 -0.4665
   14MPD2     N  224   3.253   3.780  10.455  0.2436  0.0241 -0.8586
   14MPD2    H5  225   3.243   3.821  10.547  0.8420 -0.5001 -0.5502
   14MPD2    N1  226   3.694   3.954  10.501  0.0820 -0.0179  0.0183
   14MPD2    H7  227   3.781   3.981  10.455 -0.0150 -0.7232 -0.5951
   15TCq1    O1  228   0.374   2.551   1.898 -0.1548  0.1245 -0.5520
   15TCq1    C1  229   0.484   2.581   1.835 -0.2924 -0.3349  0.8893
   15TCq1    O2  230   0.577   2.504   1.831  0.2486 -0.1642  0.1743
   15TCq1    C2  231   0.418   2.613   1.709 -0.1997  0.0551 -0.4910
   15TCq1    C3  232   0.367   2.736   1.687  0.5325 -0.2132  0.1249
   15TCq1    C4  233   0.275   2.752   1.588  0.1191  0.2324  0.6850
   15TCq1    C5  234   0.249   2.649   1.496  0.2402 -0.0564  0.3976
   15TCq1    C6  235   0.298   2.524   1.522  0.6488  0.3392  0.4499
   15TCq1    C7  236   0.377   2.501   1.639 -0.0945 -0.2125 -0.4650
   15TCq1    C8  237   0.281   2.416   1.426  0.9281 -0.1110 -0.9708
   15TCq1    O4  238   0.348   2.317   1.449 -0.1223  0.0726 -0.1624
   15TCq1    C9  239   0.214   2.879   1.566  0.3869 -0.3467  0.1040
   15TCq1    O5  240   0.248   2.967   1.647  0.9772 -0.1639 -0.3883
   15TCq1    O6  241   0.134   2.890   1.472 -0.5602 -0.5076  0.0931
   15TCq1    H1  242   0.295   2.596   1.862  0.2819  0.8453 -0.6042
   15TCq1    H2  243   0.397   2.821   1.747 -2.1885  0.0389  1.0888
   15TCq1    H3  244   0.179   2.667   1.416  0.2129 -2.0611 -0.0245
   15TCq1    H4  245   0.427   2.407   1.659  0.4028  0.0709 -0.3635
   16MPD2     C  246   0.115   2.429   1.089 -0.4048 -0.5726  0.4157
   16MPD2    C1  247   0.183   2.369   1.199 -0.0306 -0.5944 -0.1006
   16MPD2    C2  248   0.204   2.234   1.201  0.0090  0.2279  0.0110
   16MPD2    C3  249   0.186   2.160   1.081 -0.1507  0.6386  0.6398
   16MPD2    C4  250   0.101   2.217   0.987 -0.5044  0.5290 -0.4517
   16MPD2    C5  251   0.067   2.345   0.990  0.0063 -0.1036 -0.8267
   16MPD2     H  252   0.261   2.197   1.286 -1.5499 -1.2969  0.4006
   16MPD2    H1  253   0.063   2.165   0.900  2.0498 -0.3882 -1.0270
   16MPD2    H2  254   0.097   2.536   1.081 -0.7009 -0.9741 -4.5533
   16MPD2    H3  255   0.001   2.378   0.911  0.9008 -0.3560 -1.6704
   16MPD2     N  256   0.257   2.040   1.066  0.5908 -0.5075  0.2367
   16MPD2    H5  257   0.317   2.007   1.140  2.1411  0.7098 -0.4768
   16MPD2    N1  258   0.227   2.455   1.310 -0.4546 -0.1111 -0.1249
   16MPD2    H7  259   0.200   2.552   1.300  1.8781  0.4685 -0.7308
   17TMC1    C1  260   3.598   4.055   9.814 -0.4957 -0.9340  0.4659
   17TMC1    C2  261   3.547   4.120   9.706 -0.4566 -0.6135 -0.5077
   17TMC1    C3  262   3.419   4.171   9.718  0.0237 -0.4108  0.0909
   17TMC1    C4  263   3.533   4.051   9.932  0.1757 -0.4679  0.4525
   17TMC1    C5  264   3.408   4.108   9.940 -0.0083  0.4291 -0.2073
   17TMC1    C6  265   3.344   4.162   9.831 -0.5915  0.1170 -1.2206
   17TMC1     C  266   3.733   3.996   9.800  0.4514  0.1755 -0.7112
   17TMC1     O  267   3.769   3.967   9.689 -0.0093 -0.5087 -0.4967
   17TMC1     H  268   3.606   4.120   9.615  0.6826 -2.7051  0.2393
   17TMC1    H1  269   3.578   3.991  10.011  0.9453  0.9334  1.0868
   17TMC1    H2  270   3.238   4.185   9.837 -1.0499 -2.7081  1.1209
   17TMC1    C7  271   3.327   4.031  10.039 -0.5805  0.7863  0.0103
   17TMC1    C8  272   3.348   4.194   9.594 -0.8467  0.3434  0.5689
   17TMC1    O1  273   3.206   4.023  10.023  0.2161  0.2816  0.5460
   17TMC1    O2  274   3.265   4.113   9.552  0.3465 -0.0317 -0.2488
   17TMC1    O3  275   3.391   4.042  10.157 -0.3664  0.6286 -0.2083
   17TMC1    H3  276   3.468   4.102  10.148 -0.3671  0.3637 -1.9500
   17TMC1    O5  277   3.432   4.269   9.527 -0.0434 -0.1891 -0.1318
   17TMC1    H5  278   3.501   4.308   9.585  1.5534  0.5305 -2.5108
   18MPD2     C  279   3.998   3.862   9.864 -0.0315 -0.4160  0.1289
   18MPD2    C1  280   3.922   3.933   9.954 -0.6226  0.1846 -0.3720
   18MPD2    C2  281   3.965   3.926  10.087  0.3340  0.9878 -0.0042
   18MPD2    C3  282   4.088   3.865  10.115  0.5660 -0.4995 -0.0628
   18MPD2    C4  283   4.164   3.811  10.014 -0.8206 -0.6556 -0.1265
   18MPD2    C5  284   4.114   3.804   9.887  0.2445  0.3461 -0.1181
   18MPD2     H  285   3.904   3.980  10.158 -0.3623 -1.0378  0.9401
   18MPD2    H1  286   4.261   3.766  10.032 -0.6518 -0.6930 -1.1304
   18MPD2    H2  287   3.961   3.862   9.761  2.0577  2.1618 -0.6228
   18MPD2    H3  288   4.169   3.753   9.808 -1.1977  2.4099 -2.4254
   18MPD2     N  289   4.124   3.833  10.243 -0.3972 -0.1266  0.0774
   18MPD2    H5  290   4.211   3.784  10.258 -0.8479 -0.6516  0.9838
   18MPD2    N1  291   3.795   3.997   9.920 -0.5799  0.5992  0.3535
   18MPD2    H7  292   3.742   4.049   9.990  1.2802 -0.6778  2.7094
   19TMC2    C1  293   4.684   2.857  14.502  0.0528 -0.1310  0.0736
   19TMC2    C2  294   4.577   2.904  14.571 -0.0895  0.1375  0.1364
   19TMC2    C3  295   4.455   2.842  14.555  0.7626 -0.1886  0.3354
   19TMC2    C4  296   4.675   2.745  14.428 -0.0528  0.1124 -0.4916
   19TMC2    C5  297   4.557   2.680  14.436  0.3139  0.2868  0.5903
   19TMC2    C6  298   4.445   2.720  14.504  0.2884  0.5178 -0.7041
   19TMC2     C  299   0.072   2.924  14.512  0.6384  0.5155 -0.5398
   19TMC2     O  300   0.071   3.024  14.583  0.1044 -1.2142  0.2568
   19TMC2     H  301   4.584   2.998  14.624  1.1361  1.4896 -2.4278
   19TMC2    H1  302   0.013   2.710  14.363  0.1182  1.0196 -0.7688
   19TMC2    H2  303   4.352   2.665  14.513  1.0856 -0.9863 -1.7058
   19TMC2    C7  304   4.554   2.549  14.383 -0.2424 -0.2815 -0.3834
   19TMC2    C8  305   4.342   2.883  14.634  0.5642 -0.1597  0.2178
   19TMC2    O1  306   4.658   2.486  14.394  0.3656  0.4622 -0.6948
   19TMC2    O2  307   4.268   2.812  14.695  0.0928 -0.2165  0.6641
   19TMC2    O5  308   4.321   3.010  14.597 -0.2599 -0.1597 -0.4899
   19TMC2    H5  309   4.391   3.038  14.535  0.9845  0.8648  1.3686
   20MPD2     C  310   0.337   3.042  14.469 -0.3300 -0.0263 -0.3759
   20MPD2    C1  311   0.299   2.919  14.430  0.1980 -1.0531 -0.0009
   20MPD2    C2  312   0.400   2.839  14.385 -0.1617  0.5880  0.0531
   20MPD2    C3  313   0.535   2.877  14.383  0.2627 -0.3044 -0.3929
   20MPD2    C4  314   0.573   3.004  14.419  0.2235 -0.3076  0.5033
   20MPD2    C5  315   0.470   3.086  14.460 -0.2098  0.1979 -0.0407
   20MPD2     H  316   0.380   2.738  14.351  0.7302  0.4742 -0.1389
   20MPD2    H1  317   0.677   3.033  14.414 -0.1177  1.2832  2.8536
   20MPD2    H2  318   0.273   3.122  14.503  1.1021  0.7848  0.3970
   20MPD2    H3  319   0.493   3.186  14.494 -0.9542  1.2865 -2.7300
   20MPD2     N  320   0.640   2.782  14.340  0.1258  0.2427 -0.7125
   20MPD2    H5  321   0.728   2.831  14.327  0.9459 -0.6939  1.3414
   20MPD2    N1  322   0.171   2.866  14.437  0.5498 -0.5630  0.4940
   20MPD2    H7  323   0.150   2.784  14.381 -2.0212  0.8503 -0.6364
   21TMC2    C1  324   1.997   3.451  14.424 -0.2385  0.0141  0.4402
   21TMC2    C2  325   1.970   3.346  14.509  1.1113 -0.0625 -0.4362
   21TMC2    C3  326   1.851   3.341  14.575 -0.0412 -0.0608  0.1082
   21TMC2    C4  327   1.911   3.551  14.406 -0.0529  0.1142  0.0736
   21TMC2    C5  328   1.790   3.539  14.465  0.1944 -0.1529 -0.8505
   21TMC2    C6  329   1.758   3.437  14.554 -0.0448  0.1665  0.3789
   21TMC2     C  330   2.123   3.458  14.353  0.7408  1.0064 -0.0876
   21TMC2     O  331   2.201   3.366  14.382  0.2802 -0.5349  0.5510
   21TMC2     H  332   2.049   3.272  14.514  1.3838  0.3118  0.8689
   21TMC2    H1  333   1.939   3.645  14.358  0.7770 -0.4741 -0.6114
   21TMC2    H2  334   1.664   3.439  14.608 -0.0600 -0.2061  0.3674
   21TMC2    C7  335   1.735   3.675  14.500  0.1587 -0.2396 -0.4528
   21TMC2    C8  336   1.797   3.227  14.644  0.2639  0.5553 -0.1201
   21TMC2    O1  337   1.673   3.694  14.602  0.4296  0.0307  0.1033
   21TMC2    O2  338   1.678   3.204  14.655  0.0063 -0.3155  0.9398
   21TMC2    O5  339   1.893   3.166  14.716 -0.0457 -0.2201  0.0375
   21TMC2    H5  340   1.987   3.196  14.712  0.3223 -1.1423  1.6500
   22MPD2     C  341   2.433   3.599  13.965  0.1807  0.5572 -0.0205
   22MPD2    C1  342   2.462   3.531  14.081 -0.5020  0.4394 -0.1583
   22MPD2    C2  343   2.365   3.509  14.175  0.8772  0.3035  0.7375
   22MPD2    C3  344   2.234   3.549  14.145  0.8210 -0.9716 -0.2805
   22MPD2    C4  345   2.205   3.616  14.032  0.2229  0.4343 -0.8432
   22MPD2    C5  346   2.304   3.653  13.945 -0.2434  0.2899 -0.5843
   22MPD2     H  347   2.384   3.444  14.260  3.2806 -1.5588 -1.2228
   22MPD2    H1  348   2.103   3.644  14.007 -0.4624 -1.4939 -0.2326
   22MPD2    H2  349   2.511   3.604  13.890 -0.2022 -0.6689 -0.4988
   22MPD2    H3  350   2.289   3.714  13.857  2.0228 -1.9137 -2.5032
   22MPD2     N  351   2.124   3.537  14.238 -0.3591 -0.6161 -0.0703
   22MPD2    H5  352   2.048   3.602  14.218 -0.3853 -0.9582 -1.0856
   22MPD2    N1  353   2.590   3.493  14.103  0.2135  1.1449  0.3540
   22MPD2    H7  354   2.652   3.483  14.023 -0.9225  3.8580 -0.8777
   23TMC2    C1  355   3.229   4.642  14.293 -0.7324  0.0897 -0.3582
   23TMC2    C2  356   3.250   0.002  14.205  0.6099  0.2511 -0.2951
   23TMC2    C3  357   3.136   0.056  14.159 -0.6054  0.3117  0.4143
   23TMC2    C4  358   3.107   4.596  14.337 -0.0806 -0.1748 -0.4609
   23TMC2    C5  359   2.995   4.649  14.277  0.0609 -0.3227  0.3809
   23TMC2    C6  360   3.012   0.012  14.189 -0.1662 -0.4903  0.3207
   23TMC2     C  361   3.344   4.566  14.355  0.3157  0.5249 -0.5044
   23TMC2     O  362   3.319   4.477  14.437 -0.6120 -0.1893 -0.2102
   23TMC2     H  363   3.341   0.028  14.153  0.7845 -1.9391 -1.0544
   23TMC2    H1  364   3.096   4.517  14.410 -1.0047 -1.0659 -1.5559
   23TMC2    H2  365   2.926   0.074  14.166  0.8626  0.8683  0.1238
   23TMC2    C7  366   2.869   4.571  14.282 -0.1459  0.2191 -0.2763
   23TMC2    C8  367   3.163   0.170  14.080  0.3271 -0.4354  0.3612
   23TMC2    O1  368   2.846   4.503  14.380 -0.5633  0.2122 -0.1438
   23TMC2    O2  369   3.255   0.245  14.093 -0.2293  0.8307 -0.0828
   23TMC2    O5  370   3.051   0.210  14.015 -0.2319  0.2510  0.0411
   23TMC2    H5  371   2.994   0.131  14.002 -0.6532  0.6249 -0.3469
   24MPD2     C  372   3.866   4.517  14.397  0.3236  0.0757  0.5904
   24MPD2    C1  373   3.766   4.467  14.476 -0.2488  0.3473 -0.2953
   24MPD2    C2  374   3.629   4.494  14.443 -0.3274  0.2012 -0.7673
   24MPD2    C3  375   3.597   4.575  14.337  0.1862 -0.7346  1.2218
   24MPD2    C4  376   3.704   4.626  14.266 -0.3222  0.1395  0.1008
   24MPD2    C5  377   3.833   4.605  14.297 -0.2406  0.0315  0.1417
   24MPD2     H  378   3.554   4.442  14.503  1.0621  0.0749  0.8557
   24MPD2    H1  379   3.686   4.697  14.186 -2.9821 -1.7323 -1.0014
   24MPD2    H2  380   3.972   4.509  14.418  0.4061 -0.3385  0.0326
   24MPD2    H3  381   3.905   4.665  14.242  0.9893  0.3854  2.1282
   24MPD2     N  382   3.465   4.614  14.301 -0.5919 -0.6891 -0.4730
   24MPD2    H5  383   3.456   4.691  14.235  0.3396  1.5392  2.0227
   24MPD2    N1  384   3.791   4.396  14.594 -0.3709  0.1930  0.8873
   24MPD2    H7  385   3.708   4.373  14.649 -0.4626  1.2037  1.1820
   25TMC2    C1  386   2.731   2.936  11.469 -0.1284  0.3283  0.5517
   25TMC2    C2  387   2.839   2.998  11.522  0.1756 -0.5063 -0.0893
   25TMC2    C3  388   2.832   3.036  11.646  0.3631  0.6647  0.5004
   25TMC2    C4  389   2.611   2.902  11.540 -0.2070 -0.8679 -0.1695
   25TMC2    C5  390   2.609   2.964  11.663  0.7169 -0.1723  0.4089
   25TMC2    C6  391   2.720   3.012  11.723  0.0246 -0.2116 -0.5754
   25TMC2     C  392   2.735   2.916  11.329  0.2279 -0.6583  0.5043
   25TMC2     O  393   2.811   2.985  11.267 -0.1538 -0.6292  0.5444
   25TMC2     H  394   2.924   3.023  11.458  0.2772 -0.3647  0.1005
   25TMC2    H1  395   2.520   2.874  11.487 -0.8848  1.3895 -0.2156
   25TMC2    H2  396   2.720   3.036  11.829  2.1287 -0.3679 -0.5252
   25TMC2    C7  397   2.493   2.936  11.754 -0.7923 -0.2193 -0.0796
   25TMC2    C8  398   2.960   3.047  11.703  0.5160 -0.1648  0.0032
   25TMC2    O1  399   2.521   2.922  11.874 -0.2007  0.8501  0.6932
   25TMC2    O2  400   3.059   3.011  11.640 -0.3040  0.0489  0.3271
   25TMC2    O5  401   2.961   3.118  11.817 -0.1590 -0.2901  0.0141
   25TMC2    H5  402   2.881   3.173  11.834 -0.2992  0.0681 -1.7577
   26MPD2     C  403   2.547   2.768  10.886 -0.6624  0.8865  0.4913
   26MPD2    C1  404   2.455   2.727  10.983 -0.2203 -0.3104 -0.1630
   26MPD2    C2  405   2.478   2.768  11.113  0.4333 -0.3887 -0.4566
   26MPD2    C3  406   2.595   2.829  11.145 -0.1577  0.0134 -0.2530
   26MPD2    C4  407   2.684   2.868  11.047  0.2740 -0.3424  0.4447
   26MPD2    C5  408   2.661   2.831  10.918  0.6141 -0.8139 -0.2978
   26MPD2     H  409   2.407   2.745  11.191  1.4331  0.5388  0.7190
   26MPD2    H1  410   2.773   2.926  11.068 -0.9823  1.6076  0.4017
   26MPD2    H2  411   2.523   2.745  10.782  0.3502  0.5618  0.3205
   26MPD2    H3  412   2.720   2.859  10.832  0.6474 -1.0556 -0.3546
   26MPD2     N  413   2.623   2.853  11.279  0.3975 -0.3035  0.3329
   26MPD2    H5  414   2.562   2.808  11.346  0.4301 -0.6024  0.1593
   26MPD2    N1  415   2.340   2.648  10.945  0.2781  0.0418  0.5180
   26MPD2    H7  416   2.349   2.620  10.848 -1.7286  1.9310 -0.2063
   27TMC2    C1  417   1.013   4.088  11.626  0.1288 -0.1460  0.5152
   27TMC2    C2  418   1.080   4.013  11.529  0.3181  0.1526 -0.3369
   27TMC2    C3  419   1.210   4.036  11.506  0.3998 -0.1474  0.0631
   27TMC2    C4  420   1.088   4.172  11.711 -0.5533  0.6547 -0.2641
   27TMC2    C5  421   1.222   4.194  11.675  0.1790 -0.6069  0.4347
   27TMC2    C6  422   1.291   4.115  11.586  0.5043  0.3324  0.3494
   27TMC2     C  423   0.886   4.035  11.680  0.0118 -0.1505  0.0272
   27TMC2     O  424   0.838   3.943  11.615  0.2146 -0.4011 -0.6471
   27TMC2     H  425   1.032   3.933  11.474 -0.3117 -0.7215  1.4950
   27TMC2    H1  426   1.049   4.209  11.805 -0.4450  0.3432 -0.0973
   27TMC2    H2  427   1.395   4.137  11.565  0.7113  1.1461  2.3060
   27TMC2    C7  428   1.291   4.258  11.780  0.4785 -0.8966 -0.1505
   27TMC2    C8  429   1.271   3.944  11.413 -0.0480  0.2590 -0.6937
   27TMC2    O1  430   1.250   4.365  11.824 -0.0064 -0.0181  0.2439
   27TMC2    O2  431   1.249   3.824  11.422  0.2936  0.1176  0.2930
   27TMC2    O5  432   1.396   3.978  11.388 -0.0322  0.5203 -0.0578
   27TMC2    H5  433   1.406   4.075  11.377 -0.9107  0.4538 -1.5535
   28MPD2     C  434   0.501   3.981  12.008 -0.1623 -0.3658  0.4299
   28MPD2    C1  435   0.570   4.089  12.049 -0.1579 -0.1589  0.1160
   28MPD2    C2  436   0.690   4.109  11.986 -0.6485 -0.4335 -0.2030
   28MPD2    C3  437   0.731   4.047  11.869 -0.3844  0.1190 -0.4149
   28MPD2    C4  438   0.643   3.951  11.821  0.9092 -0.1083 -0.4013
   28MPD2    C5  439   0.526   3.921  11.886  0.7287  0.4879 -0.0546
   28MPD2     H  440   0.758   4.180  12.031  0.6142 -1.5073 -0.4316
   28MPD2    H1  441   0.657   3.886  11.736 -0.4290 -2.2558  1.0065
   28MPD2    H2  442   0.413   3.953  12.066  0.2159 -1.0451  0.6719
   28MPD2    H3  443   0.463   3.838  11.857  0.1791 -0.0306  2.6246
   28MPD2     N  444   0.842   4.083  11.797  0.4432 -0.4655 -0.0046
   28MPD2    H5  445   0.901   4.151  11.844  1.3343 -0.3725 -1.2308
   28MPD2    N1  446   0.528   4.162  12.163  0.3403  0.2880  0.9427
   28MPD2    H7  447   0.435   4.138  12.197  0.0469 -0.8990 -0.6731
   29TMC2    C1  448   0.983   1.683  14.502  0.1807  0.4739 -0.7036
   29TMC2    C2  449   0.989   1.687  14.639  0.1992 -0.1084  0.4646
   29TMC2    C3  450   0.996   1.813  14.694 -0.3984  0.0299 -0.6862
   29TMC2    C4  451   0.975   1.796  14.424 -0.8477  0.0612 -0.3553
   29TMC2    C5  452   0.978   1.916  14.480  0.6604 -0.8552  0.1780
   29TMC2    C6  453   0.991   1.927  14.617  0.2878 -0.1009 -0.2568
   29TMC2     C  454   0.970   1.550  14.450  0.5325 -0.4731  0.2211
   29TMC2     O  455   1.023   1.463  14.522 -0.2803 -0.8466  0.2065
   29TMC2     H  456   0.985   1.596  14.698 -2.1196 -0.6481 -0.5291
   29TMC2    H1  457   0.976   1.798  14.316  0.3028  0.1980 -0.3386
   29TMC2    H2  458   0.981   2.023  14.666 -1.2921 -2.1149  3.3900
   29TMC2    C7  459   1.006   2.023  14.388 -1.0121  0.0357  0.1490
   29TMC2    C8  460   1.047   1.819  14.832  0.1807 -0.0489  0.1894
   29TMC2    O1  461   0.951   2.018  14.278 -0.0304 -0.3025 -0.5386
   29TMC2    O2  462   1.004   1.740  14.913 -0.1368  0.4749  0.9701
   29TMC2    O5  463   1.123   1.926  14.841  0.3050  0.1445 -0.1069
   29TMC2    H5  464   1.161   1.937  14.751 -1.4603 -1.3235 -1.0378
   30MPD2     C  465   0.801   1.232  14.088  0.3464 -0.1602  0.2724
   30MPD2    C1  466   0.882   1.209  14.200 -0.0054 -0.1830 -0.4780
   30MPD2    C2  467   0.912   1.314  14.283  0.6279  0.4759 -0.1492
   30MPD2    C3  468   0.877   1.442  14.244 -0.3386 -0.3937  0.4630
   30MPD2    C4  469   0.810   1.459  14.124 -0.6755 -0.8270  0.1760
   30MPD2    C5  470   0.772   1.361  14.046 -0.6298  0.3692  0.4261
   30MPD2     H  471   0.974   1.301  14.371  1.4082 -1.9545 -1.0594
   30MPD2    H1  472   0.765   1.554  14.099 -0.3572 -1.1046 -1.4391
   30MPD2    H2  473   0.774   1.157  14.016  0.8987  0.9715 -1.1248
   30MPD2    H3  474   0.714   1.379  13.957 -2.1420 -2.1790  0.9128
   30MPD2     N  475   0.902   1.552  14.326 -0.5289 -0.0480 -0.3086
   30MPD2    H5  476   0.860   1.638  14.293 -1.1014 -0.8469 -1.6539
   30MPD2    N1  477   0.934   1.078  14.234  0.1282  0.5777 -0.4090
   30MPD2    H7  478   0.999   1.078  14.312 -0.9516  1.7771  0.4786
   31TMC2    C1  479   3.363   0.250  15.156 -0.4208  0.3468 -0.1091
   31TMC2    C2  480   3.241   0.307  15.176  0.1726 -0.4340 -0.8315
   31TMC2    C3  481   3.198   0.320  15.310  0.5013 -0.2688  0.2571
   31TMC2    C4  482   3.453   0.225  15.259  0.4172 -0.3262 -0.1823
   31TMC2    C5  483   3.418   0.268  15.384 -0.1846 -0.2173  0.0290
   31TMC2    C6  484   3.286   0.304  15.410 -0.3837 -0.6931 -0.1057
   31TMC2     C  485   3.393   0.227  15.017  0.2896 -0.3019  0.4513
   31TMC2     O  486   3.326   0.291  14.940  0.2381 -0.1089  0.3522
   31TMC2     H  487   3.167   0.295  15.098  0.5182  0.2222 -1.2568
   31TMC2    H1  488   3.554   0.189  15.249  0.1221 -0.8476 -1.3608
   31TMC2    H2  489   3.251   0.326  15.510 -0.7700  0.9657 -0.5999
   31TMC2    C7  490   3.501   0.217  15.494  0.5712 -0.0395  0.2310
   31TMC2    C8  491   3.063   0.372  15.348 -0.3338 -0.2052  0.3282
   31TMC2    O1  492   3.576   0.123  15.477  0.6977  0.4792  0.2461
   31TMC2    O2  493   3.022   0.389  15.465 -0.1223 -0.2302 -0.5220
   31TMC2    O5  494   3.018   0.447  15.245 -0.2057  0.5217  0.1717
   31TMC2    H5  495   3.079   0.451  15.169  0.0211  1.2811  0.3993
   32MPD2     C  496   3.785   0.205  14.683 -0.0252 -0.0818 -0.2191
   32MPD2    C1  497   3.676   0.287  14.690  0.1972  0.1831 -0.4545
   32MPD2    C2  498   3.582   0.279  14.795  0.1347  0.3001 -0.4407
   32MPD2    C3  499   3.600   0.176  14.886 -0.0518 -0.5367  0.0134
   32MPD2    C4  500   3.711   0.095  14.886 -0.2754 -0.5411  0.0794
   32MPD2    C5  501   3.800   0.114  14.785 -0.4177  0.1693 -0.2520
   32MPD2     H  502   3.500   0.349  14.797  0.5548  0.7943 -0.4734
   32MPD2    H1  503   3.725   0.016  14.958  0.4091 -0.5329 -0.0409
   32MPD2    H2  504   3.871   0.221  14.619  0.2036 -0.1416  0.0731
   32MPD2    H3  505   3.896   0.065  14.782 -1.0657 -1.2632  2.3727
   32MPD2     N  506   3.519   0.159  15.002 -0.7813  0.4859  0.4738
   32MPD2    H5  507   3.555   0.109  15.082 -0.1603 -0.8618 -0.6651
   32MPD2    N1  508   3.681   0.397  14.603 -0.5110  0.1753  0.6020
   32MPD2    H7  509   3.768   0.427  14.561  0.0220 -4.7393 -1.8092
   33TMC2    C1  510   4.568   3.473   9.786  0.3920  0.2357  0.0228
   33TMC2    C2  511   4.513   3.359   9.743  0.2580 -0.3951  0.0767
   33TMC2    C3  512   4.446   3.361   9.623  0.3494  0.3467 -0.0141
   33TMC2    C4  513   4.561   3.587   9.714  0.7164 -0.2458  0.1572
   33TMC2    C5  514   4.498   3.584   9.597  0.2301 -0.0684  0.1069
   33TMC2    C6  515   4.429   3.473   9.547 -0.1216  0.3609  0.3303
   33TMC2     C  516   4.580   3.493   9.930  0.6534  0.1811  0.0457
   33TMC2     O  517   4.557   3.606   9.975 -0.2779  0.3678  0.0568
   33TMC2     H  518   4.504   3.274   9.810 -0.6207 -0.7138 -0.4468
   33TMC2    H1  519   4.604   3.673   9.764 -1.5596  1.3138 -0.5653
   33TMC2    H2  520   4.377   3.469   9.452 -1.7593  1.1248  1.2183
   33TMC2    C7  521   4.450   3.714   9.560  0.9476  0.2041  0.3544
   33TMC2    C8  522   4.413   3.235   9.559  0.7245 -0.3987 -0.3759
   33TMC2    O1  523   4.537   3.796   9.532  0.0570  0.0159 -0.2137
   33TMC2    O2  524   4.335   3.229   9.464  0.2030 -0.3385  0.3609
   33TMC2    O5  525   4.466   3.135   9.633 -0.6168 -0.5537 -0.6851
   33TMC2    H5  526   4.543   3.161   9.688 -0.5011 -0.8398 -0.7159
   34MPD2     C  527   4.602   3.312  10.404  0.0919 -0.0427  0.1849
   34MPD2    C1  528   4.539   3.422  10.351  0.2690  0.4268  1.0199
   34MPD2    C2  529   4.550   3.439  10.214 -0.1346 -0.0732 -0.0302
   34MPD2    C3  530   4.617   3.352  10.133 -0.2744  0.0799  0.1798
   34MPD2    C4  531   4.668   3.241  10.186 -0.2900  0.0523  0.1649
   34MPD2    C5  532   4.664   3.223  10.324  0.6935 -0.2435 -0.0949
   34MPD2     H  533   4.499   3.521  10.165 -0.1394 -0.1562 -0.1644
   34MPD2    H1  534   4.723   3.164  10.133 -1.2015 -2.4104  2.7801
   34MPD2    H2  535   4.603   3.295  10.511  0.1417 -2.5759 -0.2039
   34MPD2    H3  536   4.722   3.142  10.366 -1.4675 -1.4615  0.5386
   34MPD2     N  537   4.620   3.378   9.990 -0.1127  0.5895  0.1715
   34MPD2    H5  538   4.650   3.297   9.937 -0.9852  1.3750 -1.4987
   34MPD2    N1  539   4.471   3.511  10.436 -0.6573  0.0416 -0.2647
   34MPD2    H7  540   4.471   3.490  10.535 -1.2196 -1.9836 -0.6874
   35TMC2    C1  541   0.175   4.634  11.099  0.5314 -0.2340  0.4529
   35TMC2    C2  542   0.162   4.676  10.972 -0.0821 -0.5451  0.4463
   35TMC2    C3  543   0.057   4.650  10.894  0.3086 -0.0821  0.0832
   35TMC2    C4  544   0.080   4.552  11.149 -0.6709 -1.0584 -0.2207
   35TMC2    C5  545   4.706   4.528  11.067  0.7400  0.5189  0.5985
   35TMC2    C6  546   4.692   4.589  10.947 -0.7343 -0.8968 -0.0126
   35TMC2     C  547   0.291   4.673  11.183  0.0185  0.0271 -0.1354
   35TMC2     O  548   0.370   0.011  11.136 -0.1344 -0.0245  0.6622
   35TMC2     H  549   0.237   4.736  10.921 -0.6531 -0.3565 -0.1787
   35TMC2    H1  550   0.088   4.499  11.244  0.6468 -1.1137 -0.3631
   35TMC2    H2  551   4.606   4.586  10.881 -0.0015  0.5378 -1.0337
   35TMC2    C7  552   4.601   4.443  11.121  0.4310 -0.1896 -0.0049
   35TMC2    C8  553   0.042   4.713  10.768 -1.3977  0.9750 -1.0290
   35TMC2    O1  554   4.623   4.372  11.214 -0.5607 -0.0817  0.0492
   35TMC2    O2  555   0.104   0.073  10.734 -0.2175  0.1861 -0.5548
   35TMC2    O5  556   4.716   4.638  10.691  0.6384  0.8335  0.1885
   35TMC2    H5  557   4.671   4.556  10.723 -0.4894  0.5527 -2.0829
   36MPD2     C  558   0.555   4.671  11.632 -0.1961  1.0911 -0.4954
   36MPD2    C1  559   0.465   4.571  11.631 -0.2899 -0.6169  0.3019
   36MPD2    C2  560   0.380   4.552  11.527  0.3206  0.6650  0.1152
   36MPD2    C3  561   0.390   4.630  11.412 -0.1497 -0.3147 -0.3478
   36MPD2    C4  562   0.491   4.720  11.406  0.5808  0.0367  0.0347
   36MPD2    C5  563   0.571   4.741  11.516 -0.2812  0.6250  0.0025
   36MPD2     H  564   0.297   4.483  11.537 -0.6070  1.5416 -1.3917
   36MPD2    H1  565   0.511   0.048  11.325  1.6733  2.6313  2.5401
   36MPD2    H2  566   0.609   4.706  11.719 -0.5153 -0.1637  0.1936
   36MPD2    H3  567   0.640   0.083  11.512  0.6453 -0.1264  0.3142
   36MPD2     N  568   0.294   4.615  11.307 -0.3575  0.1816 -0.7431
   36MPD2    H5  569   0.229   4.539  11.325  3.0430 -2.6104 -0.2728
   36MPD2    N1  570   0.461   4.491  11.743 -0.4860  0.6650 -0.5715
   36MPD2    H7  571   0.525   4.512  11.819  1.5446 -0.2084 -2.0592
   37TMC2    C1  572   2.455   0.543  11.380  0.6393  0.4780 -0.2152
   37TMC2    C2  573   2.456   0.618  11.266  0.0990  0.0563 -0.1598
   37TMC2    C3  574   2.567   0.622  11.186  0.6973  0.6654  0.3387
   37TMC2    C4  575   2.566   0.468  11.421  0.6172  0.5396  0.2022
   37TMC2    C5  576   2.674   0.472  11.334  0.3305 -0.5507  0.2602
   37TMC2    C6  577   2.674   0.537  11.212 -0.4400  0.5150 -0.4585
   37TMC2     C  578   2.325   0.502  11.430 -0.2085 -0.5269 -0.0616
   37TMC2     O  579   2.222   0.516  11.361 -0.3091 -0.5136 -0.0105
   37TMC2     H  580   2.371   0.680  11.238 -0.0406  0.4336  1.1002
   37TMC2    H1  581   2.554   0.386  11.492  0.5754 -0.1493 -0.6057
   37TMC2    H2  582   2.763   0.537  11.149 -1.1482  1.0983 -1.4684
   37TMC2    C7  583   2.762   0.360  11.352  0.0598 -0.4195  0.1222
   37TMC2    C8  584   2.591   0.726  11.088  0.9423  0.8947  0.2387
   37TMC2    O1  585   2.772   0.311  11.462 -0.0516 -0.0802  0.3895
   37TMC2    O2  586   2.497   0.799  11.048 -0.0637 -0.2265  0.2223
   37TMC2    O5  587   2.717   0.744  11.048 -0.2573  0.3859  1.1325
   37TMC2    H5  588   2.786   0.697  11.100 -0.7326 -0.7153  0.7695
   38MPD2     C  589   2.068   0.170  11.758 -0.0873 -0.0813  0.1877
   38MPD2    C1  590   2.203   0.181  11.783  1.5045  0.0096 -0.2417
   38MPD2    C2  591   2.277   0.274  11.716  0.0322 -0.6724  0.9061
   38MPD2    C3  592   2.229   0.351  11.618  0.4329  0.2584 -0.4226
   38MPD2    C4  593   2.094   0.340  11.586 -0.3734  0.2266  0.2466
   38MPD2    C5  594   2.018   0.256  11.656 -0.0842 -0.1044  1.0726
   38MPD2     H  595   2.383   0.252  11.705  0.2744  1.0828 -0.1589
   38MPD2    H1  596   2.055   0.409  11.512 -1.6728 -0.4894  0.2544
   38MPD2    H2  597   1.999   0.096  11.796  1.5172 -2.1297 -0.8324
   38MPD2    H3  598   1.912   0.241  11.636 -0.1105  0.3731  0.8643
   38MPD2     N  599   2.331   0.430  11.548 -0.1784 -0.0483 -0.2240
   38MPD2    H5  600   2.419   0.426  11.599 -0.3048  0.8938  0.0616
   38MPD2    N1  601   2.274   0.071  11.838  0.3598 -0.5588 -0.4949
   38MPD2    H7  602   2.375   0.073  11.829  0.5050 -0.5529  1.0626
   39TMC2    C1  603   0.948   1.587   1.386  0.3760  0.3069  0.7839
   39TMC2    C2  604   1.067   1.516   1.384 -0.1141  0.1141  0.6928
   39TMC2    C3  605   1.157   1.540   1.480  0.0594 -0.9936 -0.2274
   39TMC2    C4  606   0.926   1.683   1.479  0.2155  0.4201 -0.1081
   39TMC2    C5  607   1.026   1.716   1.568 -0.1138  0.3392  0.1904
   39TMC2    C6  608   1.141   1.642   1.569 -0.6831  0.4779  0.0035
   39TMC2     C  609   0.830   1.549   1.303  0.1516 -0.6524  0.0097
   39TMC2     O  610   0.722   1.594   1.335 -0.1630 -0.5933  0.4159
   39TMC2     H  611   1.090   1.434   1.317  1.1070 -0.3390  1.6730
   39TMC2    H1  612   0.833   1.737   1.488 -0.1984 -0.8388  3.3134
   39TMC2    H2  613   1.222   1.666   1.637 -0.4919 -0.2292  0.0192
   39TMC2    C7  614   1.032   1.856   1.627  0.2429 -0.1479 -0.4287
   39TMC2    C8  615   1.282   1.465   1.480 -0.0666 -0.5621 -0.2261
   39TMC2    O1  616   1.134   1.873   1.694 -0.4129  0.4187 -0.0285
   39TMC2    O2  617   1.315   1.391   1.390  0.5611  0.1446 -0.0555
   39TMC2    O5  618   1.297   1.418   1.607 -0.8690  0.2925 -0.7339
   39TMC2    H5  619   1.251   1.469   1.677 -2.7917 -1.6725 -0.5325
   40MPD2     C  620   0.832   1.351   0.994  0.7623  0.8104  0.1410
   40MPD2    C1  621   0.777   1.424   1.095 -0.2234  0.3504  0.4708
   40MPD2    C2  622   0.638   1.451   1.077 -0.1237 -0.8297 -1.2031
   40MPD2    C3  623   0.564   1.403   0.974 -0.0678 -0.5662  0.0693
   40MPD2    C4  624   0.630   1.326   0.876  0.0037  0.1414  1.6586
   40MPD2    C5  625   0.762   1.312   0.883  0.1376  0.3893  0.4999
   40MPD2     H  626   0.590   1.525   1.140  1.7513 -1.4417  0.9072
   40MPD2    H1  627   0.584   1.304   0.780 -2.5108 -2.2571  3.4319
   40MPD2    H2  628   0.939   1.334   0.997  0.3869 -1.2529  1.6878
   40MPD2    H3  629   0.820   1.262   0.806 -2.0152  0.0581 -0.8920
   40MPD2     N  630   0.431   1.431   0.958  0.0457  0.3126  0.1871
   40MPD2    H5  631   0.392   1.391   0.873  1.8391  1.2709 -1.0615
   40MPD2    N1  632   0.865   1.473   1.193 -0.1343  0.4329  0.5107
   40MPD2    H7  633   0.959   1.457   1.160 -0.1125 -0.2418  0.9182
   41TMC2    C1  634   4.172   4.560  13.357  0.3707 -0.2465 -0.6551
   41TMC2    C2  635   4.218   4.664  13.437 -0.2889 -0.2857  0.5612
   41TMC2    C3  636   4.239   0.041  13.378 -0.9372 -0.2411  0.6911
   41TMC2    C4  637   4.174   4.568  13.220  0.1045 -0.1470 -0.4481
   41TMC2    C5  638   4.195   4.683  13.163  0.6385 -0.3036 -0.1417
   41TMC2    C6  639   4.219   0.054  13.240  1.0203 -0.6013  1.1285
   41TMC2     C  640   4.107   4.446  13.414 -0.2934  0.6869 -0.2384
   41TMC2     O  641   4.031   4.379  13.345  0.6917 -0.3502  0.1268
   41TMC2     H  642   4.242   4.655  13.542 -1.0471 -1.5483  0.6301
   41TMC2    H1  643   4.146   4.487  13.153 -0.4585 -0.1491 -0.2078
   41TMC2    H2  644   4.235   0.155  13.204  1.0798 -0.9460  0.1947
   41TMC2    C7  645   4.194   4.689  13.018 -0.3391  0.4433  0.7884
   41TMC2    C8  646   4.301   0.140  13.462 -0.1211  0.5148  0.0011
   41TMC2    O1  647   4.243   4.590  12.962 -0.2128  0.0660 -0.1159
   41TMC2    O2  648   4.298   0.135  13.581  0.1177 -0.1234 -0.4699
   41TMC2    O5  649   4.327   0.248  13.392 -0.5614  0.5390  0.7818
   41TMC2    H5  650   4.362   0.225  13.303 -1.0909 -1.0661  0.9995
   42MPD2     C  651   4.036   4.220  13.585 -0.5462  0.6740 -0.6423
   42MPD2    C1  652   4.092   4.337  13.629  0.4420 -0.0367 -0.3189
   42MPD2    C2  653   4.117   4.341  13.759 -0.1663  0.0396  0.1158
   42MPD2    C3  654   4.082   4.246  13.855  0.1786 -0.4976 -0.2287
   42MPD2    C4  655   4.021   4.133  13.811 -0.3051  0.4199 -0.1393
   42MPD2    C5  656   4.008   4.117  13.672  0.3851  0.6792  0.0484
   42MPD2     H  657   4.170   4.431  13.791 -0.5984  0.3802 -0.1273
   42MPD2    H1  658   3.988   4.054  13.878 -0.3997  0.9563  0.4462
   42MPD2    H2  659   4.023   4.203  13.479 -1.3197  2.0633 -0.7660
   42MPD2    H3  660   3.950   4.030  13.644 -0.9934  1.1957  1.3331
   42MPD2     N  661   4.114   4.255  13.992 -0.0263  0.1862 -0.0614
   42MPD2    H5  662   4.120   4.170  14.047  0.1296  0.4294  0.3033
   42MPD2    N1  663   4.146   4.439  13.545  0.0748  0.0771 -0.3822
   42MPD2    H7  664   4.220   4.499  13.577  3.0099 -3.6365 -0.1666
   43TMC2    C1  665   1.068   2.724   0.570 -0.6973 -0.6295  0.6594
   43TMC2    C2  666   0.957   2.805   0.559  0.4524  0.1968 -0.6080
   43TMC2    C3  667   0.952   2.918   0.634  0.0006 -0.2306  0.1877
   43TMC2    C4  668   1.156   2.749   0.670 -0.7107  0.1592 -0.2332
   43TMC2    C5  669   1.129   2.846   0.759 -0.1665 -0.5786  0.0872
   43TMC2    C6  670   1.028   2.936   0.738  0.5527 -0.2142  0.1185
   43TMC2     C  671   1.115   2.645   0.454  0.6194  0.6225 -0.6326
   43TMC2     O  672   1.238   2.641   0.433  0.0537  0.4838 -0.6109
   43TMC2     H  673   0.890   2.794   0.475 -1.1339 -1.1072  0.8394
   43TMC2    H1  674   1.258   2.713   0.667 -0.0523  1.9624  0.9987
   43TMC2    H2  675   1.001   2.994   0.826 -0.9325 -2.6848  1.2840
   43TMC2    C7  676   1.225   2.868   0.863  0.3882  0.2953 -0.1561
   43TMC2    C8  677   0.836   3.007   0.618  0.2264 -0.4556 -0.0082
   43TMC2    O1  678   1.301   2.778   0.894 -0.3219  0.3110 -0.1194
   43TMC2    O2  679   0.732   2.968   0.573  0.0583 -0.5681  0.0180
   43TMC2    O5  680   0.860   3.122   0.678  0.2670 -0.1625 -0.2753
   43TMC2    H5  681   0.954   3.141   0.700  0.2033  1.5991 -1.5661
   44MPD2     C  682   1.039   2.378   0.024  0.7366 -0.2968  0.3835
   44MPD2    C1  683   1.156   2.408   0.094  0.1260  0.4528  0.0726
   44MPD2    C2  684   1.144   2.477   0.211 -0.4558  0.4989  0.1238
   44MPD2    C3  685   1.022   2.523   0.258  0.0772 -0.6812  0.1643
   44MPD2    C4  686   0.904   2.485   0.200  0.0670 -0.4698  0.4789
   44MPD2    C5  687   0.919   2.406   0.085  0.2583  0.7420  0.7800
   44MPD2     H  688   1.232   2.491   0.273 -0.9076  0.0909  0.8583
   44MPD2    H1  689   0.807   2.515   0.237 -0.0557  2.2205 -2.0866
   44MPD2    H2  690   1.031   2.317  17.696  2.0975 -0.7496  0.5644
   44MPD2    H3  691   0.823   2.380   0.041  0.4049  0.2378  0.7549
   44MPD2     N  692   1.015   2.600   0.378 -0.2054 -0.6004 -0.6354
   44MPD2    H5  693   0.926   2.636   0.411 -0.4904  0.1319 -2.2096
   44MPD2    N1  694   1.285   2.359   0.052  0.0577 -0.1518  0.9469
   44MPD2    H7  695   1.351   2.351   0.129  0.0547 -0.6358  0.9004
   45TMC2    C1  696   2.065   0.669   9.461 -0.2988  0.4632  0.0751
   45TMC2    C2  697   2.154   0.630   9.360 -0.3245 -0.6563 -0.0954
   45TMC2    C3  698   2.257   0.720   9.330  0.3643  0.0936 -0.5244
   45TMC2    C4  699   2.061   0.795   9.513  0.1325 -0.6801  0.3188
   45TMC2    C5  700   2.172   0.875   9.493  0.0269 -0.1513  0.0400
   45TMC2    C6  701   2.275   0.838   9.405 -0.4163  0.2928 -0.8161
   45TMC2     C  702   1.977   0.566   9.504 -0.1076  0.7313 -0.2301
   45TMC2     O  703   2.006   0.454   9.459  0.5893 -0.2932 -0.7561
   45TMC2     H  704   2.145   0.532   9.314 -0.3592 -1.3006  1.2651
   45TMC2    H1  705   1.996   0.826   9.594  2.9840  3.5750  0.9891
   45TMC2    H2  706   2.372   0.886   9.410  0.0042 -0.8533  2.3828
   45TMC2    C7  707   2.163   1.014   9.537  0.0139  0.1076 -0.2676
   45TMC2    C8  708   2.363   0.683   9.237 -0.5130 -0.5057  0.5493
   45TMC2    O1  709   2.090   1.029   9.635 -0.7980  0.1815 -0.1958
   45TMC2    O2  710   2.387   0.568   9.200 -0.2654  0.2544 -0.1304
   45TMC2    O5  711   2.409   0.796   9.187  0.0048  0.1877 -0.4564
   45TMC2    H5  712   2.379   0.885   9.217 -1.2182 -1.2280  2.4490
   46MPD2     C  713   1.759   0.379   9.600  0.1762 -0.2608 -0.3331
   46MPD2    C1  714   1.758   0.516   9.614 -0.1410  0.8780  0.6228
   46MPD2    C2  715   1.637   0.579   9.634  0.1332 -0.3501 -0.5241
   46MPD2    C3  716   1.520   0.508   9.644  0.0107  0.0925  0.4632
   46MPD2    C4  717   1.523   0.367   9.647 -0.5381 -0.5172  0.2192
   46MPD2    C5  718   1.642   0.307   9.612  0.6520 -0.2020  0.0941
   46MPD2     H  719   1.635   0.686   9.644 -0.5961 -0.1895 -2.3958
   46MPD2    H1  720   1.434   0.306   9.661  0.1284 -1.8039 -1.2449
   46MPD2    H2  721   1.848   0.323   9.573  0.1401  0.1418 -1.2933
   46MPD2    H3  722   1.648   0.199   9.608 -0.0297 -0.2199 -0.5544
   46MPD2     N  723   1.394   0.577   9.644  0.5283  0.6213 -0.5805
   46MPD2    H5  724   1.402   0.678   9.655  1.2926  0.6871 -1.8111
   46MPD2    N1  725   1.865   0.601   9.576 -0.1710 -0.7613 -1.0952
   46MPD2    H7  726   1.842   0.699   9.591 -0.7055 -0.9718 -0.5419
   47TMC2    C1  727   3.806   1.306   8.662 -1.0060  0.6448  0.4800
   47TMC2    C2  728   3.831   1.215   8.566 -0.4906 -0.1477 -0.1945
   47TMC2    C3  729   3.731   1.161   8.495 -0.7887  0.7958 -0.3905
   47TMC2    C4  730   3.677   1.339   8.688  0.1831  0.8130 -0.2297
   47TMC2    C5  731   3.575   1.289   8.610 -0.4474  0.4851  0.5730
   47TMC2    C6  732   3.601   1.194   8.514 -0.0733 -0.1783  0.1890
   47TMC2     C  733   3.914   1.363   8.734  0.0106 -0.1246  0.1591
   47TMC2     O  734   3.923   1.484   8.748 -0.1683  1.3089  0.4102
   47TMC2     H  735   3.931   1.200   8.526  0.6211  0.4199  2.3349
   47TMC2    H1  736   3.660   1.410   8.768 -3.0993  0.9624 -1.0584
   47TMC2    H2  737   3.524   1.131   8.471 -2.4832  2.4364  0.6937
   47TMC2    C7  738   3.445   1.287   8.674 -0.1598 -0.3684  0.0773
   47TMC2    C8  739   3.765   1.087   8.371  0.4417  1.2996  1.1221
   47TMC2    O1  740   3.438   1.315   8.794 -0.6581  0.0212 -0.0074
   47TMC2    O2  741   3.876   1.043   8.361  0.1317  0.0840 -0.0388
   47TMC2    O5  742   3.686   1.137   8.278 -0.2611  0.1694  0.1424
   47TMC2    H5  743   3.615   1.189   8.320 -1.5076 -2.0672  0.7831
   48MPD2     C  744   4.158   1.410   8.913  0.1033 -0.4161  0.9441
   48MPD2    C1  745   4.120   1.291   8.858  0.2139  0.2410 -0.6981
   48MPD2    C2  746   4.185   1.174   8.905 -0.3831  0.2173  0.1117
   48MPD2    C3  747   4.293   1.180   8.995 -0.0271 -0.7720 -0.7844
   48MPD2    C4  748   4.333   1.308   9.036  0.3205  0.4692 -0.5608
   48MPD2    C5  749   4.261   1.413   8.997  0.0899 -0.1930 -0.6640
   48MPD2     H  750   4.156   1.078   8.866 -1.6578 -0.2113  2.1413
   48MPD2    H1  751   4.424   1.326   9.092 -0.0215 -1.9298  0.7702
   48MPD2    H2  752   4.117   1.508   8.891  2.3777  0.3312 -0.0550
   48MPD2    H3  753   4.283   1.511   9.036  0.4862 -1.1083  1.4258
   48MPD2     N  754   4.352   1.063   9.043 -0.2480  0.1542  0.2818
   48MPD2    H5  755   4.318   0.979   8.997 -0.0992 -0.1451  0.7213
   48MPD2    N1  756   4.011   1.268   8.774 -0.4001 -0.0449  0.7696
   48MPD2    H7  757   4.000   1.170   8.750 -0.1992  0.4080 -1.2121
   49TMC2    C1  758   2.686   3.003  10.010  0.2140 -0.3359  0.1406
   49TMC2    C2  759   2.750   2.941   9.908 -0.5349 -0.5928 -0.7067
   49TMC2    C3  760   2.665   2.856   9.837 -0.0110 -0.1345  0.0392
   49TMC2    C4  761   2.558   2.985  10.048  0.1348 -0.3041  0.1719
   49TMC2    C5  762   2.481   2.891   9.976  0.4235  0.1609 -0.1915
   49TMC2    C6  763   2.532   2.830   9.869  0.2234  0.3137  0.1741
   49TMC2     C  764   2.757   3.111  10.069 -0.1870  0.3667 -0.5497
   49TMC2     O  765   2.832   3.169   9.992 -0.2217  0.0160 -0.1774
   49TMC2     H  766   2.858   2.945   9.898 -0.2458  0.6296  3.0842
   49TMC2    H1  767   2.514   3.050  10.123 -2.2285  0.7962 -2.1682
   49TMC2    H2  768   2.482   2.755   9.808 -1.4897  2.1482 -0.6899
   49TMC2    C7  769   2.351   2.845  10.025  0.0140  0.0040 -0.4163
   49TMC2    C8  770   2.717   2.774   9.731 -0.4708 -0.4745  0.7724
   49TMC2    O1  771   2.307   2.747   9.965  0.6353  0.1754  0.1211
   49TMC2    O2  772   2.662   2.675   9.686  0.1382  0.1345 -0.2235
   49TMC2    O5  773   2.799   2.845   9.654 -0.1981  0.3799 -0.0869
   49TMC2    H5  774   2.829   2.934   9.683  0.0572  0.4252 -0.4859
   50MPD2     C  775   2.854   3.321  10.257 -0.7570 -0.5253  0.0075
   50MPD2    C1  776   2.768   3.223  10.292  0.0960  0.6872 -0.1160
   50MPD2    C2  777   2.723   3.211  10.423 -0.0591 -0.0986  0.3634
   50MPD2    C3  778   2.762   3.300  10.524 -0.3824  0.2627 -0.3940
   50MPD2    C4  779   2.847   3.399  10.486 -0.4844 -0.0097  0.2103
   50MPD2    C5  780   2.888   3.406  10.358  0.0841 -0.6792 -0.3395
   50MPD2     H  781   2.660   3.125  10.442 -0.5834  0.7906  2.5915
   50MPD2    H1  782   2.890   3.470  10.556  2.7837 -0.6859 -1.1126
   50MPD2    H2  783   2.893   3.340  10.158  1.5855 -0.5666  0.9119
   50MPD2    H3  784   2.961   3.481  10.328 -1.1817  0.6397 -0.1251
   50MPD2     N  785   2.747   3.285  10.662  0.3483 -0.3827  0.0398
   50MPD2    H5  786   2.798   3.350  10.721  0.4120 -1.5027  1.2218
   50MPD2    N1  787   2.729   3.127  10.200  0.1608  0.0298  0.6338
   50MPD2    H7  788   2.675   3.049  10.235 -0.2507 -1.0349 -2.3715
   51TMC2    C1  789   2.647   2.175   1.070 -0.6786 -0.0800  0.4029
   51TMC2    C2  790   2.519   2.200   1.119  0.2503  0.1802 -0.6516
   51TMC2    C3  791   2.487   2.330   1.142  0.2478 -0.3250 -0.0984
   51TMC2    C4  792   2.738   2.267   1.033 -1.3281 -0.0448 -0.9608
   51TMC2    C5  793   2.703   2.401   1.054  0.5803  0.4929  0.4654
   51TMC2    C6  794   2.574   2.432   1.098  0.2032  0.2202  0.3416
   51TMC2     C  795   2.674   2.046   1.022  0.8810 -0.1659 -0.5646
   51TMC2     O  796   2.636   1.955   1.093 -0.7011 -0.5710  0.3162
   51TMC2     H  797   2.447   2.119   1.128  0.1685  0.1666 -1.4659
   51TMC2    H1  798   2.832   2.223   1.001 -1.7153  0.1654 -2.3998
   51TMC2    H2  799   2.543   2.533   1.122 -1.6380 -0.1868 -0.3008
   51TMC2    C7  800   2.789   2.503   0.988 -0.3879  0.4518 -0.1088
   51TMC2    C8  801   2.352   2.349   1.195 -0.4946 -0.5674  0.1910
   51TMC2    O1  802   2.898   2.458   0.968 -0.5032 -0.0854  0.3299
   51TMC2    O2  803   2.260   2.283   1.151 -0.2905  0.1575  0.3190
   51TMC2    O5  804   2.342   2.477   1.232  0.3104 -0.4177  0.3312
   51TMC2    H5  805   2.426   2.498   1.277  0.3708 -0.1438  0.0940
   52MPD2     C  806   2.861   1.734   0.674 -0.3045 -0.0598 -0.0170
   52MPD2    C1  807   2.814   1.701   0.798 -0.8264 -0.2335 -0.3589
   52MPD2    C2  808   2.761   1.802   0.878 -0.3273 -0.0244 -0.3652
   52MPD2    C3  809   2.758   1.930   0.824 -0.0180 -0.2505 -0.0407
   52MPD2    C4  810   2.788   1.961   0.694  0.1227  0.2735  0.7552
   52MPD2    C5  811   2.846   1.859   0.623  0.3861  0.0114 -0.6210
   52MPD2     H  812   2.731   1.780   0.980  0.1339  2.4972  0.3247
   52MPD2    H1  813   2.782   2.060   0.651  2.7512 -0.2911 -0.9675
   52MPD2    H2  814   2.907   1.658   0.612 -2.5475 -1.6449  0.2568
   52MPD2    H3  815   2.879   1.888   0.524  2.2233  0.6693  0.2023
   52MPD2     N  816   2.713   2.046   0.889  0.2224 -0.3802 -0.2340
   52MPD2    H5  817   2.709   2.133   0.837  0.5787  0.0595  0.4687
   52MPD2    N1  818   2.817   1.573   0.856 -0.1613  0.4446  0.5815
   52MPD2    H7  819   2.773   1.560   0.947 -3.0826 -0.9972 -1.0473
   53TMC2    C1  820   3.129   4.517  11.555  0.2915 -0.1431 -0.8537
   53TMC2    C2  821   3.245   4.456  11.597 -0.0439  0.4680 -0.4468
   53TMC2    C3  822   3.264   4.447  11.729 -0.3924  0.2168  0.4188
   53TMC2    C4  823   3.020   4.545  11.642 -0.4427  1.1526  0.0590
   53TMC2    C5  824   3.039   4.505  11.774  0.9475  1.0667  0.2033
   53TMC2    C6  825   3.156   4.463  11.817 -0.0614  0.2874  0.0596
   53TMC2     C  826   3.131   4.566  11.418 -0.0956  0.5084  0.1977
   53TMC2     O  827   3.205   4.512  11.337  0.8113 -0.6850  0.1689
   53TMC2     H  828   3.326   4.447  11.526  0.1106  1.5193 -0.4030
   53TMC2    H1  829   2.931   4.599  11.611 -1.6169 -1.1556 -0.5867
   53TMC2    H2  830   3.183   4.465  11.922 -1.2902 -3.5060  0.4644
   53TMC2    C7  831   2.939   4.553  11.866  0.5367 -0.0474  0.5704
   53TMC2    C8  832   3.389   4.380  11.771 -0.1261  0.0869  0.3441
   53TMC2    O1  833   2.868   4.644  11.821  0.5838  0.1603 -0.5162
   53TMC2    O2  834   3.456   4.407  11.869  0.0998  0.1420  0.1525
   53TMC2    O5  835   3.374   4.253  11.731  0.2854  0.3876 -0.4462
   53TMC2    H5  836   3.295   4.235  11.675 -0.8791  2.8049  0.4399
   54MPD2     C  837   3.076   4.726  11.183 -0.4291  0.2430 -0.7319
   54MPD2    C1  838   3.036   0.024  11.307 -0.4084  0.6509 -0.5920
   54MPD2    C2  839   2.963   0.138  11.324  0.5031  0.3100  0.0622
   54MPD2    C3  840   2.896   0.201  11.216  0.4730 -0.0941 -0.8094
   54MPD2    C4  841   2.924   0.153  11.091  0.1445 -0.5964  0.1668
   54MPD2    C5  842   3.018   0.055  11.075  0.1658 -0.6801  0.1451
   54MPD2     H  843   2.944   0.180  11.422  1.9543 -0.7638  0.7994
   54MPD2    H1  844   2.888   0.214  11.008 -0.2477 -0.9430  0.0861
   54MPD2    H2  845   3.155   4.656  11.158 -0.4187 -0.6312  1.7424
   54MPD2    H3  846   3.048   0.024  10.976  2.5557  0.9651  0.3781
   54MPD2     N  847   2.812   0.312  11.234 -0.2048  0.0060 -0.3280
   54MPD2    H5  848   2.777   0.360  11.152 -1.1412  0.0429  0.1011
   54MPD2    N1  849   3.065   4.682  11.414  0.0396  0.2014  0.2010
   54MPD2    H7  850   3.029   4.719  11.501  1.1614 -0.3212  0.8889
   55TMC2    C1  851   4.055   2.936  17.506 -0.4399  0.2525  0.7657
   55TMC2    C2  852   3.992   2.957  17.385 -0.2927  0.0350  1.0163
   55TMC2    C3  853   3.934   2.841  17.332 -0.2288 -0.8170  0.6763
   55TMC2    C4  854   4.053   2.820  17.579  0.7868  0.5490 -0.2787
   55TMC2    C5  855   4.000   2.711  17.513 -0.5911  0.4652 -0.1329
   55TMC2    C6  856   3.944   2.712  17.384  0.0151 -0.0242  0.7742
   55TMC2     C  857   4.086   3.053  17.591  0.1885  0.4762  0.3658
   55TMC2     O  858   4.067   3.034  17.710  0.1936 -0.0040 -0.7334
   55TMC2     H  859   3.990   3.055  17.338 -3.3937 -0.1115  0.8862
   55TMC2    H1  860   4.103   2.812  17.675 -1.9406 -3.4480  0.8088
   55TMC2    H2  861   3.893   2.624  17.347  2.9039 -1.1851 -0.3942
   55TMC2    C7  862   3.982   2.584  17.587  0.1461  0.0908 -0.3497
   55TMC2    C8  863   3.862   2.870  17.209  0.1208  0.0930  0.6127
   55TMC2    O1  864   3.946   2.486  17.527 -0.0700 -0.2477 -0.7983
   55TMC2    O2  865   3.842   2.984  17.162 -0.6060 -0.0592  0.2130
   55TMC2    O5  866   3.873   2.755  17.139 -0.1659  0.7963 -0.0246
   55TMC2    H5  867   3.942   2.695  17.174 -2.2053 -0.2290  2.2007
   56MPD2     C  868   4.146   3.411  17.500 -0.3105 -0.1286  0.6027
   56MPD2    C1  869   4.122   3.298  17.576 -0.0950 -0.5005 -0.1333
   56MPD2    C2  870   4.105   3.317  17.714  0.7537 -0.1700  0.0812
   56MPD2    C3  871   4.097   3.445   0.011  0.6438 -0.5173 -0.2679
   56MPD2    C4  872   4.130   3.553  17.695  0.2004  0.1475  0.1155
   56MPD2    C5  873   4.158   3.537  17.560 -0.1268 -0.3896  0.1441
   56MPD2     H  874   4.088   3.236   0.022  0.8039 -1.3571 -1.2870
   56MPD2    H1  875   4.123   3.654  17.733 -0.6864  0.1135  0.0379
   56MPD2    H2  876   4.168   3.402  17.395 -0.5810  2.9884  0.2751
   56MPD2    H3  877   4.180   3.627  17.504  1.4866 -0.5172  0.5871
   56MPD2     N  878   4.045   3.449   0.143 -0.2771 -0.3230  0.4150
   56MPD2    H5  879   4.026   3.356   0.179 -0.0763 -0.6987 -0.4444
   56MPD2    N1  880   4.122   3.172  17.519  0.3823  0.2086 -0.2433
   56MPD2    H7  881   4.110   3.172  17.418 -0.0734 -1.9182 -0.1819
   57TMC2    C1  882   3.066   3.671  13.634  0.3936 -0.1579  0.7285
   57TMC2    C2  883   3.066   3.746  13.519 -0.6573  0.1104  0.0001
   57TMC2    C3  884   3.128   3.690  13.408 -0.3633 -0.3645  0.7791
   57TMC2    C4  885   3.117   3.544  13.645 -0.4787  0.0928 -0.2385
   57TMC2    C5  886   3.173   3.491  13.531 -0.3787  0.3344  0.0698
   57TMC2    C6  887   3.182   3.566  13.410  1.1420 -0.4859 -0.0159
   57TMC2     C  888   2.971   3.728  13.727 -0.1868 -0.0352  0.2191
   57TMC2     O  889   2.910   3.821  13.681  0.2326 -0.4964  0.6313
   57TMC2     H  890   3.032   3.847  13.504  2.1432  0.8203 -1.7386
   57TMC2    H1  891   3.094   3.474  13.725  0.8495  1.4654  1.3518
   57TMC2    H2  892   3.213   3.517  13.318  1.2653  1.2207 -0.8697
   57TMC2    C7  893   3.202   3.346  13.532 -0.2373  0.8837 -0.0558
   57TMC2    C8  894   3.119   3.758  13.280  0.0532 -0.2731  0.7537
   57TMC2    O1  895   3.140   3.284  13.623  0.5869  0.0558 -0.1508
   57TMC2    O2  896   3.024   3.753  13.201 -0.5157  0.4046 -0.5259
   57TMC2    O5  897   3.196   3.866  13.300 -0.3021 -0.3613  0.2303
   57TMC2    H5  898   3.255   3.846  13.375 -1.6678 -0.2003  1.3434
   58MPD2     C  899   2.752   3.860  14.163 -0.0418 -0.3678 -0.3624
   58MPD2    C1  900   2.701   3.852  14.036 -0.1436  0.3689  1.0331
   58MPD2    C2  901   2.772   3.794  13.933  0.2512 -0.0700  0.5839
   58MPD2    C3  902   2.888   3.726  13.957 -0.4612 -0.6641 -0.7056
   58MPD2    C4  903   2.937   3.729  14.088 -0.1502  0.5874  0.1064
   58MPD2    C5  904   2.873   3.803  14.186  0.4624 -0.0091 -0.3528
   58MPD2     H  905   2.732   3.793  13.833 -1.0904  0.2226  1.1273
   58MPD2    H1  906   3.038   3.694  14.109 -0.7314 -0.8748  0.4003
   58MPD2    H2  907   2.709   3.930  14.234  0.3660 -2.3261  1.8218
   58MPD2    H3  908   2.923   3.815  14.281 -0.1397 -1.8769  0.2133
   58MPD2     N  909   2.966   3.676  13.854  0.0764  0.0346  0.0399
   58MPD2    H5  910   3.050   3.622  13.875 -0.1415 -0.9045 -1.5279
   58MPD2    N1  911   2.576   3.904  14.011 -0.1585 -0.7153  0.0366
   58MPD2    H7  912   2.538   3.896  13.917  0.2992  0.5739 -0.2584
   59TMC2    C1  913   0.455   3.763  12.742  0.0750  0.2098 -0.8965
   59TMC2    C2  914   0.461   3.653  12.823 -0.9832  0.4080  0.4688
   59TMC2    C3  915   0.362   3.557  12.811 -0.0944  0.0469  0.0333
   59TMC2    C4  916   0.355   3.778  12.649  0.2730 -0.3217  0.1317
   59TMC2    C5  917   0.251   3.692  12.650  1.1223 -0.7031 -0.2586
   59TMC2    C6  918   0.257   3.583  12.733 -0.0299 -0.5969  0.2462
   59TMC2     C  919   0.534   3.874  12.788 -0.4186  0.3184 -0.4132
   59TMC2     O  920   0.480   3.983  12.775 -0.0049  0.0438 -0.7715
   59TMC2     H  921   0.535   3.659  12.902  0.9267  0.8393 -1.3242
   59TMC2    H1  922   0.347   3.871  12.592  0.5685 -0.1538  0.3653
   59TMC2    H2  923   0.189   3.501  12.716  1.1416 -1.8914  1.7397
   59TMC2    C7  924   0.128   3.707  12.574 -0.1567  0.3139 -0.1337
   59TMC2    C8  925   0.348   3.447  12.897 -0.0156  0.5596 -0.4683
   59TMC2    O1  926   0.034   3.629  12.598  0.3350 -0.2444  0.0312
   59TMC2    O2  927   0.264   3.360  12.888 -0.0346  0.2414  0.4948
   59TMC2    O5  928   0.470   3.424  12.938 -0.1664 -0.0219 -0.1343
   59TMC2    H5  929   0.547   3.476  12.907 -1.8629  2.9855  0.6656
   60MPD2     C  930   0.762   4.066  12.875  0.3387 -0.0352 -0.2869
   60MPD2    C1  931   0.769   3.923  12.869  0.3357 -0.1430 -0.7094
   60MPD2    C2  932   0.891   3.869  12.901 -0.3857 -0.1731 -0.0269
   60MPD2    C3  933   0.995   3.948  12.951  0.9798  0.4473  0.6639
   60MPD2    C4  934   0.974   4.083  12.968 -0.3852  0.8844 -0.4296
   60MPD2    C5  935   0.859   4.142  12.933 -0.0109  0.1456  0.2655
   60MPD2     H  936   0.903   3.761  12.900  0.2814 -0.0828 -1.8435
   60MPD2    H1  937   1.048   4.144  13.019 -0.9092 -0.3862  1.8498
   60MPD2    H2  938   0.672   4.120  12.850 -0.2083 -0.7223  0.2167
   60MPD2    H3  939   0.836   4.247  12.944  1.8482  0.4182  1.6786
   60MPD2     N  940   1.121   3.898  12.994 -0.0743 -0.1599  0.0707
   60MPD2    H5  941   1.179   3.970  13.038  0.2902  0.8695 -2.1019
   60MPD2    N1  942   0.662   3.835  12.832  0.2721 -0.4412  0.2273
   60MPD2    H7  943   0.686   3.736  12.829 -0.9459 -0.7302 -0.1636
   61TMC2    C1  944   0.433   4.728  15.716 -0.7518  0.0506  0.0181
   61TMC2    C2  945   0.369   4.627  15.788  0.5386 -0.3994 -0.3630
   61TMC2    C3  946   0.236   4.642  15.830 -0.4299 -0.0670  0.0019
   61TMC2    C4  947   0.370   0.108  15.698  0.3653 -0.9238  0.6336
   61TMC2    C5  948   0.240   0.122  15.749  0.1856 -0.0774  0.3163
   61TMC2    C6  949   0.171   0.021  15.806 -0.1218  0.6801 -0.5822
   61TMC2     C  950   0.551   4.700  15.632 -0.3130  0.4893 -0.2670
   61TMC2     O  951   0.650   4.651  15.686 -0.3822  0.2330 -0.0668
   61TMC2     H  952   0.429   4.537  15.798  1.5899  0.1234 -2.0162
   61TMC2    H1  953   0.413   0.196  15.650  0.2357 -1.2762 -0.1173
   61TMC2    H2  954   0.071   0.030  15.846  0.3363  0.1841  0.6711
   61TMC2    C7  955   0.163   0.242  15.708  0.4194 -0.1079  0.3439
   61TMC2    C8  956   0.157   4.540  15.898 -1.2192  0.0597  0.0721
   61TMC2    O1  957   0.238   0.337  15.675  0.3208  0.2599 -0.6017
   61TMC2    O2  958   0.039   4.556  15.916  0.0594 -0.0287 -0.0326
   61TMC2    O5  959   0.241   4.467  15.973  0.0277  0.1119 -0.3828
   61TMC2    H5  960   0.336   4.464  15.950 -0.6056 -0.3270 -2.8853
   62MPD2     C  961   0.757   4.714  15.423  0.6760  0.3059  0.0633
   62MPD2    C1  962   0.621   4.711  15.399 -0.1832  0.7841  0.2701
   62MPD2    C2  963   0.571   4.722  15.274  0.0118  0.3512  0.4837
   62MPD2    C3  964   0.657   4.735  15.159  0.1608 -0.3361  0.2814
   62MPD2    C4  965   0.793   4.737  15.190 -0.6469  0.3278  0.5769
   62MPD2    C5  966   0.840   4.721  15.316  1.0073  0.1290  0.1546
   62MPD2     H  967   0.465   4.698  15.271 -0.2115  1.1872  1.6608
   62MPD2    H1  968   0.868   0.002  15.112 -0.8331  0.1956  0.3890
   62MPD2    H2  969   0.807   4.699  15.518 -0.7467 -1.2254  0.5597
   62MPD2    H3  970   0.948   4.723  15.328  0.7536  3.4769  1.7583
   62MPD2     N  971   0.614   0.029  15.033 -0.4196 -0.0516 -0.1008
   62MPD2    H5  972   0.684   0.033  14.959 -1.0218  2.2052 -0.5480
   62MPD2    N1  973   0.527   4.710  15.499  0.4363  0.1303 -0.0468
   62MPD2    H7  974   0.434   4.722  15.458  0.2185 -0.6278  0.2245
   63TMC2    C1  975   4.597   1.328  10.109  0.7239  0.5405  0.0033
   63TMC2    C2  976   4.592   1.467  10.101  0.8245  0.6128  0.5497
   63TMC2    C3  977   4.693   1.546  10.061 -0.3337 -0.0155 -0.0248
   63TMC2    C4  978   4.717   1.267  10.079 -0.6400  0.4636  0.1791
   63TMC2    C5  979   0.078   1.351  10.036 -0.6906 -0.2303 -0.3684
   63TMC2    C6  980   0.073   1.489  10.017  0.2129  0.0216 -0.2731
   63TMC2     C  981   4.483   1.259  10.051 -0.0848  0.0292  0.6780
   63TMC2     O  982   4.408   1.330   9.988 -0.5721 -0.2800 -0.2284
   63TMC2     H  983   4.504   1.525  10.126  0.9867  0.8727  0.5199
   63TMC2    H1  984   4.727   1.161  10.059 -2.3856  0.5440 -1.0859
   63TMC2    H2  985   0.155   1.551   9.982 -0.1358 -0.3859 -1.8377
   63TMC2    C7  986   0.160   1.278   9.943  0.3926  0.3142  0.9231
   63TMC2    C8  987   4.664   1.687  10.071 -0.4124 -0.2007 -0.9469
   63TMC2    O1  988   0.181   1.160   9.968 -0.0029  0.0933 -0.0792
   63TMC2    O2  989   4.554   1.737  10.094  0.6668 -0.1205 -0.1261
   63TMC2    O5  990   0.037   1.757  10.072  0.6954  0.4753  0.1585
   63TMC2    H5  991   0.116   1.701  10.090 -0.7943 -1.1517  1.5927
   64MPD2     C  992   4.273   0.823   9.884  0.1689  0.4179  0.5548
   64MPD2    C1  993   4.339   0.786  10.003  0.1145 -0.1483  0.5473
   64MPD2    C2  994   4.394   0.894  10.069  0.6862 -0.2075 -0.1036
   64MPD2    C3  995   4.392   1.026  10.028 -0.0088 -0.4850  0.0090
   64MPD2    C4  996   4.321   1.053   9.913  0.0370 -0.1286  0.2417
   64MPD2    C5  997   4.264   0.951   9.847 -0.0005 -0.5608 -0.2747
   64MPD2     H  998   4.462   0.888  10.153 -1.1132 -1.0941  1.3039
   64MPD2    H1  999   4.304   1.148   9.864 -3.5486 -0.0146  1.7229
   64MPD2    H2 1000   4.239   0.746   9.816  1.1704  0.6581 -0.2124
   64MPD2    H3 1001   4.204   0.970   9.758 -2.4381  1.1613  1.7327
   64MPD2     N 1002   4.477   1.123  10.089 -0.0012  0.1476 -0.2380
   64MPD2    H5 1003   4.540   1.093  10.164  1.4162  1.5124 -0.8846
   64MPD2    N1 1004   4.369   0.657  10.043 -0.1760 -0.0101 -0.0739
   64MPD2    H7 1005   4.417   0.652  10.132  0.3180 -2.0652 -0.4472
   65TMC2    C1 1006   1.356   0.043  15.746  0.0458 -0.1703  0.2780
   65TMC2    C2 1007   1.482   0.092  15.731 -0.0922 -0.4597  0.0986
   65TMC2    C3 1008   1.498   0.174  15.617  0.2175  0.3232 -0.0732
   65TMC2    C4 1009   1.250   0.094  15.673  0.1843  0.1441  0.0280
   65TMC2    C5 1010   1.270   0.196  15.588  0.4734 -0.4073  0.5383
   65TMC2    C6 1011   1.395   0.241  15.561  0.0168 -0.5405 -0.7488
   65TMC2     C 1012   1.329   4.673  15.836  0.6605  0.0423  0.2088
   65TMC2     O 1013   1.415   4.650  15.917  0.5092  0.2546  0.2987
   65TMC2     H 1014   1.562   0.050  15.791 -1.4410 -0.5747  1.8188
   65TMC2    H1 1015   1.150   0.054  15.685 -0.5484  1.7763 -0.5685
   65TMC2    H2 1016   1.411   0.320  15.488  0.9806  2.2687  2.5251
   65TMC2    C7 1017   1.159   0.247  15.508 -0.4662 -0.1200 -0.2139
   65TMC2    C8 1018   1.623   0.224  15.579  0.5907  0.2368 -0.2475
   65TMC2    O1 1019   1.191   0.308  15.406  0.4280  0.0415  0.2335
   65TMC2    O2 1020   1.637   0.324  15.510  0.0152  0.1620 -0.8111
   65TMC2    O5 1021   1.714   0.118  15.597 -0.1084  0.1804  0.2613
   65TMC2    H5 1022   1.693   0.049  15.663  0.7781  1.3733  1.8028
   66MPD2     C 1023   1.230   4.437  15.977  0.4904 -0.5580  0.5107
   66MPD2    C1 1024   1.211   4.457  15.839 -0.2288 -0.2941 -0.6776
   66MPD2    C2 1025   1.159   4.359  15.767 -0.2719  0.8296 -0.2832
   66MPD2    C3 1026   1.130   4.234  15.828  0.5827  1.1979 -0.2102
   66MPD2    C4 1027   1.153   4.215  15.962 -0.0834 -0.3970 -0.0350
   66MPD2    C5 1028   1.210   4.316  16.033  0.3071 -0.1993  0.2571
   66MPD2     H 1029   1.140   4.388  15.665 -1.1149  2.1317  0.2535
   66MPD2    H1 1030   1.155   4.115  16.004  0.5885 -1.0285 -1.5485
   66MPD2    H2 1031   1.279   4.514  16.035  1.7394 -1.1571  0.2483
   66MPD2    H3 1032   1.248   4.307  16.134 -0.5140  2.0525  0.7644
   66MPD2     N 1033   1.074   4.125  15.759 -0.4748  0.0495  0.3095
   66MPD2    H5 1034   1.052   4.047  15.820  1.9729 -1.7488 -1.0851
   66MPD2    N1 1035   1.231   4.586  15.784 -0.1676  0.4313 -0.7714
   66MPD2    H7 1036   1.197   4.595  15.689  0.2155  0.1668 -0.9368
   67TMC2    C1 1037   1.239   4.147  14.226 -0.3850  0.6519  0.2124
   67TMC2    C2 1038   1.273   4.211  14.342 -0.2990 -0.3395 -0.0268
   67TMC2    C3 1039   1.328   4.152  14.450 -0.1527 -0.3897  0.3222
   67TMC2    C4 1040   1.257   4.007  14.228  0.0623  0.3239 -0.2031
   67TMC2    C5 1041   1.315   3.948  14.339 -0.4963  0.2256  0.0619
   67TMC2    C6 1042   1.352   4.018  14.448 -0.6378  0.0538  0.0418
   67TMC2     C 1043   1.130   4.206  14.155  0.0735 -0.1261  0.4323
   67TMC2     O 1044   1.103   4.326  14.178  0.1011 -0.0720 -0.2328
   67TMC2     H 1045   1.244   4.314  14.356 -1.7132 -0.8328  0.6255
   67TMC2    H1 1046   1.218   3.950  14.144 -1.0415 -1.5712  1.5927
   67TMC2    H2 1047   1.380   3.977  14.544 -1.1111  2.3842  1.1626
   67TMC2    C7 1048   1.303   3.802  14.354  0.8209  0.4740  0.1444
   67TMC2    C8 1049   1.276   4.194  14.576  0.6760 -0.2140  0.6505
   67TMC2    O1 1050   1.220   3.750  14.286 -0.8516  0.5689 -0.5189
   67TMC2    O2 1051   1.210   4.131  14.660 -0.9229 -0.7416  0.1650
   67TMC2    O5 1052   1.317   4.325  14.600 -0.1966 -0.2076 -0.7605
   67TMC2    H5 1053   1.363   4.351  14.518 -0.4052 -1.2674 -1.2185
   68MPD2     C 1054   0.844   4.225  14.082  0.6097 -0.2181  0.1741
   68MPD2    C1 1055   0.935   4.136  14.021 -0.0494  0.0873 -0.4169
   68MPD2    C2 1056   0.890   4.060  13.920  0.0102 -0.7073 -0.2349
   68MPD2    C3 1057   0.759   4.066  13.886  0.4192 -0.2304 -0.4420
   68MPD2    C4 1058   0.673   4.154  13.944  0.1897 -0.1367 -0.1284
   68MPD2    C5 1059   0.713   4.232  14.044  0.1581  0.0227  0.3531
   68MPD2     H 1060   0.955   3.985  13.875  0.5317 -0.7450  0.5789
   68MPD2    H1 1061   0.568   4.168  13.921  0.4003 -0.5357 -1.3419
   68MPD2    H2 1062   0.874   4.289  14.163  1.8029  0.5732 -0.8865
   68MPD2    H3 1063   0.644   4.295  14.099 -0.2844  0.8450 -1.1579
   68MPD2     N 1064   0.714   3.986  13.774 -0.4395 -0.0886 -0.4389
   68MPD2    H5 1065   0.788   3.937  13.725 -0.4396 -2.4140  1.8676
   68MPD2    N1 1066   1.070   4.117  14.072  0.0536  0.3623 -0.0013
   68MPD2    H7 1067   1.133   4.042  14.045  1.5466  1.3343  0.7552
   69TMC2    C1 1068   2.876   0.315  11.982  0.5184  0.9767  1.0696
   69TMC2    C2 1069   2.759   0.315  11.913 -0.1395  0.6390  0.0391
   69TMC2    C3 1070   2.758   0.273  11.784 -0.8982 -0.4658 -0.2999
   69TMC2    C4 1071   2.989   0.277  11.923  0.0158 -0.0564 -0.3218
   69TMC2    C5 1072   2.983   0.225  11.802 -0.8445  0.4577 -0.2255
   69TMC2    C6 1073   2.869   0.224  11.730  0.7482 -0.4218 -0.5180
   69TMC2     C 1074   2.854   0.284  12.117  0.0702 -0.3032 -0.2771
   69TMC2     O 1075   2.761   0.204  12.140 -0.3975 -0.0673  0.3617
   69TMC2     H 1076   2.667   0.350  11.958 -0.3567  0.8731 -0.5812
   69TMC2    H1 1077   3.077   0.282  11.985  0.1420  0.3902 -0.5374
   69TMC2    H2 1078   2.865   0.151  11.650 -0.6741 -1.8049  0.8053
   69TMC2    C7 1079   3.102   0.160  11.747 -0.0247  0.0890 -0.4476
   69TMC2    C8 1080   2.654   0.180  11.764 -0.0971  0.5536 -0.1932
   69TMC2    O1 1081   3.089   0.149  11.627 -0.0160  0.3604 -0.3232
   69TMC2    O2 1082   2.569   0.130  11.841 -0.0127 -0.3601  0.2477
   69TMC2    O5 1083   2.638   0.172  11.630  0.5755  0.0576  0.1747
   69TMC2    H5 1084   2.698   0.232  11.581  1.6898 -1.2034  0.0156
   70MPD2     C 1085   3.053   0.404  12.404 -0.1582 -0.4924 -0.0096
   70MPD2    C1 1086   2.942   0.353  12.335 -0.5046  0.2204 -0.3486
   70MPD2    C2 1087   2.828   0.318  12.399  0.0013  0.4891 -0.4176
   70MPD2    C3 1088   2.817   0.347  12.538  0.6832  0.4625 -0.1286
   70MPD2    C4 1089   2.927   0.397  12.606 -0.3728 -0.0781 -0.4650
   70MPD2    C5 1090   3.041   0.428  12.535  0.1760 -0.2689  0.4180
   70MPD2     H 1091   2.744   0.269  12.350 -2.9837  2.6360  2.5455
   70MPD2    H1 1092   2.932   0.422  12.711  2.0107 -0.7577 -0.4300
   70MPD2    H2 1093   3.141   0.428  12.345  0.3569 -1.3610  0.4000
   70MPD2    H3 1094   3.126   0.463  12.593 -0.0913  0.7310  0.2225
   70MPD2     N 1095   2.697   0.318  12.614 -0.3155  0.0012 -0.3885
   70MPD2    H5 1096   2.686   0.327  12.715  0.1505 -0.4730 -0.3024
   70MPD2    N1 1097   2.949   0.343  12.195  0.2959 -0.2907  0.5330
   70MPD2    H7 1098   3.028   0.389  12.150  0.2994  0.0974  0.9368
   71TMC2    C1 1099   4.616   0.973   1.197  0.2476 -0.2668  0.5719
   71TMC2    C2 1100   4.722   0.952   1.282  0.0011  0.4741  0.0094
   71TMC2    C3 1101   4.708   1.002   1.409  0.0754  0.2501  0.8521
   71TMC2    C4 1102   4.511   1.056   1.227 -0.3764  0.7156  0.5065
   71TMC2    C5 1103   4.499   1.094   1.355 -0.6188 -0.2802 -0.4343
   71TMC2    C6 1104   4.597   1.073   1.448 -0.4200 -0.3349 -0.3067
   71TMC2     C 1105   4.628   0.944   1.058 -0.0119 -0.5173 -0.5829
   71TMC2     O 1106   0.005   0.944   1.022 -0.4425  0.0285 -0.1983
   71TMC2     H 1107   0.068   0.905   1.237 -0.4851  2.2811 -2.8560
   71TMC2    H1 1108   4.439   1.082   1.151  1.3049 -2.4334 -2.1549
   71TMC2    H2 1109   4.587   1.107   1.550 -0.2621  1.4105 -0.8655
   71TMC2    C7 1110   4.380   1.165   1.402  0.6021  0.3293  0.5761
   71TMC2    C8 1111   0.052   0.954   1.514  0.1668  0.4841 -0.3414
   71TMC2    O1 1112   4.369   1.207   1.516  0.1384 -0.6371  0.2076
   71TMC2    O2 1113   0.031   0.998   1.625 -0.3957  0.4866 -0.0549
   71TMC2    O5 1114   0.172   0.965   1.458 -0.2049 -0.0475 -0.1117
   71TMC2    H5 1115   0.162   0.902   1.383  0.8253  0.2309 -0.4817
   72MPD2     C 1116   4.443   0.832   0.576 -0.0639  0.4226 -0.4747
   72MPD2    C1 1117   4.560   0.894   0.620 -0.5152 -0.6092 -0.1466
   72MPD2    C2 1118   4.589   0.911   0.756 -0.2252 -0.7926 -0.2275
   72MPD2    C3 1119   4.500   0.866   0.854 -0.0523  0.2301 -0.3086
   72MPD2    C4 1120   4.375   0.811   0.809 -0.1866  0.1455 -0.5052
   72MPD2    C5 1121   4.354   0.784   0.676 -0.8373 -0.3271  0.3966
   72MPD2     H 1122   4.684   0.956   0.785 -0.7665 -0.3730  0.8819
   72MPD2    H1 1123   4.296   0.778   0.876  0.7965 -1.0032  0.0764
   72MPD2    H2 1124   4.415   0.822   0.472  1.4413  0.5640 -0.8852
   72MPD2    H3 1125   4.266   0.735   0.636 -0.1693  0.2715 -1.8016
   72MPD2     N 1126   4.513   0.895   0.992 -0.1696  0.1570  0.3482
   72MPD2    H5 1127   4.432   0.880   1.051 -1.0701 -0.9102 -1.1427
   72MPD2    N1 1128   4.660   0.941   0.526  0.3525  0.0063  0.6669
   72MPD2    H7 1129   0.005   0.980   0.564  2.0446 -1.4240 -1.7258
   73TMC2    C1 1130   0.156   2.475  14.101 -0.2417  0.3587 -0.6021
   73TMC2    C2 1131   0.188   2.419  14.221  0.0888  0.3019 -0.1718
   73TMC2    C3 1132   0.313   2.360  14.239  0.1135  0.2180 -0.2090
   73TMC2    C4 1133   0.254   2.492  14.007  0.3434 -0.2551 -0.9392
   73TMC2    C5 1134   0.377   2.439  14.036  0.2201  0.3271 -0.6624
   73TMC2    C6 1135   0.403   2.361  14.140  0.4950 -0.6246 -0.5613
   73TMC2     C 1136   0.113   2.603  14.130 -0.6561  0.1653 -0.1083
   73TMC2     O 1137   0.198   2.675  14.185  0.3397 -0.4448  0.7585
   73TMC2     H 1138   0.114   2.427  14.300  0.0123  1.9032 -0.4056
   73TMC2    H1 1139   0.246   2.569  13.931 -1.2429 -1.0187 -1.5408
   73TMC2    H2 1140   0.501   2.325  14.170 -0.2941 -0.5163  2.1552
   73TMC2    C7 1141   0.488   2.524  13.989 -0.2208 -0.1539  0.0993
   73TMC2    C8 1142   0.342   2.247  14.327  0.6603  0.6322 -0.1723
   73TMC2    O1 1143   0.582   2.474  13.930  0.3388 -0.1089  0.0618
   73TMC2    O2 1144   0.455   2.196  14.337  0.7282 -0.5380  0.0667
   73TMC2    O5 1145   0.227   2.183  14.350  0.4460  0.5616 -0.5218
   73TMC2    H5 1146   0.149   2.199  14.293  0.7006  0.1262 -0.9949
   74MPD2     C 1147   4.579   3.010  13.985 -0.1633  0.4685  0.1200
   74MPD2    C1 1148   4.697   3.000  14.046 -0.3451  0.4391  0.5011
   74MPD2    C2 1149   0.008   2.875  14.072 -0.2356 -0.3820 -0.2371
   74MPD2    C3 1150   4.683   2.764  14.036  0.2955  0.2583 -0.1469
   74MPD2    C4 1151   4.559   2.778  13.981 -0.8172 -0.2059  0.4429
   74MPD2    C5 1152   4.509   2.901  13.954 -0.1129 -0.2092  0.2794
   74MPD2     H 1153   0.114   2.875  14.095 -0.1421 -0.2106 -0.6602
   74MPD2    H1 1154   4.498   2.696  13.944 -0.8426 -0.6148  1.4109
   74MPD2    H2 1155   4.528   3.103  13.963 -1.0681  0.1055  0.7181
   74MPD2    H3 1156   4.404   2.903  13.925 -0.7863 -0.5221  2.6956
   74MPD2     N 1157   4.737   2.636  14.062  0.1888  0.6785 -0.0143
   74MPD2    H5 1158   4.688   2.550  14.040  2.7245 -0.4003 -1.5394
   74MPD2    N1 1159   0.026   3.120  14.064  0.1678  0.3018 -0.1476
   74MPD2    H7 1160   4.722   3.210  14.049  1.2318  1.2244  2.2579
   75TMC2    C1 1161   0.563   3.868  13.625 -0.0158  0.3297 -0.2062
   75TMC2    C2 1162   0.670   3.796  13.575 -0.1661  0.7686 -0.0255
   75TMC2    C3 1163   0.640   3.719  13.466  0.2567  0.0064  0.0556
   75TMC2    C4 1164   0.439   3.861  13.566 -0.0389  0.5557 -0.0066
   75TMC2    C5 1165   0.413   3.770  13.473 -0.3374 -0.0088 -0.7170
   75TMC2    C6 1166   0.516   3.693  13.424  0.0322 -0.0029 -0.2807
   75TMC2     C 1167   0.580   3.968  13.737 -0.4161  0.3217 -0.0304
   75TMC2     O 1168   0.477   4.006  13.793  0.4327  0.2400 -0.0459
   75TMC2     H 1169   0.770   3.799  13.617 -0.5494  2.1197  0.8245
   75TMC2    H1 1170   0.363   3.933  13.594 -0.1437  1.1724 -1.8514
   75TMC2    H2 1171   0.498   3.619  13.346  0.5370  0.1329 -0.5237
   75TMC2    C7 1172   0.277   3.735  13.437 -1.2610  0.4953  0.3483
   75TMC2    C8 1173   0.744   3.627  13.425  0.5175 -0.3387  1.0015
   75TMC2    O1 1174   0.260   3.689  13.327  0.3043 -0.2654 -0.1327
   75TMC2    O2 1175   0.835   3.591  13.496 -0.2642  0.2768 -0.4680
   75TMC2    O5 1176   0.732   3.608  13.297 -0.6860 -0.2664  0.0109
   75TMC2    H5 1177   0.665   3.669  13.259 -0.3750  2.1243  3.3710
   76TMC2    C1 1178   3.733   3.985  11.681 -0.2567 -0.2417  0.0167
   76TMC2    C2 1179   3.599   3.963  11.693 -0.2066  0.9034  0.1180
   76TMC2    C3 1180   3.557   3.895  11.802 -0.0665 -0.0367 -1.1150
   76TMC2    C4 1181   3.817   3.954  11.783 -0.8720  0.5989  0.5587
   76TMC2    C5 1182   3.771   3.882  11.890 -0.2435  0.4597 -0.0103
   76TMC2    C6 1183   3.634   3.851  11.903  0.3696  0.0102  0.4565
   76TMC2     C 1184   3.765   4.091  11.583 -0.0943  0.7998 -0.0857
   76TMC2     O 1185   3.676   4.160  11.541 -0.0170  0.2078  0.6124
   76TMC2     H 1186   3.533   4.009  11.620 -0.4202 -0.2917 -0.4381
   76TMC2    H1 1187   3.922   3.978  11.772 -0.7299 -0.1874  0.2117
   76TMC2    H2 1188   3.591   3.786  11.977  0.9756 -0.2387  0.5908
   76TMC2    C7 1189   3.845   3.872  12.008 -0.0414  0.5867  0.1850
   76TMC2    C8 1190   3.415   3.886  11.809 -0.1075  0.5627 -0.1570
   76TMC2    O1 1191   3.800   3.795  12.090 -0.0108 -0.4971  0.6415
   76TMC2    O2 1192   3.345   3.889  11.910 -0.4058 -0.3322 -0.3933
   76TMC2    O5 1193   3.370   3.823  11.691 -0.2054  0.2723  0.2941
   76TMC2    H5 1194   3.435   3.831  11.617  1.7864  0.5821  2.0627
   77MPD2     C 1195   4.049   4.430  11.333 -0.0075  0.3852  0.6558
   77MPD2    C1 1196   3.916   4.391  11.321  0.1662 -0.6470  0.1541
   77MPD2    C2 1197   3.873   4.276  11.382  0.9572 -0.0832 -0.3149
   77MPD2    C3 1198   3.958   4.210  11.473 -0.4016 -0.2209 -0.4682
   77MPD2    C4 1199   4.089   4.252  11.478 -0.3906  0.2802 -0.5956
   77MPD2    C5 1200   4.132   4.359  11.409  0.2309 -0.3751 -0.5533
   77MPD2     H 1201   3.772   4.244  11.360  1.2749 -0.2386 -1.4933
   77MPD2    H1 1202   4.143   4.198  11.555  1.7067 -2.3979 -3.9690
   77MPD2    H2 1203   4.096   4.512  11.281  1.2597  0.1835  1.4915
   77MPD2    H3 1204   4.236   4.387  11.416 -0.5335  2.0238  1.2703
   77MPD2     N 1205   3.904   4.112  11.564 -0.2574 -0.4728  0.4365
   77MPD2    H5 1206   3.974   4.061  11.618  0.9497  1.1016  0.3710
   77MPD2    N1 1207   3.816   4.464  11.252  0.2067  0.2588 -0.1747
   77MPD2    H7 1208   3.722   4.426  11.250  0.0622  0.6988 -1.3385
   78TMC2    C1 1209   0.292   1.166   1.171 -0.4787  0.9334 -0.7871
   78TMC2    C2 1210   0.168   1.220   1.201  0.1378  0.0477 -0.0887
   78TMC2    C3 1211   0.156   1.286   1.322 -0.1892  0.6631 -0.7785
   78TMC2    C4 1212   0.396   1.188   1.250 -0.4899  0.7380 -0.4281
   78TMC2    C5 1213   0.380   1.263   1.362 -0.2148 -0.6635 -0.0241
   78TMC2    C6 1214   0.258   1.311   1.403 -0.3533 -0.0126  0.9424
   78TMC2     C 1215   0.313   1.130   1.029  1.2188  0.8145  0.2850
   78TMC2     O 1216   0.227   1.168   0.951 -0.7943 -0.0981 -0.0244
   78TMC2     H 1217   0.077   1.212   1.142  1.5637 -2.0325 -1.9669
   78TMC2    H1 1218   0.496   1.160   1.218 -0.5633 -1.7354  1.5822
   78TMC2    H2 1219   0.254   1.367   1.495 -0.5702  2.6679 -0.7079
   78TMC2    C7 1220   0.497   1.305   1.447 -0.1665  0.1025  0.0252
   78TMC2    C8 1221   0.029   1.366   1.335  0.3169  0.1488  0.3305
   78TMC2    O1 1222   0.472   1.366   1.553 -0.2086 -0.2358 -0.4272
   78TMC2    O2 1223   4.677   1.354   1.250 -0.4148 -0.5867  0.1388
   78TMC2    O5 1224   0.082   1.489   1.370  0.8870 -0.4096 -0.4342
   78TMC2    H5 1225   0.156   1.491   1.434  1.2673 -1.9905 -0.8308
   79MPD1     C 1226   0.620   0.900   0.691  0.2800 -0.4778  0.9941
   79MPD1    C1 1227   0.691   0.915   0.805  0.3153 -0.2059  0.4843
   79MPD1    C2 1228   0.620   0.971   0.912  0.4569 -0.1395 -0.5814
   79MPD1    C3 1229   0.488   1.014   0.899 -0.0499  0.2072 -0.0847
   79MPD1    C4 1230   0.420   0.993   0.777 -0.4196  0.3076 -0.7109
   79MPD1    C5 1231   0.494   0.937   0.671 -0.2210 -0.9622 -0.7508
   79MPD1     H 1232   0.679   0.987   1.002  0.1837 -0.5436 -0.3325
   79MPD1    H1 1233   0.316   1.020   0.764 -0.7998 -0.7996  0.0932
   79MPD1    H2 1234   0.673   0.857   0.607  2.2977  2.2319  0.8676
   79MPD1    H3 1235   0.446   0.919   0.576 -2.3263  1.1225 -0.0738
   79MPD1     N 1236   0.432   1.062   1.018  0.7935 -0.0625 -0.2129
   79MPD1    H5 1237   0.486   1.049   1.103 -0.0605  2.6553  0.7403
   79MPD1    N1 1238   0.817   0.849   0.818  0.9401 -0.3615 -0.4310
   79MPD1    H6 1239   0.879   0.889   0.888 -1.0168 -0.4617  1.3588
   79MPD1    H7 1240   0.872   0.843   0.732  0.3195 -0.3117 -0.8298
   80TMC2    C1 1241   2.817   3.984  11.306 -0.1558 -0.7608 -0.0785
   80TMC2    C2 1242   2.865   3.974  11.181 -0.5063  0.1246 -0.9781
   80TMC2    C3 1243   2.883   3.861  11.116  0.0089 -0.3929  0.3155
   80TMC2    C4 1244   2.782   3.871  11.370 -0.4297 -0.2385  0.4619
   80TMC2    C5 1245   2.800   3.754  11.308  0.2011 -0.2397  0.0772
   80TMC2    C6 1246   2.858   3.742  11.184 -0.2977  0.2239 -0.3709
   80TMC2     C 1247   2.782   4.106  11.367  0.6115  0.6046 -0.4903
   80TMC2     O 1248   2.752   4.104  11.486  0.4576 -0.3594  0.3281
   80TMC2     H 1249   2.878   4.061  11.117 -0.8079  0.4787 -0.5627
   80TMC2    H1 1250   2.719   3.887  11.457 -1.0982 -0.1163 -0.0519
   80TMC2    H2 1251   2.862   3.651  11.125  0.0793  1.4050 -2.1795
   80TMC2    C7 1252   2.716   3.644  11.347 -0.8774  0.5239  0.0562
   80TMC2    C8 1253   2.858   3.857  10.979  0.4169 -0.4365 -0.8460
   80TMC2    O1 1254   2.688   3.560  11.258  0.7434  0.2477 -0.7025
   80TMC2    O2 1255   2.875   3.753  10.924 -1.3321 -0.6784 -0.2272
   80TMC2    O5 1256   2.752   3.936  10.947  0.4445  0.1877 -0.3505
   80TMC2    H5 1257   2.713   3.983  11.023 -1.9127 -1.0242 -0.8231
   81MPD2     C 1258   2.780   4.455  11.247  0.3331 -0.2231 -0.0005
   81MPD2    C1 1259   2.753   4.350  11.333  0.1121 -1.1199 -0.5765
   81MPD2    C2 1260   2.703   4.381  11.462 -0.0404  0.1228 -0.1440
   81MPD2    C3 1261   2.678   4.510  11.507  0.4504  0.3179  0.0485
   81MPD2    C4 1262   2.695   4.613  11.416 -0.3646 -0.2594 -0.2435
   81MPD2    C5 1263   2.746   4.582  11.290  0.5675  0.2723  0.3501
   81MPD2     H 1264   2.676   4.294  11.521  3.2194 -1.0579 -0.3885
   81MPD2    H1 1265   2.677   4.716  11.446  1.7451  0.0893 -0.2300
   81MPD2    H2 1266   2.824   4.443  11.148 -2.6445 -3.0392 -0.9936
   81MPD2    H3 1267   2.766   4.666  11.224  2.9690 -1.7363 -1.4797
   81MPD2     N 1268   2.618   4.537  11.629 -0.0513  0.5300 -0.0798
   81MPD2    H5 1269   2.579   4.630  11.636 -2.9558 -0.5304 -2.0553
   81MPD2    N1 1270   2.789   4.223  11.292 -0.2621  0.9221  0.3076
   81MPD2    H7 1271   2.835   4.216  11.202 -0.3227  1.8102  0.2029
   82TMC2    C1 1272   0.961   3.630  11.390  0.0069  0.4168 -0.0818
   82TMC2    C2 1273   0.917   3.665  11.518  0.3182 -0.1150 -0.3120
   82TMC2    C3 1274   0.985   3.618  11.621  0.2765 -0.0431  0.3149
   82TMC2    C4 1275   1.080   3.557  11.373 -0.0355  0.5741 -0.0185
   82TMC2    C5 1276   1.140   3.499  11.481 -0.5620  0.3269 -0.2411
   82TMC2    C6 1277   1.101   3.545  11.605  1.0670 -0.2522 -0.2327
   82TMC2     C 1278   0.928   3.724  11.287 -0.3288 -0.5702  0.4022
   82TMC2     O 1279   0.814   3.761  11.260 -0.0489 -0.1114  0.5131
   82TMC2     H 1280   0.824   3.716  11.540  0.6943  0.9576 -1.1736
   82TMC2    H1 1281   1.114   3.517  11.279 -1.0492  1.2594 -0.6835
   82TMC2    H2 1282   1.152   3.507  11.692  1.4782 -1.7506 -1.1248
   82TMC2    C7 1283   1.268   3.436  11.460 -0.1335 -0.2008  0.1773
   82TMC2    C8 1284   0.919   3.614  11.755 -0.2109 -0.2553 -0.2285
   82TMC2    O1 1285   1.323   3.464  11.356  0.2540  0.1449  0.6461
   82TMC2    O2 1286   0.953   3.531  11.837 -0.0256 -0.3823  0.5390
   82TMC2    O5 1287   0.867   3.736  11.787 -0.0057 -0.3011  0.4037
   82TMC2    H5 1288   0.856   3.799  11.713 -1.5566 -1.4436 -0.3397
   83MPD2     C 1289   1.095   3.916  10.831 -0.3544 -0.6371 -0.4002
   83MPD2    C1 1290   0.966   3.906  10.886  0.5568  0.7893  1.2878
   83MPD2    C2 1291   0.959   3.867  11.018  0.5644  0.7053  0.2369
   83MPD2    C3 1292   1.062   3.825  11.098  0.6443  0.2180 -0.1469
   83MPD2    C4 1293   1.192   3.830  11.041  0.1627  0.7279 -0.2396
   83MPD2    C5 1294   1.199   3.864  10.910  0.3091 -0.3150 -0.5208
   83MPD2     H 1295   0.861   3.877  11.062  1.5315  0.8873  2.3537
   83MPD2    H1 1296   1.283   3.806  11.094 -0.2946  0.1646  0.2958
   83MPD2    H2 1297   1.106   3.945  10.727  0.3722 -1.9608 -0.6842
   83MPD2    H3 1298   1.294   3.865  10.856  1.4878 -2.3468  1.5638
   83MPD2     N 1299   1.049   3.758  11.225 -0.1718  0.6015  0.2864
   83MPD2    H5 1300   1.135   3.730  11.272  0.2231 -0.8387 -1.2923
   83MPD2    N1 1301   0.858   3.954  10.812  0.5352 -0.2310 -0.1577
   83MPD2    H7 1302   0.886   3.970  10.716 -2.1688 -0.8018 -1.0545
   84TMC2    C1 1303   2.537   3.172  11.077 -0.9366  0.5604  0.6504
   84TMC2    C2 1304   2.648   3.218  11.147 -0.6984 -0.4897 -0.1109
   84TMC2    C3 1305   2.758   3.257  11.074  0.0648 -0.3108  0.0965
   84TMC2    C4 1306   2.545   3.168  10.938 -0.3152 -0.6761 -0.4983
   84TMC2    C5 1307   2.645   3.226  10.870  0.7611 -0.1166  0.4165
   84TMC2    C6 1308   2.756   3.280  10.935  0.5017 -0.2584  0.4183
   84TMC2     C 1309   2.413   3.173  11.154 -0.9958 -0.1594  0.3044
   84TMC2     O 1310   2.413   3.235  11.258 -0.1368 -0.0099  0.2668
   84TMC2     H 1311   2.639   3.228  11.254 -0.8971  1.7222 -0.3256
   84TMC2    H1 1312   2.463   3.141  10.872 -1.2625  0.1980  0.3258
   84TMC2    H2 1313   2.849   3.309  10.888 -0.5860  0.5679 -1.1901
   84TMC2    C7 1314   2.663   3.192  10.723  0.5973  0.1284 -0.6824
   84TMC2    C8 1315   2.873   3.309  11.147 -0.7350 -0.1365  1.1768
   84TMC2    O1 1316   2.592   3.108  10.668  1.1118  0.1367  0.0296
   84TMC2    O2 1317   2.927   3.413  11.122 -0.3559  0.5583  0.0348
   84TMC2    O5 1318   2.890   3.220  11.250 -0.1638 -0.0044 -0.1961
   84TMC2    H5 1319   2.838   3.139  11.233 -0.3559  0.0999 -0.1028
   85TMC2    C1 1320   3.020   0.999  15.595 -0.0884 -0.1271  0.0162
   85TMC2    C2 1321   2.887   1.012  15.572  0.3584  0.5238 -0.1587
   85TMC2    C3 1322   2.854   1.086  15.459  0.3803  0.0984 -0.4460
   85TMC2    C4 1323   3.123   1.056  15.519 -0.5943 -0.3557  0.6194
   85TMC2    C5 1324   3.081   1.126  15.408 -0.2155  0.1445  0.5964
   85TMC2    C6 1325   2.949   1.128  15.370  0.2428 -0.2964  0.1138
   85TMC2     C 1326   3.075   0.917  15.705  0.2254 -0.1218  0.4219
   85TMC2     O 1327   3.186   0.935  15.742  0.0519 -0.2568  0.2794
   85TMC2     H 1328   2.822   0.979  15.652  0.0070 -0.8333 -1.0041
   85TMC2    H1 1329   3.225   1.034  15.548 -0.7412 -2.3983 -0.3873
   85TMC2    H2 1330   2.909   1.185  15.287  2.7989  0.1973 -0.7989
   85TMC2    C7 1331   3.175   1.115  15.300 -0.7117 -0.5011  0.8223
   85TMC2    C8 1332   2.714   1.108  15.433  0.1901 -0.5005  0.2250
   85TMC2    O1 1333   3.264   1.029  15.311  0.0699  0.1172 -0.6472
   85TMC2    O2 1334   2.679   1.165  15.335 -0.0138 -0.6093  0.5210
   85TMC2    O5 1335   2.656   0.995  15.467  0.6755  0.5185  0.1534
   85TMC2    H5 1336   2.692   0.933  15.535  0.3775 -0.3163 -0.4499
   86MPD2     C 1337   3.030   0.538  16.050 -0.0431  0.3590  0.1825
   86MPD2    C1 1338   2.927   0.522  15.956 -0.4673 -0.7278  0.9344
   86MPD2    C2 1339   2.906   0.623  15.863  0.4074 -0.0100 -0.3894
   86MPD2    C3 1340   2.996   0.725  15.847 -0.8556 -0.4216 -0.0769
   86MPD2    C4 1341   3.100   0.741  15.938 -0.0978 -0.3303  0.1825
   86MPD2    C5 1342   3.112   0.644  16.031 -0.5610  0.0237 -0.8401
   86MPD2     H 1343   2.833   0.607  15.784  0.2301 -3.1170  0.4268
   86MPD2    H1 1344   3.169   0.824  15.932 -1.9007  1.2662  1.3558
   86MPD2    H2 1345   3.059   0.460  16.119 -1.8648  0.3512  0.9264
   86MPD2    H3 1346   3.197   0.662  16.095 -0.4757 -1.6025 -0.4968
   86MPD2     N 1347   2.981   0.822  15.743 -0.0034  0.6842 -0.2866
   86MPD2    H5 1348   2.898   0.811  15.686 -0.3431  0.8087  0.1854
   86MPD2    N1 1349   2.834   0.412  15.961  0.0441  0.2939  0.0992
   86MPD2    H7 1350   2.764   0.402  15.888  1.2268  1.7061 -1.2305
   87TMC2    C1 1351   1.176   4.181   0.705 -0.3057  0.0518  0.6251
   87TMC2    C2 1352   1.231   4.257   0.807  0.0792  0.6908  0.4188
   87TMC2    C3 1353   1.140   4.342   0.868 -0.5023 -0.4019  0.6526
   87TMC2    C4 1354   1.044   4.195   0.674 -0.3226  0.4564  0.4154
   87TMC2    C5 1355   0.959   4.287   0.736 -0.1380 -0.0847  0.7223
   87TMC2    C6 1356   1.010   4.362   0.837 -0.4335  0.0488  1.0575
   87TMC2     C 1357   1.267   4.108   0.617 -0.0579  0.7040 -0.0845
   87TMC2     O 1358   1.371   4.166   0.592 -0.3587  0.0233  0.4881
   87TMC2     H 1359   1.333   4.241   0.841  0.4114  3.1639  0.5424
   87TMC2    H1 1360   1.023   4.132   0.589 -1.0084  0.1750  0.7968
   87TMC2    H2 1361   0.952   4.438   0.888 -2.0665 -1.7901  1.9164
   87TMC2    C7 1362   0.815   4.294   0.717 -0.4312  1.1175  0.1154
   87TMC2    C8 1363   1.184   4.390   0.993  0.2072  0.2873 -0.4553
   87TMC2    O1 1364   0.748   4.385   0.774 -0.2374 -0.0673  0.2615
   87TMC2    O2 1365   1.249   4.319   1.068  0.1009  0.7714 -0.4914
   87TMC2    O5 1366   1.146   4.520   1.014 -0.4093 -0.0706  0.3576
   87TMC2    H5 1367   1.116   4.573   0.937  2.1814  1.6998  0.5619
   88MPD2     C 1368   0.617   4.074   0.497  0.2712 -0.1056  0.4043
   88MPD2    C1 1369   0.645   4.190   0.559 -0.1944  0.3556 -0.7085
   88MPD2    C2 1370   0.563   4.307   0.532 -0.0115  0.1791 -0.3584
   88MPD2    C3 1371   0.445   4.293   0.467  0.0485 -0.0773 -0.0249
   88MPD2    C4 1372   0.405   4.166   0.420  0.0231  0.0640 -1.3441
   88MPD2    C5 1373   0.495   4.060   0.439  0.2040  0.3792 -0.2362
   88MPD2     H 1374   0.604   4.400   0.570  0.6744  0.3065 -1.4048
   88MPD2    H1 1375   0.312   4.145   0.370  1.4951 -0.8078 -3.7181
   88MPD2    H2 1376   0.665   3.977   0.511  0.5543  0.1756  1.3689
   88MPD2    H3 1377   0.473   3.966   0.389 -2.1200  0.1965  1.1224
   88MPD2     N 1378   0.368   4.401   0.423  0.9787 -0.0293  0.5447
   88MPD2    H5 1379   0.297   4.387   0.351  0.7760 -0.5249  0.8444
   88MPD2    N1 1380   0.766   4.193   0.637  0.6671  0.2725  0.1664
   88MPD2    H7 1381   0.827   4.113   0.623 -0.0966 -0.0991 -1.0953
   89TMC2    C1 1382   0.897   2.543   1.170  0.5881  0.5305 -0.5044
   89TMC2    C2 1383   0.856   2.668   1.158 -0.0558 -0.6690 -0.0297
   89TMC2    C3 1384   0.810   2.717   1.043 -0.1847  0.5659 -0.1132
   89TMC2    C4 1385   0.913   2.463   1.063 -0.5014 -0.0317 -0.2837
   89TMC2    C5 1386   0.907   2.530   0.940  0.3192 -0.0819  1.2894
   89TMC2    C6 1387   0.849   2.655   0.927 -0.1976  0.1323 -0.7988
   89TMC2     C 1388   0.959   2.503   1.298  0.0896  0.7311  0.8756
   89TMC2     O 1389   1.013   2.590   1.365  0.1644 -0.0658  0.1660
   89TMC2     H 1390   0.839   2.721   1.251  0.3559 -2.5278  1.1159
   89TMC2    H1 1391   0.986   2.382   1.062 -1.3029 -0.7818  1.6117
   89TMC2    H2 1392   0.837   2.693   0.826 -2.0093  0.0052 -0.6336
   89TMC2    C7 1393   0.941   2.461   0.818 -0.7771  0.1961 -0.2346
   89TMC2    C8 1394   0.789   2.856   1.044 -0.4913 -0.2164  0.1353
   89TMC2    O1 1395   0.860   2.479   0.729  0.0244  0.0884 -0.0511
   89TMC2    O2 1396   0.698   2.901   0.977 -0.0309 -0.2751  0.2181
   89TMC2    O5 1397   0.912   2.913   1.062 -0.2506 -0.5519  0.8831
   89TMC2    H5 1398   0.981   2.860   1.108 -1.2394 -0.8075  2.0554
   90MPD2     C 1399   1.046   2.149   1.659 -0.7311  0.3274 -0.1959
   90MPD2    C1 1400   0.980   2.087   1.551 -0.5864  0.4411  0.8659
   90MPD2    C2 1401   0.941   2.164   1.437 -0.4719 -0.4840 -0.5507
   90MPD2    C3 1402   0.964   2.298   1.444 -0.2743 -0.7273  0.4575
   90MPD2    C4 1403   1.045   2.356   1.532 -0.3057  0.5180 -0.1900
   90MPD2    C5 1404   1.082   2.279   1.640  0.5834 -0.2456 -0.2852
   90MPD2     H 1405   0.905   2.105   1.353  0.0882 -2.1059  0.3304
   90MPD2    H1 1406   1.064   2.462   1.538  1.5688  0.1115  1.1802
   90MPD2    H2 1407   1.059   2.087   1.747  0.1231  0.9809  0.1359
   90MPD2    H3 1408   1.130   2.325   1.726 -0.6304 -2.4980  1.6020
   90MPD2     N 1409   0.922   2.372   1.327 -0.6900 -0.0802  0.0063
   90MPD2    H5 1410   0.859   2.318   1.268 -0.5733  3.1123 -2.9762
   90MPD2    N1 1411   0.964   1.945   1.547 -0.1040  0.4602 -0.2493
   90MPD2    H7 1412   0.899   1.903   1.482  0.8635  0.8733 -1.4744
   91TMC2    C1 1413   2.713   1.724  16.079  0.4448 -0.5117 -0.4683
   91TMC2    C2 1414   2.784   1.744  16.203 -0.2266 -0.4311 -0.1225
   91TMC2    C3 1415   2.716   1.712  16.316  0.2986  0.2268 -0.1698
   91TMC2    C4 1416   2.584   1.682  16.075  0.3955 -0.2924  0.5633
   91TMC2    C5 1417   2.513   1.683  16.192  0.8215 -0.5982 -0.3686
   91TMC2    C6 1418   2.579   1.699  16.317  0.3923  0.2948  0.8050
   91TMC2     C 1419   2.785   1.693  15.957 -0.1839 -0.6624 -0.0580
   91TMC2     O 1420   2.724   1.706  15.847 -0.0029 -0.2633 -0.2888
   91TMC2     H 1421   2.886   1.781  16.204 -0.6603  0.6360  2.3271
   91TMC2    H1 1422   2.529   1.668  15.982  0.6911 -3.4235  0.8799
   91TMC2    H2 1423   2.531   1.683  16.413  0.6465  0.3968  0.9503
   91TMC2    C7 1424   2.397   1.598  16.198 -0.5262  0.2354  0.0142
   91TMC2    C8 1425   2.775   1.745  16.446 -0.6559 -0.0469  0.4029
   91TMC2    O1 1426   2.391   1.525  16.297  0.1180 -0.3067  0.1217
   91TMC2    O2 1427   2.715   1.824  16.518 -0.0462  0.0755  0.1387
   91TMC2    O5 1428   2.906   1.713  16.448 -0.0371  0.6760 -0.3946
   91TMC2    H5 1429   2.926   1.648  16.377 -0.2988 -1.2814  1.3378
   92MPD2     C 1430   3.010   1.710  15.760 -0.0465 -0.3697 -0.1829
   92MPD2    C1 1431   3.021   1.672  15.887  0.6277  0.3228  0.0544
   92MPD2    C2 1432   3.142   1.613  15.929  0.3302 -0.3824 -0.4719
   92MPD2    C3 1433   3.248   1.598  15.837 -0.3739  0.1365  0.2275
   92MPD2    C4 1434   3.234   1.652  15.714  0.6583 -0.6113  0.5636
   92MPD2    C5 1435   3.118   1.710  15.675  0.5881 -0.4036 -0.3327
   92MPD2     H 1436   3.147   1.586  16.034 -0.1318  0.4929 -0.2234
   92MPD2    H1 1437   3.314   1.658  15.641  1.0367 -0.7352  0.9728
   92MPD2    H2 1438   2.919   1.745  15.714 -0.3524 -1.5373 -0.4598
   92MPD2    H3 1439   3.107   1.753  15.576  1.1790 -1.3409 -0.8054
   92MPD2     N 1440   3.369   1.542  15.882 -0.9130 -0.2617  0.6244
   92MPD2    H5 1441   3.370   1.523  15.981  0.0631  1.9970  1.0392
   92MPD2    N1 1442   2.914   1.681  15.983 -0.3484 -0.3996  0.6131
   92MPD2    H7 1443   2.929   1.646  16.077 -0.5131 -0.3319  0.6628
   93TMC2    C1 1444   0.135   1.414  13.812  0.5509  0.4604 -0.5868
   93TMC2    C2 1445   0.175   1.282  13.790 -0.3832  0.2429  0.2136
   93TMC2    C3 1446   0.308   1.263  13.825  0.2220  0.2604 -1.0740
   93TMC2    C4 1447   0.220   1.511  13.858 -0.0095 -0.4977 -0.5593
   93TMC2    C5 1448   0.351   1.482  13.896  0.1508 -0.4493  0.0469
   93TMC2    C6 1449   0.402   1.354  13.874 -0.3588  0.1556  0.4010
   93TMC2     C 1450   0.001   1.447  13.769 -0.4111 -0.1552 -0.5329
   93TMC2     O 1451   4.722   1.571  13.755  0.4596  0.6941  0.1759
   93TMC2     H 1452   0.112   1.203  13.748  1.3286 -1.7974  1.4843
   93TMC2    H1 1453   0.180   1.612  13.863 -0.0047 -0.4827 -0.8531
   93TMC2    H2 1454   0.498   1.317  13.907 -0.5259  0.2476  0.9791
   93TMC2    C7 1455   0.451   1.584  13.912 -0.2174 -0.1711 -0.0337
   93TMC2    C8 1456   0.354   1.137  13.776  1.0774  0.3456  0.0570
   93TMC2    O1 1457   0.563   1.543  13.885 -0.0567  0.4218  0.5765
   93TMC2    O2 1458   0.296   1.027  13.775 -0.3619  0.2560 -0.6519
   93TMC2    O5 1459   0.478   1.161  13.741 -0.3449  0.1959 -0.5800
   93TMC2    H5 1460   0.486   1.259  13.736 -1.2109  0.2290 -1.3670
   94MPD2     C 1461   4.436   1.264  13.832 -0.0571  0.0770  0.3135
   94MPD2    C1 1462   4.509   1.362  13.768 -0.1013 -0.6072 -0.5006
   94MPD2    C2 1463   4.446   1.473  13.710  0.1739  0.7754 -0.4701
   94MPD2    C3 1464   4.311   1.483  13.717 -0.6949  0.1044  0.4814
   94MPD2    C4 1465   4.238   1.383  13.778  0.4268 -0.4096  0.1736
   94MPD2    C5 1466   4.302   1.281  13.844 -0.2852  0.4308 -0.6509
   94MPD2     H 1467   4.508   1.546  13.659 -2.7815  0.9179 -3.8571
   94MPD2    H1 1468   4.130   1.388  13.778  0.3036 -2.6907 -1.5308
   94MPD2    H2 1469   4.487   1.179  13.876  0.6846  0.5470  0.3493
   94MPD2    H3 1470   4.245   1.204  13.894 -0.2077  1.7675  1.5039
   94MPD2     N 1471   4.226   1.576  13.656  0.0361 -0.1439 -0.1326
   94MPD2    H5 1472   4.130   1.578  13.687 -0.4242 -1.7712 -1.4318
   94MPD2    N1 1473   4.650   1.344  13.773  0.0101  0.0418 -0.0935
   94MPD2    H7 1474   4.678   1.247  13.789  1.2509  0.2262 -1.2082
   95TMC2    C1 1475   0.322   4.066  16.257 -0.1988 -0.1833 -0.4603
   95TMC2    C2 1476   0.300   3.959  16.331  0.0613 -0.1209 -0.4321
   95TMC2    C3 1477   0.356   3.960  16.461  0.1726 -0.7372  0.6831
   95TMC2    C4 1478   0.389   4.179  16.307 -0.2162 -0.6814  0.4717
   95TMC2    C5 1479   0.434   4.178  16.432  0.0520  0.5205 -0.4885
   95TMC2    C6 1480   0.419   4.064  16.513  0.2796  0.7809  0.8973
   95TMC2     C 1481   0.343   4.042  16.117 -0.2096 -0.2943  0.3594
   95TMC2     O 1482   0.417   4.115  16.051  0.1637  0.2955 -0.0930
   95TMC2     H 1483   0.262   3.867  16.289  1.5543 -0.6137 -0.6944
   95TMC2    H1 1484   0.400   4.261  16.236 -0.1550  0.5452  1.8949
   95TMC2    H2 1485   0.450   4.067  16.617 -0.2834  1.5987  1.0401
   95TMC2    C7 1486   0.536   4.283  16.462  0.3250 -0.3656  0.6906
   95TMC2    C8 1487   0.356   3.831  16.532 -0.5824  0.2944  0.4287
   95TMC2    O1 1488   0.584   4.354  16.379  0.1489  0.2816 -0.5241
   95TMC2    O2 1489   0.262   3.754  16.536 -0.1231 -0.9395 -0.1635
   95TMC2    O5 1490   0.454   3.825  16.626  0.0075 -0.1897 -0.0002
   95TMC2    H5 1491   0.516   3.900  16.613 -1.4117  1.2281  1.4499
   96MPD2     C 1492   0.322   3.745  15.710 -0.3928  0.2963  0.6762
   96MPD2    C1 1493   0.421   3.826  15.758 -0.2119  0.5566 -0.3019
   96MPD2    C2 1494   0.402   3.894  15.881 -0.3143  0.4091 -0.2107
   96MPD2    C3 1495   0.276   3.886  15.950 -0.5110  0.2142 -0.3167
   96MPD2    C4 1496   0.184   3.800  15.902 -0.0224  1.0503  0.8819
   96MPD2    C5 1497   0.209   3.730  15.780  0.4262  0.4886 -0.0867
   96MPD2     H 1498   0.481   3.962  15.912 -0.4379  0.5079 -0.1099
   96MPD2    H1 1499   0.087   3.790  15.948  0.5005  1.1657  2.0046
   96MPD2    H2 1500   0.332   3.682  15.623  1.8000  0.1868  1.0120
   96MPD2    H3 1501   0.119   3.681  15.746 -0.4415  1.7403  0.3757
   96MPD2     N 1502   0.254   3.947  16.073 -0.5488  0.5393  0.0539
   96MPD2    H5 1503   0.177   3.910  16.128  0.3120 -0.2886  0.7015
   96MPD2    N1 1504   0.531   3.844  15.669  0.0185 -0.3914  0.0665
   96MPD2    H7 1505   0.527   3.803  15.576 -2.5218 -0.8220  0.3693
   97TMC2    C1 1506   2.395   1.834   0.652 -0.1835  0.0543 -0.0299
   97TMC2    C2 1507   2.267   1.874   0.667  0.0583  0.2316 -0.8027
   97TMC2    C3 1508   2.219   1.981   0.593 -0.8985 -0.6658 -0.1380
   97TMC2    C4 1509   2.481   1.898   0.574 -0.8799 -0.7168 -0.1035
   97TMC2    C5 1510   2.432   2.014   0.513  0.0426  0.4974  0.4212
   97TMC2    C6 1511   2.302   2.060   0.519  0.1774 -0.1645 -1.1506
   97TMC2     C 1512   2.427   1.701   0.702 -0.2423  0.0940 -0.2083
   97TMC2     O 1513   2.368   1.652   0.796  0.5243 -0.3232  0.1191
   97TMC2     H 1514   2.192   1.814   0.715  3.6311 -1.4568  2.6513
   97TMC2    H1 1515   2.585   1.868   0.574 -1.3760 -2.4249  0.7979
   97TMC2    H2 1516   2.260   2.152   0.479 -0.0286 -0.3212 -1.2927
   97TMC2    C7 1517   2.527   2.104   0.441  0.0626 -0.0576 -0.2164
   97TMC2    C8 1518   2.078   2.016   0.583 -0.5216  0.7258  0.4043
   97TMC2    O1 1519   2.645   2.075   0.446 -0.0737  0.2617 -0.1006
   97TMC2    O2 1520   2.045   2.094   0.493  0.1162 -0.2077  0.2089
   97TMC2    O5 1521   2.023   2.025   0.707 -0.5244  0.3806 -0.4257
   97TMC2    H5 1522   2.073   1.975   0.774 -0.1542  2.0312  0.5383
   98MPD2     C 1523   2.658   1.241   0.589  0.3575  0.6078 -0.0980
   98MPD2    C1 1524   2.557   1.275   0.675 -0.6274  0.1597 -0.1337
   98MPD2    C2 1525   2.504   1.403   0.678  0.2709  0.3900 -0.6263
   98MPD2    C3 1526   2.554   1.504   0.602 -0.5691  0.7808 -0.4111
   98MPD2    C4 1527   2.657   1.475   0.511 -0.6284 -0.2770  0.5936
   98MPD2    C5 1528   2.705   1.344   0.505  0.0774 -0.7473  0.0393
   98MPD2     H 1529   2.420   1.420   0.744 -1.0105  0.0587 -2.1822
   98MPD2    H1 1530   2.677   1.553   0.438 -1.7237 -1.1974 -0.6801
   98MPD2    H2 1531   2.696   1.140   0.580  0.9826  0.6772  1.8288
   98MPD2    H3 1532   2.784   1.318   0.435  2.1709  2.6003  1.1687
   98MPD2     N 1533   2.509   1.637   0.604 -0.5632  0.3846 -0.4662
   98MPD2    H5 1534   2.535   1.698   0.527  1.1984 -0.8606 -0.8558
   98MPD2    N1 1535   2.506   1.165   0.754  0.1104  0.3465  0.0262
   98MPD2    H7 1536   2.554   1.081   0.723  1.9378  0.5041  2.5081
   99TMC2    C1 1537   1.411   3.573   1.285  0.1478 -0.0205  0.4222
   99TMC2    C2 1538   1.517   3.651   1.308 -0.0341  0.2566 -0.0311
   99TMC2    C3 1539   1.496   3.783   1.297 -0.6397  0.3645 -0.8525
   99TMC2    C4 1540   1.283   3.621   1.256 -1.1074  0.0611 -0.9226
   99TMC2    C5 1541   1.270   3.759   1.255 -0.5984 -0.0683 -0.0278
   99TMC2    C6 1542   1.371   3.841   1.281 -0.4622 -0.4831 -0.3940
   99TMC2     C 1543   1.445   3.433   1.280 -0.4406  0.2099 -0.4970
   99TMC2     O 1544   1.561   3.404   1.302 -0.8176 -0.2387  0.1277
   99TMC2     H 1545   1.617   3.616   1.333  0.0555  1.3500  1.1389
   99TMC2    H1 1546   1.199   3.554   1.240 -1.2861  0.0666 -0.0127
   99TMC2    H2 1547   1.360   3.946   1.304  2.4283  0.2318 -2.3176
   99TMC2    C7 1548   1.136   3.815   1.258  0.4386 -0.5720  0.7000
   99TMC2    C8 1549   1.607   3.868   1.282 -0.0898  0.6734 -0.1891
   99TMC2    O1 1550   1.133   3.934   1.282  0.7631  0.1778 -0.9489
   99TMC2    O2 1551   1.714   3.812   1.313  0.0193 -0.3061 -0.1170
   99TMC2    O5 1552   1.576   3.902   1.163 -0.5766  0.3950  0.7774
   99TMC2    H5 1553   1.501   3.964   1.158 -0.5989  0.3956  1.0980
  100MPD2     C 1554   1.463   3.146   1.227 -0.8928  0.1788 -0.3472
  100MPD2    C1 1555   1.369   3.232   1.164  0.8165  0.0067  0.2237
  100MPD2    C2 1556   1.281   3.175   1.069 -0.2578  0.1904  0.0821
  100MPD2    C3 1557   1.308   3.044   1.017  0.5122 -0.0499 -0.5259
  100MPD2    C4 1558   1.412   2.972   1.075  0.3076  0.6277 -0.1361
  100MPD2    C5 1559   1.482   3.016   1.180  1.2100 -0.3204 -0.2419
  100MPD2     H 1560   1.209   3.238   1.018 -0.6988  0.3170  0.8762
  100MPD2    H1 1561   1.435   2.872   1.040  1.7400  0.3529  1.6474
  100MPD2    H2 1562   1.522   3.183   1.310 -0.4689 -2.7556  0.6437
  100MPD2    H3 1563   1.542   2.942   1.231  0.4617 -1.8328 -1.5596
  100MPD2     N 1564   1.230   2.996   0.910 -0.5705 -0.0923  0.1632
  100MPD2    H5 1565   1.161   3.059   0.870 -0.5579 -0.0716  0.1738
  100MPD2    N1 1566   1.347   3.362   1.207 -0.0013 -0.2576  0.3592
  100MPD2    H7 1567   1.269   3.419   1.177 -0.2072 -1.5799 -1.6600
  101TMC2    C1 1568   1.295   4.561  12.389 -0.7623 -0.1228 -0.2743
  101TMC2    C2 1569   1.197   4.630  12.449  0.4268 -0.4893  0.1131
  101TMC2    C3 1570   1.192   0.019  12.411 -0.1596 -0.2756 -0.1675
  101TMC2    C4 1571   1.398   4.615  12.311 -0.2440  0.0919  0.1355
  101TMC2    C5 1572   1.398   0.013  12.294  0.3001  0.1691 -0.9544
  101TMC2    C6 1573   1.288   0.086  12.343  0.4082 -0.7087  0.3188
  101TMC2     C 1574   1.331   4.434  12.449  0.0491  0.0882 -0.2705
  101TMC2     O 1575   1.299   4.420  12.567 -0.3923  0.1746  0.1985
  101TMC2     H 1576   1.111   4.572  12.478  0.0482  1.7142  3.4003
  101TMC2    H1 1577   1.476   4.548  12.276  0.8539  0.6822  1.4255
  101TMC2    H2 1578   1.260   0.185  12.311  1.3617 -0.9443 -1.2816
  101TMC2    C7 1579   1.513   0.080  12.227 -0.4933  0.4051 -0.5619
  101TMC2    C8 1580   1.070   0.087  12.431 -0.4313 -0.9530 -0.0252
  101TMC2    O1 1581   1.587   0.013  12.154  0.5696  0.5697  0.3269
  101TMC2    O2 1582   1.024   0.176  12.356  0.0293  0.3544  0.1268
  101TMC2    O5 1583   1.026   0.041  12.557 -0.0743  0.3462  0.1060
  101TMC2    H5 1584   1.099   4.741  12.608  1.6903  0.2193 -2.5159
  102MPD2     C 1585   1.398   4.128  12.273 -0.1287 -0.2696 -0.0892
  102MPD2    C1 1586   1.385   4.206  12.384 -0.7676 -0.1102  0.6501
  102MPD2    C2 1587   1.418   4.151  12.508 -0.2542 -0.0508  0.3075
  102MPD2    C3 1588   1.451   4.013  12.524 -0.1060 -0.1783 -0.3428
  102MPD2    C4 1589   1.464   3.939  12.407 -0.7672  0.1355  0.1047
  102MPD2    C5 1590   1.432   3.995  12.283 -0.1336  0.4912  0.7056
  102MPD2     H 1591   1.416   4.214  12.596 -0.1401  1.4556 -0.7629
  102MPD2    H1 1592   1.489   3.833  12.407  0.7806  0.5080 -1.6843
  102MPD2    H2 1593   1.390   4.175  12.176 -1.3267 -0.4633 -0.0886
  102MPD2    H3 1594   1.441   3.942  12.188 -0.4517  0.6872  0.5668
  102MPD2     N 1595   1.474   3.962  12.653 -0.0596 -0.3246 -0.1397
  102MPD2    H5 1596   1.460   4.028  12.728  1.1619 -1.0520  0.7227
  102MPD2    N1 1597   1.351   4.339  12.354  0.1196 -0.2715  0.0477
  102MPD2    H7 1598   1.354   4.361  12.255  0.4125 -1.0475 -0.1102
  103TMC2    C1 1599   4.378   4.429  12.190  0.1119  0.0182 -0.4355
  103TMC2    C2 1600   4.411   4.520  12.096 -0.2488 -0.0456  0.0380
  103TMC2    C3 1601   4.418   4.651  12.139 -0.0453 -0.2755 -0.2306
  103TMC2    C4 1602   4.349   4.473  12.320  0.9102 -0.1856 -0.5277
  103TMC2    C5 1603   4.354   4.606  12.357 -0.2235  0.6957 -0.9509
  103TMC2    C6 1604   4.392   4.696  12.263  0.1059 -0.7355 -0.2027
  103TMC2     C 1605   4.309   4.323  12.131  0.6811  0.5613  0.5566
  103TMC2     O 1606   4.286   4.325  12.011 -0.3118 -0.0533 -0.1952
  103TMC2     H 1607   4.427   4.493  11.992  0.6558  1.5557 -0.2467
  103TMC2    H1 1608   4.310   4.406  12.396 -0.2042 -0.0729 -1.0105
  103TMC2    H2 1609   4.409   0.057  12.297 -1.9838 -0.6603  0.6439
  103TMC2    C7 1610   4.297   4.639  12.481  0.1590  0.2180  0.0346
  103TMC2    C8 1611   4.423   0.019  12.037  0.3739  0.5592  0.4348
  103TMC2    O1 1612   4.297   4.546  12.563  0.1647 -0.2888 -0.2136
  103TMC2    O2 1613   4.349   0.118  12.051 -0.0632  0.5556 -0.1121
  103TMC2    O5 1614   4.464   4.718  11.913 -0.1521 -0.0245  0.1086
  103TMC2    H5 1615   4.525   4.642  11.922 -0.3477 -0.2157 -0.1725
  104MPD2     C 1616   4.239   3.999  12.298 -0.4175  0.6342  0.4547
  104MPD2    C1 1617   4.216   4.095  12.212  0.8030  0.4880  0.3936
  104MPD2    C2 1618   4.121   4.086  12.116  0.4927  0.1859 -0.1527
  104MPD2    C3 1619   4.033   3.980  12.117 -0.6831  0.1404 -0.4732
  104MPD2    C4 1620   4.048   3.886  12.218 -1.3725  0.5483  0.5848
  104MPD2    C5 1621   4.149   3.893  12.308 -0.6611  0.3046 -1.2961
  104MPD2     H 1622   4.112   4.163  12.041 -0.1679 -0.3425 -0.6146
  104MPD2    H1 1623   3.992   3.794  12.222  0.5945 -0.7850 -2.3717
  104MPD2    H2 1624   4.327   4.006  12.360  0.0951  1.5202 -0.3729
  104MPD2    H3 1625   4.166   3.824  12.390  0.7493  2.6223  0.3390
  104MPD2     N 1626   3.929   3.981  12.016  0.7384 -0.6642 -0.0329
  104MPD2    H5 1627   3.927   4.052  11.944 -1.7414 -2.2983 -1.5937
  104MPD2    N1 1628   4.302   4.215  12.219  0.3787  0.3649 -0.1662
  104MPD2    H7 1629   4.360   4.219  12.302  0.5561 -2.0854 -0.1872
  105TMC2    C1 1630   1.876   3.875  17.647 -0.2469 -0.5819 -0.6465
  105TMC2    C2 1631   1.854   4.009  17.616  0.1053 -0.3452 -0.0992
  105TMC2    C3 1632   1.776   4.076  17.709  0.3752  0.7386  0.7332
  105TMC2    C4 1633   1.834   3.820   0.005 -0.4360 -0.6131  0.7600
  105TMC2    C5 1634   1.752   3.896   0.087  0.0429 -0.3040  0.1542
  105TMC2    C6 1635   1.725   4.022   0.060  0.1392 -0.7327  0.2442
  105TMC2     C 1636   1.970   3.811  17.565 -0.6007  0.1014  0.0251
  105TMC2     O 1637   2.072   3.756  17.610  0.2937 -0.1538  0.5336
  105TMC2     H 1638   1.893   4.062  17.530 -1.1933 -2.3858 -1.9566
  105TMC2    H1 1639   1.860   3.716   0.019  1.4283 -0.1022  0.9975
  105TMC2    H2 1640   1.663   4.081   0.127  2.0083  2.0402 -0.4618
  105TMC2    C7 1641   1.676   3.826   0.184  0.0809 -0.0336 -0.5438
  105TMC2    C8 1642   1.756   4.214  17.694  1.2113 -0.5597 -0.6139
  105TMC2    O1 1643   1.690   3.706   0.184 -0.2691 -0.0203 -0.3109
  105TMC2    O2 1644   1.756   4.292   0.027 -0.1764 -0.1591  0.0009
  105TMC2    O5 1645   1.736   4.238  17.561 -0.2082 -0.4931 -0.4243
  105TMC2    H5 1646   1.749   4.151  17.518 -0.2552  0.3925 -2.2080
  106MPD2     C 1647   2.076   3.610  17.105 -0.3080 -0.7560 -0.7567
  106MPD2    C1 1648   1.969   3.698  17.085  0.4256 -0.3106 -0.1915
  106MPD2    C2 1649   1.922   3.778  17.191 -0.3672  0.2670  0.1859
  106MPD2    C3 1650   1.985   3.766  17.323  0.5732 -0.2758  1.1269
  106MPD2    C4 1651   2.085   3.668  17.333 -0.8872 -0.2639 -0.2165
  106MPD2    C5 1652   2.140   3.605  17.227  0.5546  0.0380  0.2360
  106MPD2     H 1653   1.836   3.844  17.178 -0.2700 -0.1288 -2.4876
  106MPD2    H1 1654   2.142   3.645  17.422 -1.0440 -1.3290 -0.3920
  106MPD2    H2 1655   2.108   3.549  17.021 -0.9139 -1.2793 -0.6013
  106MPD2    H3 1656   2.224   3.537  17.238  0.7601 -0.1818 -2.5118
  106MPD2     N 1657   1.929   3.825  17.437  0.0437 -0.3368 -0.0087
  106MPD2    H5 1658   1.855   3.893  17.425 -1.7198 -1.7203  3.0014
  106MPD2    N1 1659   1.900   3.725  16.969 -0.5453  0.2344 -0.5654
  106MPD2    H7 1660   1.836   3.804  16.974  0.9636  1.4498 -0.2059
  107TMC2    C1 1661   1.703   3.520  11.660  0.0562  0.1968  0.3873
  107TMC2    C2 1662   1.758   3.636  11.609  0.1094  0.3417 -0.2748
  107TMC2    C3 1663   1.865   3.624  11.522  0.1951  0.7682  0.2674
  107TMC2    C4 1664   1.748   3.400  11.620 -0.2139 -0.2868  0.1863
  107TMC2    C5 1665   1.838   3.392  11.518 -0.2775 -0.5209  0.2676
  107TMC2    C6 1666   1.912   3.502  11.476  0.6705 -0.3921  0.2426
  107TMC2     C 1667   1.609   3.530  11.767  0.0968 -0.6192  0.2216
  107TMC2     O 1668   1.610   3.436  11.848  0.0149 -0.1405  0.0743
  107TMC2     H 1669   1.725   3.736  11.633 -0.4235  0.0834  0.0744
  107TMC2    H1 1670   1.707   3.309  11.663  0.5511 -0.3631  0.7419
  107TMC2    H2 1671   1.986   3.495  11.397  0.7591  1.6627  0.1307
  107TMC2    C7 1672   1.855   3.269  11.451 -0.1602  0.2110  0.1828
  107TMC2    C8 1673   1.941   3.745  11.507 -0.4846 -0.9710  0.0128
  107TMC2    O1 1674   1.750   3.208  11.436  0.6023 -0.2054 -0.1030
  107TMC2    O2 1675   1.927   3.837  11.587 -0.0855  0.4594 -0.8708
  107TMC2    O5 1676   2.047   3.732  11.422  0.1807  0.5324  0.1014
  107TMC2    H5 1677   2.025   3.687  11.337 -1.2880  1.0117  0.2273
  108MPD2     C 1678   1.319   3.748  11.779 -0.0433 -0.0727 -0.1935
  108MPD2    C1 1679   1.409   3.659  11.825 -0.2437  0.5956 -0.8300
  108MPD2    C2 1680   1.389   3.606  11.957  0.3617  0.6304 -0.9963
  108MPD2    C3 1681   1.290   3.660  12.038  0.3067 -0.2122 -0.8110
  108MPD2    C4 1682   1.201   3.751  11.986 -0.3630 -0.1482 -0.0509
  108MPD2    C5 1683   1.215   3.796  11.858  0.2833 -0.1394 -0.1549
  108MPD2     H 1684   1.461   3.534  11.993 -0.5433  0.3507  0.2487
  108MPD2    H1 1685   1.130   3.803  12.048  0.4766  0.5318  0.3439
  108MPD2    H2 1686   1.346   3.790  11.683 -2.3323  0.1441 -0.7367
  108MPD2    H3 1687   1.148   3.872  11.818 -2.3575 -3.4568 -2.0186
  108MPD2     N 1688   1.264   3.630  12.168  0.4501  0.2346  0.9975
  108MPD2    H5 1689   1.191   3.687  12.211 -0.8521  1.2377 -2.5377
  108MPD2    N1 1690   1.511   3.617  11.743  0.0044  0.5345 -0.0352
  108MPD2    H7 1691   1.513   3.661  11.652 -0.1666  1.5060  0.4249
  109TMC2    C1 1692   1.537   1.235   0.145 -0.0558  0.6966 -0.0302
  109TMC2    C2 1693   1.549   1.283   0.016  0.1502  0.2431  0.2205
  109TMC2    C3 1694   1.663   1.254  17.710  0.1070 -0.0286 -0.0310
  109TMC2    C4 1695   1.634   1.159   0.203 -0.5152 -0.3808 -0.2645
  109TMC2    C5 1696   1.740   1.134   0.126  0.0825 -0.4469  0.2086
  109TMC2    C6 1697   1.764   1.176   0.001 -0.0504 -0.3281  0.4209
  109TMC2     C 1698   1.428   1.293   0.216  0.2552  0.9966  0.6587
  109TMC2     O 1699   1.344   1.358   0.154  0.3570 -0.4033 -0.1348
  109TMC2     H 1700   1.483   1.356  17.734 -0.0225  0.7716  1.3771
  109TMC2    H1 1701   1.627   1.116   0.303 -2.2948  0.7527  0.0896
  109TMC2    H2 1702   1.856   1.152  17.711  0.0024  0.0514  0.3409
  109TMC2    C7 1703   1.839   1.045   0.186  0.7065 -0.4872 -0.2892
  109TMC2    C8 1704   1.674   1.313  17.571 -0.6578  0.0545  0.4782
  109TMC2    O1 1705   1.801   0.985   0.286  0.1381  0.0500  0.3934
  109TMC2    O2 1706   1.586   1.391  17.528 -0.2730  0.4765  0.0179
  109TMC2    O5 1707   1.775   1.252  17.507  0.0881 -0.1163 -0.1735
  109TMC2    H5 1708   1.811   1.170  17.548  0.4776 -0.7256 -1.7169
  110MPD2     C 1709   1.191   1.407   0.656 -0.1324 -0.3517 -0.5646
  110MPD2    C1 1710   1.284   1.316   0.685 -0.4366  1.0636  0.3151
  110MPD2    C2 1711   1.359   1.255   0.574  0.1683  0.6491  0.2721
  110MPD2    C3 1712   1.344   1.310   0.447 -0.2068 -0.6096 -0.1010
  110MPD2    C4 1713   1.245   1.402   0.427 -0.0006  0.1783  0.0925
  110MPD2    C5 1714   1.162   1.445   0.528 -0.8794 -0.4477 -0.6637
  110MPD2     H 1715   1.439   1.185   0.592 -0.1155  0.0302 -0.8703
  110MPD2    H1 1716   1.219   1.436   0.328  0.8037  0.2560 -0.0900
  110MPD2    H2 1717   1.118   1.446   0.727  0.5682  1.1329 -0.6497
  110MPD2    H3 1718   1.083   1.517   0.512 -1.7561 -1.3762 -0.4841
  110MPD2     N 1719   1.437   1.268   0.346  0.0207  0.1526 -0.1705
  110MPD2    H5 1720   1.514   1.208   0.375 -0.4568 -1.0533 -1.3866
  110MPD2    N1 1721   1.290   1.274   0.823  0.4283  0.0233 -0.3864
  110MPD2    H7 1722   1.226   1.319   0.888 -2.0834 -2.2591 -1.2476
  111TMC2    C1 1723   2.765   0.908  11.480 -0.2132  0.1565  0.4950
  111TMC2    C2 1724   2.826   1.034  11.492  0.2980 -0.0757  0.1964
  111TMC2    C3 1725   2.879   1.061  11.617 -0.2937 -0.5595  0.1814
  111TMC2    C4 1726   2.784   0.814  11.574  0.8183  0.3332  1.1366
  111TMC2    C5 1727   2.847   0.842  11.696 -0.6613  1.2113 -0.2007
  111TMC2    C6 1728   2.891   0.971  11.726  0.4276  0.0978  0.3437
  111TMC2     C 1729   2.631   0.933  11.457 -0.4880 -0.2692  0.7672
  111TMC2     O 1730   2.599   1.017  11.375  0.1695 -0.0040  0.1007
  111TMC2     H 1731   2.806   1.124  11.435  0.6739 -1.2994 -1.8357
  111TMC2    H1 1732   2.761   0.709  11.558 -0.7242  0.5188  2.0417
  111TMC2    H2 1733   2.939   0.995  11.820 -0.7094 -0.7752  1.1373
  111TMC2    C7 1734   2.790   0.759  11.796  0.4911 -0.0763 -0.3713
  111TMC2    C8 1735   2.877   1.193  11.667 -0.1899 -0.2669  0.2701
  111TMC2    O1 1736   2.689   0.695  11.765  0.8604 -0.1970 -0.5699
  111TMC2    O2 1737   2.852   1.215  11.785  0.3690  0.6840 -0.1020
  111TMC2    O5 1738   2.954   1.266  11.584 -0.7127  0.4394  0.9315
  111TMC2    H5 1739   2.972   1.219  11.501  1.2318 -0.0888  1.6455
  112MPD2     C 1740   2.149   0.809  11.547  0.2596  0.0408 -0.4814
  112MPD2    C1 1741   2.210   0.883  11.446  0.3845  0.3096  0.0981
  112MPD2    C2 1742   2.344   0.903  11.449 -1.0030 -0.2326 -0.2602
  112MPD2    C3 1743   2.421   0.850  11.555  0.3813 -0.2227 -0.0430
  112MPD2    C4 1744   2.366   0.775  11.661  0.2067 -0.4908  0.3056
  112MPD2    C5 1745   2.233   0.755  11.646 -0.3005  0.5721  0.2660
  112MPD2     H 1746   2.385   0.951  11.361 -1.8133 -0.2999 -0.6711
  112MPD2    H1 1747   2.422   0.744  11.749  1.3208 -0.7547 -0.4911
  112MPD2    H2 1748   2.043   0.789  11.543  0.4380 -0.7113 -1.7287
  112MPD2    H3 1749   2.190   0.699  11.728 -0.9303  0.9974  0.2254
  112MPD2     N 1750   2.561   0.857  11.546  0.0296  0.6219 -0.2804
  112MPD2    H5 1751   2.618   0.817  11.620 -0.0201  1.6243  0.3132
  112MPD2    N1 1752   2.137   0.947  11.342 -0.3005 -0.5059  0.2788
  112MPD2    H7 1753   2.190   0.993  11.269  0.4442 -0.1769  1.0188
  113TMC2    C1 1754   4.548   3.117   0.482 -0.1618 -0.3652  0.2069
  113TMC2    C2 1755   4.466   3.203   0.409 -0.3080  0.7107  0.0783
  113TMC2    C3 1756   4.351   3.156   0.354  0.2469 -0.2508 -0.6236
  113TMC2    C4 1757   4.528   2.983   0.484  0.2991  0.2873  0.5158
  113TMC2    C5 1758   4.405   2.947   0.427  0.4363 -0.0265 -0.0782
  113TMC2    C6 1759   4.310   3.028   0.368  0.0003 -0.2298 -0.4321
  113TMC2     C 1760   4.683   3.170   0.507 -0.2849  0.3665  0.1232
  113TMC2     O 1761   4.703   3.286   0.471 -0.0580  0.3971  0.0018
  113TMC2     H 1762   4.474   3.309   0.428  1.0479  0.2792  1.8511
  113TMC2    H1 1763   4.601   2.913   0.524  0.8621  0.2573 -0.5516
  113TMC2    H2 1764   4.214   2.986   0.339 -0.6860  0.4925  0.7886
  113TMC2    C7 1765   4.358   2.817   0.447  0.0331 -0.0110 -0.2642
  113TMC2    C8 1766   4.263   3.245   0.285 -0.0890  1.0448 -0.3111
  113TMC2    O1 1767   4.271   2.776   0.372 -0.2030 -0.4952 -0.3822
  113TMC2    O2 1768   4.151   3.203   0.284 -0.9742  0.2609 -0.0478
  113TMC2    O5 1769   4.302   3.370   0.317 -0.3533 -0.0238  0.4774
  113TMC2    H5 1770   4.385   3.392   0.268 -1.3501  0.4208 -1.0216
  114MPD2     C 1771   0.411   3.168   0.752  0.9397  0.1428 -0.6769
  114MPD2    C1 1772   0.342   3.268   0.684 -0.0887  0.0408 -0.9574
  114MPD2    C2 1773   0.219   3.240   0.623 -0.2243  1.0563 -0.3632
  114MPD2    C3 1774   0.157   3.117   0.627  0.6010  0.0302 -0.9242
  114MPD2    C4 1775   0.224   3.016   0.694 -0.5998 -0.1131 -0.5421
  114MPD2    C5 1776   0.345   3.044   0.753 -0.3081  0.3750  0.7436
  114MPD2     H 1777   0.168   3.313   0.562  0.0312  1.4919 -0.0507
  114MPD2    H1 1778   0.175   2.919   0.702 -0.9559  0.1840  0.8747
  114MPD2    H2 1779   0.504   3.166   0.808 -0.0206 -1.9090  0.8411
  114MPD2    H3 1780   0.389   2.957   0.801 -0.2166  0.9249  1.6637
  114MPD2     N 1781   0.032   3.087   0.578 -0.4848 -0.1473 -0.2909
  114MPD2    H5 1782   0.002   2.995   0.608 -1.9627 -0.1968 -1.8787
  114MPD2    N1 1783   0.382   3.402   0.680  0.7661  0.4621 -0.0705
  114MPD2    H7 1784   0.328   3.469   0.626  0.3252 -2.4140 -3.2118
  115TMC2    C1 1785   0.514   0.997  17.552  0.0068  0.1187 -0.5031
  115TMC2    C2 1786   0.548   1.050  17.673 -0.4983  0.2084  0.5014
  115TMC2    C3 1787   0.520   1.182  17.699  1.1859  0.5869  0.1116
  115TMC2    C4 1788   0.446   1.079  17.468 -0.0922  0.2130  0.0602
  115TMC2    C5 1789   0.411   1.207  17.497 -0.5536  0.2982 -0.2542
  115TMC2    C6 1790   0.446   1.262  17.615 -0.5265  0.8343 -1.0854
  115TMC2     C 1791   0.570   0.869  17.512  0.4353  0.6649 -0.0545
  115TMC2     O 1792   0.533   0.822  17.406  0.5261  0.2266  0.1474
  115TMC2     H 1793   0.569   0.981  17.753  1.0321 -2.4858 -2.2066
  115TMC2    H1 1794   0.416   1.038  17.372 -0.7081 -1.4322  0.9570
  115TMC2    H2 1795   0.418   1.363  17.641  2.4178  0.9363  1.6746
  115TMC2    C7 1796   0.339   1.286  17.402  0.7298  0.4636 -0.5696
  115TMC2    C8 1797   0.528   1.220   0.074  0.9756  1.4618 -0.3030
  115TMC2    O1 1798   0.255   1.239  17.327 -0.1913  0.5444 -0.5016
  115TMC2    O2 1799   0.605   1.153   0.142 -0.4637  0.0796  0.3262
  115TMC2    O5 1800   0.398   1.224   0.104 -0.0491 -0.6478  0.0518
  115TMC2    H5 1801   0.344   1.240   0.024 -0.6702 -0.7147  0.4574
  116MPD2     C 1802   0.939   0.511  17.514 -0.8132  0.1235  0.8473
  116MPD2    C1 1803   0.823   0.512  17.441  0.1159  0.3434 -0.3139
  116MPD2    C2 1804   0.739   0.623  17.463  0.1262  0.4820 -0.3686
  116MPD2    C3 1805   0.759   0.716  17.568 -0.7464  0.1866  0.1233
  116MPD2    C4 1806   0.872   0.705  17.643  1.4569  0.3738 -0.1307
  116MPD2    C5 1807   0.964   0.609  17.610 -0.0221 -0.2353 -1.0308
  116MPD2     H 1808   0.663   0.647  17.390 -2.3259 -1.2464  1.6222
  116MPD2    H1 1809   0.884   0.767  17.732 -0.7894 -1.6874  1.5857
  116MPD2    H2 1810   1.009   0.429  17.501 -0.4035  0.5827  0.1632
  116MPD2    H3 1811   1.056   0.595  17.665 -1.5028 -1.7224  1.0817
  116MPD2     N 1812   0.685   0.839  17.587  0.0260  0.2423  0.5080
  116MPD2    H5 1813   0.709   0.900  17.665  1.4742 -0.8734  0.9292
  116MPD2    N1 1814   0.807   0.412  17.339 -0.5464 -0.0999  0.1841
  116MPD2    H7 1815   0.882   0.344  17.333 -1.6820 -1.4526  1.2222
  117TMC2    C1 1816   4.682   1.893  13.856 -0.6066  0.1661 -0.5784
  117TMC2    C2 1817   4.739   1.967  13.768 -0.2998  0.0929  0.0521
  117TMC2    C3 1818   0.070   2.069  13.805  0.4561 -0.2538  0.3257
  117TMC2    C4 1819   4.696   1.918  13.992  0.2554 -0.1592 -0.4799
  117TMC2    C5 1820   0.029   2.027  14.024  0.7066  0.2835  0.0014
  117TMC2    C6 1821   0.096   2.098  13.933  0.0100  0.2987 -0.6739
  117TMC2     C 1822   4.552   1.866  13.817  0.2199 -0.3224 -0.4803
  117TMC2     O 1823   4.504   1.931  13.725 -0.0300 -0.5352 -0.2052
  117TMC2     H 1824   0.003   1.946  13.662 -1.0404  0.3800 -0.0411
  117TMC2    H1 1825   4.649   1.859  14.070  1.9777 -0.2163  0.5158
  117TMC2    H2 1826   0.140   2.192  13.963 -0.3942  0.0611  0.6687
  117TMC2    C7 1827   4.706   2.116  14.108 -0.3080 -0.3783  0.6021
  117TMC2    C8 1828   0.076   2.180  13.701  0.5859  0.8903 -0.7232
  117TMC2    O1 1829   0.030   2.196  14.173 -0.5264  0.0202 -0.1575
  117TMC2    O2 1830   0.076   2.299  13.734 -0.9250 -0.0776  0.0506
  117TMC2    O5 1831   0.145   2.129  13.599  0.0628  0.3635 -0.4866
  117TMC2    H5 1832   0.176   2.038  13.622  1.1735  0.9026  0.1578
  118MPD2     C 1833   4.337   2.199  14.085  0.2745  0.0078  0.8718
  118MPD2    C1 1834   4.469   2.202  14.136  0.2439  0.4938 -0.7511
  118MPD2    C2 1835   4.493   2.300  14.227 -0.3788  0.2622 -0.4549
  118MPD2    C3 1836   4.400   2.399  14.259 -0.0213  0.8956 -1.1342
  118MPD2    C4 1837   4.270   2.393  14.218 -0.0460 -0.2950 -0.1815
  118MPD2    C5 1838   4.240   2.294  14.129 -0.1592 -0.3899  0.1767
  118MPD2     H 1839   4.595   2.303  14.263 -1.3147  2.0590  2.0546
  118MPD2    H1 1840   4.201   2.475  14.229 -0.8342 -1.1444  1.2725
  118MPD2    H2 1841   4.305   2.129  14.009  1.9162  0.1162  0.0762
  118MPD2    H3 1842   4.139   2.284  14.093  0.0752 -0.3826 -0.4839
  118MPD2     N 1843   4.432   2.515  14.334 -0.2350  0.1272  0.1081
  118MPD2    H5 1844   4.356   2.581  14.347 -0.0875  0.0989  1.1579
  118MPD2    N1 1845   4.568   2.113  14.081 -0.0290 -0.1313  0.3515
  118MPD2    H7 1846   4.540   2.048  14.010  2.3740  0.4531 -1.1151
  119TMC2    C1 1847   2.221   3.870  13.153  0.0854 -0.4277 -0.2125
  119TMC2    C2 1848   2.249   3.895  13.021 -0.3359 -0.4997  0.3181
  119TMC2    C3 1849   2.168   3.833  12.924  0.4555  0.2128 -0.2155
  119TMC2    C4 1850   2.121   3.792  13.186  0.4394 -0.3717  0.6616
  119TMC2    C5 1851   2.039   3.733  13.090  0.1566 -0.8387 -0.4424
  119TMC2    C6 1852   2.068   3.753  12.959 -0.5783  0.1373  0.0062
  119TMC2     C 1853   2.252   3.969  13.254 -0.0499 -0.5594  0.4126
  119TMC2     O 1854   2.208   3.942  13.368 -0.0075  0.3228  0.1218
  119TMC2     H 1855   2.318   3.972  12.987 -2.2456  1.1801  0.1912
  119TMC2    H1 1856   2.072   3.800  13.282 -1.0573 -2.0709  0.0507
  119TMC2    H2 1857   1.997   3.717  12.885  0.5751 -0.9111 -0.5965
  119TMC2    C7 1858   1.896   3.716  13.131 -0.4368 -0.1712 -0.1960
  119TMC2    C8 1859   2.204   3.858  12.781  0.4497 -0.4013  0.5961
  119TMC2    O1 1860   1.809   3.756  13.050  0.1793 -0.3789 -0.4208
  119TMC2    O2 1861   2.308   3.923  12.766  0.3427 -0.2057 -0.0135
  119TMC2    O5 1862   2.167   3.750  12.715  0.1006 -0.2793  0.5059
  119TMC2    H5 1863   2.071   3.730  12.721 -0.1213  0.6685  0.1175
  120MPD2     C 1864   2.576   4.279  13.475 -0.0648  0.3640  1.3839
  120MPD2    C1 1865   2.451   4.229  13.516 -0.3552  0.7002 -0.2562
  120MPD2    C2 1866   2.370   4.166  13.429  0.6858  0.1344  0.1663
  120MPD2    C3 1867   2.408   4.155  13.300  0.0689  0.8634 -0.3071
  120MPD2    C4 1868   2.528   4.207  13.256  0.3341 -0.0454 -0.1868
  120MPD2    C5 1869   2.608   4.272  13.344  0.0770 -1.2079  0.7452
  120MPD2     H 1870   2.280   4.124  13.473  0.1455  0.2032 -0.8825
  120MPD2    H1 1871   2.550   4.192  13.151  0.4549 -2.0440  0.1222
  120MPD2    H2 1872   2.650   4.320  13.543  0.0064  1.2604  0.7727
  120MPD2    H3 1873   2.699   4.317  13.308 -0.6359  0.5629  1.1452
  120MPD2     N 1874   2.346   4.065  13.213  0.5831  0.6175 -0.3983
  120MPD2    H5 1875   2.397   4.050  13.126  1.3130 -2.8880  0.6369
  120MPD2    N1 1876   2.437   4.228  13.654  0.2544  0.4394 -0.6120
  120MPD2    H7 1877   2.516   4.243  13.716  0.5307  1.8521 -1.3039
  121TMC2    C1 1878   3.833   0.438  13.943  0.7441 -0.2361  0.0387
  121TMC2    C2 1879   3.905   0.414  14.058  0.5275 -1.0938  0.0854
  121TMC2    C3 1880   3.913   0.280  14.094 -0.1591 -0.6633  0.1756
  121TMC2    C4 1881   3.762   0.346  13.871  0.1491 -0.2594  0.4752
  121TMC2    C5 1882   3.767   0.218  13.917 -0.5196 -0.4129  0.0443
  121TMC2    C6 1883   3.837   0.184  14.029 -0.1905 -0.4568 -0.5495
  121TMC2     C 1884   3.823   0.574  13.910  1.0337  0.0138  0.3024
  121TMC2     O 1885   3.839   0.653  14.005  0.2179  0.2242  0.2881
  121TMC2     H 1886   3.971   0.482  14.111 -2.1709  1.9040 -0.4063
  121TMC2    H1 1887   3.693   0.376  13.793  0.0187  0.2679  0.7933
  121TMC2    H2 1888   3.846   0.082  14.066 -2.1088 -0.2927  0.3359
  121TMC2    C7 1889   3.658   0.122  13.888  0.1811  0.2824 -0.4193
  121TMC2    C8 1890   3.958   0.253  14.224 -1.1296  0.3719 -0.2564
  121TMC2    O1 1891   3.669   0.014  13.944 -0.0010 -0.6082  0.0843
  121TMC2    O2 1892   3.946   0.335  14.318  0.6028 -0.1216 -0.7846
  121TMC2    O5 1893   4.011   0.131  14.233 -0.6064  0.5660 -0.0690
  121TMC2    H5 1894   4.032   0.100  14.142  1.2375 -1.1045  0.9210
  122MPD2     C 1895   3.752   0.844  13.808  0.9894 -0.4368  0.1336
  122MPD2    C1 1896   3.789   0.731  13.727  0.9022 -0.4518 -0.0293
  122MPD2    C2 1897   3.801   0.753  13.589 -0.0105 -0.2639 -0.2151
  122MPD2    C3 1898   3.786   0.881  13.532 -0.6988  0.3231 -0.5099
  122MPD2    C4 1899   3.753   0.984  13.617 -0.1346  0.0855 -0.2216
  122MPD2    C5 1900   3.735   0.964  13.752  1.0069  0.8512  0.2405
  122MPD2     H 1901   3.820   0.670  13.522  0.1910  0.2316 -0.7757
  122MPD2    H1 1902   3.755   1.088  13.586  1.8485 -0.4975 -2.0418
  122MPD2    H2 1903   3.727   0.829  13.913  0.3211 -0.1051  0.0226
  122MPD2    H3 1904   3.696   1.046  13.810  0.3140  0.5262  0.2375
  122MPD2     N 1905   3.815   0.914  13.401  0.0021  0.2747  1.0693
  122MPD2    H5 1906   3.804   1.012  13.376  2.4393  0.0823 -0.8877
  122MPD2    N1 1907   3.802   0.601  13.780  0.2406  0.2815 -0.5985
  122MPD2    H7 1908   3.835   0.529  13.717  0.1097 -1.4110  1.2472
  123TMC2    C1 1909   2.285   0.321  10.748 -0.7113 -0.3292  0.3209
  123TMC2    C2 1910   2.356   0.364  10.861  0.3068  0.0796 -0.1186
  123TMC2    C3 1911   2.494   0.366  10.854 -0.2162  0.4720 -0.5871
  123TMC2    C4 1912   2.345   0.301  10.625  0.7454  0.3306 -0.4894
  123TMC2    C5 1913   2.484   0.306  10.622  0.1334 -0.5628 -0.0284
  123TMC2    C6 1914   2.555   0.338  10.736  0.2581 -0.0266  0.0316
  123TMC2     C 1915   2.144   0.302  10.756 -0.1730 -0.1125  0.0844
  123TMC2     O 1916   2.094   0.366  10.851  0.1423  0.0127 -0.3768
  123TMC2     H 1917   2.312   0.358  10.960 -0.4090  0.7934 -0.3925
  123TMC2    H1 1918   2.298   0.275  10.531 -2.4222  1.5727  0.7622
  123TMC2    H2 1919   2.663   0.340  10.724  0.4372 -3.3125  1.2949
  123TMC2    C7 1920   2.549   0.303  10.495 -0.1536  0.0720  0.7825
  123TMC2    C8 1921   2.571   0.353  10.972 -0.1543 -0.5243  0.2255
  123TMC2    O1 1922   2.655   0.357  10.481 -0.4204 -0.2771 -0.5814
  123TMC2    O2 1923   2.536   0.324  11.085  0.0839  0.0633  0.1572
  123TMC2    O5 1924   2.685   0.419  10.942 -0.8132 -0.2660  0.8790
  123TMC2    H5 1925   2.674   0.473  10.861  4.9673 -1.0785 -0.4259
  124MPD2     C 1926   1.744   0.031  10.593 -0.2639 -0.0326  0.5167
  124MPD2    C1 1927   1.856   4.684  10.608 -0.3362 -0.4135  0.1926
  124MPD2    C2 1928   1.979   4.740  10.648 -0.3681 -0.2305 -0.0073
  124MPD2    C3 1929   1.988   0.132  10.679 -0.2715 -0.0303 -0.0654
  124MPD2    C4 1930   1.874   0.211  10.672  0.1814  0.3813  0.5379
  124MPD2    C5 1931   1.760   0.160  10.629  0.1942  0.2382  0.5201
  124MPD2     H 1932   2.072   4.687  10.632 -0.2531  0.4205 -1.4430
  124MPD2    H1 1933   1.873   0.316  10.697 -1.3235  0.9599 -1.9874
  124MPD2    H2 1934   1.649   4.727  10.566 -0.0181  0.0042 -0.3813
  124MPD2    H3 1935   1.667   0.217  10.633 -0.9770 -1.6250 -0.3383
  124MPD2     N 1936   2.115   0.181  10.701 -0.2451 -0.0871  0.2974
  124MPD2    H5 1937   2.192   0.116  10.690 -0.6662 -0.6377  0.5937
  124MPD2    N1 1938   1.838   4.561  10.555 -0.0100 -0.2289  0.2259
  124MPD2    H7 1939   1.752   4.549  10.503 -0.7327  0.6597  1.1992
  125TMC2    C1 1940   2.967   1.131   9.330 -0.2293  0.4749 -0.7669
  125TMC2    C2 1941   2.850   1.101   9.390  0.1838  0.2486 -0.0879
  125TMC2    C3 1942   2.755   1.067   9.303  0.2951 -0.6698 -0.3275
  125TMC2    C4 1943   2.987   1.133   9.199 -0.1257 -0.5466 -0.4016
  125TMC2    C5 1944   2.882   1.089   9.119  0.2004  0.0493 -0.7483
  125TMC2    C6 1945   2.764   1.044   9.172 -0.2099 -0.2949 -0.5595
  125TMC2     C 1946   3.059   1.203   9.413  0.7813  0.4861 -0.6013
  125TMC2     O 1947   3.014   1.251   9.516  0.7818 -0.0132  0.4764
  125TMC2     H 1948   2.831   1.111   9.497 -1.1438  2.1269 -0.4994
  125TMC2    H1 1949   3.085   1.153   9.156 -0.2114 -0.4035 -0.5293
  125TMC2    H2 1950   2.685   1.006   9.108  0.4828 -0.2109 -1.4685
  125TMC2    C7 1951   2.882   1.110   8.971  0.2273  0.3378  0.2281
  125TMC2    C8 1952   2.632   1.040   9.375  0.3242 -0.1097 -0.0091
  125TMC2    O1 1953   2.781   1.087   8.906  0.3129  0.4040 -0.1223
  125TMC2    O2 1954   2.579   1.129   9.444 -0.6885  0.2178 -0.1881
  125TMC2    O5 1955   2.603   0.910   9.369  0.0467 -0.2519  0.6073
  125TMC2    H5 1956   2.666   0.856   9.317  1.0157 -0.4678  2.0038
  126MPD1     C 1957   3.512   1.300   9.610  0.1124  0.4166  0.5866
  126MPD1    C1 1958   3.529   1.214   9.506 -0.5400  1.0435 -1.0611
  126MPD1    C2 1959   3.420   1.159   9.445 -0.1779 -0.1292 -0.7930
  126MPD1    C3 1960   3.294   1.217   9.464  0.0295  0.3740  1.2012
  126MPD1    C4 1961   3.284   1.322   9.560  0.3218 -0.0231  0.2740
  126MPD1    C5 1962   3.393   1.362   9.636 -0.6594  0.1469  0.2701
  126MPD1     H 1963   3.436   1.083   9.369  2.2642  1.2641 -1.6614
  126MPD1    H1 1964   3.190   1.374   9.572  1.0823  0.8036  2.6086
  126MPD1    H2 1965   3.592   1.332   9.676  0.2915  0.0683  0.5331
  126MPD1    H3 1966   3.377   1.438   9.712  0.5655  1.4180 -0.7369
  126MPD1     N 1967   3.185   1.189   9.376 -0.2375 -0.2875  0.2857
  126MPD1    H5 1968   3.210   1.126   9.300  2.5836  0.3813  0.6588
  126MPD1    N1 1969   3.654   1.156   9.483 -0.3616  0.7502  0.5990
  126MPD1    H6 1970   3.732   1.217   9.507 -0.4091  0.0327  2.6091
  126MPD1    H7 1971   3.674   1.133   9.386 -0.1469  0.6012  0.6765
  127TMC2    C1 1972   4.353   4.620   9.443 -0.5761 -0.2331 -0.1548
  127TMC2    C2 1973   4.468   4.602   9.513 -0.0243  0.1567 -0.0609
  127TMC2    C3 1974   4.471   4.499   9.600  0.7272  0.6373 -0.2391
  127TMC2    C4 1975   4.244   4.533   9.452  0.0749  0.3030 -0.1826
  127TMC2    C5 1976   4.261   4.422   9.532  0.0784 -0.0419 -0.3986
  127TMC2    C6 1977   4.369   4.403   9.607  0.1339  0.8009 -0.1863
  127TMC2     C 1978   4.338   4.737   9.371  0.0875 -0.6046  0.2812
  127TMC2     O 1979   4.432   0.073   9.394 -0.3787 -0.2064 -0.0407
  127TMC2     H 1980   4.543   4.680   9.516 -1.0870  1.0961  1.6053
  127TMC2    H1 1981   4.150   4.561   9.406 -0.2957 -0.6678 -0.0154
  127TMC2    H2 1982   4.379   4.319   9.674  2.7106  0.4852 -0.9807
  127TMC2    C7 1983   4.175   4.305   9.513  0.2631 -0.8498  0.1189
  127TMC2    C8 1984   4.589   4.496   9.687  0.3071 -0.0447 -0.4446
  127TMC2    O1 1985   4.057   4.329   9.479 -0.5492 -0.4243 -1.4145
  127TMC2    O2 1986   4.693   4.542   9.651 -0.5945  0.5424  0.5408
  127TMC2    O5 1987   4.586   4.380   9.757  0.7463  0.4676 -0.7344
  127TMC2    H5 1988   4.500   4.385   9.804  0.1433 -0.0754 -1.7643
  128MPD2     C 1989   4.087   0.134   9.140  0.2913  0.6227 -0.0547
  128MPD2    C1 1990   4.197   0.132   9.225 -0.6152  0.1554 -0.1799
  128MPD2    C2 1991   4.266   0.250   9.244  0.6490 -1.0271  0.8227
  128MPD2    C3 1992   4.246   0.361   9.161 -0.0037 -0.3410 -0.7767
  128MPD2    C4 1993   4.146   0.351   9.062  0.4912  0.0701  0.4913
  128MPD2    C5 1994   4.068   0.240   9.063 -0.4698  0.3900 -0.2077
  128MPD2     H 1995   4.346   0.268   9.315  1.6057 -0.1557 -0.4726
  128MPD2    H1 1996   4.122   0.423   8.985  0.7377  2.1409  2.3498
  128MPD2    H2 1997   4.015   0.055   9.120 -0.6467  1.5869 -0.4667
  128MPD2    H3 1998   3.988   0.239   8.990 -1.2894 -0.5965  0.6839
  128MPD2     N 1999   4.324   0.475   9.186 -0.0856  0.0609  0.2360
  128MPD2    H5 2000   4.372   0.469   9.275 -1.2533  0.9739  0.9198
  128MPD2    N1 2001   4.221   0.012   9.301 -0.5267  0.4848 -0.3228
  128MPD2    H7 2002   4.155   4.676   9.294  0.1347 -0.1194  0.0692
  129TMC2    C1 2003   2.621   0.257   1.220  0.0597  0.9488 -0.6498
  129TMC2    C2 2004   2.746   0.244   1.171 -0.4019 -0.1181 -0.5039
  129TMC2    C3 2005   2.816   0.125   1.194  0.2318  0.0406 -0.7000
  129TMC2    C4 2006   2.565   0.162   1.302 -0.0312 -0.0043  0.0228
  129TMC2    C5 2007   2.642   0.050   1.332 -0.3866 -0.8678  0.1639
  129TMC2    C6 2008   2.764   0.025   1.270  0.2017  0.0451 -0.8735
  129TMC2     C 2009   2.541   0.378   1.192 -0.1475  0.1016  0.6722
  129TMC2     O 2010   2.443   0.376   1.265 -0.5050 -0.3248  0.0465
  129TMC2     H 2011   2.784   0.323   1.106  0.2997  0.5933  0.7751
  129TMC2    H1 2012   2.460   0.158   1.330 -1.0696  2.6879 -3.4876
  129TMC2    H2 2013   2.816   4.672   1.285 -1.6077 -0.4891  2.0512
  129TMC2    C7 2014   2.564   4.679   1.388  0.3795 -0.2051 -0.4054
  129TMC2    C8 2015   2.957   0.119   1.157 -0.4309 -1.2755 -0.8549
  129TMC2    O1 2016   2.445   4.665   1.358  0.3127  0.5139  0.2870
  129TMC2    O2 2017   3.004   0.207   1.088 -0.0573  0.3208 -0.1768
  129TMC2    O5 2018   3.030   0.075   1.267  0.1624 -0.4220  0.5629
  129TMC2    H5 2019   2.970   0.016   1.318  1.6385 -1.9363  0.5560
  130MPD2     C 2020   2.431   0.652   1.164 -0.6358 -0.1031  0.4948
  130MPD2    C1 2021   2.555   0.617   1.111  0.2957  0.2230 -0.0344
  130MPD2    C2 2022   2.627   0.715   1.047  0.6237 -0.7432  0.4678
  130MPD2    C3 2023   2.596   0.844   1.062  0.5391 -0.2105  0.7944
  130MPD2    C4 2024   2.483   0.879   1.126 -0.3701 -0.4869 -0.0983
  130MPD2    C5 2025   2.401   0.787   1.177 -0.0945 -0.1966 -0.0663
  130MPD2     H 2026   2.720   0.686   1.000  2.5643  2.4633  2.2966
  130MPD2    H1 2027   2.441   0.976   1.151 -1.6129  0.0111 -4.1334
  130MPD2    H2 2028   2.360   0.584   1.209 -0.0216 -0.5522  0.7802
  130MPD2    H3 2029   2.313   0.811   1.235  1.2155  4.3072  0.0535
  130MPD2     N 2030   2.693   0.938   1.013  0.4817  0.6621  0.1072
  130MPD2    H5 2031   2.763   0.895   0.953  0.7757  1.1872  0.0810
  130MPD2    N1 2032   2.607   0.485   1.125  0.9743  0.2836 -1.0743
  130MPD2    H7 2033   2.705   0.476   1.099  1.4676 -0.9969  1.2000
  131TMC2    C1 2034   1.907   0.385   9.941  0.2918 -0.5600  0.3697
  131TMC2    C2 2035   1.857   0.479  10.027  0.8432 -0.2136 -0.1706
  131TMC2    C3 2036   1.924   0.597  10.039  0.1937 -0.1290 -0.1813
  131TMC2    C4 2037   2.022   0.413   9.864 -0.7051 -0.2954  0.2139
  131TMC2    C5 2038   2.086   0.534   9.890  0.5497 -0.0222 -0.5984
  131TMC2    C6 2039   2.040   0.631   9.976 -0.0141 -0.2632  0.4125
  131TMC2     C 2040   1.856   0.249   9.953 -0.1512 -0.3458 -0.1322
  131TMC2     O 2041   1.783   0.216  10.045  0.2117 -0.0280 -0.2270
  131TMC2     H 2042   1.764   0.453  10.077  1.0215 -0.4778  0.0216
  131TMC2    H1 2043   2.081   0.351   9.798 -0.5145  1.9642 -1.7537
  131TMC2    H2 2044   2.101   0.717  10.002  0.3381 -0.4996  0.3601
  131TMC2    C7 2045   2.217   0.556   9.825 -0.3609  0.5287 -0.0876
  131TMC2    C8 2046   1.828   0.698  10.064  0.0065 -0.3426  0.2506
  131TMC2    O1 2047   2.259   0.469   9.749 -0.1242  0.2823  0.0666
  131TMC2    O2 2048   1.712   0.690  10.035  0.0794 -0.0451 -0.1523
  131TMC2    O5 2049   1.883   0.781  10.157  0.6071 -0.2419  0.2634
  131TMC2    H5 2050   1.978   0.763  10.174  0.8813  0.1119 -0.8934
  132MPD2     C 2051   2.010   4.716   9.760 -0.2371 -0.0115  0.6044
  132MPD2    C1 2052   1.938   0.035   9.863  0.2115  0.3840 -0.1299
  132MPD2    C2 2053   1.896   4.693   9.962 -0.4854  0.1296  0.1623
  132MPD2    C3 2054   1.937   4.559   9.969 -0.1561 -1.0139 -0.0348
  132MPD2    C4 2055   2.017   4.506   9.876 -0.5608  0.0967  0.1200
  132MPD2    C5 2056   2.048   4.582   9.767  0.4629 -0.2073 -0.8280
  132MPD2     H 2057   1.819   4.717  10.036 -1.2200  0.3484 -0.6746
  132MPD2    H1 2058   2.051   4.403   9.877 -3.3323 -0.8631 -2.1246
  132MPD2    H2 2059   2.042   0.029   9.672 -0.3802 -0.9478 -0.0199
  132MPD2    H3 2060   2.102   4.550   9.679  0.2058 -2.3855 -0.1986
  132MPD2     N 2061   1.888   4.483  10.074  0.5187  0.2794 -0.3534
  132MPD2    H5 2062   1.825   4.523  10.143  1.3613  2.1321 -0.6600
  132MPD2    N1 2063   1.917   0.178   9.853 -0.2592  0.3209 -0.4070
  132MPD2    H7 2064   1.960   0.217   9.770  1.1870  0.8297  0.5909
  133TMC2    C1 2065   1.702   1.431   9.939 -0.3099 -0.6587 -0.0964
  133TMC2    C2 2066   1.687   1.506  10.049 -0.3007 -0.1381  0.4018
  133TMC2    C3 2067   1.752   1.624  10.051  0.0667 -0.1968 -0.1701
  133TMC2    C4 2068   1.770   1.469   9.830 -0.1839  1.0978  0.1068
  133TMC2    C5 2069   1.837   1.587   9.838  0.1409 -0.5172 -0.0539
  133TMC2    C6 2070   1.834   1.662   9.952  0.0253 -0.4797 -0.3043
  133TMC2     C 2071   1.588   1.344   9.895 -0.1999  0.2189  0.5083
  133TMC2     O 2072   1.609   1.260   9.809  0.5916 -0.3436  0.3411
  133TMC2     H 2073   1.635   1.467  10.136 -2.2900  1.4423 -0.0912
  133TMC2    H1 2074   1.769   1.411   9.738  0.8329 -0.5088  1.1083
  133TMC2    H2 2075   1.884   1.758   9.963 -0.5803  0.0050 -1.7376
  133TMC2    C7 2076   1.905   1.647   9.720  0.3189  0.4701  0.4746
  133TMC2    C8 2077   1.755   1.677  10.176  0.3545  0.6966  0.6798
  133TMC2    O1 2078   1.951   1.760   9.732 -0.3197 -0.2014  0.6275
  133TMC2    O2 2079   1.737   1.611  10.277  0.2649 -0.3688  0.2032
  133TMC2    O5 2080   1.762   1.813  10.162 -0.5733 -0.8519 -0.2592
  133TMC2    H5 2081   1.741   1.854  10.075 -3.3273  0.6448  1.1423
  134MPD2     C 2082   1.243   1.456   9.919  0.2988 -0.0736  0.8600
  134MPD2    C1 2083   1.342   1.365   9.891 -0.4304  0.2359  0.5458
  134MPD2    C2 2084   1.309   1.247   9.823  0.3673 -0.2492  0.6924
  134MPD2    C3 2085   1.186   1.218   9.767 -0.0137  0.0542 -0.5494
  134MPD2    C4 2086   1.091   1.316   9.795 -0.5790  0.1776 -0.2449
  134MPD2    C5 2087   1.120   1.426   9.864 -0.3976  0.4217  0.2441
  134MPD2     H 2088   1.389   1.176   9.808 -1.5434 -1.3763 -4.2870
  134MPD2    H1 2089   0.985   1.312   9.775 -0.3735 -0.2514 -1.2520
  134MPD2    H2 2090   1.259   1.546   9.977  0.7734  0.5807 -0.2895
  134MPD2    H3 2091   1.038   1.494   9.881 -0.1287  0.6141  0.7845
  134MPD2     N 2092   1.145   1.095   9.714 -0.6843 -0.8966  0.2121
  134MPD2    H5 2093   1.047   1.080   9.694 -0.3632 -0.5107 -1.6853
  134MPD2    N1 2094   1.474   1.397   9.937 -0.2297 -0.5758  0.2368
  134MPD2    H7 2095   1.476   1.487   9.985 -0.2611  0.4687 -1.7150
  135TMC2    C1 2096   3.685   1.864   9.650 -0.1459 -0.4011  0.2670
  135TMC2    C2 2097   3.572   1.896   9.725  0.2773  0.1107  0.3129
  135TMC2    C3 2098   3.554   1.827   9.843 -0.2015  0.5762  0.5091
  135TMC2    C4 2099   3.771   1.763   9.695  0.1970 -0.1824  0.3959
  135TMC2    C5 2100   3.753   1.716   9.821  0.4179  0.0121  0.0100
  135TMC2    C6 2101   3.641   1.742   9.896  0.1409 -0.1914  0.7280
  135TMC2     C 2102   3.716   1.958   9.541 -0.2649  0.8382 -0.4278
  135TMC2     O 2103   3.638   2.052   9.527  0.1147  0.2587  0.2107
  135TMC2     H 2104   3.511   1.979   9.691  1.1231  0.0410 -1.3927
  135TMC2    H1 2105   3.871   1.766   9.652 -0.2783  0.2252 -0.6943
  135TMC2    H2 2106   3.639   1.716  10.001 -0.3707  0.6714  0.9245
  135TMC2    C7 2107   3.836   1.604   9.858  0.3545 -0.2365 -0.4146
  135TMC2    C8 2108   3.433   1.849   9.919  0.3931  0.5866  0.6034
  135TMC2    O1 2109   3.935   1.592   9.790 -0.5861  0.1601  0.7191
  135TMC2    O2 2110   3.354   1.936   9.880  0.3763  0.1015  0.3092
  135TMC2    O5 2111   3.393   1.751  10.007 -1.0476  0.7347  0.5079
  135TMC2    H5 2112   3.452   1.675  10.025 -0.8678  1.0690  1.3192
  136MPD2     C 2113   3.856   2.120   9.343 -0.2039  0.1980 -0.0780
  136MPD2    C1 2114   3.880   1.990   9.360  0.1812  1.0033  0.4420
  136MPD2    C2 2115   3.970   1.928   9.283  0.1756  0.4359  0.1021
  136MPD2    C3 2116   4.024   2.004   9.178 -0.5374 -0.2945 -0.0699
  136MPD2    C4 2117   3.990   2.130   9.159 -0.4439 -0.5765  0.7278
  136MPD2    C5 2118   3.910   2.194   9.241 -0.2584 -0.0040 -0.6924
  136MPD2     H 2119   3.996   1.825   9.303 -1.0093  0.2840  0.8635
  136MPD2    H1 2120   4.020   2.192   9.076  2.3822  0.0616  2.2383
  136MPD2    H2 2121   3.791   2.163   9.418 -1.3342  0.3309 -1.1338
  136MPD2    H3 2122   3.883   2.299   9.240  2.3155  0.6599 -0.6828
  136MPD2     N 2123   4.129   1.964   9.090 -0.1011 -0.0995 -0.3561
  136MPD2    H5 2124   4.164   2.037   9.029  0.7433  0.7690  1.1472
  136MPD2    N1 2125   3.822   1.923   9.465 -0.3890  0.2110 -0.3605
  136MPD2    H7 2126   3.856   1.828   9.474  0.7360  0.7402  1.0082
  137TMC2    C1 2127   3.559   1.340   9.149  0.5148 -0.3581  0.4964
  137TMC2    C2 2128   3.608   1.412   9.256  0.4559 -0.1595 -0.8269
  137TMC2    C3 2129   3.516   1.504   9.310 -0.5596 -0.5078  0.1838
  137TMC2    C4 2130   3.423   1.350   9.107 -0.0256  0.4274 -0.0890
  137TMC2    C5 2131   3.339   1.437   9.173 -0.9993  0.0236  0.0979
  137TMC2    C6 2132   3.381   1.517   9.278 -0.1108 -0.9292  1.0372
  137TMC2     C 2133   3.616   1.204   9.117  0.2065  1.4041 -0.3362
  137TMC2     O 2134   3.702   1.163   9.199  0.0697  0.3664  0.2156
  137TMC2     H 2135   3.714   1.412   9.279  0.2703 -1.1126  0.0328
  137TMC2    H1 2136   3.369   1.282   9.042  0.0769 -1.2241  1.5856
  137TMC2    H2 2137   3.321   1.593   9.326 -0.8151  0.5928 -2.2679
  137TMC2    C7 2138   3.198   1.426   9.145 -0.1666  0.2147 -0.7698
  137TMC2    C8 2139   3.569   1.620   9.380 -0.2179 -0.2401 -0.0872
  137TMC2    O1 2140   3.164   1.387   9.032  0.1596  0.8365  0.1111
  137TMC2    O2 2141   3.515   1.673   9.475  0.0407  0.0672 -0.1245
  137TMC2    O5 2142   3.627   1.689   9.277 -0.1054  0.3067 -0.6753
  137TMC2    H5 2143   3.636   1.632   9.198  0.2679 -0.1571 -0.2995
  138MPD2     C 2144   3.542   1.001   8.825  0.8845 -0.2905 -0.7208
  138MPD2    C1 2145   3.591   1.034   8.944  0.0864 -0.0614 -0.0931
  138MPD2    C2 2146   3.685   0.940   9.004  0.1275 -0.2755  0.3246
  138MPD2    C3 2147   3.711   0.816   8.942 -0.6690  0.4411 -0.5929
  138MPD2    C4 2148   3.659   0.792   8.823  0.8252  0.3238 -0.1893
  138MPD2    C5 2149   3.573   0.882   8.766  0.2293  0.2474 -0.4496
  138MPD2     H 2150   3.723   0.958   9.104  1.2138 -1.5073  0.1293
  138MPD2    H1 2151   3.669   0.699   8.768  1.2444  0.7469 -0.8328
  138MPD2    H2 2152   3.474   1.068   8.775  1.8059  0.9034 -0.3807
  138MPD2    H3 2153   3.537   0.848   8.670  2.0332 -2.1724 -0.2908
  138MPD2     N 2154   3.781   0.728   9.024  0.1298 -0.1130 -0.1468
  138MPD2    H5 2155   3.791   0.759   9.120 -2.9110 -1.0024  0.4545
  138MPD2    N1 2156   3.560   1.161   9.005 -0.7588 -0.0870 -0.1547
  138MPD2    H7 2157   3.499   1.221   8.951 -0.7064  1.5816  1.6555
  139TMC2    C1 2158   3.961   3.660  13.835 -0.7888 -0.1326 -0.1166
  139TMC2    C2 2159   4.050   3.683  13.935  0.0555 -0.7671 -0.3371
  139TMC2    C3 2160   4.011   3.778  14.030  0.1417 -0.2376 -0.0831
  139TMC2    C4 2161   3.841   3.731  13.825  0.5873 -0.2091  0.3678
  139TMC2    C5 2162   3.808   3.811  13.928  0.4762  0.1962 -0.4245
  139TMC2    C6 2163   3.891   3.838  14.031 -0.6514 -0.0578 -0.0431
  139TMC2     C 2164   3.989   3.537  13.760  0.3501  0.4719  0.0828
  139TMC2     O 2165   4.110   3.501  13.761  0.5139  0.5328 -0.6275
  139TMC2     H 2166   4.150   3.641  13.938  0.4770  0.5623  3.7980
  139TMC2    H1 2167   3.769   3.709  13.748 -1.1461 -0.5000  2.0876
  139TMC2    H2 2168   3.867   3.908  14.110  1.0635  2.1493 -1.4781
  139TMC2    C7 2169   3.661   3.836  13.945  0.7920 -1.2085  0.3966
  139TMC2    C8 2170   4.129   3.841  14.093  0.3621  0.0192  0.1735
  139TMC2    O1 2171   3.593   3.832  13.838 -0.2230 -0.1405  0.4263
  139TMC2    O2 2172   4.162   3.959  14.082  0.8043  0.3665 -0.0968
  139TMC2    O5 2173   4.214   3.742  14.127  0.1170 -0.1586  0.2361
  139TMC2    H5 2174   4.157   3.668  14.157 -0.8338 -0.2532 -1.8420
  140MPD2     C 2175   3.752   3.296  13.617  0.0965  0.2734  0.3047
  140MPD2    C1 2176   3.867   3.358  13.634 -0.7327 -0.1567  0.4330
  140MPD2    C2 2177   3.983   3.289  13.598  0.7617  0.1757 -0.0696
  140MPD2    C3 2178   3.977   3.153  13.565  0.4631  0.0294  0.5428
  140MPD2    C4 2179   3.853   3.095  13.561 -0.1124  0.7082 -0.5124
  140MPD2    C5 2180   3.741   3.168  13.585 -0.0449 -0.0790 -0.6275
  140MPD2     H 2181   4.080   3.337  13.604 -0.1704  1.8137  2.0912
  140MPD2    H1 2182   3.832   2.991  13.539 -0.1332  0.5290  0.3714
  140MPD2    H2 2183   3.667   3.359  13.638 -0.5624 -0.0064 -1.5725
  140MPD2    H3 2184   3.640   3.129  13.575  0.7225 -2.3465  0.5880
  140MPD2     N 2185   4.100   3.081  13.546  0.4067 -0.5111  0.3878
  140MPD2    H5 2186   4.182   3.140  13.556  1.0989 -1.3530 -0.2765
  140MPD2    N1 2187   3.876   3.484  13.697 -0.8211 -0.4512 -0.4412
  140MPD2    H7 2188   3.789   3.528  13.724  0.3397  1.0240  0.9271
  141TMC2    C1 2189   4.217   4.353  14.183  0.3112 -0.2790 -0.0330
  141TMC2    C2 2190   4.288   4.235  14.209  0.0976 -0.3040  0.3065
  141TMC2    C3 2191   4.354   4.228  14.330 -0.0336  0.3208 -0.0419
  141TMC2    C4 2192   4.217   4.461  14.269  0.4171  0.5521  0.4267
  141TMC2    C5 2193   4.289   4.447  14.385  0.4680 -0.5684  0.1224
  141TMC2    C6 2194   4.357   4.335  14.415 -0.3785  0.7266 -0.2579
  141TMC2     C 2195   4.154   4.369  14.053 -0.4492 -0.0733  0.0329
  141TMC2     O 2196   4.152   4.485  14.013 -0.2013 -0.0982 -0.0436
  141TMC2     H 2197   4.289   4.148  14.144  1.3155  0.6222 -0.9242
  141TMC2    H1 2198   4.147   4.542  14.254  0.0953 -0.3704 -2.9637
  141TMC2    H2 2199   4.427   4.340  14.497 -0.3875  0.1863 -0.2211
  141TMC2    C7 2200   4.320   4.573  14.454  0.7041  0.2138 -0.6550
  141TMC2    C8 2201   4.444   4.114  14.368  1.1552  0.2628  0.7232
  141TMC2    O1 2202   4.238   4.660  14.432 -0.0468  0.4259  0.3461
  141TMC2    O2 2203   4.464   4.083  14.484  0.2390 -0.8486  0.2848
  141TMC2    O5 2204   4.509   4.080  14.254 -0.0710 -0.2919  0.3750
  141TMC2    H5 2205   4.487   4.136  14.176  0.1299  0.9546  1.2190
  142TMC2    C1 2206   2.281   4.249  10.004 -0.5010 -0.7274 -0.1172
  142TMC2    C2 2207   2.302   4.255   9.865 -0.8934 -0.0465 -0.0971
  142TMC2    C3 2208   2.349   4.369   9.812  0.0772  0.0650  0.8514
  142TMC2    C4 2209   2.289   4.358  10.082 -0.0556  1.0770  0.0105
  142TMC2    C5 2210   2.335   4.471  10.019  0.2269  0.0769 -0.0940
  142TMC2    C6 2211   2.362   4.481   9.887  0.5557  0.1107 -0.2573
  142TMC2     C 2212   2.264   4.115  10.064 -0.1507  0.5049  0.4282
  142TMC2     O 2213   2.237   4.015   9.997  0.2652  0.2768  0.2232
  142TMC2     H 2214   2.305   4.163   9.807 -1.2336  0.0871 -0.3241
  142TMC2    H1 2215   2.255   4.366  10.185 -1.1141  1.8025 -0.3972
  142TMC2    H2 2216   2.366   4.579   9.840 -0.2741  1.2461  2.0501
  142TMC2    C7 2217   2.361   4.579  10.105 -0.0924  0.0075  0.2309
  142TMC2    C8 2218   2.385   4.367   9.672  0.3061 -0.3549  0.6336
  142TMC2    O1 2219   2.285   4.585  10.198 -0.2181 -0.4583  0.4832
  142TMC2    O2 2220   2.453   4.459   9.628 -0.2980 -0.0225  0.1780
  142TMC2    O5 2221   2.262   4.335   9.620 -0.2400 -0.2259 -0.5125
  142TMC2    H5 2222   2.206   4.276   9.675  0.5806  0.0106  0.5813
  143MPD2     C 2223   2.275   3.789  10.454 -0.1885 -0.5990 -0.4494
  143MPD2    C1 2224   2.253   3.758  10.318 -0.0428 -0.0158  0.9005
  143MPD2    C2 2225   2.255   3.868  10.236 -0.3742  0.3698  0.2596
  143MPD2    C3 2226   2.290   3.996  10.278 -0.0009 -0.2821 -0.0142
  143MPD2    C4 2227   2.315   4.021  10.414 -0.2465 -0.5822 -0.6760
  143MPD2    C5 2228   2.303   3.917  10.502  0.3511 -0.1413 -0.6896
  143MPD2     H 2229   2.241   3.852  10.130 -0.4761  0.9723  0.1819
  143MPD2    H1 2230   2.357   4.114  10.452 -1.7508  0.0849 -0.6362
  143MPD2    H2 2231   2.271   3.710  10.528  0.0814  0.9054  1.1726
  143MPD2    H3 2232   2.311   3.939  10.608  0.3045  3.0887 -1.3793
  143MPD2     N 2233   2.290   4.114  10.197 -0.4610  0.1956 -0.0585
  143MPD2    H5 2234   2.322   4.202  10.236 -0.0754  1.0490 -2.3160
  143MPD2    N1 2235   2.238   3.624  10.278  0.3074  0.3644  0.4596
  143MPD2    H7 2236   2.253   3.557  10.352 -1.7146  0.1395  0.6460
  144TMC2    C1 2237   0.474   2.257   0.777  0.0671 -0.1198 -0.0074
  144TMC2    C2 2238   0.578   2.190   0.737  0.0448  1.1384  0.2652
  144TMC2    C3 2239   0.674   2.165   0.829  0.2910  0.1041 -0.3791
  144TMC2    C4 2240   0.461   2.313   0.900  0.1562 -0.2681 -0.3363
  144TMC2    C5 2241   0.559   2.288   0.992 -0.7790 -0.4112  0.0323
  144TMC2    C6 2242   0.662   2.208   0.962 -0.5779  0.4620 -0.0051
  144TMC2     C 2243   0.354   2.249   0.702 -0.0830 -0.4340  1.0475
  144TMC2     O 2244   0.331   2.147   0.632 -0.0661  0.1229 -0.3134
  144TMC2     H 2245   0.593   2.178   0.630 -1.2793 -3.3699  0.5846
  144TMC2    H1 2246   0.370   2.357   0.938  1.6017  1.0972  1.5711
  144TMC2    H2 2247   0.747   2.187   1.027  0.9795  0.2547 -2.1222
  144TMC2    C7 2248   0.571   2.369   1.119  0.2923 -0.4078 -0.3737
  144TMC2    C8 2249   0.795   2.094   0.789 -1.0016  0.3162  0.7040
  144TMC2    O1 2250   0.648   2.316   1.193  1.0593 -0.2324 -0.1355
  144TMC2    O2 2251   0.895   2.101   0.861 -0.7940  0.0515  0.2486
  144TMC2    O5 2252   0.746   1.989   0.719 -0.4650  0.0109 -0.2867
  144TMC2    H5 2253   0.663   2.004   0.670  0.2130  1.0408 -1.1166
  145MPD2     C 2254   4.680   2.472   0.480 -0.0787 -0.3993  0.4339
  145MPD2    C1 2255   4.734   2.344   0.470  0.0158  0.1075 -0.3347
  145MPD2    C2 2256   0.101   2.307   0.549 -0.6101  0.1872  0.0203
  145MPD2    C3 2257   0.168   2.391   0.638 -0.2543 -0.3760  0.3207
  145MPD2    C4 2258   0.117   2.517   0.637 -0.4791  0.5782  0.0308
  145MPD2    C5 2259   0.004   2.556   0.563 -0.4698  0.8198  0.5098
  145MPD2     H 2260   0.137   2.206   0.533 -1.3297  0.2224 -1.7467
  145MPD2    H1 2261   0.159   2.590   0.706  0.3594 -1.9141  2.1686
  145MPD2    H2 2262   4.605   2.517   0.416 -0.3517 -1.4095  0.0318
  145MPD2    H3 2263   4.717   2.661   0.566 -1.2807  0.6283 -0.3354
  145MPD2     N 2264   0.280   2.360   0.717  0.2265  0.4997  0.1572
  145MPD2    H5 2265   0.325   2.441   0.758 -2.3501  2.2954 -0.5586
  145MPD2    N1 2266   4.692   2.250   0.376 -0.2636  0.8037  0.3475
  145MPD2    H7 2267   4.730   2.156   0.372 -1.3490  0.3860 -0.4774
  146TMC2    C1 2268   1.910   1.157  11.847  0.0507  0.5207 -0.1091
  146TMC2    C2 2269   1.880   1.228  11.735  0.5855  0.5380  0.8460
  146TMC2    C3 2270   1.970   1.220  11.637  0.0564  0.3169 -0.2961
  146TMC2    C4 2271   2.030   1.101  11.869 -0.1637 -0.2386  0.5788
  146TMC2    C5 2272   2.119   1.098  11.761 -1.3127  0.4268 -0.3473
  146TMC2    C6 2273   2.094   1.169  11.654 -0.4999 -0.1391  0.0499
  146TMC2     C 2274   1.838   1.214  11.959 -0.3130  0.4956  0.1948
  146TMC2     O 2275   1.773   1.312  11.932  0.0658 -0.2276 -0.3549
  146TMC2     H 2276   1.780   1.256  11.705  1.4798  2.3532 -0.4946
  146TMC2    H1 2277   2.071   1.062  11.961  0.7346  0.0054  0.2806
  146TMC2    H2 2278   2.161   1.170  11.569  0.0264 -1.4643  0.4591
  146TMC2    C7 2279   2.261   1.075  11.785 -0.5977 -0.1658  0.0189
  146TMC2    C8 2280   1.976   1.327  11.538 -0.5485 -0.3683  0.0720
  146TMC2    O1 2281   2.334   1.116  11.696 -0.0617 -0.0564  0.0335
  146TMC2    O2 2282   2.081   1.373  11.496 -0.9370 -0.3362 -0.3634
  146TMC2    O5 2283   1.851   1.365  11.505 -0.7248 -0.7279 -0.0947
  146TMC2    H5 2284   1.781   1.299  11.526 -1.3714 -0.5324 -1.6084
  147MPD2     C 2285   2.619   0.990  12.144  0.3291  0.6181 -0.3592
  147MPD2    C1 2286   2.505   0.923  12.180  0.7288  0.0359  0.0333
  147MPD2    C2 2287   2.404   0.914  12.089 -0.0010  0.4585  0.1225
  147MPD2    C3 2288   2.411   0.980  11.968  0.2404 -0.1986  0.2131
  147MPD2    C4 2289   2.526   1.041  11.929 -0.1055 -0.4232  0.4517
  147MPD2    C5 2290   2.627   1.043  12.020  0.0502  0.6177  0.3139
  147MPD2     H 2291   2.305   0.880  12.117  1.0162 -2.1514  0.5337
  147MPD2    H1 2292   2.540   1.085  11.831  0.1594  2.8105  1.9400
  147MPD2    H2 2293   2.711   0.984  12.202 -0.2791 -0.5710  0.4898
  147MPD2    H3 2294   2.723   1.080  11.984  1.4350 -2.6038  0.6231
  147MPD2     N 2295   2.290   0.993  11.896  0.2518 -0.3336  0.1937
  147MPD2    H5 2296   2.207   0.960  11.946  0.1346  0.6335  0.6457
  147MPD2    N1 2297   2.507   0.854  12.302 -0.0085 -0.5897 -0.3276
  147MPD2    H7 2298   2.589   0.867  12.361 -1.1469 -1.3888  1.4336
  148TMC2    C1 2299   1.613   0.090  10.917 -0.2358  0.1212  0.8651
  148TMC2    C2 2300   1.742   0.104  10.962  0.3819  0.0224 -0.2163
  148TMC2    C3 2301   1.814   4.731  10.972  0.4781  0.0231 -0.3151
  148TMC2    C4 2302   1.545   4.712  10.908  0.1533  0.0837  0.1334
  148TMC2    C5 2303   1.618   4.598  10.931  0.0303  0.5039 -0.0412
  148TMC2    C6 2304   1.751   4.606  10.963 -0.0964 -0.1040  0.9364
  148TMC2     C 2305   1.559   0.215  10.859 -0.1240 -0.8715  0.3499
  148TMC2     O 2306   1.624   0.319  10.875  0.4795  0.1598  0.1976
  148TMC2     H 2307   1.788   0.201  10.981 -1.2223  0.3940  1.6626
  148TMC2    H1 2308   1.439   4.708  10.887  0.4226 -0.6135 -1.0449
  148TMC2    H2 2309   1.817   4.520  10.958  0.3001  0.1582  1.5650
  148TMC2    C7 2310   1.585   4.469  10.873  0.1778  0.0635 -0.4794
  148TMC2    C8 2311   1.957   4.722  11.004 -0.4301 -0.7918  0.2248
  148TMC2    O1 2312   1.517   4.459  10.772  0.1259 -0.2749 -0.2265
  148TMC2    O2 2313   2.024   4.622  10.996 -0.6102 -0.0163  0.3424
  148TMC2    O5 2314   1.999   0.102  11.030  0.6146 -0.0733  0.2349
  148TMC2    H5 2315   1.932   0.174  11.022 -1.2496 -2.1681 -3.0686
  149MPD2     C 2316   1.412   0.415  10.701  0.5655  0.0420 -0.1544
  149MPD2    C1 2317   1.398   0.284  10.681  0.3736 -0.6193  0.1633
  149MPD2    C2 2318   1.313   0.240  10.587  0.8798  0.0213 -0.0488
  149MPD2    C3 2319   1.235   0.323  10.509  0.6548  0.3886 -0.1322
  149MPD2    C4 2320   1.254   0.458  10.527  0.6472  0.7185 -0.1681
  149MPD2    C5 2321   1.340   0.499  10.624 -0.0664 -0.8411  0.1188
  149MPD2     H 2322   1.297   0.132  10.583  0.9371  0.0404 -0.8077
  149MPD2    H1 2323   1.198   0.531  10.469 -1.6612  0.0391  1.2123
  149MPD2    H2 2324   1.478   0.456  10.778 -1.0669 -0.1118  1.3298
  149MPD2    H3 2325   1.358   0.605  10.641  1.4855 -1.1657  0.5548
  149MPD2     N 2326   1.139   0.271  10.408  0.2514  0.3639 -0.2420
  149MPD2    H5 2327   1.087   0.347  10.364 -0.5050  0.5780  1.0243
  149MPD2    N1 2328   1.463   0.187  10.758 -0.1686  0.4273 -0.4503
  149MPD2    H7 2329   1.460   0.087  10.736 -0.9149  0.6883 -1.5246
  150TMC2    C1 2330   3.304   3.604  11.994 -0.2082  0.2447  0.5303
  150TMC2    C2 2331   3.277   3.646  12.120 -0.7868 -0.4345  0.6650
  150TMC2    C3 2332   3.372   3.646  12.218  0.5016  0.1783 -0.5267
  150TMC2    C4 2333   3.429   3.557  11.970  0.1027  0.4284 -0.6457
  150TMC2    C5 2334   3.515   3.542  12.070  0.2871 -0.2880 -0.0276
  150TMC2    C6 2335   3.491   3.580  12.199  0.7006 -0.7616 -0.2705
  150TMC2     C 2336   3.197   3.561  11.915 -0.1549 -0.0147 -0.7057
  150TMC2     O 2337   3.093   3.527  11.966 -0.2287 -0.3857  0.6170
  150TMC2     H 2338   3.175   3.681  12.135 -1.7662 -2.5238 -1.0539
  150TMC2    H1 2339   3.448   3.511  11.873  0.6029 -0.9147  0.0858
  150TMC2    H2 2340   3.567   3.572  12.276 -1.3327 -0.0496  1.8393
  150TMC2    C7 2341   3.640   3.476  12.049  0.0572  0.1009 -0.5540
  150TMC2    C8 2342   3.315   3.673  12.349  0.3154  0.6705  0.1858
  150TMC2    O1 2343   3.684   3.470  11.934 -0.1452  0.5319 -0.4648
  150TMC2    O2 2344   3.195   3.665  12.374  0.4241  0.4394  0.0064
  150TMC2    O5 2345   3.411   3.729  12.428 -0.5058 -0.2757  0.2105
  150TMC2    H5 2346   3.502   3.746  12.396 -0.8054 -0.3272 -0.6681
  151MPD2     C 2347   2.977   3.443  11.470  0.6822 -0.5862 -0.3015
  151MPD2    C1 2348   3.092   3.503  11.439 -0.1663  0.6821  0.4359
  151MPD2    C2 2349   3.175   3.537  11.549 -0.9151 -0.5223  0.2339
  151MPD2    C3 2350   3.136   3.514  11.681 -0.2407 -0.6452  0.2091
  151MPD2    C4 2351   3.024   3.442  11.701  0.8329 -0.2145  0.8599
  151MPD2    C5 2352   2.944   3.410  11.602 -0.3730 -0.3461 -0.3110
  151MPD2     H 2353   3.270   3.587  11.532 -0.3465 -2.7250 -2.9297
  151MPD2    H1 2354   2.974   3.436  11.797  0.0295 -2.6335  0.3030
  151MPD2    H2 2355   2.902   3.414  11.398 -0.0658 -0.4993  0.4388
  151MPD2    H3 2356   2.845   3.366  11.614 -0.0748 -1.0840 -0.5773
  151MPD2     N 2357   3.221   3.561  11.781 -0.3111  0.5872  0.1061
  151MPD2    H5 2358   3.305   3.599  11.740 -0.9422  1.3251 -0.4950
  151MPD2    N1 2359   3.124   3.536  11.309  0.1435  0.3266 -0.0184
  151MPD2    H7 2360   3.054   3.502  11.244  0.4467 -1.0023  0.3495
  152TMC2    C1 2361   3.184   3.388  12.680 -0.0923  0.3380  0.1683
  152TMC2    C2 2362   3.169   3.407  12.812 -0.5267  0.0323  0.0474
  152TMC2    C3 2363   3.288   3.448  12.874  0.1032  0.5872 -0.1531
  152TMC2    C4 2364   3.301   3.410  12.609  0.1417  0.7451  0.2887
  152TMC2    C5 2365   3.413   3.441  12.680  0.1079 -0.1355  0.0224
  152TMC2    C6 2366   3.409   3.465  12.812 -0.6511 -0.1102 -0.2719
  152TMC2     C 2367   3.068   3.350  12.602 -0.0980  0.4329 -0.4079
  152TMC2     O 2368   3.065   3.369  12.480  0.3522 -0.3016  0.4472
  152TMC2     H 2369   3.077   3.405  12.868 -0.2838 -0.2420  0.4363
  152TMC2    H1 2370   3.294   3.428  12.502 -0.5764 -3.0855 -0.3404
  152TMC2    H2 2371   3.488   3.513  12.868 -1.2133 -0.1859  0.5883
  152TMC2    C7 2372   3.540   3.471  12.603  0.4396 -0.5016  0.0054
  152TMC2    C8 2373   3.291   3.466  13.013  0.6369  0.2071 -0.5229
  152TMC2    O1 2374   3.523   3.464  12.485  0.2752  0.6513 -0.2183
  152TMC2    O2 2375   3.191   3.508  13.074  0.1610 -0.8436  0.1149
  152TMC2    O5 2376   3.390   3.386  13.062  0.2115 -0.0088 -0.0499
  152TMC2    H5 2377   3.449   3.350  12.992 -0.9868  1.0951 -1.6217
  153MPD2     C 2378   2.778   3.183  12.738  0.1322  0.3968 -0.9755
  153MPD2    C1 2379   2.850   3.249  12.642 -0.3820 -0.3411  0.8240
  153MPD2    C2 2380   2.781   3.277  12.523  0.1376 -0.6725  0.2279
  153MPD2    C3 2381   2.644   3.255  12.510  0.1815 -0.0680  0.2544
  153MPD2    C4 2382   2.576   3.188  12.607  0.7799 -0.7030  0.8263
  153MPD2    C5 2383   2.647   3.156  12.718 -0.4011 -0.2863  0.3983
  153MPD2     H 2384   2.828   3.328  12.440  0.5344 -0.7409  0.4120
  153MPD2    H1 2385   2.469   3.168  12.611  0.6548  0.4829  3.5045
  153MPD2    H2 2386   2.824   3.164  12.834 -1.6551  0.2171 -0.1509
  153MPD2    H3 2387   2.593   3.101  12.793 -1.7149  1.1975  0.5419
  153MPD2     N 2388   2.586   3.308  12.392  0.1724 -0.3568 -0.2164
  153MPD2    H5 2389   2.646   3.356  12.325  3.1282 -2.6989  0.7533
  153MPD2    N1 2390   2.981   3.284  12.681 -0.0428  0.1580 -0.4460
  153MPD2    H7 2391   3.008   3.254  12.773 -2.5844 -1.6827 -0.2872
  154TMC2    C1 2392   0.833   3.790   0.141  0.4295 -0.0215 -0.3894
  154TMC2    C2 2393   0.826   3.918   0.188  0.2584  0.1488 -0.1219
  154TMC2    C3 2394   0.941   3.990   0.216 -0.2234 -0.6891 -0.0851
  154TMC2    C4 2395   0.957   3.729   0.127 -0.1076 -0.3413  0.1439
  154TMC2    C5 2396   1.067   3.807   0.146  0.5270 -0.1782  0.0006
  154TMC2    C6 2397   1.064   3.937   0.189  0.7672 -0.3124 -0.5426
  154TMC2     C 2398   0.715   3.721   0.091 -0.0576  0.7709  0.4838
  154TMC2     O 2399   0.609   3.770   0.131  0.3034  0.1056  0.0138
  154TMC2     H 2400   0.731   3.971   0.189  1.2458  2.0153 -3.7683
  154TMC2    H1 2401   0.979   3.629   0.091 -0.8070 -1.2879  2.3132
  154TMC2    H2 2402   1.155   3.994   0.208  0.8635 -0.5401 -0.3143
  154TMC2    C7 2403   1.185   3.758   0.078  0.1068 -0.1188 -0.3589
  154TMC2    C8 2404   0.942   4.121   0.278  0.3214  0.1775  0.0023
  154TMC2    O1 2405   1.213   3.638   0.079  0.4108 -0.3690  0.3898
  154TMC2    O2 2406   1.034   4.163   0.349  0.3081 -0.0238 -0.2472
  154TMC2    O5 2407   0.837   4.200   0.236  0.5775 -0.1412  0.6159
  154TMC2    H5 2408   0.791   4.171   0.155  0.8022  3.0850 -0.6752
  155MPD2     C 2409   0.662   3.487  17.574 -0.7647 -0.0290 -0.7206
  155MPD2    C1 2410   0.635   3.558  17.689  0.1774 -0.3514 -0.2627
  155MPD2    C2 2411   0.495   3.576  17.712 -0.5913  0.0967 -0.4615
  155MPD2    C3 2412   0.398   3.528  17.623  0.9841  0.6975  0.3095
  155MPD2    C4 2413   0.437   3.444  17.518  0.2897  0.3558 -0.3819
  155MPD2    C5 2414   0.570   3.419  17.494 -0.1975  1.4413  0.5887
  155MPD2     H 2415   0.459   3.639   0.030  0.2676 -1.9143  1.5141
  155MPD2    H1 2416   0.376   3.398  17.441  1.3008  0.2853 -1.1436
  155MPD2    H2 2417   0.764   3.468  17.542 -0.3294  0.8790  0.1373
  155MPD2    H3 2418   0.603   3.356  17.412 -0.7167 -0.8872  2.1797
  155MPD2     N 2419   0.266   3.562  17.656 -0.8284  0.1354  0.2860
  155MPD2    H5 2420   0.236   3.606  17.743  2.1539 -0.4299  1.6089
  155MPD2    N1 2421   0.739   3.624  17.759 -0.0533  0.4870 -0.5955
  155MPD2    H7 2422   0.835   3.605  17.732 -0.5648 -0.8211 -1.5027
  156TMC2    C1 2423   3.532   1.552  11.041  0.2968  0.1021 -0.1174
  156TMC2    C2 2424   3.539   1.449  10.956  0.1612  0.5833 -0.3884
  156TMC2    C3 2425   3.504   1.480  10.823 -0.8822  0.3096 -0.2119
  156TMC2    C4 2426   3.501   1.677  11.001  0.1943 -0.0441 -0.2805
  156TMC2    C5 2427   3.458   1.707  10.874  0.1286  1.0743 -0.3705
  156TMC2    C6 2428   3.449   1.605  10.783 -0.3101 -0.0880  0.2642
  156TMC2     C 2429   3.575   1.552  11.175  0.1549  0.2033 -0.2877
  156TMC2     O 2430   3.575   1.656  11.237  0.0559 -0.3201 -0.5745
  156TMC2     H 2431   3.573   1.351  10.988 -1.8156 -0.9537 -2.9520
  156TMC2    H1 2432   3.513   1.764  11.065 -0.0040 -0.4231  0.2801
  156TMC2    H2 2433   3.411   1.632  10.685  2.2981  0.3178 -0.6517
  156TMC2    C7 2434   3.466   1.843  10.820  0.4806  0.3579 -0.7926
  156TMC2    C8 2435   3.497   1.369  10.738 -0.3996  0.7911  0.2629
  156TMC2    O1 2436   3.513   1.925  10.893 -0.5957 -0.4577 -0.5235
  156TMC2    O2 2437   3.578   1.277  10.750 -0.2909  0.3060  0.1546
  156TMC2    O5 2438   3.415   1.384  10.629  0.7111  0.1030 -0.3012
  156TMC2    H5 2439   3.350   1.455  10.645 -1.0033 -1.7833  1.0045
  157MPD2     C 2440   3.685   1.254  11.366  0.0672  0.5017  0.3581
  157MPD2    C1 2441   3.678   1.392  11.338  0.0171 -0.3871 -0.1558
  157MPD2    C2 2442   3.718   1.484  11.433 -0.2515  0.1082 -0.2084
  157MPD2    C3 2443   3.774   1.440  11.553 -0.4681  0.2136  0.3598
  157MPD2    C4 2444   3.773   1.307  11.584  0.0651 -0.7295 -0.7488
  157MPD2    C5 2445   3.728   1.218  11.492 -0.4930  0.1728  0.5785
  157MPD2     H 2446   3.713   1.590  11.414  2.8672  0.8282  3.0718
  157MPD2    H1 2447   3.796   1.271  11.683  3.0150 -1.4452 -1.7064
  157MPD2    H2 2448   3.654   1.170  11.305  0.9565  0.9512 -0.7179
  157MPD2    H3 2449   3.711   1.115  11.523  0.6674 -0.5080 -1.0363
  157MPD2     N 2450   3.827   1.535  11.636 -0.6741  0.5395 -0.0777
  157MPD2    H5 2451   3.823   1.632  11.607  0.8276 -0.0801 -2.3430
  157MPD2    N1 2452   3.622   1.426  11.212  0.1334  0.4992 -0.4450
  157MPD2    H7 2453   3.601   1.343  11.157 -2.5467  1.3288 -0.6684
  158TMC2    C1 2454   3.720   4.732  13.068  0.1342  0.2149  0.4385
  158TMC2    C2 2455   3.750   0.058  12.952  0.3598 -0.2761 -0.2228
  158TMC2    C3 2456   3.661   0.041  12.848  1.0971  0.2382 -0.3814
  158TMC2    C4 2457   3.609   4.657  13.081  0.0577  0.1757  0.0656
  158TMC2    C5 2458   3.530   4.640  12.969 -1.0532  0.6482 -1.1565
  158TMC2    C6 2459   3.567   4.687  12.845  1.0236  0.1080  0.1258
  158TMC2     C 2460   3.798   0.030  13.183  0.4743 -0.2917 -0.2150
  158TMC2     O 2461   3.883   0.110  13.158  0.5612 -0.3681 -0.1730
  158TMC2     H 2462   3.825   0.135  12.942  1.0813 -0.8041  1.2123
  158TMC2    H1 2463   3.571   4.614  13.173 -0.5051 -0.0558 -0.2757
  158TMC2    H2 2464   3.505   4.666  12.759  1.0088 -1.6879  0.5801
  158TMC2    C7 2465   3.405   4.569  12.970  0.1387  0.3502 -0.8350
  158TMC2    C8 2466   3.655   0.135  12.737  0.5247 -0.0831  0.0236
  158TMC2    O1 2467   3.326   4.588  12.878 -0.0304  0.0481 -0.2234
  158TMC2    O2 2468   3.713   0.248  12.743 -0.0604  0.5655 -0.4112
  158TMC2    O5 2469   3.647   0.070  12.621  0.0349  0.2982  0.3994
  158TMC2    H5 2470   3.646   4.714  12.627  1.0330  0.2904  0.4377
  159MPD2     C 2471   3.904   4.725  13.685  1.0051  0.3524  0.4401
  159MPD2    C1 2472   3.813   4.625  13.651  0.1300  0.1261 -0.0220
  159MPD2    C2 2473   3.767   4.625  13.516  0.1792 -0.9192 -0.5784
  159MPD2    C3 2474   3.815   4.712  13.424  0.7368 -0.4949  0.2528
  159MPD2    C4 2475   3.902   0.067  13.462  0.4730 -0.0582  0.1842
  159MPD2    C5 2476   3.944   0.076  13.592  0.5248  0.4377 -1.1308
  159MPD2     H 2477   3.712   4.538  13.484 -0.3031 -0.7631 -0.1754
  159MPD2    H1 2478   3.945   0.138  13.393  1.0602  0.2939  0.9133
  159MPD2    H2 2479   3.943   4.740  13.785 -0.4992  2.9913  0.6280
  159MPD2    H3 2480   4.025   0.142  13.623  0.7480  0.0205 -0.8050
  159MPD2     N 2481   3.765   4.697  13.292  0.4240 -0.5344 -0.1568
  159MPD2    H5 2482   3.694   4.625  13.280  1.9300 -2.0522  0.1140
  159MPD2    N1 2483   3.764   4.533  13.744  0.3566  0.5231 -0.2461
  159MPD2    H7 2484   3.811   4.541  13.834 -1.8395 -1.0106  1.0540
  160TMC2    C1 2485   3.791   3.068   1.309  0.8660 -0.1684  0.0933
  160TMC2    C2 2486   3.920   3.019   1.296  0.3783  0.0196  0.4294
  160TMC2    C3 2487   3.989   3.043   1.178  0.2390 -0.4194 -0.2026
  160TMC2    C4 2488   3.739   3.131   1.200  0.4187  0.2187 -0.0741
  160TMC2    C5 2489   3.804   3.143   1.079 -0.3573  0.4119  0.2908
  160TMC2    C6 2490   3.935   3.103   1.072 -0.1348  0.6157 -0.2448
  160TMC2     C 2491   3.733   3.088   1.436 -0.0284  0.1656  0.0997
  160TMC2     O 2492   3.812   3.084   1.530 -0.0381 -0.0052  0.2155
  160TMC2     H 2493   3.974   2.974   1.379  0.9398 -1.0098 -0.4916
  160TMC2    H1 2494   3.644   3.181   1.209 -1.2908 -2.8191 -0.9850
  160TMC2    H2 2495   3.991   3.102   0.979  0.3717 -0.8585  0.0706
  160TMC2    C7 2496   3.736   3.221   0.972  0.0261 -0.7452  0.5170
  160TMC2    C8 2497   4.134   3.028   1.186  0.0383  0.1981 -0.8395
  160TMC2    O1 2498   3.617   3.255   0.984 -0.3380  0.1184  0.1932
  160TMC2    O2 2499   4.198   2.938   1.244  0.3152 -0.2798  0.5939
  160TMC2    O5 2500   4.182   3.141   1.139  0.3336  0.3801 -0.5510
  160TMC2    H5 2501   4.116   3.210   1.118 -0.4797 -0.8105 -1.8838
  161MPD2     C 2502   3.558   3.185   1.661 -0.3005 -0.0454 -0.7587
  161MPD2    C1 2503   3.512   3.131   1.547 -0.5170 -0.2572  0.0389
  161MPD2    C2 2504   3.379   3.125   1.517  0.3996  0.0063 -0.0812
  161MPD2    C3 2505   3.281   3.160   1.609  0.1998  0.0704  0.5013
  161MPD2    C4 2506   3.331   3.214   1.730  0.5163  0.1681 -0.0001
  161MPD2    C5 2507   3.471   3.223   1.752  0.0749  0.3079 -0.1438
  161MPD2     H 2508   3.354   3.092   1.417 -1.9052 -0.4248  0.6500
  161MPD2    H1 2509   3.276   3.253   1.815  1.3820  2.2062 -0.3951
  161MPD2    H2 2510   3.664   3.200   1.677 -0.9559  2.1589  1.5050
  161MPD2    H3 2511   3.508   3.258   1.848  1.2029  0.4150 -0.6219
  161MPD2     N 2512   3.149   3.152   1.593  0.2199 -0.3600  0.0212
  161MPD2    H5 2513   3.095   3.176   1.676  1.6727 -0.3158  0.9418
  161MPD2    N1 2514   3.594   3.088   1.437  0.0946 -0.1638  0.1312
  161MPD2    H7 2515   3.544   3.040   1.364 -0.2586 -1.4961  1.2454
  162TMC2    C1 2516   1.436   0.024   0.996  0.2007 -0.0087 -0.1295
  162TMC2    C2 2517   1.351   0.132   1.003  0.2317  0.1974  0.4868
  162TMC2    C3 2518   1.267   0.141   1.117 -0.8370 -0.1859  0.4809
  162TMC2    C4 2519   1.434   4.665   1.087  0.1296 -0.5492  0.2813
  162TMC2    C5 2520   1.361   4.679   1.203  0.3492  0.5079 -0.4110
  162TMC2    C6 2521   1.285   0.057   1.225 -0.5054 -0.1032  0.5663
  162TMC2     C 2522   1.524   0.008   0.885  0.1040  0.0084 -0.0872
  162TMC2     O 2523   1.561   4.636   0.852 -0.0044 -0.0379 -0.0910
  162TMC2     H 2524   1.348   0.213   0.931 -0.4411 -0.7245 -0.5301
  162TMC2    H1 2525   1.469   4.566   1.062 -0.4531 -0.5254 -0.6445
  162TMC2    H2 2526   1.237   0.068   1.322 -0.4374  0.4855  0.5373
  162TMC2    C7 2527   1.357   4.574   1.304 -0.5575  0.1851  0.3403
  162TMC2    C8 2528   1.198   0.269   1.137  0.2674 -0.3755  0.0304
  162TMC2    O1 2529   1.264   4.582   1.385 -0.2453 -0.2855 -0.4539
  162TMC2    O2 2530   1.205   0.368   1.064  0.1263  0.2444  0.3816
  162TMC2    O5 2531   1.075   0.233   1.185 -0.0542  0.3036 -0.4530
  162TMC2    H5 2532   1.065   0.138   1.208  2.0769  0.3819  0.8292
  163MPD2     C 2533   1.845   0.241   0.559  0.8602  0.2961 -0.3099
  163MPD2    C1 2534   1.800   0.102   0.563  0.3327 -0.3389  0.4474
  163MPD2    C2 2535   1.696   0.072   0.646  0.8410 -0.0958 -0.1663
  163MPD2    C3 2536   1.656   0.165   0.739  0.1930 -0.3212  0.5273
  163MPD2    C4 2537   1.692   0.290   0.731  1.0513  0.1291  0.0412
  163MPD2    C5 2538   1.792   0.327   0.649  0.2243 -0.3313 -0.5745
  163MPD2     H 2539   1.659   4.712   0.639 -0.2047  0.1536  1.6332
  163MPD2    H1 2540   1.654   0.360   0.805  1.0444  1.9173 -1.6349
  163MPD2    H2 2541   1.921   0.283   0.494  0.8640 -0.3639 -0.7293
  163MPD2    H3 2542   1.821   0.431   0.663  1.0794 -0.6564  0.0319
  163MPD2     N 2543   1.559   0.131   0.838  0.0799  0.3130  0.0627
  163MPD2    H5 2544   1.531   0.215   0.889  0.9804  2.8770 -3.6969
  163MPD2    N1 2545   1.857   0.011   0.476 -0.2173 -0.0996  0.0269
  163MPD2    H7 2546   1.939   0.032   0.420  1.0224 -0.2623  1.7914
  164TMC2    C1 2547   2.081   4.061  11.192  0.5218  0.1721  0.5406
  164TMC2    C2 2548   1.985   3.963  11.207 -0.2841  0.5353 -0.2968
  164TMC2    C3 2549   1.853   4.005  11.232  0.3251  0.2504  0.1539
  164TMC2    C4 2550   2.055   4.199  11.209  0.6416  0.5552  0.5551
  164TMC2    C5 2551   1.928   4.235  11.251  0.8498  0.8890  0.1109
  164TMC2    C6 2552   1.825   4.140  11.253 -0.0577  0.2919  0.0384
  164TMC2     C 2553   2.199   4.024  11.118 -0.0519  0.9651 -0.2705
  164TMC2     O 2554   2.223   3.901  11.107 -0.3522  0.0341 -0.2312
  164TMC2     H 2555   1.997   3.856  11.195  2.6184  1.1876 -2.9341
  164TMC2    H1 2556   2.135   4.270  11.190 -0.1872  1.1683 -0.6907
  164TMC2    H2 2557   1.723   4.167  11.278  0.3755  1.1127  0.8950
  164TMC2    C7 2558   1.881   4.372  11.245 -0.7510  0.4325 -1.1811
  164TMC2    C8 2559   1.763   3.928  11.313  0.4453 -0.9251 -0.4892
  164TMC2    O1 2560   1.765   4.398  11.223  0.3264 -0.1401  0.3605
  164TMC2    O2 2561   1.700   3.963  11.411 -0.2729 -0.5258 -0.1392
  164TMC2    O5 2562   1.740   3.805  11.262  0.4511 -0.1311 -0.3943
  164TMC2    H5 2563   1.784   3.795  11.176  2.4420  1.3722  0.4501
  165TMC2    C1 2564   3.328   2.884   0.879 -0.2494  0.4792 -0.4948
  165TMC2    C2 2565   3.366   2.990   0.803  0.3949  0.3762  0.5457
  165TMC2    C3 2566   3.499   3.004   0.765 -1.0582 -0.1393  0.1112
  165TMC2    C4 2567   3.422   2.801   0.931 -0.4271  0.0436 -0.3184
  165TMC2    C5 2568   3.553   2.831   0.904  1.0767  0.0412 -0.1891
  165TMC2    C6 2569   3.598   2.931   0.816  0.1988  0.5155  0.5862
  165TMC2     C 2570   3.194   2.833   0.876 -0.2596  0.2889 -0.3066
  165TMC2     O 2571   3.186   2.744   0.958  0.3703  0.4442  0.5308
  165TMC2     H 2572   3.299   3.068   0.768 -0.7788 -0.0663  1.8337
  165TMC2    H1 2573   3.396   2.724   1.003  0.8198  1.0287  1.2021
  165TMC2    H2 2574   3.702   2.959   0.802  0.7835 -1.1569  1.6489
  165TMC2    C7 2575   3.655   2.773   0.986  0.1809 -0.0360  0.5197
  165TMC2    C8 2576   3.523   3.081   0.645  0.6187  0.3457  0.3285
  165TMC2    O1 2577   3.767   2.775   0.932  0.0002  0.9032 -0.0487
  165TMC2    O2 2578   3.444   3.161   0.607 -0.3661  0.2691 -0.0167
  165TMC2    O5 2579   3.594   3.009   0.556 -0.5166  0.4322  0.0111
  165TMC2    H5 2580   3.644   2.934   0.595  0.5462  1.4689  0.6464
  166MPD2     C 2581   2.690   2.793   0.781  0.2208 -0.3876  0.1952
  166MPD2    C1 2582   2.778   2.716   0.857  0.1001  0.4210  0.0652
  166MPD2    C2 2583   2.912   2.741   0.859 -0.2671  0.2887  0.1336
  166MPD2    C3 2584   2.964   2.847   0.786  0.4080  0.9942 -0.2913
  166MPD2    C4 2585   2.874   2.924   0.708  0.6165 -0.1029 -0.4849
  166MPD2    C5 2586   2.735   2.900   0.712  0.4362 -0.4767 -0.1670
  166MPD2     H 2587   2.977   2.686   0.926 -0.7059 -0.9618 -0.4726
  166MPD2    H1 2588   2.897   3.015   0.653  1.9061 -0.3273 -0.3119
  166MPD2    H2 2589   2.583   2.781   0.787  0.4865 -2.8949 -0.0560
  166MPD2    H3 2590   2.671   2.959   0.647  2.2009 -0.3683 -1.8271
  166MPD2     N 2591   3.100   2.893   0.798  0.3099 -0.3209 -0.4850
  166MPD2    H5 2592   3.136   2.964   0.735  1.5054 -0.2503  0.2602
  166MPD2    N1 2593   2.720   2.609   0.933 -0.1958  0.6165  0.0403
  166MPD2    H7 2594   2.619   2.597   0.936 -0.3140  1.2531 -1.2398
  167TMC2    C1 2595   1.808   3.947  12.329  0.6160  0.4199  0.4351
  167TMC2    C2 2596   1.793   3.933  12.461  0.6973 -0.1903 -0.5311
  167TMC2    C3 2597   1.788   3.803  12.513  0.0694 -0.3908 -0.1493
  167TMC2    C4 2598   1.820   3.840  12.245  0.2125 -0.1238  0.5680
  167TMC2    C5 2599   1.816   3.713  12.303 -0.1746  0.0137  0.0658
  167TMC2    C6 2600   1.795   3.693  12.431 -0.1805  0.2999 -0.3806
  167TMC2     C 2601   1.778   4.084  12.278 -1.0501 -0.2537 -0.4441
  167TMC2     O 2602   1.772   4.172  12.358  0.1226 -0.3584 -0.5309
  167TMC2     H 2603   1.782   4.023  12.520  3.5884  0.3408 -0.8077
  167TMC2    H1 2604   1.822   3.849  12.137 -0.5860  1.8129  0.7157
  167TMC2    H2 2605   1.783   3.592  12.468  3.3962 -0.8866 -2.4800
  167TMC2    C7 2606   1.850   3.598  12.226  0.3323 -0.4336 -0.0332
  167TMC2    C8 2607   1.826   3.782  12.655 -0.8715  0.8357  0.1762
  167TMC2    O1 2608   1.797   3.492  12.262  0.1394 -0.1828  0.1098
  167TMC2    O2 2609   1.878   3.880  12.711 -0.1851  0.1085 -0.0073
  167TMC2    O5 2610   1.894   3.662  12.659  0.0191 -0.4887 -0.1497
  167TMC2    H5 2611   1.834   3.588  12.634  1.5625 -1.2007 -1.7120
  168MPD2     C 2612   1.680   4.319  12.115 -0.2212 -1.0276  0.8562
  168MPD2    C1 2613   1.666   4.184  12.077  0.2656 -0.1194 -0.4540
  168MPD2    C2 2614   1.588   4.150  11.977 -0.0038 -0.1538 -0.1695
  168MPD2    C3 2615   1.501   4.244  11.914  0.2288 -1.2968  0.2877
  168MPD2    C4 2616   1.514   4.378  11.955  0.2432  0.1371  0.0725
  168MPD2    C5 2617   1.607   4.412  12.049  0.2688 -0.2285 -0.1167
  168MPD2     H 2618   1.586   4.052  11.931  0.1502  0.2027 -0.9426
  168MPD2    H1 2619   1.459   4.456  11.904  0.1055  1.1201  1.7187
  168MPD2    H2 2620   1.747   4.346  12.196  0.7930  3.0019 -1.2956
  168MPD2    H3 2621   1.616   4.516  12.080  0.2760 -0.1113 -0.5208
  168MPD2     N 2622   1.411   4.196  11.813  0.6272 -0.1858 -0.1209
  168MPD2    H5 2623   1.437   4.104  11.779 -0.3652 -0.2337 -0.7564
  168MPD2    N1 2624   1.729   4.078  12.150 -0.3968 -0.2839 -0.4344
  168MPD2    H7 2625   1.724   3.986  12.106  3.5738 -0.8812  0.3983
  169MPD1     C 2626   4.556   0.890   8.797 -0.1752  0.4221 -0.1230
  169MPD1    C1 2627   4.459   0.810   8.755  0.0312  0.0669  0.4303
  169MPD1    C2 2628   4.458   0.680   8.797 -0.7885  0.4083  0.7621
  169MPD1    C3 2629   4.561   0.623   8.869  0.3303 -0.3636  0.9140
  169MPD1    C4 2630   4.658   0.711   8.922 -0.1643 -0.7993  0.1204
  169MPD1    C5 2631   4.643   0.841   8.884  0.3296  0.6645  0.3444
  169MPD1     H 2632   4.373   0.629   8.753 -0.3663  0.9446 -0.6473
  169MPD1    H1 2633   4.739   0.679   8.986  0.2327  0.4670  0.2582
  169MPD1    H2 2634   4.557   0.994   8.767  0.0708  0.5261  0.2455
  169MPD1    H3 2635   4.717   0.914   8.914  0.3778  1.2030 -1.0932
  169MPD1     N 2636   4.561   0.479   8.899 -0.3459  0.0640  0.3976
  169MPD1    H5 2637   4.489   0.417   8.865 -1.9995  1.3095  1.5917
  169MPD1    N1 2638   4.351   0.863   8.682 -0.4531  0.6038  0.0643
  169MPD1    H6 2639   4.309   0.791   8.623  2.2823  1.1538 -2.5398
  169MPD1    H7 2640   4.393   0.933   8.621  0.2208  0.5366  0.4514
  170MPD1     C 2641   3.113   1.524  12.867  0.0574 -0.2226 -0.2041
  170MPD1    C1 2642   3.126   1.514  13.003  0.2542  0.4542 -0.5788
  170MPD1    C2 2643   3.026   1.569  13.083  0.2123 -0.1791  0.3636
  170MPD1    C3 2644   2.907   1.603  13.031  0.1784 -1.5269  0.3167
  170MPD1    C4 2645   2.894   1.606  12.896  0.1585  0.3159 -0.1807
  170MPD1    C5 2646   2.994   1.563  12.817  0.3770 -0.3150 -0.1097
  170MPD1     H 2647   3.041   1.570  13.190  2.4422  2.2836  0.0286
  170MPD1    H1 2648   2.796   1.625  12.855  0.0280 -0.3936 -0.1888
  170MPD1    H2 2649   3.191   1.490  12.800  0.7209 -0.7437  0.8353
  170MPD1    H3 2650   2.982   1.564  12.709 -0.3208 -1.3744 -0.0403
  170MPD1     N 2651   2.805   1.638  13.113 -0.6912 -0.1554  0.5714
  170MPD1    H5 2652   2.799   1.589  13.202 -0.2774 -0.6826  0.3110
  170MPD1    N1 2653   3.254   1.478  13.042 -0.7735  0.0409  0.2990
  170MPD1    H6 2654   3.306   1.430  12.968 -1.6133 -0.5671  0.1054
  170MPD1    H7 2655   3.252   1.415  13.123  0.7471 -0.4897 -0.0787
  171MPD1     C 2656   1.246   2.725  15.020 -0.1451  0.6316  0.6774
  171MPD1    C1 2657   1.173   2.614  14.997 -0.0821 -0.0686 -0.7411
  171MPD1    C2 2658   1.189   2.507  15.086 -0.2667  0.1315  0.3401
  171MPD1    C3 2659   1.263   2.525  15.198 -0.8605 -0.2141  0.8403
  171MPD1    C4 2660   1.336   2.638  15.231 -0.1670 -0.0135  0.3339
  171MPD1    C5 2661   1.325   2.734  15.128 -0.4387 -0.1578 -0.1598
  171MPD1     H 2662   1.135   2.414  15.069 -1.0878  0.6324  0.2274
  171MPD1    H1 2663   1.401   2.656  15.316 -0.1500  0.8038  0.1522
  171MPD1    H2 2664   1.240   2.816  14.960 -1.6417 -0.0915 -0.2761
  171MPD1    H3 2665   1.387   2.823  15.136 -0.2497 -0.3211  0.2108
  171MPD1     N 2666   1.270   2.425  15.299  0.5567 -0.1456  0.6423
  171MPD1    H5 2667   1.323   2.444  15.383 -0.3735  3.1004  0.5031
  171MPD1    N1 2668   1.106   2.600  14.873  0.4486 -0.2697 -0.0141
  171MPD1    H6 2669   1.032   2.531  14.874 -0.0920  0.2673 -2.5631
  171MPD1    H7 2670   1.067   2.692  14.851 -1.7571 -1.5349 -1.3018
  172MPD1     C 2671   0.089   1.644  17.688 -0.3703  0.0035  0.1338
  172MPD1    C1 2672   0.027   1.701   0.031  0.0720 -0.3506  0.0227
  172MPD1    C2 2673   0.096   1.801   0.105 -0.0416  0.1105 -0.0777
  172MPD1    C3 2674   0.228   1.828   0.076 -0.6673  0.2789 -0.2388
  172MPD1    C4 2675   0.287   1.761  17.735 -0.1181 -0.1232 -0.2824
  172MPD1    C5 2676   0.224   1.659  17.671  0.4511 -0.0206 -0.1120
  172MPD1     H 2677   0.047   1.854   0.185  2.2555 -1.1077  2.1308
  172MPD1    H1 2678   0.388   1.779  17.699 -0.5964  2.1859 -0.4510
  172MPD1    H2 2679   0.039   1.582  17.615 -0.3034  0.5714 -0.3964
  172MPD1    H3 2680   0.274   1.610  17.588 -0.9738 -0.0749 -0.9496
  172MPD1     N 2681   0.308   1.928   0.129 -0.2019  0.1142  0.1610
  172MPD1    H5 2682   0.393   1.950   0.078  0.6586 -2.2522  0.5905
  172MPD1    N1 2683   4.627   1.694   0.037  0.1067  0.0450  0.0623
  172MPD1    H6 2684   4.593   1.606  17.760 -1.9789  0.2246  1.5218
  172MPD1    H7 2685   4.593   1.723   0.129  0.7994 -0.5342  0.5043
  173MPD1     C 2686   2.104   1.855  13.646  0.2657  0.4350  0.0506
  173MPD1    C1 2687   1.974   1.821  13.675  0.7684 -0.3445 -0.1115
  173MPD1    C2 2688   1.953   1.728  13.779 -0.3102  0.2801  0.1168
  173MPD1    C3 2689   2.061   1.681  13.853 -0.5327  0.7898  0.7291
  173MPD1    C4 2690   2.188   1.715  13.818  0.6090 -0.2137 -0.3857
  173MPD1    C5 2691   2.211   1.792  13.711 -0.0735 -0.6562 -0.3056
  173MPD1     H 2692   1.854   1.699  13.815  0.6752 -0.2920  2.3399
  173MPD1    H1 2693   2.273   1.668  13.866  0.5534 -0.7674 -0.8137
  173MPD1    H2 2694   2.117   1.917  13.558 -0.9440  0.6443  0.0089
  173MPD1    H3 2695   2.311   1.817  13.677 -0.9742  3.0598 -0.2403
  173MPD1     N 2696   2.029   1.594  13.965  0.4591 -0.0950 -0.0932
  173MPD1    H5 2697   1.930   1.572  13.965  0.8559 -1.8816 -0.6001
  173MPD1    N1 2698   1.865   1.864  13.594  0.5633  0.3440  0.5461
  173MPD1    H6 2699   1.775   1.876  13.640  1.8077 -1.0759  3.3780
  173MPD1    H7 2700   1.881   1.946  13.537  2.0672 -0.9104 -0.8328
  174MPD1     C 2701   2.322   1.210  14.952  0.5429 -0.7478 -0.5115
  174MPD1    C1 2702   2.372   1.159  14.835 -0.7549 -0.2460  0.1353
  174MPD1    C2 2703   2.305   1.190  14.721 -0.4764  0.7152  0.0321
  174MPD1    C3 2704   2.193   1.266  14.723  0.2224 -0.4125 -0.3317
  174MPD1    C4 2705   2.141   1.317  14.839 -0.5755  0.6049 -0.1526
  174MPD1    C5 2706   2.207   1.286  14.959 -0.4442 -0.0748 -0.0087
  174MPD1     H 2707   2.347   1.158  14.626  0.1807  1.4029  0.0946
  174MPD1    H1 2708   2.072   1.399  14.854  0.0206  1.1909 -0.6180
  174MPD1    H2 2709   2.374   1.189  15.045 -1.0356  0.8231  0.7143
  174MPD1    H3 2710   2.164   1.319  15.053 -0.9799 -1.9154  0.3893
  174MPD1     N 2711   2.127   1.307  14.601  0.3088 -0.0758  0.2529
  174MPD1    H5 2712   2.050   1.371  14.614  1.3137  1.6047 -2.0419
  174MPD1    N1 2713   2.464   1.057  14.838 -1.2039  0.5200 -0.0133
  174MPD1    H6 2714   2.531   1.064  14.915  0.3190 -2.8299 -1.0497
  174MPD1    H7 2715   2.510   1.050  14.748  0.0582  0.3478  0.6479
  175MPD1     C 2716   0.194   3.063  15.480  0.6354 -0.2911  0.3614
  175MPD1    C1 2717   0.325   3.065  15.534 -0.4791 -0.6412  0.0624
  175MPD1    C2 2718   0.326   3.051  15.672 -0.0802 -0.5929  0.3583
  175MPD1    C3 2719   0.209   3.051  15.752 -0.5325  0.1821 -0.2470
  175MPD1    C4 2720   0.085   3.060  15.683  0.5819 -0.1822  0.1792
  175MPD1    C5 2721   0.080   3.050  15.547  0.0122  0.1839 -0.7480
  175MPD1     H 2722   0.422   3.032  15.719 -0.0071  2.8698  1.5915
  175MPD1    H1 2723   4.733   3.088  15.730  1.3485  2.6124  0.0429
  175MPD1    H2 2724   0.181   3.082  15.374 -0.4858  1.5201  0.8361
  175MPD1    H3 2725   4.732   3.056  15.486  0.7842 -2.7146 -2.1235
  175MPD1     N 2726   0.197   3.051  15.897 -0.4849  0.3881  0.3101
  175MPD1    H5 2727   0.099   3.057  15.922  0.0471  2.0230  1.9728
  175MPD1    N1 2728   0.442   3.053  15.452  0.1724 -0.3122 -0.5382
  175MPD1    H6 2729   0.529   3.089  15.489  0.2304 -1.4873  0.4681
  175MPD1    H7 2730   0.428   3.095  15.360  1.1123 -0.3950 -0.7222
  176MPD1     C 2731   2.319   0.206  16.157 -0.4262  0.6761 -0.3513
  176MPD1    C1 2732   2.349   0.295  16.259  0.0774 -0.3936  0.0727
  176MPD1    C2 2733   2.272   0.284  16.374  0.0742  0.2026 -0.4897
  176MPD1    C3 2734   2.157   0.201  16.375 -0.1154 -0.1742  0.3191
  176MPD1    C4 2735   2.126   0.123  16.264 -0.2375  0.0079 -0.7353
  176MPD1    C5 2736   2.202   0.137  16.153  0.1298 -0.3256 -0.2578
  176MPD1     H 2737   2.303   0.328  16.468  0.3572 -0.8197 -0.1055
  176MPD1    H1 2738   2.036   0.063  16.262 -0.1592 -0.1451  0.4154
  176MPD1    H2 2739   2.379   0.192  16.067  1.5335 -1.8350  1.3622
  176MPD1    H3 2740   2.174   0.093  16.058  0.4946  0.9947 -0.9711
  176MPD1     N 2741   2.082   0.202  16.497  0.0880  0.2283 -0.7355
  176MPD1    H5 2742   2.132   0.239  16.577  0.6012  1.0706 -1.4520
  176MPD1    N1 2743   2.476   0.358  16.264 -0.2080  0.4355 -0.0117
  176MPD1    H6 2744   2.484   0.397  16.170  1.8853  0.1457  0.0558
  176MPD1    H7 2745   2.475   0.437  16.328 -2.2323 -0.0438  0.5600
  177MPD1     C 2746   0.379   0.421   9.453 -0.7585  0.4786  0.1109
  177MPD1    C1 2747   0.286   0.347   9.383  0.3083 -0.0381 -0.2756
  177MPD1    C2 2748   0.174   0.411   9.349 -0.4836  0.0994 -0.0121
  177MPD1    C3 2749   0.154   0.548   9.374  0.7695 -0.4557  0.3296
  177MPD1    C4 2750   0.242   0.613   9.451  0.6906  0.1453  0.1026
  177MPD1    C5 2751   0.360   0.554   9.479 -0.5311  0.2395  0.3564
  177MPD1     H 2752   0.097   0.353   9.299 -0.3709 -0.6874  0.7160
  177MPD1    H1 2753   0.221   0.713   9.489  1.7907  0.7075 -0.7622
  177MPD1    H2 2754   0.469   0.372   9.487 -1.4170 -1.1103 -0.4125
  177MPD1    H3 2755   0.431   0.607   9.541  1.2994 -2.2096  0.3444
  177MPD1     N 2756   0.036   0.610   9.330 -0.3301 -0.3177  0.2001
  177MPD1    H5 2757   4.715   0.548   9.279  1.9158 -1.3713 -1.2512
  177MPD1    N1 2758   0.295   0.212   9.377  0.5395 -0.3217 -0.1578
  177MPD1    H6 2759   0.239   0.169   9.303  1.6263  0.2021 -1.2919
  177MPD1    H7 2760   0.392   0.190   9.354  0.3130  0.3016 -1.7198
  178MPD1     C 2761   2.617   1.436   0.127 -0.1052 -0.0527 -0.0965
  178MPD1    C1 2762   2.540   1.481   0.020  0.6068 -0.4361  0.6743
  178MPD1    C2 2763   2.564   1.422  17.659  0.4886 -0.1200  0.2280
  178MPD1    C3 2764   2.667   1.329  17.649 -0.5094 -0.2750 -0.2071
  178MPD1    C4 2765   2.749   1.295  17.757 -0.4826  0.0050  0.2187
  178MPD1    C5 2766   2.723   1.356   0.116  0.0375 -0.0859  0.4144
  178MPD1     H 2767   2.512   1.440  17.566  0.0323 -0.0944  0.4889
  178MPD1    H1 2768   2.830   1.224  17.746 -0.1227  0.6348 -1.2903
  178MPD1    H2 2769   2.606   1.489   0.221 -1.0741  1.4885 -1.0876
  178MPD1    H3 2770   2.784   1.342   0.204  0.3962  2.5752  0.5910
  178MPD1     N 2771   2.687   1.253  17.531  0.3223  0.3014 -0.4175
  178MPD1    H5 2772   2.776   1.205  17.522 -0.5895 -1.3248 -0.6208
  178MPD1    N1 2773   2.437   1.575   0.033  0.8403  0.4758  0.2936
  178MPD1    H6 2774   2.425   1.630  17.710  0.1415  0.7784  0.5903
  178MPD1    H7 2775   2.459   1.641   0.107  0.5904 -0.6111  1.3403
  179MPD1     C 2776   2.993   3.894  15.938  0.8729 -0.0724 -0.3223
  179MPD1    C1 2777   2.901   3.945  15.848 -0.6233 -0.8937  0.0197
  179MPD1    C2 2778   2.809   3.857  15.793 -1.0622  0.0309  0.1614
  179MPD1    C3 2779   2.814   3.723  15.811  0.3965  0.9953 -0.5289
  179MPD1    C4 2780   2.904   3.681  15.906  0.0258  0.5753 -0.7717
  179MPD1    C5 2781   2.986   3.764  15.972  0.4003  0.3814 -0.4369
  179MPD1     H 2782   2.725   3.897  15.736 -0.4732  1.0087 -0.0183
  179MPD1    H1 2783   2.912   3.576  15.930  0.1972  0.8873  0.5459
  179MPD1    H2 2784   3.054   3.965  15.994 -0.5329  3.0718 -2.7927
  179MPD1    H3 2785   3.056   3.728  16.046  0.8840 -0.6816 -1.4200
  179MPD1     N 2786   2.729   3.626  15.768  0.3315  0.0046 -0.1107
  179MPD1    H5 2787   2.740   3.532  15.804  0.7688  1.1119  2.7227
  179MPD1    N1 2788   2.872   4.086  15.845  0.3978  0.2700 -0.3546
  179MPD1    H6 2789   2.962   4.134  15.852  0.9630 -0.5665 -2.0113
  179MPD1    H7 2790   2.835   4.103  15.752  1.0703  0.6927 -0.5449
  180MPD1     C 2791   1.176   4.686  14.790 -0.0398 -0.1182 -0.4887
  180MPD1    C1 2792   1.116   4.622  14.686 -0.9579  0.0483  0.8309
  180MPD1    C2 2793   1.166   4.659  14.559  0.3525  0.7206  0.8603
  180MPD1    C3 2794   1.256   0.018  14.535  0.6236  0.4448 -0.3454
  180MPD1    C4 2795   1.325   0.071  14.644  0.2002  0.6725 -0.2335
  180MPD1    C5 2796   1.285   0.034  14.769 -0.3611 -0.5381  0.5024
  180MPD1     H 2797   1.125   4.611  14.471  0.5456  1.5376  0.3247
  180MPD1    H1 2798   1.409   0.137  14.627  0.5930  0.2837  0.1971
  180MPD1    H2 2799   1.156   4.658  14.893 -0.2506  0.9612 -0.2375
  180MPD1    H3 2800   1.325   0.060  14.866  1.6787  0.0740 -0.5155
  180MPD1     N 2801   1.284   0.047  14.395  0.2238 -0.1162 -0.4581
  180MPD1    H5 2802   1.217   0.007  14.330 -2.2440  1.3783  1.1705
  180MPD1    N1 2803   1.005   4.536  14.700  0.5898  0.1763 -0.0135
  180MPD1    H6 2804   1.002   4.495  14.794 -0.4184  1.8134  0.6611
  180MPD1    H7 2805   1.003   4.466  14.626  1.6080 -1.1923  1.2496
  181MPD1     C 2806   3.838   2.613   8.966 -0.3236  0.4649  0.1577
  181MPD1    C1 2807   3.832   2.740   9.018  0.3958  0.3440 -0.8528
  181MPD1    C2 2808   3.909   2.774   9.132  0.1489  0.3592  0.5386
  181MPD1    C3 2809   3.972   2.679   9.208  0.1097 -0.3307  0.1290
  181MPD1    C4 2810   3.973   2.552   9.159 -0.4119 -0.3523 -0.3787
  181MPD1    C5 2811   3.912   2.523   9.037  0.2731  0.0900  0.4950
  181MPD1     H 2812   3.903   2.876   9.168  1.0359 -0.0160  1.7443
  181MPD1    H1 2813   4.035   2.475   9.203 -1.0905  0.1487  1.4550
  181MPD1    H2 2814   3.787   2.581   8.876  0.0711 -1.3504  0.5774
  181MPD1    H3 2815   3.915   2.425   8.991 -1.7933  0.0314  0.4830
  181MPD1     N 2816   4.049   2.702   9.328 -0.1718 -0.0294 -0.1800
  181MPD1    H5 2817   4.085   2.616   9.368  1.4360  1.6145  1.8489
  181MPD1    N1 2818   3.761   2.839   8.948  0.2308  0.0987  0.0044
  181MPD1    H6 2819   3.681   2.788   8.912  0.7681  1.0298 -2.5024
  181MPD1    H7 2820   3.729   2.909   9.014 -0.1276  0.9731 -1.0913
  182MPD1     C 2821   4.063   2.218   1.475  0.1287  0.3192 -0.0871
  182MPD1    C1 2822   4.157   2.111   1.479  0.0635  0.4952 -0.1468
  182MPD1    C2 2823   4.205   2.063   1.355 -0.7919  0.8491  0.1038
  182MPD1    C3 2824   4.163   2.116   1.235  0.8605  0.2454  0.1429
  182MPD1    C4 2825   4.092   2.236   1.240  0.1627  0.5348  0.0541
  182MPD1    C5 2826   4.040   2.283   1.357  0.3040 -0.6913  0.4709
  182MPD1     H 2827   4.280   1.985   1.350 -1.2776  0.3739  0.1563
  182MPD1    H1 2828   4.054   2.289   1.153 -0.4138  0.0127 -0.0041
  182MPD1    H2 2829   4.019   2.270   1.559 -2.1110 -0.9268 -0.4794
  182MPD1    H3 2830   3.972   2.367   1.357  0.9867 -0.1416 -0.0505
  182MPD1     N 2831   4.202   2.061   1.111 -0.1846 -0.0954 -0.8388
  182MPD1    H5 2832   4.186   2.112   1.025 -0.3594 -1.3341 -1.5426
  182MPD1    N1 2833   4.180   2.044   1.599 -0.4333 -0.5370  0.6790
  182MPD1    H6 2834   4.276   2.010   1.598  0.1355  1.0633  1.6323
  182MPD1    H7 2835   4.158   2.097   1.683  0.6407  0.2388  0.4730
  183MPD1     C 2836   0.605   3.665   9.229  1.0671 -0.6666 -0.4504
  183MPD1    C1 2837   0.565   3.564   9.145 -0.6335 -0.9187  0.3014
  183MPD1    C2 2838   0.608   3.434   9.170 -0.2779  0.3012  0.1668
  183MPD1    C3 2839   0.696   3.401   9.271  0.7893 -0.2899  0.4568
  183MPD1    C4 2840   0.742   3.514   9.349 -0.1796 -0.1642  0.0683
  183MPD1    C5 2841   0.694   3.643   9.326  0.5068 -0.4793 -0.6357
  183MPD1     H 2842   0.555   3.360   9.112 -0.1091  1.6577 -1.6954
  183MPD1    H1 2843   0.816   3.506   9.427  0.2690  2.0282 -0.1207
  183MPD1    H2 2844   0.574   3.768   9.215 -0.9497 -1.1987  0.0606
  183MPD1    H3 2845   0.728   3.726   9.387 -1.8832  0.4991 -0.6574
  183MPD1     N 2846   0.728   3.266   9.302  0.4927 -0.6258 -0.4075
  183MPD1    H5 2847   0.693   3.195   9.238  1.9357 -0.8336 -0.9637
  183MPD1    N1 2848   0.459   3.591   9.060  0.2768  0.1791  0.1381
  183MPD1    H6 2849   0.484   3.547   8.972 -2.8213  0.0495 -0.6557
  183MPD1    H7 2850   0.451   3.691   9.041 -1.4185  0.3262  1.6385
  184MPD1     C 2851   0.143   4.726  10.092  0.2925 -0.4742 -0.0856
  184MPD1    C1 2852   0.019   4.676  10.069  0.4224  0.6617 -0.3265
  184MPD1    C2 2853   4.680   0.001   9.980 -0.4675 -0.6410 -0.7601
  184MPD1    C3 2854   4.710   0.114   9.909 -0.2399  0.3058 -0.0953
  184MPD1    C4 2855   0.087   0.175   9.944 -0.8362 -0.3103 -0.2033
  184MPD1    C5 2856   0.176   0.104  10.029  0.1714  0.4363  0.1306
  184MPD1     H 2857   4.592   4.686   9.950  0.1951 -1.2329 -1.5922
  184MPD1    H1 2858   0.127   0.272   9.919 -1.4483 -0.5005 -1.9665
  184MPD1    H2 2859   0.220   4.690  10.159 -0.5553 -3.3042 -0.6273
  184MPD1    H3 2860   0.275   0.146  10.038  0.5150  0.0199 -1.9202
  184MPD1     N 2861   4.611   0.172   9.819  0.4629  0.0981 -0.1634
  184MPD1    H5 2862   4.635   0.261   9.776 -0.1716  0.5253  0.3590
  184MPD1    N1 2863   4.733   4.552  10.121 -0.0697  0.6427  0.4600
  184MPD1    H6 2864   4.635   4.543  10.150  0.4758 -1.0966  1.7242
  184MPD1    H7 2865   0.057   4.533  10.197 -2.3243  1.0778  2.5198
  185MPD1     C 2866   3.546   0.135   9.726 -0.5821  0.1171 -0.3100
  185MPD1    C1 2867   3.612   0.063   9.629  1.0445  0.0464  0.0539
  185MPD1    C2 2868   3.745   0.102   9.602  0.5811 -0.6932 -0.4342
  185MPD1    C3 2869   3.812   0.206   9.664 -0.0750 -0.0882  0.3314
  185MPD1    C4 2870   3.731   0.281   9.755  0.4616 -0.4543 -0.0804
  185MPD1    C5 2871   3.600   0.247   9.785  0.1573 -0.4873 -0.3856
  185MPD1     H 2872   3.795   0.047   9.523  2.9903  1.4777 -0.4230
  185MPD1    H1 2873   3.758   0.367   9.816 -1.3740 -0.4010  0.6526
  185MPD1    H2 2874   3.448   0.104   9.762 -0.2825  0.3865  0.7296
  185MPD1    H3 2875   3.547   0.309   9.855  1.9761 -0.0062  0.5836
  185MPD1     N 2876   3.950   0.248   9.646 -0.0963 -0.2224  0.1051
  185MPD1    H5 2877   3.990   0.334   9.683  2.1968 -0.9583 -0.6550
  185MPD1    N1 2878   3.549   4.692   9.565 -0.1038  0.2029  0.3052
  185MPD1    H6 2879   3.589   4.691   9.472 -0.0536  0.6171  0.3232
  185MPD1    H7 2880   3.448   4.697   9.558  0.0136  1.6396 -0.3770
  186MPD1     C 2881   2.615   3.387  16.100  0.2500  0.1932 -0.5466
  186MPD1    C1 2882   2.740   3.416  16.143 -0.1892 -0.2249 -0.0374
  186MPD1    C2 2883   2.768   3.548  16.189 -0.1864 -0.0973  0.3437
  186MPD1    C3 2884   2.670   3.651  16.165  0.4240 -0.0555 -0.0146
  186MPD1    C4 2885   2.548   3.611  16.118 -0.7089 -0.4385 -0.6827
  186MPD1    C5 2886   2.518   3.478  16.100  0.3748  0.4160  0.2911
  186MPD1     H 2887   2.864   3.569  16.236  0.5543  1.3856 -1.8288
  186MPD1    H1 2888   2.465   3.675  16.090 -1.1142 -1.0731 -0.9143
  186MPD1    H2 2889   2.581   3.288  16.072 -1.2277  0.9279 -1.3424
  186MPD1    H3 2890   2.420   3.437  16.081  0.6971  0.2358 -1.0112
  186MPD1     N 2891   2.681   3.786  16.207 -0.0116 -0.1260  0.4506
  186MPD1    H5 2892   2.600   3.847  16.201  0.0976 -0.1741 -1.5731
  186MPD1    N1 2893   2.837   3.311  16.165  0.2778 -0.1966 -0.3209
  186MPD1    H6 2894   2.842   3.234  16.098 -0.5099 -1.3328  0.9193
  186MPD1    H7 2895   2.932   3.348  16.162  0.3090 -0.2334  0.1797
  187MPD1     C 2896   2.207   1.494  17.500  0.5473  0.9319  0.0945
  187MPD1    C1 2897   2.144   1.398  17.417 -0.3861 -0.7496  0.5037
  187MPD1    C2 2898   2.015   1.431  17.354  0.9356 -0.0554 -0.2525
  187MPD1    C3 2899   1.953   1.545  17.375 -0.3430  0.5280  0.2177
  187MPD1    C4 2900   2.015   1.635  17.464  0.5221 -0.4304 -0.4461
  187MPD1    C5 2901   2.140   1.608  17.524  0.2062  0.1339 -0.2786
  187MPD1     H 2902   1.963   1.350  17.303  0.8676  0.1889 -0.5675
  187MPD1    H1 2903   1.970   1.732  17.477  1.5776 -0.1789  1.4148
  187MPD1    H2 2904   2.296   1.472  17.557 -0.9853  1.4611  2.6811
  187MPD1    H3 2905   2.182   1.680  17.594  3.1609 -1.1876 -0.7067
  187MPD1     N 2906   1.821   1.579  17.338 -0.4418  0.1755 -0.0312
  187MPD1    H5 2907   1.791   1.671  17.367 -0.5131  0.3773 -0.7629
  187MPD1    N1 2908   2.197   1.272  17.416 -0.6756 -0.7814 -0.1709
  187MPD1    H6 2909   2.190   1.229  17.324  1.0465 -1.2721 -0.0705
  187MPD1    H7 2910   2.295   1.271  17.445  0.3173 -1.5262 -3.5098
  188MPD1     C 2911   1.923   1.919  10.718  0.9010  0.1957 -0.1867
  188MPD1    C1 2912   1.933   1.814  10.807 -0.8855  0.1085  0.1451
  188MPD1    C2 2913   1.905   1.691  10.756  0.0786  0.0017 -0.3598
  188MPD1    C3 2914   1.866   1.671  10.626  0.8726 -0.0375  0.3502
  188MPD1    C4 2915   1.857   1.780  10.546 -0.2457 -0.8679 -0.5534
  188MPD1    C5 2916   1.899   1.903  10.589 -0.5525 -0.4359  0.6041
  188MPD1     H 2917   1.906   1.613  10.831  0.0396  1.0246  0.7137
  188MPD1    H1 2918   1.835   1.780  10.440  0.4010 -3.4832 -0.6740
  188MPD1    H2 2919   1.955   2.018  10.749 -1.9875  1.0340  0.1191
  188MPD1    H3 2920   1.913   1.986  10.521  2.5557 -0.7271  0.8682
  188MPD1     N 2921   1.830   1.545  10.574 -0.2931  0.5157 -0.2949
  188MPD1    H5 2922   1.805   1.553  10.476  1.4150  1.4171 -0.6415
  188MPD1    N1 2923   1.941   1.835  10.946  0.2881 -0.2757 -0.2890
  188MPD1    H6 2924   1.985   1.925  10.959  0.2935 -0.7936  3.2405
  188MPD1    H7 2925   1.995   1.765  10.997  0.4692  1.1713  1.4698
  189MPD1     C 2926   3.598   2.034   0.749 -0.2787 -0.0384 -0.0883
  189MPD1    C1 2927   3.463   2.037   0.765 -0.9757  0.0594  0.5097
  189MPD1    C2 2928   3.385   2.145   0.707  0.4549 -0.3563  0.0494
  189MPD1    C3 2929   3.445   2.219   0.603  0.3590  0.1775  0.3376
  189MPD1    C4 2930   3.587   2.204   0.585 -0.6103 -0.8427  0.1988
  189MPD1    C5 2931   3.662   2.118   0.663 -0.1132 -0.0750 -0.2974
  189MPD1     H 2932   3.277   2.135   0.710  0.4079  0.2374  0.3265
  189MPD1    H1 2933   3.650   2.245   0.506 -1.3487  1.8894  1.0267
  189MPD1    H2 2934   3.664   1.972   0.807  0.3764  1.0631  0.3482
  189MPD1    H3 2935   3.766   2.102   0.639  0.4556  1.2911  1.3106
  189MPD1     N 2936   3.363   2.286   0.507  0.2685  0.4055  0.2257
  189MPD1    H5 2937   3.262   2.274   0.518  0.3946  0.1424  1.1131
  189MPD1    N1 2938   3.400   1.948   0.853  0.3031 -0.4012 -0.4956
  189MPD1    H6 2939   3.299   1.964   0.853  0.3088 -0.3487  0.2371
  189MPD1    H7 2940   3.417   1.849   0.836 -2.6165 -0.8531 -0.7503
  190MPD1     C 2941   1.846   4.656  15.208  0.3961 -0.4972 -0.2985
  190MPD1    C1 2942   1.965   4.592  15.199  0.2885 -0.4418  0.7181
  190MPD1    C2 2943   2.076   4.653  15.240  0.9500  0.0865  0.1928
  190MPD1    C3 2944   2.078   0.035  15.308  1.2025  0.6613 -0.6065
  190MPD1    C4 2945   1.950   0.094  15.321  0.5412  0.1116 -0.4962
  190MPD1    C5 2946   1.837   0.030  15.273  0.0343 -0.1909  0.5254
  190MPD1     H 2947   2.175   4.610  15.233 -0.0422 -1.9037 -1.4816
  190MPD1    H1 2948   1.938   0.184  15.380 -1.8155 -1.0320  0.7611
  190MPD1    H2 2949   1.753   4.617  15.168 -0.6974  1.5389  0.2621
  190MPD1    H3 2950   1.735   0.062  15.290 -0.2142 -1.4176  1.3440
  190MPD1     N 2951   2.203   0.077  15.361 -0.4208  0.0722  0.1799
  190MPD1    H5 2952   2.274   0.005  15.371 -0.6586 -0.1802  0.0433
  190MPD1    N1 2953   1.966   4.453  15.163 -0.3529 -0.5604  0.6161
  190MPD1    H6 2954   2.048   4.419  15.113 -0.5500  0.0063 -0.0963
  190MPD1    H7 2955   1.885   4.427  15.107  0.0269 -1.2466  0.3956
  191MPD1     C 2956   1.558   1.960  12.828  0.0870  0.0025  0.0755
  191MPD1    C1 2957   1.658   2.050  12.816 -0.4220  0.1056  0.6800
  191MPD1    C2 2958   1.631   2.185  12.809 -0.5997  0.5110  0.0900
  191MPD1    C3 2959   1.496   2.227  12.814  0.1744 -0.3699 -0.2421
  191MPD1    C4 2960   1.400   2.137  12.835  0.4480 -0.8050  0.4115
  191MPD1    C5 2961   1.432   2.005  12.844 -0.3164 -0.0409  0.3151
  191MPD1     H 2962   1.713   2.256  12.816 -0.5899  0.3160  1.9395
  191MPD1    H1 2963   1.295   2.164  12.840  0.9452  1.4005 -1.1367
  191MPD1    H2 2964   1.573   1.854  12.841  0.9211 -0.1199 -1.8571
  191MPD1    H3 2965   1.354   1.930  12.851  1.3955 -1.6577  2.3902
  191MPD1     N 2966   1.474   2.374  12.814 -0.6757  0.1798 -0.3894
  191MPD1    H5 2967   1.545   2.443  12.790  0.0308  0.5425  2.6794
  191MPD1    N1 2968   1.789   1.999  12.822  0.0557  0.4423  0.1668
  191MPD1    H6 2969   1.799   1.905  12.784 -2.3461  0.3915 -0.3119
  191MPD1    H7 2970   1.856   2.055  12.770  0.5730 -0.8894 -0.6209
  192MPD1     C 2971   0.750   3.156  13.026  0.5315  0.0407  0.6371
  192MPD1    C1 2972   0.759   3.026  13.078  0.8066 -0.2252  0.4593
  192MPD1    C2 2973   0.870   2.952  13.051  0.9388  0.9557 -0.2288
  192MPD1    C3 2974   0.962   2.991  12.951  0.4501 -0.0236  0.6132
  192MPD1    C4 2975   0.934   3.106  12.885  0.4141  0.0504  0.3024
  192MPD1    C5 2976   0.829   3.184  12.920 -0.4654  0.1106  0.3577
  192MPD1     H 2977   0.878   2.850  13.088  0.3975  0.4576 -1.4670
  192MPD1    H1 2978   0.994   3.144  12.802  1.3926  1.7912  1.8111
  192MPD1    H2 2979   0.665   3.219  13.048 -1.0705 -2.1012  0.6338
  192MPD1    H3 2980   0.804   3.267  12.854  3.3645 -2.4802 -4.3336
  192MPD1     N 2981   1.081   2.923  12.910  0.2482  0.6019 -0.5152
  192MPD1    H5 2982   1.134   2.959  12.830 -1.0126  0.6548 -1.3349
  192MPD1    N1 2983   0.673   2.999  13.183  0.3492  0.4121  0.1626
  192MPD1    H6 2984   0.667   2.898  13.197  1.7966  0.6743  2.7944
  192MPD1    H7 2985   0.582   3.035  13.159 -0.7040 -1.0324  1.9976
  193MPD1     C 2986   0.916   2.584  16.862 -0.0327  0.1318  0.0680
  193MPD1    C1 2987   0.973   2.521  16.755  0.2137 -0.4429 -0.4398
  193MPD1    C2 2988   1.093   2.571  16.704  0.3787  0.6199  0.3593
  193MPD1    C3 2989   1.140   2.697  16.737 -0.4517  0.0308  0.0594
  193MPD1    C4 2990   1.084   2.761  16.839 -0.3974  0.2542 -0.0507
  193MPD1    C5 2991   0.978   2.701  16.903  0.5873  0.4490  0.2226
  193MPD1     H 2992   1.149   2.507  16.637 -1.0068  0.7075 -0.8805
  193MPD1    H1 2993   1.130   2.841  16.895 -0.6396  0.1876  0.2437
  193MPD1    H2 2994   0.825   2.560  16.916  0.3812 -0.1081  0.6585
  193MPD1    H3 2995   0.934   2.750  16.989 -2.9252  0.3074 -1.4618
  193MPD1     N 2996   1.271   2.737  16.698  0.4390 -0.5605  0.0518
  193MPD1    H5 2997   1.313   2.823  16.733 -3.5395  1.2375  0.3878
  193MPD1    N1 2998   0.938   2.396  16.713 -0.0531  0.4728  0.6083
  193MPD1    H6 2999   0.840   2.371  16.726 -0.2352  0.8515  0.0119
  193MPD1    H7 3000   0.967   2.349  16.627  0.4022 -1.2519  1.7064
  194MPD1     C 3001   3.855   0.474  16.768 -0.0429 -0.1403 -0.6204
  194MPD1    C1 3002   3.787   0.357  16.731 -0.3713  0.5517 -0.1884
  194MPD1    C2 3003   3.868   0.246  16.702  0.1546 -0.2621  0.6368
  194MPD1    C3 3004   4.015   0.254  16.698  0.2610 -0.5025  0.6268
  194MPD1    C4 3005   4.062   0.382  16.726  0.5733 -0.5399 -0.0365
  194MPD1    C5 3006   3.986   0.488  16.760 -0.0253 -0.1861 -0.2899
  194MPD1     H 3007   3.820   0.150  16.685  0.3680  0.0234 -1.5227
  194MPD1    H1 3008   4.171   0.387  16.725  0.5742 -0.6813 -0.5064
  194MPD1    H2 3009   3.795   0.563  16.781 -0.0892 -0.0234 -1.6408
  194MPD1    H3 3010   4.032   0.583  16.783  0.5685  0.4541 -4.0868
  194MPD1     N 3011   4.105   0.137  16.706 -0.3574  0.3044 -0.3266
  194MPD1    H5 3012   4.204   0.147  16.726 -0.2355  1.6565 -1.6316
  194MPD1    N1 3013   3.645   0.353  16.747  0.0310  0.1127  0.0836
  194MPD1    H6 3014   3.591   0.282  16.698 -2.1408  0.8364  1.3940
  194MPD1    H7 3015   3.601   0.441  16.720 -1.3947 -0.4416  0.6020
  195MPD1     C 3016   0.685   1.528  17.153  0.7070  0.4823  0.2331
  195MPD1    C1 3017   0.819   1.505  17.188  0.5012 -0.5825 -0.4883
  195MPD1    C2 3018   0.856   1.379  17.227 -0.2820 -0.2412 -0.1100
  195MPD1    C3 3019   0.773   1.264  17.226  0.3190 -0.0303  0.8343
  195MPD1    C4 3020   0.647   1.300  17.199  0.0671 -0.7595 -0.3424
  195MPD1    C5 3021   0.604   1.420  17.161  0.4134 -0.0038 -0.5547
  195MPD1     H 3022   0.961   1.352  17.231  0.3759  2.3531  0.0755
  195MPD1    H1 3023   0.570   1.224  17.201 -0.8863  0.2532  1.9744
  195MPD1    H2 3024   0.651   1.628  17.131  0.4455  0.1667 -0.7885
  195MPD1    H3 3025   0.498   1.433  17.142  0.4784 -0.7826 -1.4438
  195MPD1     N 3026   0.822   1.128  17.237  0.6902  0.1501 -0.0056
  195MPD1    H5 3027   0.911   1.109  17.280  1.1472  0.1580 -0.9436
  195MPD1    N1 3028   0.902   1.620  17.200 -0.2502 -0.1043  0.7161
  195MPD1    H6 3029   0.884   1.684  17.123 -0.2817  0.2546  1.0204
  195MPD1    H7 3030   0.998   1.586  17.199 -0.0100  0.6791 -1.3791
  196MPD1     C 3031   0.287   0.535  17.437 -0.3494 -0.5772  0.3012
  196MPD1    C1 3032   0.385   0.533  17.537  0.1430 -0.7925  0.7852
  196MPD1    C2 3033   0.360   0.620  17.641  0.0364 -0.1522  0.1859
  196MPD1    C3 3034   0.246   0.695  17.648  1.3771  0.3881  0.2443
  196MPD1    C4 3035   0.149   0.683  17.553 -0.3833 -0.8397  0.4271
  196MPD1    C5 3036   0.175   0.608  17.450  0.3452 -0.0619 -0.4157
  196MPD1     H 3037   0.439   0.627  17.715 -0.2956  0.4227  0.4890
  196MPD1    H1 3038   0.059   0.741  17.541  0.7518  0.2532 -2.8197
  196MPD1    H2 3039   0.297   0.496  17.336  0.0069 -1.1536  0.5558
  196MPD1    H3 3040   0.114   0.622  17.362  1.2422 -2.7578 -1.4510
  196MPD1     N 3041   0.223   0.783  17.757 -0.0860 -0.1164  0.3758
  196MPD1    H5 3042   0.142   0.843  17.750 -0.8827 -1.2163  0.0766
  196MPD1    N1 3043   0.505   0.457  17.523  0.2297 -0.3144 -0.5486
  196MPD1    H6 3044   0.588   0.514  17.534 -0.5480  0.2552  2.2466
  196MPD1    H7 3045   0.510   0.430  17.425 -0.0075 -2.1369 -0.0543
  197MPD1     C 3046   0.192   2.975  17.641  0.6902 -0.0180 -0.1739
  197MPD1    C1 3047   0.118   2.921  17.539 -0.8732 -1.0468 -0.3069
  197MPD1    C2 3048   0.075   3.019  17.449  0.9711 -0.1313 -0.1391
  197MPD1    C3 3049   0.116   3.152  17.447  0.0657 -0.7153 -0.4836
  197MPD1    C4 3050   0.187   3.203  17.553  0.2967  0.7555  0.4582
  197MPD1    C5 3051   0.231   3.108  17.652  0.2525 -0.1493 -0.1013
  197MPD1     H 3052   0.015   2.986  17.365  1.6197  0.4747 -0.8335
  197MPD1    H1 3053   0.224   3.304  17.566 -0.5358  1.2494 -1.0844
  197MPD1    H2 3054   0.219   2.914  17.727 -0.1460 -1.1399 -0.7117
  197MPD1    H3 3055   0.287   3.138  17.741  1.4845 -3.3210  0.2011
  197MPD1     N 3056   0.084   3.245  17.347 -0.4121 -0.0420  0.0154
  197MPD1    H5 3057   0.111   3.341  17.364 -0.4678  0.2526 -1.5812
  197MPD1    N1 3058   0.063   2.795  17.544 -0.1377  0.3036 -0.6243
  197MPD1    H6 3059   0.113   2.719  17.590  0.0078 -0.8926 -2.7785
  197MPD1    H7 3060   0.032   2.765  17.452  0.4091 -2.1418  0.0034
  198MPD1     C 3061   1.533   0.646  15.308  0.2931  1.0570 -0.7586
  198MPD1    C1 3062   1.508   0.671  15.444  0.5850  0.8456  0.2017
  198MPD1    C2 3063   1.529   0.797  15.497 -0.1299  0.1292 -0.0499
  198MPD1    C3 3064   1.582   0.900  15.415 -0.0650  0.1390 -0.4954
  198MPD1    C4 3065   1.602   0.869  15.281  0.1940 -0.3543  0.0272
  198MPD1    C5 3066   1.581   0.746  15.231  0.4367 -0.6911  0.1026
  198MPD1     H 3067   1.505   0.823  15.600 -1.6788  2.0591 -0.8883
  198MPD1    H1 3068   1.645   0.949  15.220 -1.5888 -0.4780 -1.3782
  198MPD1    H2 3069   1.519   0.552  15.258 -0.6268  0.5651  0.4084
  198MPD1    H3 3070   1.604   0.715  15.130 -0.4144  1.9724 -0.9222
  198MPD1     N 3071   1.594   1.035  15.465  0.3415  0.4372  0.4696
  198MPD1    H5 3072   1.595   1.050  15.566 -1.3380 -0.1719  0.5763
  198MPD1    N1 3073   1.455   0.568  15.524 -0.7817 -0.5076  0.5152
  198MPD1    H6 3074   1.485   0.472  15.505 -2.2685 -0.6921 -0.8868
  198MPD1    H7 3075   1.461   0.590  15.623 -0.0909  0.8013  0.1825
  199MPD1     C 3076   4.659   3.231   9.317  0.1620 -0.3304  0.0267
  199MPD1    C1 3077   4.692   3.360   9.368  0.2230 -0.3499  0.1629
  199MPD1    C2 3078   4.630   3.466   9.313  0.3201  0.0851 -0.1597
  199MPD1    C3 3079   4.555   3.459   9.193  0.1592 -0.1285 -0.0164
  199MPD1    C4 3080   4.525   3.335   9.140  0.0922  0.0925 -0.7842
  199MPD1    C5 3081   4.577   3.231   9.206  0.4496  0.2674 -0.2654
  199MPD1     H 3082   4.639   3.557   9.370  1.2438  0.9840 -1.7296
  199MPD1    H1 3083   4.449   3.311   9.066  0.3821 -2.0508 -0.3843
  199MPD1    H2 3084   4.682   3.134   9.359  0.0401 -0.6905 -0.7312
  199MPD1    H3 3085   4.537   3.135   9.174 -1.1852  0.3779  1.4680
  199MPD1     N 3086   4.476   3.572   9.152 -0.7698  1.0147 -0.4318
  199MPD1    H5 3087   4.415   3.556   9.072  0.1748  1.7869 -1.2991
  199MPD1    N1 3088   0.004   3.372   9.500 -0.1393  0.5259 -0.2010
  199MPD1    H6 3089   0.045   3.465   9.508 -2.0962  1.5415 -2.0992
  199MPD1    H7 3090   0.074   3.299   9.515 -0.7117 -0.4927 -2.5725
  200MPD1     C 3091   3.211   2.805  14.999  0.2970 -1.3819  0.3329
  200MPD1    C1 3092   3.175   2.722  14.896  0.1121  0.3843  0.7746
  200MPD1    C2 3093   3.258   2.716  14.786 -0.8059 -0.4439 -0.3635
  200MPD1    C3 3094   3.389   2.764  14.787  0.3397 -1.1858  0.3126
  200MPD1    C4 3095   3.435   2.834  14.892  0.2832 -0.7566  0.2958
  200MPD1    C5 3096   3.339   2.863  14.990  0.5486  0.4240  0.7080
  200MPD1     H 3097   3.224   2.660  14.699  0.2539  0.2274 -1.2022
  200MPD1    H1 3098   3.534   2.877  14.903 -0.1903  0.9447 -1.9918
  200MPD1    H2 3099   3.140   2.822  15.080  0.3885 -0.4446  0.2181
  200MPD1    H3 3100   3.376   2.924  15.073 -0.1054  1.0611  0.5345
  200MPD1     N 3101   3.460   2.738  14.666  0.0253 -0.4503 -0.1453
  200MPD1    H5 3102   3.416   2.679  14.596  0.4159 -3.0667  1.8091
  200MPD1    N1 3103   3.047   2.662  14.904 -0.8138 -0.1293  0.1198
  200MPD1    H6 3104   3.026   2.579  14.849 -0.5064 -0.9416  1.2072
  200MPD1    H7 3105   3.028   2.640  15.002 -1.0738 -2.4807 -0.4616
  201MPD1     C 3106   0.901   0.232  13.650 -0.2842  1.6841 -0.2025
  201MPD1    C1 3107   0.932   0.310  13.536 -0.0901  0.2791 -0.2283
  201MPD1    C2 3108   0.956   0.444  13.566  0.2243  0.3608  0.0899
  201MPD1    C3 3109   0.984   0.489  13.695 -0.5844  0.7390  0.0418
  201MPD1    C4 3110   0.974   0.403  13.804  0.0850  0.4428 -0.6911
  201MPD1    C5 3111   0.923   0.280  13.775 -0.5601 -0.0113  0.2081
  201MPD1     H 3112   0.964   0.518  13.487  1.8721  0.1238  0.0219
  201MPD1    H1 3113   0.979   0.431  13.909 -0.0121  1.2816 -0.9117
  201MPD1    H2 3114   0.874   0.127  13.650 -0.8263  1.8255 -0.9954
  201MPD1    H3 3115   0.901   0.224  13.865 -1.3190 -0.7673 -0.4448
  201MPD1     N 3116   1.006   0.625  13.699  0.7012  0.5597 -0.3704
  201MPD1    H5 3117   1.014   0.670  13.609  1.2629  0.8804 -0.1542
  201MPD1    N1 3118   0.907   0.269  13.407  0.7690  0.2478 -0.0968
  201MPD1    H6 3119   0.924   0.170  13.395 -0.5504 -0.0398  0.3339
  201MPD1    H7 3120   0.957   0.326  13.339  0.0599  2.2050  1.0095
  202MPD1     C 3121   0.819   1.568   9.317 -0.5280 -1.1731 -0.0524
  202MPD1    C1 3122   0.849   1.703   9.317 -0.3893  0.6991  0.4016
  202MPD1    C2 3123   0.866   1.765   9.438 -0.4429  0.5484  0.3526
  202MPD1    C3 3124   0.829   1.709   9.559  0.8425 -0.1282 -0.0471
  202MPD1    C4 3125   0.807   1.571   9.554 -0.8002 -0.6375  0.0112
  202MPD1    C5 3126   0.807   1.497   9.436  1.3848  0.2738 -0.3290
  202MPD1     H 3127   0.882   1.872   9.431 -0.1663  0.5359  0.7928
  202MPD1    H1 3128   0.798   1.515   9.646  1.3635  0.0624  0.6438
  202MPD1    H2 3129   0.824   1.503   9.230 -1.1259 -1.0926 -0.1477
  202MPD1    H3 3130   0.799   1.389   9.439  0.8201  0.3788  2.2635
  202MPD1     N 3131   0.836   1.765   9.691 -0.3605  0.4207  1.1732
  202MPD1    H5 3132   0.789   1.710   9.763 -1.0209 -1.0043 -0.3394
  202MPD1    N1 3133   0.910   1.747   9.202  0.4492  0.0560 -0.5160
  202MPD1    H6 3134   0.902   1.848   9.193  2.8837  0.4854  2.0038
  202MPD1    H7 3135   0.859   1.715   9.120 -1.9512  1.5546  0.3829
  203MPD1     C 3136   3.583   2.469  12.109 -0.2256  0.1802 -0.1481
  203MPD1    C1 3137   3.639   2.373  12.025  0.2221  0.2092  0.6076
  203MPD1    C2 3138   3.714   2.271  12.073  0.3302 -0.2934  0.3198
  203MPD1    C3 3139   3.734   2.269  12.207 -1.0462 -0.0060  0.1084
  203MPD1    C4 3140   3.690   2.368  12.285 -0.2022  0.1014 -0.3540
  203MPD1    C5 3141   3.612   2.471  12.239 -0.4987  0.1219 -0.0853
  203MPD1     H 3142   3.735   2.183  12.014  1.3255  0.2846 -0.1927
  203MPD1    H1 3143   3.723   2.376  12.387 -0.0164  1.7005 -0.5405
  203MPD1    H2 3144   3.516   2.544  12.068 -2.0953 -1.3200  0.1640
  203MPD1    H3 3145   3.587   2.559  12.298  1.2046  1.3292 -1.1511
  203MPD1     N 3146   3.817   2.162  12.258  0.6166 -0.3310  0.2215
  203MPD1    H5 3147   3.846   2.090  12.192  2.1563  1.6722 -1.2790
  203MPD1    N1 3148   3.608   2.375  11.889  0.1532  0.5366  0.8508
  203MPD1    H6 3149   3.695   2.357  11.839 -0.3701  0.9820 -0.2278
  203MPD1    H7 3150   3.575   2.467  11.858  1.1976  0.9400  0.9318
  204MPD1     C 3151   3.913   3.922  17.549 -0.4338  0.4937  0.1086
  204MPD1    C1 3152   3.874   3.941  17.422 -0.3101 -0.5100 -0.6243
  204MPD1    C2 3153   3.823   3.829  17.353 -0.2612  0.1747 -0.3471
  204MPD1    C3 3154   3.806   3.703  17.419 -0.2181  0.0985 -0.9378
  204MPD1    C4 3155   3.852   3.697  17.551  0.1639 -0.2376  0.5077
  204MPD1    C5 3156   3.913   3.798  17.602 -0.4436  0.0320  0.0322
  204MPD1     H 3157   3.787   3.837  17.252  0.3242  0.5816 -0.5232
  204MPD1    H1 3158   3.840   3.608  17.611 -1.6223 -0.9419 -0.9032
  204MPD1    H2 3159   3.952   3.999  17.615  0.9680  1.0220 -1.3417
  204MPD1    H3 3160   3.954   3.781  17.702 -1.1624 -1.8328  0.0080
  204MPD1     N 3161   3.756   3.598  17.347 -0.2702 -0.2200  0.7881
  204MPD1    H5 3162   3.739   3.620  17.249 -0.0174 -1.5047  0.4513
  204MPD1    N1 3163   3.854   4.075  17.377 -0.4637 -0.1576 -0.5001
  204MPD1    H6 3164   3.850   4.071  17.275  1.6358 -1.2993 -0.5379
  204MPD1    H7 3165   3.934   4.132  17.404 -1.1495 -0.5050  2.2621
  205MPD1     C 3166   4.036   2.170  16.638  0.0403  0.0170  0.0016
  205MPD1    C1 3167   4.012   2.056  16.725 -0.4751  0.7003  0.0825
  205MPD1    C2 3168   3.920   2.069  16.826 -0.0318 -0.2145 -1.0654
  205MPD1    C3 3169   3.872   2.192  16.856 -0.4316  0.3869 -0.0688
  205MPD1    C4 3170   3.904   2.307  16.782  0.0626  0.6812  0.0814
  205MPD1    C5 3171   3.981   2.292  16.672  0.6499  0.2008  0.3350
  205MPD1     H 3172   3.895   1.984  16.888 -1.2982  1.1191  0.2321
  205MPD1    H1 3173   3.876   2.408  16.808  0.4498  0.4497  1.3884
  205MPD1    H2 3174   4.096   2.166  16.548 -2.2620 -1.2526 -1.4621
  205MPD1    H3 3175   4.017   2.381  16.621 -1.0671  1.4115  1.2291
  205MPD1     N 3176   3.789   2.212  16.972 -0.2343  0.0324 -0.0972
  205MPD1    H5 3177   3.742   2.301  16.972  2.4109  1.4222  0.2127
  205MPD1    N1 3178   4.048   1.932  16.680 -0.5605  0.1534  0.1357
  205MPD1    H6 3179   4.147   1.938  16.654 -0.4861  0.0229  0.3964
  205MPD1    H7 3180   4.037   1.858  16.749  0.1935  0.9963  1.1704
  206MPD1     C 3181   4.319   0.400  16.485 -0.0889  0.3147  0.5780
  206MPD1    C1 3182   4.371   0.277  16.492 -0.2317  0.3732  0.6066
  206MPD1    C2 3183   4.316   0.181  16.405 -0.6645  0.1183 -0.1501
  206MPD1    C3 3184   4.195   0.211  16.346 -0.1582 -0.1016  0.8972
  206MPD1    C4 3185   4.143   0.337  16.355  0.5742  0.8241 -0.0281
  206MPD1    C5 3186   4.210   0.437  16.417  0.0249  0.1367 -0.4585
  206MPD1     H 3187   4.362   0.083  16.402 -1.1272 -0.2131  2.7528
  206MPD1    H1 3188   4.051   0.359  16.302  1.1702  0.0122 -1.3901
  206MPD1    H2 3189   4.362   0.483  16.541 -0.8547  0.5311  0.8451
  206MPD1    H3 3190   4.170   0.538  16.420  0.5159  0.3435 -1.1011
  206MPD1     N 3191   4.120   0.114  16.275 -0.1655  0.9566 -0.3206
  206MPD1    H5 3192   4.029   0.145  16.243  0.2426  1.2820 -1.1748
  206MPD1    N1 3193   4.506   0.271  16.537 -0.3610 -0.1002 -0.1638
  206MPD1    H6 3194   4.505   0.338  16.614  0.0819 -0.4843  0.1768
  206MPD1    H7 3195   4.532   0.179  16.574 -0.0440  1.1945  2.8193
  207MPD1     C 3196   2.165   2.781   9.581  0.1976  0.4999  0.5267
  207MPD1    C1 3197   2.264   2.870   9.589  0.4779  0.4632  0.0858
  207MPD1    C2 3198   2.260   2.963   9.698 -0.0236 -0.0505  0.7303
  207MPD1    C3 3199   2.152   2.964   9.787  0.5350 -0.0054  0.4750
  207MPD1    C4 3200   2.060   2.866   9.780  0.6716  0.5693  0.6122
  207MPD1    C5 3201   2.062   2.775   9.672  0.0761 -0.7814 -0.0903
  207MPD1     H 3202   2.338   3.036   9.714  0.1466 -0.2032  0.5988
  207MPD1    H1 3203   1.982   2.869   9.856  0.5357  0.1887  0.4875
  207MPD1    H2 3204   2.151   2.708   9.502  1.3309  0.1422  0.6585
  207MPD1    H3 3205   1.975   2.712   9.657 -0.1714  0.2068 -2.7600
  207MPD1     N 3206   2.142   3.060   9.898 -0.1705  0.8325  0.2411
  207MPD1    H5 3207   2.053   3.061   9.948  0.6262  0.1014  1.6678
  207MPD1    N1 3208   2.353   2.893   9.479 -0.3408 -0.0323  0.7760
  207MPD1    H6 3209   2.301   2.937   9.403 -0.3430  0.4268  1.0383
  207MPD1    H7 3210   2.421   2.965   9.504 -0.5923  0.4411  0.1104
  208MPD1     C 3211   3.894   0.651  17.758 -0.6127 -0.1656 -0.5387
  208MPD1    C1 3212   3.877   0.663   0.131 -0.3065 -0.5972 -0.1086
  208MPD1    C2 3213   3.853   0.784   0.182  0.6960 -0.1632  0.3256
  208MPD1    C3 3214   3.878   0.899   0.112  0.4615 -0.1460 -0.3828
  208MPD1    C4 3215   3.922   0.881  17.741 -0.4176 -0.8615  0.0688
  208MPD1    C5 3216   3.926   0.760  17.685 -0.8100  0.2156 -0.9624
  208MPD1     H 3217   3.808   0.780   0.281 -0.0810 -0.5825 -0.0443
  208MPD1    H1 3218   3.911   0.956  17.664  0.2451  0.7158  1.5161
  208MPD1    H2 3219   3.903   0.552  17.713 -0.3798 -0.0239 -0.8049
  208MPD1    H3 3220   3.942   0.746  17.579  0.7905 -0.0712 -0.6794
  208MPD1     N 3221   3.866   1.030   0.174  0.5347  0.7060  0.0324
  208MPD1    H5 3222   3.831   1.029   0.270  3.0788  0.8646  0.9678
  208MPD1    N1 3223   3.855   0.551   0.207 -0.0137  0.2246  0.3132
  208MPD1    H6 3224   3.891   0.559   0.302 -1.7377 -1.0659  1.0662
  208MPD1    H7 3225   3.902   0.472   0.164 -0.1627 -1.1557  2.6836
  209MPD1     C 3226   1.644   2.115  10.242 -0.2422  0.5397  0.2366
  209MPD1    C1 3227   1.610   2.246  10.210 -0.7698  0.3581  0.2230
  209MPD1    C2 3228   1.611   2.335  10.312 -0.0520  0.4467  0.1272
  209MPD1    C3 3229   1.677   2.307  10.432 -0.2335  0.2239 -0.4255
  209MPD1    C4 3230   1.716   2.180  10.465 -0.4044 -0.1442  0.3527
  209MPD1    C5 3231   1.690   2.082  10.365  0.5926 -0.2575 -0.1239
  209MPD1     H 3232   1.564   2.432  10.296 -1.8600 -0.5522 -0.5769
  209MPD1    H1 3233   1.744   2.144  10.564 -5.2509 -0.3139  1.6659
  209MPD1    H2 3234   1.637   2.035  10.170 -0.5700  0.9788 -0.2196
  209MPD1    H3 3235   1.716   1.982  10.397  0.4616 -0.8922 -1.9906
  209MPD1     N 3236   1.690   2.416  10.529  0.5835  0.4566 -0.5649
  209MPD1    H5 3237   1.654   2.509  10.509 -0.3506  0.3141  0.4732
  209MPD1    N1 3238   1.532   2.287  10.097 -0.3225  0.7887  0.0350
  209MPD1    H6 3239   1.548   2.233  10.012 -0.6078  1.3111 -0.3556
  209MPD1    H7 3240   1.553   2.385  10.082  2.3028  0.0672 -1.0639
  210MPD1     C 3241   1.886   2.778  11.558 -0.1896 -0.0669  0.3939
  210MPD1    C1 3242   1.953   2.688  11.478 -0.5891  0.2750  0.5952
  210MPD1    C2 3243   1.919   2.667  11.345  0.8710 -0.5644  0.1895
  210MPD1    C3 3244   1.806   2.731  11.291  0.4209  0.3536  0.3350
  210MPD1    C4 3245   1.736   2.813  11.380 -0.4088 -0.3722  0.2419
  210MPD1    C5 3246   1.778   2.833  11.509  0.2216 -0.2919 -0.4375
  210MPD1     H 3247   1.972   2.603  11.276  0.7609 -0.3879 -0.0602
  210MPD1    H1 3248   1.647   2.862  11.342  0.5358  1.4674  0.4158
  210MPD1    H2 3249   1.907   2.807  11.660  2.3986  0.0963 -0.1832
  210MPD1    H3 3250   1.716   2.894  11.574  3.0597  1.2486  0.7896
  210MPD1     N 3251   1.759   2.716  11.160  0.2109 -0.4633  0.2391
  210MPD1    H5 3252   1.686   2.777  11.127  0.5422  1.1605  2.4863
  210MPD1    N1 3253   2.069   2.636  11.534 -0.0913 -0.2524  0.8712
  210MPD1    H6 3254   2.115   2.571  11.471 -0.5650 -0.0332  0.3032
  210MPD1    H7 3255   2.076   2.608  11.632  0.5931 -1.6580  0.4162
  211MPD1     C 3256   3.588   0.742  15.537 -0.2691  0.3183 -0.2741
  211MPD1    C1 3257   3.514   0.851  15.507 -0.2012  0.9340 -0.3458
  211MPD1    C2 3258   3.526   0.968  15.582 -0.6689  0.8077  0.8668
  211MPD1    C3 3259   3.639   0.986  15.662  0.4781  0.4129  0.2698
  211MPD1    C4 3260   3.719   0.875  15.678  0.2357 -0.4155  0.3196
  211MPD1    C5 3261   3.682   0.751  15.632 -0.4080  0.4664 -0.3261
  211MPD1     H 3262   3.468   1.056  15.560 -1.6493  0.0932  0.5733
  211MPD1    H1 3263   3.808   0.889  15.739  1.4572 -1.7506 -1.1632
  211MPD1    H2 3264   3.572   0.644  15.494  2.9305 -0.9667  1.4287
  211MPD1    H3 3265   3.754   0.676  15.662  0.4889  0.3994 -2.6154
  211MPD1     N 3266   3.652   1.106  15.732  0.0083  0.0868 -0.2507
  211MPD1    H5 3267   3.573   1.169  15.722  0.3178  0.2100 -1.9172
  211MPD1    N1 3268   3.419   0.835  15.407 -0.9827 -0.3407  0.1139
  211MPD1    H6 3269   3.365   0.921  15.397 -0.0400  0.1074 -1.0408
  211MPD1    H7 3270   3.449   0.782  15.326  0.7621 -1.9750  1.8166
  212MPD1     C 3271   3.494   0.149  16.206 -0.4446 -0.5991 -0.1908
  212MPD1    C1 3272   3.392   0.218  16.265  0.7313 -0.1022 -0.4636
  212MPD1    C2 3273   3.312   0.149  16.351  0.0565 -0.1442 -0.1905
  212MPD1    C3 3274   3.342   0.027  16.400 -0.2388  0.2740  0.5541
  212MPD1    C4 3275   3.449   4.706  16.342 -0.4938  0.0480 -0.2094
  212MPD1    C5 3276   3.523   0.023  16.239  0.6043  0.0138 -0.5350
  212MPD1     H 3277   3.223   0.197  16.390 -0.1231 -2.0653  1.7571
  212MPD1    H1 3278   3.477   4.603  16.363  0.6125  0.5427  0.6876
  212MPD1    H2 3279   3.558   0.203  16.137 -1.1478  0.8138  0.2817
  212MPD1    H3 3280   3.614   4.715  16.206  1.1538  1.0535 -0.5700
  212MPD1     N 3281   3.276   4.708  16.505 -0.1474  0.2088 -0.1525
  212MPD1    H5 3282   3.310   4.617  16.534 -0.1389  0.5978  1.0694
  212MPD1    N1 3283   3.366   0.350  16.220 -0.0584 -0.4221 -0.2451
  212MPD1    H6 3284   3.317   0.398  16.296  1.5092  1.0479 -0.1614
  212MPD1    H7 3285   3.455   0.394  16.198 -0.6553  0.5745 -0.6337
  213MPD1     C 3286   1.439   4.477  15.334 -0.0229  0.2988 -0.2287
  213MPD1    C1 3287   1.527   4.581  15.335  1.4638  0.1326 -0.1548
  213MPD1    C2 3288   1.473   4.690  15.268  0.6268  0.0855  0.9627
  213MPD1    C3 3289   1.357   4.686  15.195 -0.1754 -0.3161  0.1270
  213MPD1    C4 3290   1.275   4.575  15.192 -0.0172  0.5141  0.5060
  213MPD1    C5 3291   1.326   4.466  15.261  0.2518 -0.6060  0.1666
  213MPD1     H 3292   1.527   0.043  15.275 -0.0492  0.5238  0.3519
  213MPD1    H1 3293   1.178   4.570  15.145 -0.4490 -0.7871  1.5415
  213MPD1    H2 3294   1.464   4.385  15.385  1.3131  2.1041  2.3534
  213MPD1    H3 3295   1.281   4.373  15.228 -1.0789  0.3550 -0.7352
  213MPD1     N 3296   1.320   0.071  15.144 -0.3499  0.2189  0.0129
  213MPD1    H5 3297   1.397   0.136  15.152  0.4964 -0.6562 -0.9163
  213MPD1    N1 3298   1.607   4.604  15.445 -0.5333 -0.2383 -0.1601
  213MPD1    H6 3299   1.669   4.685  15.447  0.4525 -1.0102  0.3593
  213MPD1    H7 3300   1.660   4.518  15.455 -0.2764 -0.1723 -1.0351
  214MPD1     C 3301   0.398   0.402  15.092  0.5096 -0.9442  0.2374
  214MPD1    C1 3302   0.463   0.469  14.990 -0.1813 -0.4835  0.0622
  214MPD1    C2 3303   0.600   0.479  14.989  0.5246  0.0407 -0.2698
  214MPD1    C3 3304   0.673   0.411  15.087 -0.3553  0.5280 -0.7510
  214MPD1    C4 3305   0.609   0.337  15.184  0.2869  0.0005 -0.3385
  214MPD1    C5 3306   0.466   0.338  15.195 -0.0737 -1.1221  0.3893
  214MPD1     H 3307   0.650   0.539  14.914  1.3259 -0.5730 -0.2328
  214MPD1    H1 3308   0.672   0.278  15.249  0.9541  1.4577  0.3414
  214MPD1    H2 3309   0.290   0.402  15.093  0.5122 -0.7378  0.7339
  214MPD1    H3 3310   0.422   0.283  15.277 -2.0481 -2.0301 -1.2531
  214MPD1     N 3311   0.814   0.404  15.082 -0.1461  0.8571  0.3740
  214MPD1    H5 3312   0.855   0.345  15.153  1.5088 -0.3320 -1.5742
  214MPD1    N1 3313   0.381   0.531  14.894 -0.2069  0.3682  0.4988
  214MPD1    H6 3314   0.420   0.522  14.801 -0.7876  2.2284  0.0732
  214MPD1    H7 3315   0.286   0.496  14.895 -0.4328  1.0219  1.8872
  215MPD1     C 3316   0.469   2.461  10.979  0.1419  0.0382  0.7721
  215MPD1    C1 3317   0.574   2.446  11.061 -0.6622 -0.4785  0.0971
  215MPD1    C2 3318   0.696   2.505  11.036  0.1287  0.2034  0.2670
  215MPD1    C3 3319   0.706   2.588  10.926  0.5230 -0.5288  0.3188
  215MPD1    C4 3320   0.599   2.607  10.840  0.8785 -0.7870  0.0683
  215MPD1    C5 3321   0.482   2.546  10.868  0.3809 -0.4253  0.1842
  215MPD1     H 3322   0.782   2.490  11.100 -2.1329  2.1630  3.7786
  215MPD1    H1 3323   0.595   2.680  10.760 -1.3472 -0.7387  0.2374
  215MPD1    H2 3324   0.369   2.424  10.997  0.3210 -0.3678  0.9310
  215MPD1    H3 3325   0.399   2.547  10.799  1.3145  1.5083 -0.8744
  215MPD1     N 3326   0.832   2.653  10.912  0.6545  0.5763  0.3665
  215MPD1    H5 3327   0.908   2.637  10.977  1.3064  0.5131 -0.4022
  215MPD1    N1 3328   0.557   2.368  11.178 -0.2196 -0.6053 -0.4558
  215MPD1    H6 3329   0.593   2.410  11.263  0.4865 -0.5534 -0.7710
  215MPD1    H7 3330   0.458   2.366  11.197 -0.1882  1.3680 -0.1488
  216MPD1     C 3331   3.139   0.674  16.920  0.3614  0.0386  0.4546
  216MPD1    C1 3332   3.269   0.686  16.973  0.5580 -0.2907  0.3605
  216MPD1    C2 3333   3.339   0.572  16.995 -0.8875 -0.3290 -0.1301
  216MPD1    C3 3334   3.296   0.453  16.949  0.4391  0.3494 -0.1136
  216MPD1    C4 3335   3.170   0.439  16.900  0.7712  0.3018 -0.9447
  216MPD1    C5 3336   3.088   0.547  16.897 -0.4673 -0.1910  0.4322
  216MPD1     H 3337   3.437   0.581  17.040  0.2405  0.3127 -2.7572
  216MPD1    H1 3338   3.120   0.349  16.865 -0.0480  0.1678  0.5623
  216MPD1    H2 3339   3.075   0.760  16.903  0.0674 -0.2767 -0.0193
  216MPD1    H3 3340   2.989   0.529  16.859 -0.1971 -0.2115 -0.2587
  216MPD1     N 3341   3.380   0.341  16.966 -0.4047 -0.7018 -0.5425
  216MPD1    H5 3342   3.474   0.366  16.996 -1.7416  1.7011  1.7179
  216MPD1    N1 3343   3.315   0.812  17.019  0.4658  0.1636 -0.2319
  216MPD1    H6 3344   3.407   0.803  17.060 -0.1251  1.7403  1.4680
  216MPD1    H7 3345   3.249   0.841  17.091 -2.9492 -3.0853 -2.0269
  217MPD1     C 3346   4.177   1.612   8.154  0.6084 -0.2603  0.2291
  217MPD1    C1 3347   4.142   1.731   8.209 -0.2759  0.0297  0.1255
  217MPD1    C2 3348   4.184   1.760   8.338 -1.0739  0.3816  0.2494
  217MPD1    C3 3349   4.258   1.670   8.412  0.5145 -0.4246 -0.2658
  217MPD1    C4 3350   4.281   1.547   8.354  0.2964 -0.0627 -1.1563
  217MPD1    C5 3351   4.238   1.522   8.232 -0.3465 -0.5227  0.2640
  217MPD1     H 3352   4.158   1.852   8.391  1.8032  0.1982  1.9638
  217MPD1    H1 3353   4.343   1.476   8.408 -0.1538 -1.1327 -2.0288
  217MPD1    H2 3354   4.122   1.581   8.065  0.1747 -1.1610  0.8123
  217MPD1    H3 3355   4.242   1.422   8.190 -2.2422  0.0533 -1.2809
  217MPD1     N 3356   4.302   1.683   8.544  0.0866 -0.1428 -0.0228
  217MPD1    H5 3357   4.351   1.603   8.583 -0.6562 -0.3167  0.5686
  217MPD1    N1 3358   4.052   1.812   8.140 -0.2018  0.3896 -0.0412
  217MPD1    H6 3359   4.062   1.909   8.168  1.4180  0.7186 -1.7209
  217MPD1    H7 3360   4.057   1.803   8.039 -2.6495 -0.7260 -0.0591
  218MPD1     C 3361   0.729   2.432  13.035  0.3207 -0.1030  0.1558
  218MPD1    C1 3362   0.856   2.469  13.065  0.9228  0.0644  0.5352
  218MPD1    C2 3363   0.958   2.432  12.982 -0.5096  0.3469 -0.0687
  218MPD1    C3 3364   0.933   2.358  12.869 -0.1346 -0.2438  0.4455
  218MPD1    C4 3365   0.807   2.331  12.835  0.4227  0.1270 -0.2825
  218MPD1    C5 3366   0.710   2.358  12.916 -0.7955  0.6971  0.7137
  218MPD1     H 3367   1.060   2.459  13.006 -0.1869 -2.4743  1.7031
  218MPD1    H1 3368   0.769   2.266  12.757  1.4546  0.0012 -0.6695
  218MPD1    H2 3369   0.646   2.443  13.104 -0.8273 -0.1515 -1.2284
  218MPD1    H3 3370   0.610   2.315  12.914 -1.2418  1.7895 -0.8652
  218MPD1     N 3371   1.047   2.323  12.795  0.3765 -0.0748 -0.0792
  218MPD1    H5 3372   1.134   2.360  12.830  1.9222 -1.4108 -2.4610
  218MPD1    N1 3373   0.886   2.521  13.189  0.4020 -0.0404 -0.0966
  218MPD1    H6 3374   0.971   2.576  13.197 -0.2090  0.8149  0.5747
  218MPD1    H7 3375   0.811   2.576  13.230  2.3014  2.7988 -0.4466
  219MPD1     C 3376   1.664   2.711  12.144  0.1085  0.7146 -0.2681
  219MPD1    C1 3377   1.596   2.628  12.056  0.1879 -0.1888  0.6809
  219MPD1    C2 3378   1.519   2.528  12.111 -0.0577 -0.5256  0.6017
  219MPD1    C3 3379   1.495   2.528  12.250 -0.2717  0.4795 -0.1098
  219MPD1    C4 3380   1.551   2.623  12.336 -0.2298 -0.2778 -0.2622
  219MPD1    C5 3381   1.640   2.706  12.278  0.3538  0.2001 -0.1132
  219MPD1     H 3382   1.464   2.448  12.062 -0.6757  1.3598 -1.7339
  219MPD1    H1 3383   1.538   2.619  12.444 -2.3768  0.6262 -0.4843
  219MPD1    H2 3384   1.720   2.796  12.107 -0.0304 -0.5273 -3.3363
  219MPD1    H3 3385   1.698   2.772  12.341 -0.8591  0.9905  0.1562
  219MPD1     N 3386   1.405   2.430  12.301  0.0881 -0.1173  0.3029
  219MPD1    H5 3387   1.359   2.367  12.235 -2.6023  1.3240  0.8094
  219MPD1    N1 3388   1.606   2.636  11.923  0.3710  0.0538  0.1489
  219MPD1    H6 3389   1.516   2.611  11.882  0.3374  1.6113 -0.7343
  219MPD1    H7 3390   1.612   2.732  11.891 -2.0997  0.6180  1.4222
  220MPD1     C 3391   0.289   3.278   9.379  0.6084 -0.2254  0.2893
  220MPD1    C1 3392   0.388   3.336   9.457 -0.2928  0.0101  0.0059
  220MPD1    C2 3393   0.446   3.264   9.560 -0.0089 -0.7368 -0.3455
  220MPD1    C3 3394   0.400   3.134   9.586 -0.2016  0.7232  0.7413
  220MPD1    C4 3395   0.296   3.086   9.514  0.0811  0.2103 -0.3678
  220MPD1    C5 3396   0.242   3.153   9.411 -0.2914 -0.2723 -0.1476
  220MPD1     H 3397   0.531   3.296   9.619  0.1434  3.0672 -2.6442
  220MPD1    H1 3398   0.264   2.982   9.516  0.4593  0.1241  0.7918
  220MPD1    H2 3399   0.241   3.327   9.294  0.0198 -0.7597  0.3132
  220MPD1    H3 3400   0.169   3.098   9.352 -2.3324  0.6700  1.4966
  220MPD1     N 3401   0.476   3.060   9.676  0.1217 -0.1687  0.2834
  220MPD1    H5 3402   0.539   3.121   9.728  0.6469 -1.1085  0.7546
  220MPD1    N1 3403   0.414   3.474   9.446 -0.1430  0.6825  0.2540
  220MPD1    H6 3404   0.512   3.494   9.464  0.1498 -1.2067  0.7707
  220MPD1    H7 3405   0.385   3.496   9.351 -1.1923 -1.3842  0.0982
  221MPD1     C 3406   3.467   1.626  14.849 -0.7018  0.2482  0.7115
  221MPD1    C1 3407   3.468   1.705  14.957  0.0615 -0.1590 -0.4702
  221MPD1    C2 3408   3.490   1.655  15.085  0.2383  0.1888 -0.1640
  221MPD1    C3 3409   3.523   1.525  15.090  0.4070  0.3208 -0.2470
  221MPD1    C4 3410   3.525   1.443  14.975  0.2789  0.2866 -0.2530
  221MPD1    C5 3411   3.491   1.494  14.850  0.0451  0.2360  0.3401
  221MPD1     H 3412   3.492   1.724  15.168  0.4514  0.4667 -0.3982
  221MPD1    H1 3413   3.557   1.340  14.987  3.8897  1.6479  1.7322
  221MPD1    H2 3414   3.463   1.670  14.750 -1.2713 -0.7428  0.2985
  221MPD1    H3 3415   3.498   1.430  14.763 -3.0982  0.3840 -0.0148
  221MPD1     N 3416   3.585   1.464  15.201 -0.0704 -0.5538 -0.4109
  221MPD1    H5 3417   3.627   1.374  15.184  3.3033  1.1654 -1.2356
  221MPD1    N1 3418   3.430   1.835  14.958 -0.3530  0.0154  0.1611
  221MPD1    H6 3419   3.433   1.867  14.861  0.9751  1.9567  0.8447
  221MPD1    H7 3420   3.487   1.898  15.014 -1.4093  1.7329 -0.6846
  222MPD1     C 3421   3.313   4.362  17.311  0.1172  1.0387  0.0375
  222MPD1    C1 3422   3.388   4.481  17.320  0.2555  0.1281  0.6512
  222MPD1    C2 3423   3.317   4.596  17.279 -0.3680  0.6749  0.1727
  222MPD1    C3 3424   3.180   4.598  17.258  0.0195  0.3159  0.3776
  222MPD1    C4 3425   3.112   4.477  17.265  0.7732  0.9018 -0.0458
  222MPD1    C5 3426   3.181   4.362  17.291  0.2378  0.3739  0.9203
  222MPD1     H 3427   3.371   4.688  17.257 -2.8286  2.1576  0.2849
  222MPD1    H1 3428   3.004   4.469  17.254  0.8833  1.1820 -1.3591
  222MPD1    H2 3429   3.362   4.268  17.333 -2.3310 -0.3483 -0.5518
  222MPD1    H3 3430   3.118   4.274  17.302  1.8794 -0.8052  0.9646
  222MPD1     N 3431   3.099   4.709  17.233  0.0689  0.1110 -0.4511
  222MPD1    H5 3432   3.000   4.693  17.218  0.1544 -1.2502  0.3814
  222MPD1    N1 3433   3.528   4.471  17.333  0.3677 -0.5007 -0.7122
  222MPD1    H6 3434   3.571   4.559  17.362 -1.2033  0.3468 -0.9861
  222MPD1    H7 3435   3.557   4.393  17.392  0.0255 -0.2060 -0.1674
  223MPD1     C 3436   2.624   0.060   0.190 -0.4738 -0.3161 -0.4545
  223MPD1    C1 3437   2.675   4.702   0.111  0.5234 -0.4693 -0.1842
  223MPD1    C2 3438   2.732   0.001  17.757 -0.5518 -1.1418  0.6772
  223MPD1    C3 3439   2.741   0.134  17.720  0.8875  0.6877  0.2363
  223MPD1    C4 3440   2.671   0.231   0.036  0.2995  0.0584  0.3645
  223MPD1    C5 3441   2.615   0.185   0.156  0.1615 -0.4132 -0.0691
  223MPD1     H 3442   2.797   4.670  17.709  1.4203  1.4778 -0.6320
  223MPD1    H1 3443   2.658   0.331  17.759  1.9576  0.5373  1.0403
  223MPD1    H2 3444   2.579   0.036   0.286 -0.1617  0.8452 -0.0054
  223MPD1    H3 3445   2.578   0.251   0.234 -2.2284  1.4844 -2.7924
  223MPD1     N 3446   2.800   0.175  17.595  0.2897  0.7163 -0.0970
  223MPD1    H5 3447   2.825   0.099  17.533 -2.1186  0.2215 -0.4584
  223MPD1    N1 3448   2.695   4.573   0.160 -0.2844 -0.1954 -0.2014
  223MPD1    H6 3449   2.717   4.500   0.093  0.3788 -1.7150  1.6625
  223MPD1    H7 3450   2.620   4.538   0.219  0.3429  1.1557  1.3819
  224MPD1     C 3451   0.671   2.834   8.898  0.0704  0.5931  0.2960
  224MPD1    C1 3452   0.762   2.782   8.989 -0.5581 -0.0647  0.5844
  224MPD1    C2 3453   0.718   2.679   9.069 -0.4243 -0.3870  0.8186
  224MPD1    C3 3454   0.585   2.630   9.063 -0.5586 -0.0991  0.1914
  224MPD1    C4 3455   0.492   2.694   8.981  1.0337 -0.1696  1.2418
  224MPD1    C5 3456   0.539   2.791   8.903 -0.5791 -0.3821 -0.1230
  224MPD1     H 3457   0.791   2.641   9.139  1.6706  1.6694 -0.2616
  224MPD1    H1 3458   0.390   2.658   8.983  0.1739  2.3821  3.0439
  224MPD1    H2 3459   0.697   2.919   8.837  0.7674  1.4231  1.7397
  224MPD1    H3 3460   0.470   2.850   8.845 -0.0778 -0.5953 -0.9280
  224MPD1     N 3461   0.542   2.529   9.152  0.2981  0.7147  0.0265
  224MPD1    H5 3462   0.441   2.517   9.151  0.2926  0.4437  3.1245
  224MPD1    N1 3463   0.894   2.813   8.961  0.1290  0.3472  0.0967
  224MPD1    H6 3464   0.890   2.906   8.920 -3.4424 -0.7684 -2.0205
  224MPD1    H7 3465   0.936   2.816   9.054 -0.4948 -1.5084  0.4463
  225MPD1     C 3466   1.064   2.696  12.637 -0.0426 -0.1823 -1.0286
  225MPD1    C1 3467   1.067   2.735  12.508  0.1465 -0.3103  0.8772
  225MPD1    C2 3468   0.958   2.805  12.449  0.2877  0.0312 -1.0133
  225MPD1    C3 3469   0.840   2.809  12.516  0.2256 -0.5101  0.6744
  225MPD1    C4 3470   0.833   2.755  12.646 -0.3098  0.6131 -0.3426
  225MPD1    C5 3471   0.948   2.710  12.701 -0.2871 -0.0833  0.2191
  225MPD1     H 3472   0.967   2.849  12.351  1.8392 -0.3758 -1.0528
  225MPD1    H1 3473   0.737   2.755  12.697  0.6682 -1.6410  1.5147
  225MPD1    H2 3474   1.145   2.647  12.689 -1.2420 -0.3505  0.7144
  225MPD1    H3 3475   0.937   2.690  12.807 -0.0785 -0.0215  0.2528
  225MPD1     N 3476   0.717   2.854  12.459 -0.0532 -0.1480 -0.7156
  225MPD1    H5 3477   0.635   2.860  12.518  0.1200 -1.1333 -0.3833
  225MPD1    N1 3478   1.192   2.742  12.446 -0.2168 -0.0490  0.1428
  225MPD1    H6 3479   1.179   2.736  12.345 -1.4261 -0.1511  0.3132
  225MPD1    H7 3480   1.257   2.671  12.480 -1.1517 -0.6549  0.6471
  226MPD1     C 3481   0.045   1.999   9.826 -1.0056  0.1400 -0.0842
  226MPD1    C1 3482   4.698   2.105   9.801 -0.6376  1.0912  0.9085
  226MPD1    C2 3483   4.687   2.162   9.674  0.5772 -0.5054 -0.1295
  226MPD1    C3 3484   0.035   2.126   9.574 -0.6279 -0.4188 -0.6938
  226MPD1    C4 3485   0.134   2.035   9.609  0.3161  0.6853  0.5802
  226MPD1    C5 3486   0.137   1.972   9.733  0.4773  0.4317  0.4540
  226MPD1     H 3487   4.607   2.231   9.651 -0.1105 -1.1498  0.3324
  226MPD1    H1 3488   0.201   1.992   9.535  0.4998  1.0743  0.5238
  226MPD1    H2 3489   0.044   1.942   9.918 -0.9577  1.2088  0.5852
  226MPD1    H3 3490   0.200   1.887   9.751 -0.7329 -0.5639 -0.0017
  226MPD1     N 3491   0.013   2.184   9.454  0.5435  0.0016  0.2411
  226MPD1    H5 3492   4.673   2.246   9.452  1.0134  0.6174  0.2107
  226MPD1    N1 3493   4.594   2.126   9.890 -0.2975 -0.3378  0.1366
  226MPD1    H6 3494   4.569   2.225   9.897 -1.7047 -0.5691 -1.6296
  226MPD1    H7 3495   4.620   2.089   9.981 -0.4790 -0.6119  0.0768
  227MPD1     C 3496   4.672   1.784   8.531 -0.1835 -0.1934  0.1775
  227MPD1    C1 3497   0.002   1.750   8.631  0.4080 -0.4601  0.5492
  227MPD1    C2 3498   0.027   1.840   8.728  0.7968 -0.5373  0.0253
  227MPD1    C3 3499   4.701   1.958   8.743  0.7031 -0.3598 -0.1875
  227MPD1    C4 3500   4.617   1.994   8.639 -0.3463 -0.6279  0.0327
  227MPD1    C5 3501   4.609   1.907   8.530 -0.1839  0.0222 -0.3052
  227MPD1     H 3502   0.097   1.811   8.806  0.7532  0.3756  0.4028
  227MPD1    H1 3503   4.556   2.084   8.643 -0.8603 -0.8570 -2.5935
  227MPD1    H2 3504   4.657   1.728   8.439 -3.1513  1.9195 -0.6314
  227MPD1    H3 3505   4.551   1.937   8.443 -1.2673  0.7665  0.6625
  227MPD1     N 3506   4.721   2.043   8.855 -0.0497  0.1572  0.2205
  227MPD1    H5 3507   0.074   2.043   8.895  0.2956  1.1264 -0.5906
  227MPD1    N1 3508   0.096   1.641   8.619  0.4691 -0.3896 -0.0248
  227MPD1    H6 3509   0.152   1.599   8.693  1.1286 -2.6301 -1.7853
  227MPD1    H7 3510   0.063   1.566   8.559 -2.9368  1.2199 -0.1802
  228MPD1     C 3511   3.150   0.824  12.865 -0.0533 -0.3128  0.6578
  228MPD1    C1 3512   3.140   0.850  12.733 -0.3361 -0.1558  0.0371
  228MPD1    C2 3513   3.010   0.827  12.677 -0.6570 -0.3506  0.2290
  228MPD1    C3 3514   2.921   0.749  12.744 -0.4759  0.0089  0.6303
  228MPD1    C4 3515   2.949   0.710  12.873  0.0216  0.1787  0.0401
  228MPD1    C5 3516   3.059   0.756  12.939  0.0798  0.3365 -0.1599
  228MPD1     H 3517   2.990   0.863  12.577 -0.9946  1.5040  0.9629
  228MPD1    H1 3518   2.879   0.654  12.934 -0.0650  0.7170  0.4319
  228MPD1    H2 3519   3.237   0.861  12.918 -0.1610 -0.2350  0.7834
  228MPD1    H3 3520   3.071   0.737  13.045  2.0144  0.4325 -0.3743
  228MPD1     N 3521   2.792   0.732  12.685 -0.0585 -0.2223  0.5359
  228MPD1    H5 3522   2.778   0.774  12.594 -0.1281  0.4367  0.8451
  228MPD1    N1 3523   3.242   0.924  12.673  0.9222  0.8267 -0.1705
  228MPD1    H6 3524   3.334   0.896  12.705  1.2506  0.4277 -1.4426
  228MPD1    H7 3525   3.248   0.904  12.573 -2.1384  1.3047 -0.4457
  229MPD1     C 3526   2.195   3.856  14.448  0.4797 -0.6759 -0.1415
  229MPD1    C1 3527   2.140   3.774  14.545  0.0944 -0.2723 -0.2227
  229MPD1    C2 3528   2.224   3.676  14.594  0.7594 -0.3366  0.5230
  229MPD1    C3 3529   2.348   3.649  14.545  0.3721  0.1545  0.2127
  229MPD1    C4 3530   2.393   3.729  14.441  0.0818  0.3570 -0.5172
  229MPD1    C5 3531   2.317   3.835  14.404 -0.7504  0.1090 -0.5795
  229MPD1     H 3532   2.180   3.618  14.674 -2.0523  1.3274  0.1589
  229MPD1    H1 3533   2.489   3.717  14.393  0.9029 -1.4548  1.5745
  229MPD1    H2 3534   2.143   3.945  14.413  1.1341 -0.4034 -0.4123
  229MPD1    H3 3535   2.358   3.907  14.334  0.0784 -0.1273 -0.3414
  229MPD1     N 3536   2.436   3.552  14.587  0.2317  0.8858  0.2932
  229MPD1    H5 3537   2.530   3.537  14.551  0.4626  1.6988  0.5579
  229MPD1    N1 3538   2.030   3.811  14.618  0.0580  0.4312  0.1498
  229MPD1    H6 3539   1.980   3.740  14.670  0.5789  0.5317  0.7838
  229MPD1    H7 3540   1.969   3.870  14.562  1.4836  0.6327 -1.2023
  230MPD1     C 3541   2.883   3.177  15.507 -0.2992 -0.4699 -0.4172
  230MPD1    C1 3542   2.969   3.237  15.420  0.0510 -0.0190 -0.7786
  230MPD1    C2 3543   2.923   3.263  15.296 -0.2050 -0.0790  0.2319
  230MPD1    C3 3544   2.794   3.220  15.255  0.4806  0.7620  0.4521
  230MPD1    C4 3545   2.706   3.164  15.344 -0.0465 -0.0542 -0.1983
  230MPD1    C5 3546   2.755   3.133  15.472  0.5082  0.5238 -0.1103
  230MPD1     H 3547   2.987   3.315  15.225 -0.6907  0.4743  0.1993
  230MPD1    H1 3548   2.604   3.133  15.324 -0.3445  0.6856  0.1735
  230MPD1    H2 3549   2.910   3.173  15.611  0.9664 -0.8873 -0.7682
  230MPD1    H3 3550   2.691   3.084  15.544  1.5921  1.8104  1.7211
  230MPD1     N 3551   2.765   3.258  15.121 -0.1640 -0.0833 -0.4236
  230MPD1    H5 3552   2.834   3.311  15.067 -0.7250  0.2322 -0.8295
  230MPD1    N1 3553   3.094   3.283  15.469 -0.5374 -0.3127  0.7498
  230MPD1    H6 3554   3.161   3.291  15.393 -1.1474  0.7887  0.3325
  230MPD1    H7 3555   3.137   3.234  15.547 -0.1523  0.0548  0.7738
  231MPD1     C 3556   0.538   0.845  15.401  0.4953 -0.0561  0.6573
  231MPD1    C1 3557   0.552   0.745  15.316 -0.5710  0.5272  0.2220
  231MPD1    C2 3558   0.644   0.766  15.209  0.0219 -0.5196 -0.3463
  231MPD1    C3 3559   0.726   0.876  15.195  0.0099  0.2103  0.4693
  231MPD1    C4 3560   0.715   0.971  15.293  0.4414  0.2414 -0.6398
  231MPD1    C5 3561   0.619   0.958  15.389  0.7909 -0.2647  0.0454
  231MPD1     H 3562   0.652   0.695  15.127  0.9969  2.7614 -3.1221
  231MPD1    H1 3563   0.763   1.068  15.302  1.7135 -0.5400  0.9109
  231MPD1    H2 3564   0.459   0.846  15.476  0.3543  1.6512  0.4919
  231MPD1    H3 3565   0.599   1.035  15.463 -0.9893  0.5685 -1.3043
  231MPD1     N 3566   0.824   0.881  15.101  0.0856 -0.5838  0.1842
  231MPD1    H5 3567   0.816   0.805  15.034  0.9582 -0.1780 -0.3870
  231MPD1    N1 3568   0.458   0.647  15.317  0.0444 -0.3294  0.5719
  231MPD1    H6 3569   0.480   0.575  15.249 -1.4021 -0.3067  0.0678
  231MPD1    H7 3570   0.447   0.614  15.412 -2.9854 -0.9931  0.0045
  232MPD1     C 3571   2.577   2.340  16.477  0.0165  0.0652  0.3474
  232MPD1    C1 3572   2.655   2.414  16.569 -0.1440  0.4333 -0.5948
  232MPD1    C2 3573   2.616   2.411  16.699 -0.5084  0.0731  0.2532
  232MPD1    C3 3574   2.504   2.342  16.741  0.5917  0.1378 -0.2970
  232MPD1    C4 3575   2.431   2.273  16.650  0.5307 -0.0859  0.1923
  232MPD1    C5 3576   2.469   2.273  16.520  0.2481  0.2569 -0.7756
  232MPD1     H 3577   2.670   2.463  16.778  1.0444  0.9709 -1.3984
  232MPD1    H1 3578   2.333   2.232  16.672 -0.4593  2.0385 -0.2533
  232MPD1    H2 3579   2.590   2.341  16.369  0.9492 -1.4018  0.4402
  232MPD1    H3 3580   2.390   2.239  16.454 -2.2893  1.2805  1.7575
  232MPD1     N 3581   2.472   2.333  16.884  0.4209  0.1503  0.5747
  232MPD1    H5 3582   2.536   2.382  16.947  0.7170  0.9913 -0.3839
  232MPD1    N1 3583   2.770   2.489  16.528  0.0354 -0.2519  0.1881
  232MPD1    H6 3584   2.794   2.455  16.435  0.1343 -1.2997  0.6021
  232MPD1    H7 3585   2.845   2.483  16.596 -1.5337 -0.3736  1.9283
  233MPD1     C 3586   3.172   2.566  17.615  0.1595  0.4387  0.3340
  233MPD1    C1 3587   3.096   2.447  17.646  0.0922  0.2961  0.3385
  233MPD1    C2 3588   3.168   2.343  17.706 -0.9061  0.5305 -0.1416
  233MPD1    C3 3589   3.304   2.342  17.715  0.2959 -0.3309  0.1792
  233MPD1    C4 3590   3.370   2.457  17.690 -0.0095  0.5371 -0.2283
  233MPD1    C5 3591   3.305   2.565  17.638 -0.7728 -0.1906  0.2841
  233MPD1     H 3592   3.104   2.264  17.744  0.7348 -0.7552 -0.0490
  233MPD1    H1 3593   3.473   2.461  17.723 -0.6249 -0.8126  1.8455
  233MPD1    H2 3594   3.128   2.658  17.580 -0.7335 -0.5788 -1.2085
  233MPD1    H3 3595   3.352   2.660  17.617  0.5417 -0.5656  1.5271
  233MPD1     N 3596   3.372   2.242   0.022 -0.9984 -0.1582  0.0818
  233MPD1    H5 3597   3.472   2.255   0.020 -1.0701  0.1343 -2.8008
  233MPD1    N1 3598   2.957   2.451  17.642 -0.3735  0.3631  0.2818
  233MPD1    H6 3599   2.926   2.500  17.558 -0.7837  1.6890  1.2062
  233MPD1    H7 3600   2.918   2.358  17.629 -0.3903  0.5466 -0.9761
  234MPD1     C 3601   0.722   0.607   9.307  0.4443  0.1245  0.3145
  234MPD1    C1 3602   0.587   0.620   9.270  0.1852 -0.4145 -0.2561
  234MPD1    C2 3603   0.530   0.747   9.287 -0.0813  0.7632  0.4806
  234MPD1    C3 3604   0.588   0.839   9.375  0.2333 -0.0205 -0.6250
  234MPD1    C4 3605   0.720   0.818   9.426 -0.1183 -0.3769 -0.0702
  234MPD1    C5 3606   0.779   0.702   9.391 -0.2993 -0.7210  0.0968
  234MPD1     H 3607   0.430   0.767   9.252  0.3818  1.9876 -0.1358
  234MPD1    H1 3608   0.776   0.894   9.480  0.5761 -0.9645  0.0288
  234MPD1    H2 3609   0.783   0.525   9.272 -3.0473 -1.7862 -1.2731
  234MPD1    H3 3610   0.882   0.685   9.419 -0.1347  0.4957  0.2365
  234MPD1     N 3611   0.526   0.968   9.387 -0.1689 -0.0234  0.0765
  234MPD1    H5 3612   0.435   0.976   9.344  0.2880  2.4193 -0.4436
  234MPD1    N1 3613   0.528   0.528   9.185  0.2996  0.2452  0.0076
  234MPD1    H6 3614   0.427   0.531   9.186  0.3218  1.2168 -0.6319
  234MPD1    H7 3615   0.551   0.435   9.221 -1.2195 -0.4834 -0.8991
  235MPD1     C 3616   2.023   3.616  10.727 -0.4023 -0.4123 -0.0179
  235MPD1    C1 3617   2.066   3.724  10.793  0.6510 -0.0606  0.3265
  235MPD1    C2 3618   2.040   3.848  10.741  0.1501 -0.3487  0.4704
  235MPD1    C3 3619   1.986   3.858  10.615 -0.6074 -0.2291  0.4297
  235MPD1    C4 3620   1.942   3.743  10.548 -0.2292  0.2004  0.1517
  235MPD1    C5 3621   1.966   3.621  10.604  0.3903  0.1517  0.2746
  235MPD1     H 3622   2.065   3.940  10.793 -1.2567  0.1852  0.2150
  235MPD1    H1 3623   1.875   3.749  10.463  1.9545  0.1932 -1.5978
  235MPD1    H2 3624   2.015   3.522  10.780 -1.4486 -0.5636 -0.4557
  235MPD1    H3 3625   1.910   3.541  10.557  3.6860 -2.8569  1.5061
  235MPD1     N 3626   1.952   3.985  10.562 -0.1050  0.5960  0.1447
  235MPD1    H5 3627   1.961   4.069  10.618 -0.5235  0.6542  0.1220
  235MPD1    N1 3628   2.113   3.713  10.924  0.8313 -0.1097 -0.2552
  235MPD1    H6 3629   2.173   3.791  10.951  0.3638  0.5716 -1.1586
  235MPD1    H7 3630   2.173   3.632  10.934  0.1621 -0.8573 -2.1688
  236MPD1     C 3631   0.356   0.466   9.818  0.6475 -0.0671 -0.5124
  236MPD1    C1 3632   0.433   0.525   9.911  0.8941 -0.0174 -0.5672
  236MPD1    C2 3633   0.524   0.451   9.979 -0.2180 -0.5586  0.3223
  236MPD1    C3 3634   0.541   0.320   9.952 -0.2571 -0.5386 -0.1484
  236MPD1    C4 3635   0.471   0.257   9.857 -0.6095 -0.1427 -0.0976
  236MPD1    C5 3636   0.368   0.328   9.804 -0.0788  0.2760 -0.2865
  236MPD1     H 3637   0.581   0.493  10.062 -2.7841 -3.2935  3.4767
  236MPD1    H1 3638   0.485   0.151   9.836 -0.0642  0.0540 -0.7290
  236MPD1    H2 3639   0.284   0.514   9.753 -2.5557 -1.3709  2.0818
  236MPD1    H3 3640   0.309   0.274   9.731  0.2640 -1.5718  0.7960
  236MPD1     N 3641   0.648   0.242  10.012  0.2504 -0.0798  0.6175
  236MPD1    H5 3642   0.646   0.148   9.973 -0.3110  1.1450 -2.3581
  236MPD1    N1 3643   0.434   0.665   9.911  0.2557 -0.4794  0.6692
  236MPD1    H6 3644   0.483   0.709   9.833  1.6196  0.5409  2.1096
  236MPD1    H7 3645   0.341   0.702   9.893  0.1242  0.1023  2.5442
  237MPD1     C 3646   1.098   2.680  15.685 -0.0483 -0.2645  0.2408
  237MPD1    C1 3647   1.099   2.662  15.547 -0.1967  0.3552 -0.6069
  237MPD1    C2 3648   1.018   2.559  15.487  0.1268  0.2024 -0.1484
  237MPD1    C3 3649   0.944   2.479  15.567 -0.0254  0.5269  0.7610
  237MPD1    C4 3650   0.952   2.487  15.703 -0.1048 -0.3276 -0.8382
  237MPD1    C5 3651   1.021   2.589  15.761 -0.3441  0.3370 -0.3152
  237MPD1     H 3652   1.010   2.548  15.379  1.2520  1.3392 -0.3438
  237MPD1    H1 3653   0.903   2.415  15.767 -0.5813  0.4903 -0.2849
  237MPD1    H2 3654   1.156   2.756  15.736 -0.7289  1.2030 -1.1573
  237MPD1    H3 3655   1.026   2.596  15.870 -1.3660 -2.5409 -0.0891
  237MPD1     N 3656   0.864   2.373  15.521 -0.0361  0.2928 -0.0898
  237MPD1    H5 3657   0.805   2.319  15.583  0.3356  0.5293  0.4671
  237MPD1    N1 3658   1.158   2.758  15.462 -0.2636  0.7258 -0.3342
  237MPD1    H6 3659   1.249   2.781  15.501 -0.6695 -0.1068  1.1068
  237MPD1    H7 3660   1.167   2.718  15.369 -0.1806 -1.5779  0.6465
  238MPD1     C 3661   2.971   0.314  14.872  0.4687 -1.1151 -0.1354
  238MPD1    C1 3662   3.010   0.388  14.766 -0.3865 -0.2788 -0.7135
  238MPD1    C2 3663   2.917   0.439  14.686 -0.4031  0.0159  0.0751
  238MPD1    C3 3664   2.782   0.410  14.697 -0.7797  0.1797  0.5903
  238MPD1    C4 3665   2.735   0.347  14.809  0.5933  0.1103  0.0866
  238MPD1    C5 3666   2.835   0.299  14.895 -0.4731  0.7070  0.0313
  238MPD1     H 3667   2.947   0.482  14.591 -0.7595  0.8646  0.3461
  238MPD1    H1 3668   2.634   0.319  14.835  0.4747  0.4589  0.0088
  238MPD1    H2 3669   3.045   0.276  14.942  2.1980  0.4058 -1.1232
  238MPD1    H3 3670   2.815   0.229  14.975 -2.0668 -0.0816 -1.0652
  238MPD1     N 3671   2.679   0.443  14.612  0.1418 -0.5464 -0.1717
  238MPD1    H5 3672   2.593   0.400  14.642  1.0149 -2.6268 -0.6388
  238MPD1    N1 3673   3.142   0.387  14.721 -0.0113  0.8730 -0.1922
  238MPD1    H6 3674   3.176   0.471  14.674 -2.6072  2.0510  0.0408
  238MPD1    H7 3675   3.205   0.366  14.798 -1.1242  2.9095  1.2735
  239MPD1     C 3676   2.054   2.712  14.124 -0.2801  0.9012 -0.3286
  239MPD1    C1 3677   2.186   2.718  14.130  0.4226  0.1293  0.1975
  239MPD1    C2 3678   2.269   2.606  14.144 -0.6425  0.8908 -0.1913
  239MPD1    C3 3679   2.204   2.480  14.142  0.2660  0.5826  0.2322
  239MPD1    C4 3680   2.066   2.471  14.129  0.2799 -0.3206  0.2165
  239MPD1    C5 3681   1.995   2.586  14.118 -0.4296 -0.4622  0.6290
  239MPD1     H 3682   2.375   2.615  14.163 -1.3158  2.4180  2.8413
  239MPD1    H1 3683   2.019   2.374  14.137  1.4346 -0.8459  0.6147
  239MPD1    H2 3684   1.988   2.798  14.111  0.0378  1.4268  1.5201
  239MPD1    H3 3685   1.887   2.580  14.116 -0.4963  0.7689  0.0885
  239MPD1     N 3686   2.265   2.362  14.168  0.2347 -0.2819  0.5533
  239MPD1    H5 3687   2.207   2.285  14.199 -0.6313 -0.5315 -1.6868
  239MPD1    N1 3688   2.243   2.845  14.130  0.5093 -0.9242  0.0053
  239MPD1    H6 3689   2.193   2.920  14.082  0.9168 -1.3350 -1.0529
  239MPD1    H7 3690   2.342   2.841  14.107  0.6606 -0.6851  0.6093
  240MPD1     C 3691   2.038   1.329  13.554 -1.0672 -0.9194  0.6618
  240MPD1    C1 3692   1.964   1.214  13.562 -0.2399 -0.2064 -0.3558
  240MPD1    C2 3693   1.983   1.145  13.680  0.4170 -0.5186 -0.8822
  240MPD1    C3 3694   2.066   1.188  13.786  0.1254 -0.5705 -0.2624
  240MPD1    C4 3695   2.134   1.309  13.770 -0.4647  0.3763  0.0479
  240MPD1    C5 3696   2.112   1.375  13.658  0.4691  0.2167 -0.2579
  240MPD1     H 3697   1.938   1.046  13.689  0.6209 -0.3455  2.2021
  240MPD1    H1 3698   2.196   1.345  13.851  1.1880  1.9169 -1.9052
  240MPD1    H2 3699   2.024   1.386  13.463  0.8501 -1.5780 -0.0477
  240MPD1    H3 3700   2.165   1.468  13.637 -0.0382  1.0824  2.2134
  240MPD1     N 3701   2.069   1.105  13.898 -0.0406  0.3853  1.0139
  240MPD1    H5 3702   2.002   1.028  13.899  2.5282 -1.8723  0.3085
  240MPD1    N1 3703   1.905   1.154  13.446 -0.1257  0.4619 -0.6505
  240MPD1    H6 3704   1.843   1.076  13.465 -1.0138  1.0738 -1.0659
  240MPD1    H7 3705   1.869   1.218  13.376 -1.8924 -0.2202 -0.3523
  241MPD1     C 3706   2.746   1.050  14.627  0.0979  0.1918  0.2404
  241MPD1    C1 3707   2.702   0.921  14.610  0.0739 -0.2222  0.2611
  241MPD1    C2 3708   2.595   0.904  14.523 -0.5534  0.2818 -0.8459
  241MPD1    C3 3709   2.537   1.014  14.462 -0.2791  0.5976 -0.4131
  241MPD1    C4 3710   2.587   1.141  14.480  0.8481  0.1412 -0.9608
  241MPD1    C5 3711   2.696   1.161  14.560 -0.2630  0.0540  0.5829
  241MPD1     H 3712   2.557   0.806  14.497 -0.3632  0.4041 -1.5909
  241MPD1    H1 3713   2.530   1.225  14.444  1.2649  0.3804 -1.0698
  241MPD1    H2 3714   2.817   1.062  14.708 -1.0733 -1.9927  1.5994
  241MPD1    H3 3715   2.737   1.261  14.570 -0.4515  0.2116 -0.2406
  241MPD1     N 3716   2.403   1.009  14.408 -0.8363  0.1058  0.0518
  241MPD1    H5 3717   2.355   1.096  14.386  1.2673  1.1069 -0.6641
  241MPD1    N1 3718   2.762   0.817  14.679 -0.2916  0.3754 -0.0719
  241MPD1    H6 3719   2.763   0.735  14.619  0.6481  0.4625 -0.1752
  241MPD1    H7 3720   2.862   0.835  14.692 -0.2045 -0.6862  0.7164
  242MPD1     C 3721   2.412   0.666  15.101 -0.8511 -0.0994  0.5761
  242MPD1    C1 3722   2.471   0.633  14.982  0.7021  0.2846 -0.5299
  242MPD1    C2 3723   2.438   0.516  14.917  0.0096 -0.0239 -0.7922
  242MPD1    C3 3724   2.342   0.430  14.979 -0.0544  0.0944  0.9209
  242MPD1    C4 3725   2.296   0.457  15.101 -0.0975 -0.0322 -0.0499
  242MPD1    C5 3726   2.331   0.573  15.164 -0.0865  0.6417 -0.1962
  242MPD1     H 3727   2.478   0.490  14.820  1.3670 -1.1450  0.0797
  242MPD1    H1 3728   2.220   0.397  15.149  0.6617 -0.7791  0.2342
  242MPD1    H2 3729   2.449   0.756  15.149  1.3119 -0.3790 -0.5600
  242MPD1    H3 3730   2.305   0.583  15.269 -1.1887  3.4239 -0.7341
  242MPD1     N 3731   2.302   0.303  14.927  0.1173  0.1449 -0.0219
  242MPD1    H5 3732   2.224   0.255  14.971  0.0979 -0.1070 -0.3345
  242MPD1    N1 3733   2.532   0.738  14.907 -0.0594 -0.5431  0.4994
  242MPD1    H6 3734   2.573   0.803  14.973  2.1560 -1.2711 -0.1758
  242MPD1    H7 3735   2.600   0.714  14.835  0.0096  0.3587  0.2663
  243MPD1     C 3736   4.070   0.141  17.156 -0.4960 -0.3267 -0.2055
  243MPD1    C1 3737   4.133   0.027  17.192  0.0943  0.1595 -0.4212
  243MPD1    C2 3738   4.082   4.653  17.135  0.3488 -0.3413 -0.2766
  243MPD1    C3 3739   3.985   4.641  17.036 -0.3310  0.0749  0.2782
  243MPD1    C4 3740   3.936   0.020  16.991  0.1766  0.5294  0.7524
  243MPD1    C5 3741   3.975   0.135  17.056  0.6125  0.6578  0.1543
  243MPD1     H 3742   4.133   4.563  17.168  0.6718  0.1692  0.6320
  243MPD1    H1 3743   3.867   0.022  16.908  1.9065  2.5290 -0.6651
  243MPD1    H2 3744   4.084   0.238  17.203  0.5805 -1.0510  1.0041
  243MPD1    H3 3745   3.930   0.227  17.021  0.8862  1.0963  0.9490
  243MPD1     N 3746   3.957   4.516  16.986 -1.0551 -0.3107  0.1297
  243MPD1    H5 3747   4.015   4.445  17.029  0.5501  1.9744  1.7318
  243MPD1    N1 3748   4.244   0.023  17.276  0.4500 -0.1926  0.1090
  243MPD1    H6 3749   4.323   0.009  17.213 -2.9878 -2.1244 -3.7457
  243MPD1    H7 3750   4.263   0.114  17.317  0.7198  0.4138 -1.3628
  244MPD1     C 3751   4.088   3.554  17.151  0.0954 -0.4015  0.3070
  244MPD1    C1 3752   3.979   3.550  17.065  0.1726  0.0399  0.0235
  244MPD1    C2 3753   3.949   3.669  16.996  0.4760  0.8000 -0.0292
  244MPD1    C3 3754   3.995   3.791  17.041  0.4756 -1.2045 -0.4888
  244MPD1    C4 3755   4.085   3.794  17.145 -0.6228 -0.1571  0.2760
  244MPD1    C5 3756   4.133   3.676  17.194  0.4542  0.0737  0.3803
  244MPD1     H 3757   3.894   3.675  16.903  1.5899 -0.7512 -0.7899
  244MPD1    H1 3758   4.120   3.889  17.183 -0.1081 -0.2548  0.0511
  244MPD1    H2 3759   4.132   3.466  17.197 -2.3410 -2.1036 -0.6336
  244MPD1    H3 3760   4.207   3.670  17.272  1.3236 -0.2002 -0.4586
  244MPD1     N 3761   3.928   3.903  16.978 -0.3348  0.1955  0.3501
  244MPD1    H5 3762   3.862   3.883  16.904  1.2122 -0.5218 -0.8262
  244MPD1    N1 3763   3.954   3.426  17.009  0.3964  0.0495 -0.5722
  244MPD1    H6 3764   3.867   3.420  16.956  0.9324 -0.6342 -1.3841
  244MPD1    H7 3765   3.967   3.350  17.076 -0.4687  2.0664  1.8602
  245MPD1     C 3766   4.591   3.383  13.093 -0.1083 -0.1496  0.2765
  245MPD1    C1 3767   4.693   3.398  13.184  0.3325 -0.2612  0.5911
  245MPD1    C2 3768   0.043   3.501  13.172 -0.0742 -1.1254 -0.3819
  245MPD1    C3 3769   0.037   3.587  13.064 -0.8589 -0.1659 -0.0572
  245MPD1    C4 3770   4.694   3.561  12.960  0.8087 -0.0300  0.3020
  245MPD1    C5 3771   4.591   3.472  12.984  0.1822  0.3350  0.3569
  245MPD1     H 3772   0.113   3.510  13.255 -1.4138  1.2272  0.5001
  245MPD1    H1 3773   4.688   3.627  12.875  2.1908 -1.1620 -0.6647
  245MPD1    H2 3774   4.506   3.317  13.104 -0.6539  0.6749  1.0558
  245MPD1    H3 3775   4.520   3.473  12.901 -2.7842 -2.2314  2.8412
  245MPD1     N 3776   0.134   3.688  13.069  0.7889 -0.2711  0.0895
  245MPD1    H5 3777   0.202   3.695  13.144  2.6255  0.4865 -1.6678
  245MPD1    N1 3778   4.693   3.305  13.288  0.4702  0.0773 -0.6868
  245MPD1    H6 3779   0.014   3.339  13.362 -0.6688 -1.0039  0.7859
  245MPD1    H7 3780   4.601   3.290  13.329 -0.0436 -1.4920 -2.4234
  246MPD1     C 3781   2.127   1.621   9.263  0.0390 -0.0773  0.3519
  246MPD1    C1 3782   2.080   1.497   9.293  0.1355 -0.0562  0.7111
  246MPD1    C2 3783   2.027   1.476   9.419 -0.7438  0.3116  0.7118
  246MPD1    C3 3784   2.019   1.585   9.509  0.6620  0.7522  0.3067
  246MPD1    C4 3785   2.092   1.704   9.484  0.2124  0.2802  0.5699
  246MPD1    C5 3786   2.145   1.718   9.358  0.7792 -0.0974 -0.3903
  246MPD1     H 3787   1.990   1.377   9.442 -0.9000  0.1765 -0.1132
  246MPD1    H1 3788   2.087   1.789   9.550  2.0351  0.9484 -0.1501
  246MPD1    H2 3789   2.159   1.640   9.162 -0.5843 -2.3115 -0.2787
  246MPD1    H3 3790   2.167   1.817   9.319 -1.2319  0.3698 -0.3621
  246MPD1     N 3791   1.947   1.551   9.626  0.0250 -1.2069  0.4720
  246MPD1    H5 3792   1.914   1.456   9.637  2.8360 -2.1527  0.6101
  246MPD1    N1 3793   2.070   1.396   9.195  0.1061 -0.2591  0.3834
  246MPD1    H6 3794   2.148   1.390   9.129 -0.6884 -1.2325 -0.4698
  246MPD1    H7 3795   2.062   1.306   9.242 -1.3298  0.7587  2.1028
  247MPD1     C 3796   0.804   4.543  16.813  1.3293  0.3756  0.3343
  247MPD1    C1 3797   0.748   4.583  16.693  0.1246 -0.2897  0.1185
  247MPD1    C2 3798   0.667   4.499  16.618 -0.0368  0.9986 -0.9166
  247MPD1    C3 3799   0.637   4.375  16.664  0.5164  0.0220  0.2604
  247MPD1    C4 3800   0.694   4.334  16.781 -0.3215 -0.7818  0.4329
  247MPD1    C5 3801   0.785   4.415  16.859  0.5760 -0.3164  0.3235
  247MPD1     H 3802   0.619   4.526  16.525 -0.0421  3.7213 -0.1178
  247MPD1    H1 3803   0.666   4.237  16.822  0.5687 -1.2498 -0.0822
  247MPD1    H2 3804   0.865   4.612  16.870 -0.7126  0.8729  1.9263
  247MPD1    H3 3805   0.822   4.370  16.951  0.3636 -4.5497 -1.6758
  247MPD1     N 3806   0.558   4.281  16.599  0.6307  0.1478  0.4154
  247MPD1    H5 3807   0.508   4.216  16.658  1.3656 -1.1186 -0.3653
  247MPD1    N1 3808   0.764   4.719  16.654 -0.0952  0.0958 -0.1618
  247MPD1    H6 3809   0.783   4.727  16.554 -0.1601  0.0147 -0.1811
  247MPD1    H7 3810   0.839   0.023  16.706  0.7721 -0.1166 -1.2205
  248MPD1     C 3811   1.556   3.862  17.493  0.4881  0.1941 -0.6281
  248MPD1    C1 3812   1.474   3.972  17.501 -0.6937 -0.3060  0.5917
  248MPD1    C2 3813   1.365   3.965  17.589 -0.7027 -0.5336  0.2020
  248MPD1    C3 3814   1.348   3.852  17.664 -0.7603  1.0121 -0.7491
  248MPD1    C4 3815   1.429   3.739  17.655  0.3070  0.6244 -0.0345
  248MPD1    C5 3816   1.532   3.742  17.566  0.2807 -0.4172 -0.2791
  248MPD1     H 3817   1.305   4.054  17.604 -0.4698 -0.0963 -1.5075
  248MPD1    H1 3818   1.417   3.651  17.716  2.0508 -0.6080 -1.4685
  248MPD1    H2 3819   1.640   3.853  17.426  0.0258  2.1487 -1.4710
  248MPD1    H3 3820   1.596   3.655  17.563  1.9743  0.7774  1.2503
  248MPD1     N 3821   1.244   3.858   0.002 -0.3994 -0.2428 -0.1681
  248MPD1    H5 3822   1.187   3.941  17.755  1.9050  1.1389 -2.0881
  248MPD1    N1 3823   1.507   4.087  17.425 -0.2737  0.0098 -0.2031
  248MPD1    H6 3824   1.424   4.119  17.375  0.5423  1.6823 -0.4583
  248MPD1    H7 3825   1.586   4.075  17.363 -1.0707  2.5498 -1.6826
  249MPD1     C 3826   1.978   2.771  10.367  0.4590  0.0911  0.3896
  249MPD1    C1 3827   2.059   2.872  10.409  0.6234  0.0184 -0.6308
  249MPD1    C2 3828   2.164   2.919  10.332  0.0280  0.2634  0.4851
  249MPD1    C3 3829   2.187   2.856  10.212  0.2537  0.7740  0.4265
  249MPD1    C4 3830   2.099   2.765  10.164 -0.1153 -0.1751 -0.2846
  249MPD1    C5 3831   1.995   2.733  10.242  0.3930 -0.3971  0.3059
  249MPD1     H 3832   2.230   3.003  10.354  0.3518 -0.0374  0.6668
  249MPD1    H1 3833   2.102   2.730  10.062  3.1842 -1.7418  0.3696
  249MPD1    H2 3834   1.895   2.734  10.427  1.9400 -3.5168  0.1527
  249MPD1    H3 3835   1.920   2.668  10.199  1.8754 -2.1364  0.3827
  249MPD1     N 3836   2.303   2.898  10.140 -0.1651  0.0059  0.4825
  249MPD1    H5 3837   2.359   2.975  10.176  3.7951 -1.2149 -2.9736
  249MPD1    N1 3838   2.065   2.905  10.546  0.7864 -0.1164  0.5853
  249MPD1    H6 3839   1.986   2.881  10.605 -0.8170  4.2184  0.2293
  249MPD1    H7 3840   2.097   3.001  10.554 -1.2864  0.6205  0.0984
  250MPD2     C 3841   3.908   2.394  12.962  0.2849 -0.6053 -0.2786
  250MPD2    C1 3842   3.822   2.500  12.944  0.9628  0.0166  0.5485
  250MPD2    C2 3843   3.715   2.485  12.858  0.9467  0.2695 -0.1289
  250MPD2    C3 3844   3.706   2.371  12.780 -0.4784 -0.8729  0.3380
  250MPD2    C4 3845   3.791   2.268  12.799 -1.1135 -0.0398 -0.1415
  250MPD2    C5 3846   3.891   2.279  12.890  0.1136 -0.1772  0.3561
  250MPD2     H 3847   3.651   2.571  12.842 -1.9685 -1.9984 -0.6613
  250MPD2    H1 3848   3.792   2.187  12.726 -0.1839 -1.5608  1.5684
  250MPD2    H2 3849   3.986   2.409  13.035 -1.0290 -1.2841  1.2806
  250MPD2    H3 3850   3.965   2.201  12.908 -1.2686 -1.6721 -0.3873
  250MPD2     N 3851   3.615   2.349  12.671 -0.3552 -0.0108  0.0158
  250MPD2    H5 3852   3.631   2.270  12.610  0.5867  1.4992 -1.7016
  250MPD2    N1 3853   3.849   2.628  12.994  0.0191  0.3527 -0.0528
  250MPD2    H7 3854   3.785   2.705  12.977 -1.4054 -0.9833 -0.7749
  251TMC3    C1 3855   3.947   2.812  13.092  0.4884  0.1644 -0.2579
  251TMC3    C2 3856   3.822   2.859  13.121  0.3911  0.0520 -0.5670
  251TMC3    C3 3857   3.816   2.992  13.159  0.0417  0.0048  0.0067
  251TMC3    C4 3858   4.061   2.885  13.099 -0.0221  0.0710 -0.4598
  251TMC3    C5 3859   4.049   3.020  13.131  0.4175  0.2412  0.0590
  251TMC3    C6 3860   3.925   3.070  13.160 -0.4471  0.5550  0.0211
  251TMC3     C 3861   3.955   2.670  13.060 -0.1659 -0.1463 -0.0274
  251TMC3     O 3862   4.064   2.620  13.083  0.0422  0.0314 -0.1212
  251TMC3     H 3863   3.740   2.788  13.128 -0.7224  1.4593  0.6456
  251TMC3    H1 3864   4.154   2.831  13.083  0.4476  0.6957  0.2047
  251TMC3    H2 3865   3.920   3.171  13.199 -0.3481  0.9017 -0.8660
  251TMC3    C7 3866   4.174   3.084  13.176  0.0898 -0.2216  1.1381
  251TMC3    C8 3867   3.680   3.042  13.192 -0.3500 -0.1003 -0.8934
  251TMC3    O1 3868   4.270   3.011  13.176  0.1889  0.1883  0.1996
  251TMC3    O2 3869   3.655   3.159  13.154 -0.0616 -0.3360 -0.4167
  252TMC3    C1 3870   4.636   0.283   9.000  0.3906 -0.5034 -0.0932
  252TMC3    C2 3871   0.006   0.215   9.046  0.1009 -0.1777  0.6562
  252TMC3    C3 3872   4.726   0.087   9.087  0.3915 -0.3165  0.0489
  252TMC3    C4 3873   4.518   0.219   8.973 -0.0796 -0.1344  0.6096
  252TMC3    C5 3874   4.511   0.087   8.993 -0.6670 -0.7038  0.2130
  252TMC3    C6 3875   4.611   0.022   9.061  0.6044  0.6956  0.4577
  252TMC3     C 3876   4.656   0.419   8.975 -0.2149 -0.0002  0.2056
  252TMC3     O 3877   4.737   0.469   9.048  0.0788  0.3083  0.2177
  252TMC3     H 3878   0.095   0.267   9.080 -0.4461 -0.2952  2.2809
  252TMC3    H1 3879   4.433   0.276   8.938  0.1208 -0.8487 -1.0402
  252TMC3    H2 3880   4.604   4.655   9.070  1.4796  0.6235  0.2049
  252TMC3    C7 3881   4.388   0.017   8.957  1.0808 -0.6275 -0.1838
  252TMC3    C8 3882   0.096   0.015   9.159  0.0101 -0.9282 -0.2710
  252TMC3    O1 3883   4.318   0.062   8.865 -0.2370 -0.3937 -0.1208
  252TMC3    O2 3884   0.204   0.074   9.159  0.2209 -0.0271 -0.6527
  253MPD2     C 3885   0.444   2.426  14.999 -0.2738 -0.3494  0.9532
  253MPD2    C1 3886   0.315   2.404  15.044 -0.6032 -1.3176  0.5819
  253MPD2    C2 3887   0.280   2.437  15.174  0.2625  0.4298 -0.0108
  253MPD2    C3 3888   0.369   2.503  15.256 -0.3400  0.1885  0.3364
  253MPD2    C4 3889   0.491   2.536  15.211 -0.5359 -0.4590  0.1759
  253MPD2    C5 3890   0.526   2.496  15.086 -0.8773  0.1363 -0.5616
  253MPD2     H 3891   0.190   2.416  15.230 -1.5022  0.5898 -2.7943
  253MPD2    H1 3892   0.565   2.587  15.272 -0.8064  0.0433  0.0790
  253MPD2    H2 3893   0.475   2.422  14.896  0.7244 -1.6049  1.3019
  253MPD2    H3 3894   0.621   2.515  15.038 -0.1302 -0.5242  0.6391
  253MPD2     N 3895   0.319   2.578  15.372  0.2468  0.2346 -0.0873
  253MPD2    H5 3896   0.384   2.650  15.402 -0.8197  0.8054  0.8076
  253MPD2    N1 3897   0.203   2.347  14.971 -0.2167  0.3278 -0.0502
  253MPD2    H7 3898   0.113   2.351  15.017  0.2857  0.1945  0.9300
  254TMC3    C1 3899   0.222   2.630  15.576  0.1127  0.3268  0.4706
  254TMC3    C2 3900   0.099   2.652  15.632  1.0572 -0.1217  0.2050
  254TMC3    C3 3901   0.090   2.697  15.763  0.4165 -0.2898 -0.1462
  254TMC3    C4 3902   0.338   2.639  15.654 -0.3526  0.2484 -0.3814
  254TMC3    C5 3903   0.325   2.679  15.787  0.3559 -0.3727 -0.0182
  254TMC3    C6 3904   0.199   2.715  15.842 -0.8975 -0.4018 -0.6868
  254TMC3     C 3905   0.222   2.541  15.461 -0.3595 -0.0564 -0.2027
  254TMC3     O 3906   0.134   2.463  15.432  0.3212 -0.2086 -0.2349
  254TMC3     H 3907   0.020   2.633  15.561  0.2557  1.8603  0.5595
  254TMC3    H1 3908   0.434   2.604  15.618  1.1117  2.3751  1.4607
  254TMC3    H2 3909   0.184   2.738  15.947  3.0607  1.9611 -0.6208
  254TMC3    C7 3910   0.445   2.683  15.870 -1.0975 -0.4877  0.3886
  254TMC3    C8 3911   4.700   2.716  15.829  0.5172 -0.6233 -0.3110
  254TMC3    O1 3912   0.555   2.677  15.815 -0.2597  0.3485  0.2899
  254TMC3    O2 3913   4.697   2.790  15.930 -0.0667 -0.9870  0.2239
  255MPD2     C 3914   3.235   0.535   9.631  0.0504 -0.7342 -0.1134
  255MPD2    C1 3915   3.357   0.537   9.696  0.0201 -0.2794 -0.5442
  255MPD2    C2 3916   3.467   0.502   9.616  0.1788 -0.7042 -0.0142
  255MPD2    C3 3917   3.457   0.463   9.488  0.4635 -0.6853 -0.0331
  255MPD2    C4 3918   3.329   0.458   9.429 -0.4085  0.0715 -0.0917
  255MPD2    C5 3919   3.218   0.483   9.507  0.1139 -0.0811  0.0842
  255MPD2     H 3920   3.568   0.519   9.649 -0.2763  1.1146  0.4292
  255MPD2    H1 3921   3.312   0.434   9.324  2.1504 -3.6529  0.3616
  255MPD2    H2 3922   3.143   0.567   9.678  0.9018  0.0620  1.0134
  255MPD2    H3 3923   3.122   0.475   9.457  0.2345  2.6162 -0.5902
  255MPD2     N 3924   3.574   0.425   9.416 -0.2870 -0.5681  0.9911
  255MPD2    H5 3925   3.662   0.451   9.459 -0.6664  2.4012 -0.0667
  255MPD2    N1 3926   3.355   0.592   9.825  0.6229  1.3067  0.3559
  255MPD2    H7 3927   3.268   0.632   9.859  1.0216  1.3026  1.3791
  256TMC3    C1 3928   3.428   0.678  10.030  0.0264 -0.1081 -0.3284
  256TMC3    C2 3929   3.545   0.724  10.075  0.0947  0.4905  0.1192
  256TMC3    C3 3930   3.544   0.857  10.104  0.3193 -0.1392  0.4989
  256TMC3    C4 3931   3.313   0.751  10.028 -0.0636 -0.0483  0.3449
  256TMC3    C5 3932   3.310   0.869  10.091  0.3851  0.3226 -0.3153
  256TMC3    C6 3933   3.432   0.932  10.106 -0.4219 -0.5594 -0.1248
  256TMC3     C 3934   3.458   0.598   9.913 -0.0092  0.1527  0.3559
  256TMC3     O 3935   3.571   0.556   9.899 -0.3415  0.3297 -0.2441
  256TMC3     H 3936   3.636   0.665  10.081 -2.2442 -3.1694 -0.4223
  256TMC3    H1 3937   3.217   0.704  10.010 -1.0713  1.8410  0.8766
  256TMC3    H2 3938   3.439   1.034  10.144 -0.9294 -0.6124  0.1214
  256TMC3    C7 3939   3.187   0.949  10.083 -0.4454  0.2474 -0.3388
  256TMC3    C8 3940   3.660   0.934  10.063 -0.2456  0.4447 -0.4546
  256TMC3    O1 3941   3.084   0.915  10.023  1.1547  0.3374 -0.0661
  256TMC3    O2 3942   3.762   0.864  10.046  0.2677 -0.1715 -0.2429
  257MPD2     C 3943   2.216   2.428  13.326 -0.1878  0.1545 -0.3110
  257MPD2    C1 3944   2.293   2.404  13.220  0.3102 -0.7327  0.3779
  257MPD2    C2 3945   2.345   2.281  13.195  0.7603 -0.0677  0.4552
  257MPD2    C3 3946   2.310   2.172  13.275  0.5421  0.3824 -0.6774
  257MPD2    C4 3947   2.230   2.195  13.379 -0.6877 -0.6234 -0.3106
  257MPD2    C5 3948   2.184   2.320  13.404 -0.1678  0.0528  0.0965
  257MPD2     H 3949   2.409   2.266  13.109 -1.1563 -1.1534 -0.7691
  257MPD2    H1 3950   2.201   2.113  13.443 -0.0686  0.3136  1.1833
  257MPD2    H2 3951   2.182   2.527  13.355 -3.7175 -0.4739 -2.2916
  257MPD2    H3 3952   2.113   2.333  13.484  1.1665  0.6720  1.1911
  257MPD2     N 3953   2.357   2.045  13.239  0.3285  0.3212 -0.3827
  257MPD2    H5 3954   2.447   2.050  13.193  0.6993 -0.1776  0.2962
  257MPD2    N1 3955   2.332   2.521  13.152  0.3183 -0.2173 -0.5433
  257MPD2    H7 3956   2.284   2.607  13.177 -0.7759 -0.3175 -2.2932
  258TMC3    C1 3957   2.377   1.804  13.228  0.1025 -0.2504  0.2427
  258TMC3    C2 3958   2.491   1.821  13.148 -0.2343  0.3432 -0.2942
  258TMC3    C3 3959   2.586   1.720  13.169  0.2078  0.8257  0.6482
  258TMC3    C4 3960   2.352   1.694  13.308  0.1497 -0.0975 -0.1517
  258TMC3    C5 3961   2.449   1.595  13.308  0.5844 -0.4142  0.2159
  258TMC3    C6 3962   2.569   1.604  13.243  0.1176 -0.2325 -0.0647
  258TMC3     C 3963   2.298   1.920  13.268  0.3972 -0.2846  0.2158
  258TMC3     O 3964   2.185   1.895  13.307  0.1162  0.7684  0.0817
  258TMC3     H 3965   2.511   1.911  13.091 -1.4612 -0.0434 -1.3313
  258TMC3    H1 3966   2.276   1.689  13.385 -0.4687 -1.7657 -0.8666
  258TMC3    H2 3967   2.635   1.519  13.232 -0.2458 -0.5888  0.5269
  258TMC3    C7 3968   2.450   1.503  13.419 -0.2216  0.0216  0.1684
  258TMC3    C8 3969   2.701   1.716  13.077 -0.1695 -0.1696 -0.0128
  258TMC3    O1 3970   2.338   1.476  13.453 -0.1442  0.1077  0.0165
  258TMC3    O2 3971   2.699   1.792  12.981  0.5129 -0.1693 -0.3534
  259MPD2     C 3972   1.540   3.368   0.132 -0.1067 -0.5083 -0.2314
  259MPD2    C1 3973   1.631   3.353   0.231 -0.0142 -0.0825 -0.2993
  259MPD2    C2 3974   1.768   3.368   0.198  0.5686  0.4392 -0.5985
  259MPD2    C3 3975   1.807   3.385   0.066 -0.1534  0.0332  0.1506
  259MPD2    C4 3976   1.710   3.403  17.731 -0.0506 -0.3042  0.1896
  259MPD2    C5 3977   1.578   3.400   0.006  0.4424  0.2132  0.3618
  259MPD2     H 3978   1.850   3.351   0.267  1.5439  0.4034 -1.7658
  259MPD2    H1 3979   1.733   3.422  17.627 -2.9805 -0.9599 -0.5656
  259MPD2    H2 3980   1.434   3.358   0.156  0.4718  0.1381  2.5469
  259MPD2    H3 3981   1.498   3.428  17.700  0.7052  1.2404  0.4735
  259MPD2     N 3982   1.948   3.398   0.045  0.1059  0.1321 -0.0528
  259MPD2    H5 3983   2.022   3.373   0.109 -1.1196 -1.1884  0.8653
  259MPD2    N1 3984   1.587   3.318   0.360  0.6608 -0.2369  0.8714
  259MPD2    H7 3985   1.486   3.309   0.372  0.5374  0.8314  0.6204
  260TMC3    C1 3986   2.142   3.381  17.692 -0.5428 -0.4209 -0.1401
  260TMC3    C2 3987   2.209   3.373  17.572 -0.2246 -0.2354 -0.2685
  260TMC3    C3 3988   2.306   3.276  17.559 -0.2029 -0.3989 -0.0305
  260TMC3    C4 3989   2.178   3.310   0.036 -0.0135 -0.0056  0.5351
  260TMC3    C5 3990   2.273   3.208   0.024 -0.4373  0.1229 -0.3364
  260TMC3    C6 3991   2.342   3.194  17.666  0.7532  0.0781  0.0331
  260TMC3     C 3992   2.001   3.407  17.678  0.1759  0.4191 -0.8705
  260TMC3     O 3993   1.959   3.435  17.566  0.8425  0.0536 -0.0520
  260TMC3     H 3994   2.178   3.439  17.491 -0.9994  1.0847  1.0886
  260TMC3    H1 3995   2.156   3.338   0.138  0.2389  1.8283  0.0954
  260TMC3    H2 3996   2.420   3.119  17.654  2.2133  1.3550  1.6186
  260TMC3    C7 3997   2.340   3.154   0.144 -0.3431  0.1382 -0.4391
  260TMC3    C8 3998   2.338   3.231  17.424 -0.6114 -0.4262 -0.5319
  260TMC3    O1 3999   2.454   3.184   0.162  0.5715  0.3585 -0.9145
  260TMC3    O2 4000   2.363   3.316  17.341 -0.1390  0.2951  0.2805
  261MPD2     C 4001   2.960   2.653  12.123  0.1906 -0.4696  0.3774
  261MPD2    C1 4002   3.074   2.581  12.084  0.1002 -0.3852 -0.2690
  261MPD2    C2 4003   3.100   2.579  11.953  0.1161 -0.7246  0.3927
  261MPD2    C3 4004   3.016   2.626  11.851 -0.7052  0.5627  0.6420
  261MPD2    C4 4005   2.895   2.678  11.893 -0.1248 -0.4580 -0.1179
  261MPD2    C5 4006   2.870   2.702  12.024  0.1925 -0.0649  0.2395
  261MPD2     H 4007   3.194   2.536  11.920  0.2309  0.6901 -1.1595
  261MPD2    H1 4008   2.826   2.702  11.813 -0.1765 -2.9375 -0.8285
  261MPD2    H2 4009   2.932   2.669  12.226  0.5057  0.2761  0.3446
  261MPD2    H3 4010   2.779   2.750  12.057 -0.2635 -0.7664 -0.0001
  261MPD2     N 4011   3.058   2.605  11.716  0.1428  0.0074 -0.7925
  261MPD2    H5 4012   3.149   2.565  11.695  0.7792  0.8102  0.3970
  261MPD2    N1 4013   3.163   2.515  12.172 -0.0740  0.4036 -0.1197
  261MPD2    H7 4014   3.244   2.468  12.134 -0.9961 -0.6312 -0.7990
  262TMC3    C1 4015   3.073   2.674  11.489  0.0326  0.0814  0.6852
  262TMC3    C2 4016   3.015   2.690  11.366  0.3442 -0.1285 -0.2032
  262TMC3    C3 4017   3.099   2.719  11.262 -0.4605 -0.3184  0.3682
  262TMC3    C4 4018   3.202   2.705  11.519  0.3805 -0.0469  0.1681
  262TMC3    C5 4019   3.274   2.748  11.415  0.0634 -0.5685  0.1391
  262TMC3    C6 4020   3.225   2.762  11.289  0.6963 -0.1778 -0.1499
  262TMC3     C 4021   2.990   2.646  11.603  0.9363 -0.5281  0.1990
  262TMC3     O 4022   2.872   2.678  11.591 -0.3935  0.5031 -0.5452
  262TMC3     H 4023   2.920   2.644  11.340 -0.9516  1.3303  2.0252
  262TMC3    H1 4024   3.239   2.692  11.620  1.9988 -2.3008 -0.7217
  262TMC3    H2 4025   3.296   2.792  11.213  0.7608  1.5823  0.6058
  262TMC3    C7 4026   3.397   2.814  11.451  1.1396  0.8864  0.5953
  262TMC3    C8 4027   3.046   2.759  11.139  0.2227  0.0075  1.1382
  262TMC3    O1 4028   3.460   2.772  11.551  0.1438  0.2395  0.2723
  262TMC3    O2 4029   2.990   2.679  11.063 -0.5786  0.6299  0.5404
  263MPD2     C 4030   4.009   1.400  11.166 -0.1618 -0.4665  0.1473
  263MPD2    C1 4031   4.043   1.529  11.212  0.2042  0.6926  0.2680
  263MPD2    C2 4032   4.009   1.642  11.134 -0.3490  0.5897  0.2773
  263MPD2    C3 4033   3.927   1.632  11.024 -0.3608 -0.0587  0.2606
  263MPD2    C4 4034   3.878   1.508  10.992 -0.2609  0.2958 -0.1214
  263MPD2    C5 4035   3.912   1.395  11.064 -0.3441  0.3494 -0.7770
  263MPD2     H 4036   4.033   1.739  11.177 -0.9831  1.0310 -0.3765
  263MPD2    H1 4037   3.818   1.489  10.904 -0.1254  1.8115 -0.5306
  263MPD2    H2 4038   4.045   1.312  11.219  1.5239 -0.0609 -0.3281
  263MPD2    H3 4039   3.864   1.304  11.030  0.5671  0.3530 -2.0772
  263MPD2     N 4040   3.903   1.747  10.944  0.1889 -0.2385 -0.1407
  263MPD2    H5 4041   3.950   1.832  10.974 -0.6558  0.2590 -0.1940
  263MPD2    N1 4042   4.124   1.531  11.321 -0.0230 -0.7416  0.3843
  263MPD2    H7 4043   4.170   1.449  11.360  1.1123  1.4187  3.5984
  264TMC3    C1 4044   3.807   1.872  10.752 -0.2981  0.2839 -0.1686
  264TMC3    C2 4045   3.795   1.989  10.826  0.6185 -0.5008  0.2918
  264TMC3    C3 4046   3.792   2.110  10.759  0.4130  0.2141 -0.5689
  264TMC3    C4 4047   3.845   1.878  10.622 -0.4183 -0.5894  0.0109
  264TMC3    C5 4048   3.856   1.999  10.563 -0.5494  0.1555  0.7373
  264TMC3    C6 4049   3.817   2.116  10.622 -0.3940 -0.1425 -0.7967
  264TMC3     C 4050   3.828   1.742  10.821 -0.1464  0.1061 -0.8090
  264TMC3     O 4051   3.764   1.651  10.776 -0.5729 -0.4358  0.3782
  264TMC3     H 4052   3.788   1.975  10.933 -0.7974 -0.4717  0.2071
  264TMC3    H1 4053   3.869   1.781  10.579 -1.4291 -1.7682  2.1278
  264TMC3    H2 4054   3.833   2.213  10.576 -0.7420  0.0588 -0.5015
  264TMC3    C7 4055   3.983   2.009  10.487  0.3962  0.3474  0.3056
  264TMC3    C8 4056   3.838   2.223  10.839 -0.2630 -1.1458 -1.1344
  264TMC3    O1 4057   4.047   1.903  10.481  0.0854  0.7293 -0.4261
  264TMC3    O2 4058   3.903   2.306  10.779  0.0260 -0.2982  0.8053
  265MPD2     C 4059   1.138   1.602  15.383  0.2373  0.3057 -0.6454
  265MPD2    C1 4060   1.226   1.699  15.340  0.2991  0.0105  0.8168
  265MPD2    C2 4061   1.321   1.661  15.248  0.7089  0.2347 -0.2538
  265MPD2    C3 4062   1.322   1.536  15.188  1.0771  0.4458 -0.3635
  265MPD2    C4 4063   1.233   1.444  15.237  0.2995  0.0217  0.0456
  265MPD2    C5 4064   1.136   1.476  15.326 -0.2165  0.0596 -0.9506
  265MPD2     H 4065   1.385   1.736  15.203  3.6049 -0.7218  2.2527
  265MPD2    H1 4066   1.226   1.348  15.186  1.4248  0.4315 -0.8693
  265MPD2    H2 4067   1.069   1.628  15.462 -1.2058 -2.2044 -1.1058
  265MPD2    H3 4068   1.072   1.397  15.365  0.8754 -0.9992 -1.2970
  265MPD2     N 4069   1.417   1.493  15.093 -0.2189  0.7238  0.0290
  265MPD2    H5 4070   1.412   1.397  15.062 -0.8687  0.7696 -0.0121
  265MPD2    N1 4071   1.226   1.824  15.383  0.1329  1.1382 -0.6370
  265MPD2    H7 4072   1.282   1.889  15.327  0.9544  0.6178 -0.4247
  266TMC3    C1 4073   1.188   2.016  15.511 -0.2228  0.1948 -0.2938
  266TMC3    C2 4074   1.195   2.070  15.635  0.4490 -0.9599 -0.9927
  266TMC3    C3 4075   1.223   2.205  15.640 -0.0187 -0.4507 -0.1864
  266TMC3    C4 4076   1.197   2.083  15.396  1.2668  0.5318 -0.3887
  266TMC3    C5 4077   1.225   2.217  15.409 -0.2066 -0.1540  0.1828
  266TMC3    C6 4078   1.247   2.278  15.528 -0.6980  0.3208  0.5282
  266TMC3     C 4079   1.169   1.874  15.498  0.2194 -0.1175 -0.0703
  266TMC3     O 4080   1.103   1.807  15.582 -0.3991 -0.0439  0.2321
  266TMC3     H 4081   1.189   2.010  15.725  1.4457  0.4459  0.0141
  266TMC3    H1 4082   1.166   2.049  15.298 -0.9016  0.9225  0.1662
  266TMC3    H2 4083   1.264   2.385  15.536  0.1826  0.1637  0.7229
  266TMC3    C7 4084   1.225   2.294  15.285 -0.4495  0.0471  0.7587
  266TMC3    C8 4085   1.233   2.269  15.765 -0.2478  0.5680 -0.0300
  266TMC3    O1 4086   1.194   2.232  15.183  0.0678  0.4128  0.0295
  266TMC3    O2 4087   1.163   2.224  15.856  0.3701  0.6253  0.5201
  267MPD2     C 4088   4.016   0.394  17.495  0.1849  0.7647 -0.0820
  267MPD2    C1 4089   3.999   0.258  17.503  0.8339 -0.2404  0.5444
  267MPD2    C2 4090   3.896   0.197  17.436 -0.2915  0.0529  0.3377
  267MPD2    C3 4091   3.831   0.263  17.334 -0.0702 -0.4812 -0.2023
  267MPD2    C4 4092   3.846   0.407  17.329  0.9949  0.1308 -0.0177
  267MPD2    C5 4093   3.939   0.467  17.405 -0.1273 -0.0243  0.1031
  267MPD2     H 4094   3.878   0.091  17.451 -1.5793  0.6839  3.2295
  267MPD2    H1 4095   3.787   0.468  17.262  1.2727  0.2136 -0.1881
  267MPD2    H2 4096   4.087   0.443  17.560 -0.7320  0.6854  0.9739
  267MPD2    H3 4097   3.948   0.575  17.402  0.6596 -0.0510  1.3973
  267MPD2     N 4098   3.739   0.208  17.244 -0.5390 -0.0787  0.5405
  267MPD2    H5 4099   3.702   0.273  17.175  0.9871  0.2523  0.0319
  267MPD2    N1 4100   4.091   0.185  17.585 -0.0263 -0.7482  0.2313
  267MPD2    H7 4101   4.168   0.244  17.615 -0.3897 -1.9502  3.6012
  268TMC3    C1 4102   4.208   0.016  17.687 -0.1578  0.1963 -0.1158
  268TMC3    C2 4103   4.326   0.072  17.643  0.0904  0.3714 -0.8151
  268TMC3    C3 4104   4.438   4.735  17.637 -0.1047  0.0165 -0.1192
  268TMC3    C4 4105   4.203   4.627  17.729  0.4702  0.1750 -1.0040
  268TMC3    C5 4106   4.310   4.546  17.714 -0.4682  0.4668  0.0845
  268TMC3    C6 4107   4.429   4.603  17.668 -0.1001  0.9084  0.3997
  268TMC3     C 4108   4.090   0.051  17.615 -0.6618 -0.0237  0.4651
  268TMC3     O 4109   4.010   4.702  17.592 -0.0156 -0.0028  0.0531
  268TMC3     H 4110   4.330   0.164  17.587 -2.2704  0.1223 -1.4034
  268TMC3    H1 4111   4.113   4.576  17.761  0.7887 -0.6819 -1.4550
  268TMC3    H2 4112   4.516   4.538  17.661  0.2219  1.3252  0.5493
  268TMC3    C7 4113   4.302   4.406  17.759  0.0550  0.0366  0.9113
  268TMC3    C8 4114   4.530   0.044  17.540 -0.7242 -0.6179  0.3446
  268TMC3    O1 4115   4.227   4.382   0.091 -0.6191 -0.3566  0.0863
  268TMC3    O2 4116   4.572   0.158  17.556  0.5285  0.5687  0.0242
  269MPD2     C 4117   4.215   2.574  15.448  0.2656 -0.0736 -0.2539
  269MPD2    C1 4118   4.107   2.622  15.509 -0.0823  0.5858 -0.4534
  269MPD2    C2 4119   4.079   2.752  15.498 -0.1066 -0.2171  0.6420
  269MPD2    C3 4120   4.164   2.845  15.452  0.0481  0.3826  0.2614
  269MPD2    C4 4121   4.285   2.806  15.393  0.1032 -0.5120  0.3674
  269MPD2    C5 4122   4.306   2.670  15.389 -0.1468 -0.5775 -0.5319
  269MPD2     H 4123   3.987   2.788  15.543  0.1843 -1.4563  2.2122
  269MPD2    H1 4124   4.368   2.866  15.357  0.2242 -0.8581  0.0672
  269MPD2    H2 4125   4.242   2.469  15.445 -0.8870 -0.3859  0.5166
  269MPD2    H3 4126   4.397   2.627  15.350  0.4871  1.6074 -1.4354
  269MPD2     N 4127   4.122   2.979  15.452  0.5281  0.1698  0.2527
  269MPD2    H5 4128   4.028   2.992  15.490 -0.1852  1.5383 -2.0105
  269MPD2    N1 4129   4.009   2.537  15.574  0.3947 -0.0184  0.6748
  269MPD2    H7 4130   4.045   2.443  15.584  1.7463  0.4634  0.2562
  270TMC3    C1 4131   3.797   2.460  15.657 -0.3900 -0.0176 -0.0326
  270TMC3    C2 4132   3.661   2.458  15.635  0.5536 -0.2410 -0.1319
  270TMC3    C3 4133   3.594   2.336  15.638 -0.1413  0.5515 -0.4054
  270TMC3    C4 4134   3.852   2.348  15.705 -0.2643 -0.3949  0.1325
  270TMC3    C5 4135   3.785   2.230  15.714  0.2960 -0.0626  0.4958
  270TMC3    C6 4136   3.656   2.223  15.673  0.3179  0.3975 -0.1959
  270TMC3     C 4137   3.879   2.579  15.612  0.2728 -0.0184 -0.5006
  270TMC3     O 4138   3.812   2.676  15.580  0.1228 -0.2835 -0.1693
  270TMC3     H 4139   3.618   2.546  15.588  0.5280  0.2785  0.8668
  270TMC3    H1 4140   3.959   2.351  15.722 -0.0258 -0.4510 -1.3394
  270TMC3    H2 4141   3.607   2.126  15.668  0.6746  0.1222  1.4349
  270TMC3    C7 4142   3.860   2.118  15.679  0.0906 -0.6569 -0.5300
  270TMC3    C8 4143   3.499   2.321  15.528  0.3681  0.0055  0.0800
  270TMC3    O1 4144   3.973   2.112  15.727  0.7956 -0.3431  0.0266
  270TMC3    O2 4145   3.382   2.356  15.551 -0.0778  0.2688 -0.2274
  271MPD2     C 4146   3.311   2.468  13.648  0.1863  0.1941 -0.2065
  271MPD2    C1 4147   3.240   2.421  13.754  0.5712  0.2169  0.1970
  271MPD2    C2 4148   3.102   2.438  13.755  0.4216  0.4444 -0.1719
  271MPD2    C3 4149   3.048   2.521  13.658 -0.0379  0.6595  0.1665
  271MPD2    C4 4150   3.130   2.589  13.565 -0.1963 -0.0361 -0.1158
  271MPD2    C5 4151   3.262   2.564  13.566  0.7312 -0.6071  0.4661
  271MPD2     H 4152   3.037   2.401  13.833  2.5273  0.5526  1.6349
  271MPD2    H1 4153   3.088   2.661  13.496  0.9232  1.4894  0.8059
  271MPD2    H2 4154   3.408   2.428  13.623  0.7148  1.8205 -0.7782
  271MPD2    H3 4155   3.320   2.606  13.485 -1.0275 -1.5729 -1.2846
  271MPD2     N 4156   2.916   2.559  13.663 -1.2216  0.1320  0.3760
  271MPD2    H5 4157   2.866   2.620  13.601 -1.2189  0.3905  0.6291
  271MPD2    N1 4158   3.287   2.340  13.857 -0.4153  0.1873 -0.3807
  271MPD2    H7 4159   3.213   2.314  13.922  0.6521 -0.1785  0.6991
  272TMC3    C1 4160   3.433   2.233  14.011  0.0941 -0.1989  0.3032
  272TMC3    C2 4161   3.539   2.153  14.023  0.1235 -0.3837 -0.1980
  272TMC3    C3 4162   3.569   2.094  14.144 -0.1874 -0.3457 -0.3469
  272TMC3    C4 4163   3.353   2.262  14.123 -0.2136 -0.1406  0.2360
  272TMC3    C5 4164   3.388   2.214  14.249 -0.0643 -0.8099 -0.3361
  272TMC3    C6 4165   3.505   2.133  14.259  0.3405  0.1674  0.1462
  272TMC3     C 4166   3.414   2.300  13.876  0.1703 -0.2773 -0.3712
  272TMC3     O 4167   3.510   2.338  13.808 -0.1531  0.0307 -0.2107
  272TMC3     H 4168   3.592   2.113  13.937  0.1716 -1.4998  0.3540
  272TMC3    H1 4169   3.260   2.318  14.114  1.1883  2.0485 -0.4905
  272TMC3    H2 4170   3.531   2.089  14.354  1.0000 -0.8514 -0.5022
  272TMC3    C7 4171   3.310   2.239  14.367 -0.2721 -0.1081 -0.9207
  272TMC3    C8 4172   3.710   2.064  14.151  0.4066  1.1288 -0.4616
  272TMC3    O1 4173   3.186   2.240  14.362 -0.2528 -0.2460  0.2588
  272TMC3    O2 4174   3.783   2.095  14.059 -0.3790  0.2912 -0.0526
  273MPD2     C 4175   4.176   0.434  11.261  0.3509 -0.5080 -1.0259
  273MPD2    C1 4176   4.311   0.413  11.281  0.1181 -0.1005 -0.0544
  273MPD2    C2 4177   4.399   0.448  11.184 -0.5845  0.4818 -1.0114
  273MPD2    C3 4178   4.363   0.540  11.082  0.2923  0.4540  0.6233
  273MPD2    C4 4179   4.226   0.557  11.068 -0.1689  0.0796  0.1841
  273MPD2    C5 4180   4.132   0.506  11.156 -0.4251 -0.1151 -0.2114
  273MPD2     H 4181   4.505   0.425  11.193 -0.9787 -0.0516  2.2344
  273MPD2    H1 4182   4.180   0.608  10.985 -0.0969 -0.8435 -0.4215
  273MPD2    H2 4183   4.106   0.386  11.329 -0.9056  1.4733 -0.9211
  273MPD2    H3 4184   4.029   0.497  11.122 -0.0069 -2.0397 -0.9556
  273MPD2     N 4185   4.451   0.618  11.006 -0.2652  0.1470 -0.5847
  273MPD2    H5 4186   4.407   0.675  10.933 -1.1139 -0.5449 -0.6153
  273MPD2    N1 4187   4.354   0.367  11.414  0.4696  0.0943 -0.1667
  273MPD2    H7 4188   4.277   0.348  11.476 -0.5868 -1.4755 -1.9747
  274TMC3    C1 4189   4.665   0.703  10.922 -0.8301 -1.0707 -1.1220
  274TMC3    C2 4190   4.593   0.731  10.810 -0.2328 -0.5629  0.3182
  274TMC3    C3 4191   4.610   0.855  10.765  1.0576 -0.5778  0.7343
  274TMC3    C4 4192   0.004   0.790  10.989 -0.5792 -0.1343  0.4931
  274TMC3    C5 4193   0.002   0.921  10.945  0.1986 -0.6687  0.2097
  274TMC3    C6 4194   4.685   0.950  10.826 -0.6529 -0.1336 -0.1946
  274TMC3     C 4195   4.592   0.617  11.012 -0.0659  0.0468 -0.1616
  274TMC3     O 4196   4.660   0.578  11.107  0.3796  0.2106  0.6803
  274TMC3     H 4197   4.540   0.655  10.754  0.0134  0.9031 -1.8971
  274TMC3    H1 4198   0.029   0.762  11.091  1.9069  0.0524 -0.0531
  274TMC3    H2 4199   4.658   1.051  10.801 -0.7596 -0.6458 -2.1082
  274TMC3    C7 4200   4.717   1.008  11.059 -0.4372 -0.0780  0.1668
  274TMC3    C8 4201   4.559   0.894  10.638 -0.1035 -0.2244  0.5294
  274TMC3    O1 4202   4.610   1.068  11.064 -0.1597  0.9342  0.2278
  274TMC3    O2 4203   4.629   0.980  10.584 -0.4004  0.1946 -0.2388
  275MPD2     C 4204   0.049   3.496  14.288  0.2241 -0.2108  1.1191
  275MPD2    C1 4205   0.031   3.385  14.370  0.3154  0.3782  0.1699
  275MPD2    C2 4206   4.664   3.309  14.341  0.8546 -0.4510 -0.6236
  275MPD2    C3 4207   4.573   3.336  14.239 -0.8004 -0.1914 -0.2300
  275MPD2    C4 4208   4.598   3.447  14.158 -0.2712 -0.3721  0.6262
  275MPD2    C5 4209   4.713   3.517  14.175  0.0311 -0.1561 -0.0045
  275MPD2     H 4210   4.640   3.234  14.416 -1.1325  0.3703 -0.4235
  275MPD2    H1 4211   4.531   3.479  14.079  0.4402 -0.1991  0.0886
  275MPD2    H2 4212   0.122   3.575  14.298 -1.2434  1.3476 -0.4690
  275MPD2    H3 4213   4.735   3.615  14.134  2.3520 -0.4221  0.6497
  275MPD2     N 4214   4.449   3.266  14.222  0.0443  0.0909  0.1929
  275MPD2    H5 4215   4.383   3.296  14.152 -1.1891  1.1931  1.8567
  275MPD2    N1 4216   0.109   3.364  14.488 -0.3289 -0.4165  0.4979
  275MPD2    H7 4217   0.084   3.287  14.549  1.4883 -0.9362  0.5854
  276TMC3    C1 4218   0.238   3.417  14.679  0.3073 -0.2273  0.2039
  276TMC3    C2 4219   0.165   3.324  14.750  0.5918  0.2348  0.6674
  276TMC3    C3 4220   0.139   3.343  14.881 -0.1730  0.2318 -0.6732
  276TMC3    C4 4221   0.295   3.515  14.755 -0.5317  0.6083 -0.6279
  276TMC3    C5 4222   0.260   3.527  14.887  0.0364  0.2963 -0.0510
  276TMC3    C6 4223   0.173   3.445  14.953 -0.2834  0.5345 -0.4748
  276TMC3     C 4224   0.192   3.457  14.552  0.8770  0.6293 -0.5425
  276TMC3     O 4225   0.221   3.574  14.526  0.6884 -0.1357  0.0010
  276TMC3     H 4226   0.146   3.231  14.696  0.3018  0.0219  1.1346
  276TMC3    H1 4227   0.369   3.574  14.701  0.8485 -0.3985  0.1961
  276TMC3    H2 4228   0.148   3.466  15.056 -0.2283 -0.1649 -0.3217
  276TMC3    C7 4229   0.319   3.634  14.972  0.1736 -0.3378 -0.4234
  276TMC3    C8 4230   0.050   3.250  14.946  0.0466 -0.0796  0.2853
  276TMC3    O1 4231   0.302   3.620  15.089 -0.3008 -0.0070 -0.0128
  276TMC3    O2 4232   4.729   3.302  15.036 -0.3009 -0.0370  0.1407
  277MPD2     C 4233   1.411   2.507  13.375  0.5804 -0.3735  0.5782
  277MPD2    C1 4234   1.291   2.537  13.431  0.1598  0.3340 -0.4254
  277MPD2    C2 4235   1.244   2.447  13.528 -0.2668  0.0414  0.3012
  277MPD2    C3 4236   1.311   2.344  13.574 -0.6601 -0.0963  0.4165
  277MPD2    C4 4237   1.428   2.309  13.513  0.7255 -0.1705 -0.3442
  277MPD2    C5 4238   1.486   2.394  13.415 -0.2956  0.0236  0.1546
  277MPD2     H 4239   1.154   2.481  13.577  0.4686  1.2005  0.8592
  277MPD2    H1 4240   1.495   2.228  13.538 -0.3334 -0.9399  0.0035
  277MPD2    H2 4241   1.450   2.579  13.305  1.4879  0.1213  1.5956
  277MPD2    H3 4242   1.585   2.378  13.376 -1.0957  0.3099 -1.9853
  277MPD2     N 4243   1.256   2.273  13.686  0.3624  0.1403 -0.2890
  277MPD2    H5 4244   1.166   2.308  13.719  1.3351  1.3116  1.1139
  277MPD2    N1 4245   1.226   2.660  13.395 -0.0505 -0.4021  0.1452
  277MPD2    H7 4246   1.270   2.720  13.325  0.6776  0.9619  1.7604
  278TMC3    C1 4247   1.227   2.113  13.852 -0.1531  0.2444  0.4903
  278TMC3    C2 4248   1.291   2.015  13.924 -0.2574  0.0413  0.0937
  278TMC3    C3 4249   1.205   1.942  14.003 -0.8612 -0.7004  0.7790
  278TMC3    C4 4250   1.093   2.140  13.855 -0.1562  0.7857 -0.4699
  278TMC3    C5 4251   1.015   2.059  13.939  0.2422  0.9232 -0.3597
  278TMC3    C6 4252   1.069   1.956  14.008 -0.3352 -0.0883 -0.2636
  278TMC3     C 4253   1.315   2.163  13.749 -0.1151 -0.1143 -0.3382
  278TMC3     O 4254   1.416   2.098  13.717  0.4520  0.0444  0.4778
  278TMC3     H 4255   1.394   1.984  13.913 -0.0205  1.1799 -0.9050
  278TMC3    H1 4256   1.043   2.220  13.801 -0.5934  0.2571 -0.8475
  278TMC3    H2 4257   1.005   1.892  14.067  0.1128 -0.7040 -0.4416
  278TMC3    C7 4258   0.878   2.084  13.938 -0.4919 -0.3453  0.5874
  278TMC3    C8 4259   1.262   1.831  14.077  0.7895  0.7821  0.5973
  278TMC3    O1 4260   0.838   2.201  13.932  0.2627 -0.2784  0.5245
  278TMC3    O2 4261   1.376   1.835  14.120 -0.7906  0.4070  0.2788
  279MPD2     C 4262   1.010   2.023   0.242  0.2846  0.1724  1.0196
  279MPD2    C1 4263   0.903   2.056   0.155  0.8792  0.4091  0.1175
  279MPD2    C2 4264   0.919   2.035   0.022  0.8988 -0.3828  0.9511
  279MPD2    C3 4265   1.039   1.982  17.726  0.3997 -0.3334 -0.0682
  279MPD2    C4 4266   1.151   1.969   0.047  0.1075  0.0070 -1.1736
  279MPD2    C5 4267   1.131   1.990   0.183 -0.5985  0.1393  0.1221
  279MPD2     H 4268   0.827   2.050  17.728  1.9493  2.2839 -0.0441
  279MPD2    H1 4269   1.248   1.950   0.002  0.2311 -0.6479 -0.6209
  279MPD2    H2 4270   1.008   2.035   0.350  0.4726  0.3749  1.0027
  279MPD2    H3 4271   1.214   1.969   0.248 -0.1699 -1.0939 -0.8189
  279MPD2     N 4272   1.047   1.977  17.593  0.2684  0.1980 -0.0358
  279MPD2    H5 4273   1.137   1.965  17.547 -0.6173 -0.5238 -1.5869
  279MPD2    N1 4274   0.781   2.099   0.201  0.5490 -0.0916 -0.0830
  279MPD2    H7 4275   0.708   2.115   0.132 -0.9676 -0.5114  1.4141
  280TMC3    C1 4276   0.594   2.154   0.329 -0.6781  0.0970  0.8241
  280TMC3    C2 4277   0.512   2.071   0.264 -0.3152  0.1732  0.2531
  280TMC3    C3 4278   0.381   2.116   0.259 -0.2815  0.0979  0.1385
  280TMC3    C4 4279   0.571   2.279   0.382  0.0851 -0.1378 -0.2224
  280TMC3    C5 4280   0.444   2.326   0.361  0.3927  0.2586 -0.5665
  280TMC3    C6 4281   0.349   2.249   0.293 -0.5583 -0.1331  0.0378
  280TMC3     C 4282   0.735   2.122   0.330 -0.3469 -0.0622  0.2524
  280TMC3     O 4283   0.796   2.121   0.437  0.2149 -0.0309  0.6641
  280TMC3     H 4284   0.548   1.972   0.237  2.9319  1.7282 -1.0162
  280TMC3    H1 4285   0.652   2.336   0.424 -0.4290 -0.6616  1.4700
  280TMC3    H2 4286   0.248   2.287   0.285 -0.7027 -0.2621  1.1376
  280TMC3    C7 4287   0.423   2.470   0.385  0.0193 -0.2165  0.5092
  280TMC3    C8 4288   0.275   2.021   0.228 -0.5078 -0.2146 -1.1384
  280TMC3    O1 4289   0.510   2.529   0.447 -0.0567 -0.7663 -0.0216
  280TMC3    O2 4290   0.181   2.019   0.306  0.4992 -0.1591  0.1587
  281TMC3    C1 4291   4.253   2.907  13.513  0.0682 -0.5144 -0.5309
  281TMC3    C2 4292   4.341   2.998  13.560  0.3079  0.3011  0.8438
  281TMC3    C3 4293   4.468   2.990  13.505 -0.3827 -0.4306  0.0036
  281TMC3    C4 4294   4.292   2.802  13.439  0.6423  0.1359 -0.2838
  281TMC3    C5 4295   4.422   2.786  13.401  0.2472  0.4990 -0.1937
  281TMC3    C6 4296   4.515   2.882  13.425 -0.4081  1.0338 -0.4569
  281TMC3     C 4297   4.112   2.951  13.511 -0.2576 -0.0140 -0.6512
  281TMC3     O 4298   4.022   2.878  13.478  0.5239 -0.2850  0.0397
  281TMC3     H 4299   4.322   3.078  13.630  1.1938  1.0519  0.2104
  281TMC3    H1 4300   4.207   2.747  13.398 -0.9510  2.3420  0.0664
  281TMC3    H2 4301   4.618   2.871  13.395 -1.0206 -1.7454 -1.6085
  281TMC3    C7 4302   4.457   2.666  13.320 -0.3375  0.2451  0.3151
  281TMC3    C8 4303   4.569   3.088  13.537  0.0908  0.2120 -0.0681
  281TMC3    O1 4304   4.571   2.659  13.276 -0.1296  0.1484  0.0005
  281TMC3    O2 4305   4.667   3.034  13.588 -0.4401 -0.4268 -0.0315
  282MPD2     C 4306   1.237   3.433  14.695 -0.3802 -0.5573 -0.0806
  282MPD2    C1 4307   1.285   3.551  14.748 -0.5856 -0.2658 -0.6472
  282MPD2    C2 4308   1.336   3.653  14.670  0.0219 -1.1695 -0.0297
  282MPD2    C3 4309   1.340   3.637  14.529  0.0352 -0.3939 -0.2864
  282MPD2    C4 4310   1.278   3.530  14.478  0.9232 -0.1395  0.4043
  282MPD2    C5 4311   1.234   3.421  14.557  1.0331  0.0406  0.5978
  282MPD2     H 4312   1.388   3.740  14.707 -0.2038 -1.3311  0.6517
  282MPD2    H1 4313   1.283   3.528  14.370 -0.4015  3.8640  0.2697
  282MPD2    H2 4314   1.189   3.357  14.755 -1.4392  0.7098  0.6690
  282MPD2    H3 4315   1.183   3.334  14.516 -1.8046  0.1361  3.9228
  282MPD2     N 4316   1.380   3.749  14.454  0.2723  0.4351  0.5325
  282MPD2    H5 4317   1.447   3.811  14.499 -1.4804  2.4864  0.2915
  282MPD2    N1 4318   1.273   3.581  14.890  0.6511 -0.4420 -0.0127
  282MPD2    H7 4319   1.298   3.679  14.899  1.7220 -0.8284  1.2487
  283TMC3    C1 4320   1.162   3.597  15.093  0.0642  0.0452  0.4704
  283TMC3    C2 4321   1.232   3.715  15.123  0.2685  0.0255 -0.2165
  283TMC3    C3 4322   1.210   3.770  15.250 -0.1205  0.2941 -0.1263
  283TMC3    C4 4323   1.064   3.560  15.176 -0.1467  0.0588  0.2790
  283TMC3    C5 4324   1.036   3.631  15.290 -0.5047  0.3326  0.0055
  283TMC3    C6 4325   1.114   3.732  15.339  0.0799 -0.0347  0.3839
  283TMC3     C 4326   1.203   3.506  14.987 -0.0240  0.9299 -0.0744
  283TMC3     O 4327   1.137   3.403  14.968 -0.3411  0.5283 -0.1647
  283TMC3     H 4328   1.321   3.744  15.068  0.7002 -2.1297 -0.6500
  283TMC3    H1 4329   1.006   3.475  15.141 -0.6644 -0.6424  2.7764
  283TMC3    H2 4330   1.098   3.777  15.437  0.8529  2.6935 -0.7548
  283TMC3    C7 4331   0.918   3.604  15.364 -0.3329  0.2603  0.1306
  283TMC3    C8 4332   1.279   3.893  15.275 -0.0110 -0.6101 -0.4066
  283TMC3    O1 4333   0.920   3.647  15.478  0.1249  0.5470  0.2843
  283TMC3    O2 4334   1.297   3.912  15.393 -0.1254 -0.1288 -0.3643
  284MPD2     C 4335   4.044   3.640  11.798  0.1328 -0.9426 -0.3044
  284MPD2    C1 4336   4.175   3.658  11.766 -0.3378  0.0388 -0.8988
  284MPD2    C2 4337   4.272   3.623  11.856 -0.5959  0.1603 -0.1393
  284MPD2    C3 4338   4.241   3.587  11.984  0.2532  0.5077 -0.6821
  284MPD2    C4 4339   4.115   3.559  12.019  0.1370  0.2751  0.8920
  284MPD2    C5 4340   4.016   3.590  11.929 -0.1776 -0.2835 -0.2875
  284MPD2     H 4341   4.370   3.631  11.811 -1.9440  1.1190 -2.8871
  284MPD2    H1 4342   4.085   3.540  12.122  2.2371 -1.3971  1.1931
  284MPD2    H2 4343   3.957   3.643  11.734  0.1670  4.3169 -0.0928
  284MPD2    H3 4344   3.917   3.562  11.960 -0.4097  0.7752 -0.0812
  284MPD2     N 4345   4.345   3.555  12.075  0.1949 -0.1540 -0.6928
  284MPD2    H5 4346   4.315   3.506  12.159 -0.3759  0.4938 -0.5173
  284MPD2    N1 4347   4.203   3.693  11.635 -0.3171 -0.5544 -0.4356
  284MPD2    H7 4348   4.299   3.688  11.602 -0.2376 -0.0172 -0.2726
  285TMC3    C1 4349   4.181   3.753  11.419 -0.1511  0.6513 -0.3937
  285TMC3    C2 4350   4.250   3.631  11.391  0.2784 -0.1774  0.3301
  285TMC3    C3 4351   4.348   3.641  11.290 -0.0810  0.0459 -0.1283
  285TMC3    C4 4352   4.217   3.874  11.359 -0.1710  0.4149  0.5032
  285TMC3    C5 4353   4.310   3.873  11.260 -0.1570  0.6070  0.1692
  285TMC3    C6 4354   4.379   3.760  11.223  0.0621  0.6002 -0.6717
  285TMC3     C 4355   4.116   3.752  11.544  0.2145  0.6451  0.3677
  285TMC3     O 4356   4.010   3.808  11.559 -0.2783 -0.4289 -0.0717
  285TMC3     H 4357   4.235   3.538  11.444 -0.5165 -0.5844 -0.6201
  285TMC3    H1 4358   4.178   3.965  11.402  0.7880  1.1172 -0.0914
  285TMC3    H2 4359   4.449   3.770  11.141 -0.7306 -1.8046 -1.6354
  285TMC3    C7 4360   4.348   3.995  11.197  0.0211  0.1705  0.0096
  285TMC3    C8 4361   4.415   3.516  11.260 -0.4321 -0.1767  0.4788
  285TMC3    O1 4362   4.462   4.018  11.174 -0.6628 -0.7997 -0.8320
  285TMC3    O2 4363   4.377   3.414  11.318  0.3481  0.5746  0.1774
  286MPD2     C 4364   4.632   2.050   1.530  0.2739  0.2197 -0.2943
  286MPD2    C1 4365   4.603   2.073   1.398  0.4970 -0.1949  1.0560
  286MPD2    C2 4366   4.635   1.982   1.306 -0.2587 -1.1329  0.0697
  286MPD2    C3 4367   4.692   1.857   1.335 -0.3148  0.5601  0.0524
  286MPD2    C4 4368   4.716   1.831   1.476 -0.0773  0.4651 -0.2967
  286MPD2    C5 4369   4.697   1.935   1.563  0.0606  0.2530  0.3800
  286MPD2     H 4370   4.613   2.004   1.202 -2.5064 -2.9934  0.1593
  286MPD2    H1 4371   0.022   1.742   1.515  0.0425  0.8766  0.4803
  286MPD2    H2 4372   4.609   2.116   1.613  0.1581 -1.6542  1.1834
  286MPD2    H3 4373   4.707   1.909   1.667 -2.8848  0.3941  0.7063
  286MPD2     N 4374   4.730   1.754   1.244 -0.3297  0.2638  0.0357
  286MPD2    H5 4375   0.039   1.674   1.281 -0.9756  0.3820  1.1602
  286MPD2    N1 4376   4.536   2.189   1.346 -0.5082  0.1056 -0.4600
  286MPD2    H7 4377   4.491   2.190   1.255  1.3236  0.6635 -1.3636
  287TMC3    C1 4378   0.022   1.643   1.041 -0.5058  0.7943 -0.0978
  287TMC3    C2 4379   4.718   1.626   0.919  0.1867  0.0752 -1.3337
  287TMC3    C3 4380   0.065   1.567   0.830 -0.1059 -0.0540 -0.5434
  287TMC3    C4 4381   0.137   1.587   1.087  0.0110  0.2173  0.2459
  287TMC3    C5 4382   0.219   1.534   0.994  0.2987 -0.7159  0.1292
  287TMC3    C6 4383   0.182   1.513   0.866 -0.4773 -0.4680 -0.1298
  287TMC3     C 4384   4.688   1.749   1.113  0.4374  0.3326 -0.3374
  287TMC3     O 4385   4.625   1.829   1.047 -0.3140  0.1099 -0.1503
  287TMC3     H 4386   4.627   1.676   0.888  0.8134  0.8729 -1.8874
  287TMC3    H1 4387   0.163   1.600   1.192  0.3402  2.0063 -0.0626
  287TMC3    H2 4388   0.231   1.440   0.802 -0.7324 -0.3712 -0.4393
  287TMC3    C7 4389   0.358   1.508   1.041  0.1699  0.5051 -0.6100
  287TMC3    C8 4390   0.012   1.532   0.696 -0.2865  0.6843  0.4353
  287TMC3    O1 4391   0.371   1.549   1.157 -0.3774  0.2108  0.0622
  287TMC3    O2 4392   4.630   1.518   0.680 -0.1774 -0.0253  0.0152
  288TMC3    C1 4393   2.087   1.373  14.378 -0.3346 -0.4995 -0.2836
  288TMC3    C2 4394   1.954   1.373  14.398  0.5523  0.4849  0.0382
  288TMC3    C3 4395   1.876   1.434  14.308 -0.0766  0.4427 -0.0865
  288TMC3    C4 4396   2.139   1.410  14.256 -0.4403 -0.2514 -1.0664
  288TMC3    C5 4397   2.049   1.462  14.168 -0.4297 -0.5472  0.4129
  288TMC3    C6 4398   1.915   1.477  14.190 -0.3557 -0.0303  0.0200
  288TMC3     C 4399   2.177   1.310  14.476  0.2544 -0.4078  0.3415
  288TMC3     O 4400   2.280   1.265  14.433  0.2336 -0.6310  0.2425
  288TMC3     H 4401   1.917   1.359  14.499 -0.5572  0.3607 -0.3841
  288TMC3    H1 4402   2.245   1.420  14.240 -0.6931  2.1433 -1.1921
  288TMC3    H2 4403   1.843   1.523  14.123 -0.9101  0.7742  1.1754
  288TMC3    C7 4404   2.115   1.541  14.058  0.5913 -0.3075  0.0096
  288TMC3    C8 4405   1.739   1.471  14.354  0.4490 -0.4928  0.0980
  288TMC3    O1 4406   2.240   1.540  14.055  0.5870 -0.6678  0.3110
  288TMC3    O2 4407   1.692   1.574  14.304 -0.0594  0.2756 -0.1515
  289MPD2     C 4408   1.773   0.519  14.413  0.3996  0.7460 -0.6614
  289MPD2    C1 4409   1.753   0.645  14.358 -0.1710 -0.0508 -0.2676
  289MPD2    C2 4410   1.624   0.695  14.349 -0.0141  0.2484  0.7237
  289MPD2    C3 4411   1.518   0.613  14.386 -0.6836  0.4567 -0.0112
  289MPD2    C4 4412   1.542   0.487  14.436  0.1312 -0.5179 -0.2114
  289MPD2    C5 4413   1.668   0.447  14.454  0.7384  0.0181  0.7432
  289MPD2     H 4414   1.604   0.789  14.299 -2.8408 -1.2308 -0.9161
  289MPD2    H1 4415   1.463   0.430  14.483  0.1353 -1.0529 -0.8404
  289MPD2    H2 4416   1.875   0.480  14.418  0.0878  0.1222  0.7726
  289MPD2    H3 4417   1.689   0.357  14.511  2.1298 -0.5642 -0.6984
  289MPD2     N 4418   1.380   0.644  14.379 -0.5045  0.2412  0.5882
  289MPD2    H5 4419   1.325   0.566  14.416 -0.6758 -0.1316 -0.4516
  289MPD2    N1 4420   1.863   0.722  14.329 -0.2325  0.4866 -0.8636
  289MPD2    H7 4421   1.954   0.685  14.355 -0.9130  1.1804  2.4192
  290TMC3    C1 4422   1.178   0.761  14.324  0.9903 -0.4973 -0.9156
  290TMC3    C2 4423   1.111   0.865  14.267  0.4371 -0.0025  0.2281
  290TMC3    C3 4424   0.982   0.849  14.228  0.4277  0.3451 -0.1813
  290TMC3    C4 4425   1.103   0.644  14.335 -0.1398 -0.0911  0.3963
  290TMC3    C5 4426   0.967   0.633  14.296  0.0833  0.7778 -0.2337
  290TMC3    C6 4427   0.903   0.740  14.243  0.1346  0.5475  0.2402
  290TMC3     C 4428   1.321   0.757  14.329  0.8483 -0.1474  0.0927
  290TMC3     O 4429   1.382   0.849  14.276  0.3310  0.0178 -0.0229
  290TMC3     H 4430   1.158   0.958  14.236 -1.9860  0.6722 -1.5192
  290TMC3    H1 4431   1.140   0.567  14.401 -0.6994 -1.7997 -1.2622
  290TMC3    H2 4432   0.809   0.743  14.189 -0.7744  2.0096  1.9090
  290TMC3    C7 4433   0.892   0.513  14.321  0.4201  0.4978  0.3876
  290TMC3    C8 4434   0.911   0.957  14.169  0.1459  0.1005 -0.6037
  290TMC3    O1 4435   0.777   0.536  14.357 -0.1461  0.2517 -0.0735
  290TMC3    O2 4436   0.827   0.927  14.090  0.5423 -0.1081  0.6827
  291MPD2     C 4437   1.268   0.945   0.125  0.4209 -0.1587 -0.2289
  291MPD2    C1 4438   1.265   0.822   0.064  1.0565 -0.1796  0.0498
  291MPD2    C2 4439   1.245   0.824  17.690  0.0018  0.1923 -0.0271
  291MPD2    C3 4440   1.204   0.937  17.618 -0.0878  0.0975 -0.4167
  291MPD2    C4 4441   1.209   1.052  17.683 -0.5919 -0.0106  0.8905
  291MPD2    C5 4442   1.246   1.056   0.053 -0.3223  0.8749 -0.2046
  291MPD2     H 4443   1.260   0.732  17.636 -1.2752  0.4020 -0.7228
  291MPD2    H1 4444   1.174   1.143  17.635  2.7732  0.1863 -1.1733
  291MPD2    H2 4445   1.272   0.953   0.233  1.7794  1.6000 -0.3938
  291MPD2    H3 4446   1.247   1.156   0.096  1.0058  0.5143  0.5814
  291MPD2     N 4447   1.154   0.934  17.483 -0.2105  0.4462  0.6305
  291MPD2    H5 4448   1.099   1.008  17.443  0.6685  0.1673 -1.0912
  291MPD2    N1 4449   1.261   0.707   0.151 -0.1429 -0.5196 -0.1197
  291MPD2    H7 4450   1.253   0.719   0.252  0.1962  0.2286 -0.1814
  292TMC3    C1 4451   1.232   0.470   0.190  0.5079  0.0882  0.8061
  292TMC3    C2 4452   1.143   0.502   0.288 -0.7085 -0.4140 -0.0228
  292TMC3    C3 4453   1.031   0.418   0.305  0.0023 -0.0615  0.1391
  292TMC3    C4 4454   1.218   0.353   0.119 -0.1768 -0.2829  0.4602
  292TMC3    C5 4455   1.111   0.268   0.140 -0.6222 -0.8942  0.0045
  292TMC3    C6 4456   1.016   0.298   0.231 -0.1694  0.0188 -0.1913
  292TMC3     C 4457   1.272   0.579   0.100 -0.4987  0.1412  0.3739
  292TMC3     O 4458   1.287   0.538  17.746 -0.6515 -0.1313  0.1924
  292TMC3     H 4459   1.132   0.602   0.328  0.3196 -0.3119 -0.0010
  292TMC3    H1 4460   1.301   0.317   0.058 -3.1573  0.0636 -3.8332
  292TMC3    H2 4461   0.926   0.237   0.224 -0.5386  0.1730  2.9347
  292TMC3    C7 4462   1.083   0.189   0.022  0.2076 -0.2122 -0.3054
  292TMC3    C8 4463   0.931   0.459   0.405  0.1406 -0.7333  0.3757
  292TMC3    O1 4464   1.176   0.138  17.717  0.2668  0.5348 -0.1781
  292TMC3    O2 4465   0.989   0.518   0.495  0.6294 -0.4188  0.0198
  293MPD2     C 4466   2.662   2.506  12.451 -0.3073  0.3209 -0.0202
  293MPD2    C1 4467   2.552   2.502  12.539 -0.7013 -0.6502  0.0656
  293MPD2    C2 4468   2.579   2.466  12.670  0.6729  0.1670  0.5279
  293MPD2    C3 4469   2.710   2.442  12.723  0.1753 -0.4911 -0.1003
  293MPD2    C4 4470   2.816   2.453  12.629 -0.1505  0.0303 -0.3863
  293MPD2    C5 4471   2.789   2.483  12.496 -0.0644 -0.0581  0.1671
  293MPD2     H 4472   2.498   2.453  12.741  0.9652  2.2029  1.2566
  293MPD2    H1 4473   2.920   2.434  12.652 -0.2394 -0.4268 -0.3636
  293MPD2    H2 4474   2.657   2.530  12.346 -1.2758  1.8385  0.3691
  293MPD2    H3 4475   2.880   2.487  12.438  1.0367  1.9211  2.0587
  293MPD2     N 4476   2.732   2.400  12.858  0.0002  0.2144  0.2166
  293MPD2    H5 4477   2.653   2.407  12.922  0.2644 -1.9219  0.7696
  293MPD2    N1 4478   2.424   2.538  12.483 -0.5754 -0.4088 -0.4869
  293MPD2    H7 4479   2.436   2.562  12.385 -0.9080  0.9395 -0.1973
  294TMC3    C1 4480   2.194   2.599  12.462  0.3472  0.0771 -0.3213
  294TMC3    C2 4481   2.065   2.545  12.476 -0.1914  0.4226  0.1503
  294TMC3    C3 4482   1.969   2.584  12.383  0.5858 -0.0229  0.2702
  294TMC3    C4 4483   2.233   2.674  12.358  0.1941 -0.7962  0.2737
  294TMC3    C5 4484   2.139   2.711  12.270 -0.1703  0.3590 -0.2730
  294TMC3    C6 4485   2.009   2.659  12.275 -0.0831  0.1890  0.7067
  294TMC3     C 4486   2.295   2.542  12.548  0.1780 -0.6309 -0.1330
  294TMC3     O 4487   2.270   2.515  12.663 -0.7519 -0.2714 -0.0784
  294TMC3     H 4488   2.025   2.488  12.559 -0.7326  1.3172  0.5100
  294TMC3    H1 4489   2.330   2.722  12.355  0.2706 -0.8382  1.7614
  294TMC3    H2 4490   1.941   2.684  12.194  0.2394 -0.5805  0.2043
  294TMC3    C7 4491   2.184   2.771  12.150 -0.3501 -0.6932 -0.5682
  294TMC3    C8 4492   1.868   2.486  12.357 -0.0550 -0.2759  0.7264
  294TMC3    O1 4493   2.302   2.813  12.146 -0.5888  0.3231  0.2470
  294TMC3    O2 4494   1.800   2.440  12.450 -0.2081  0.2565 -0.3732
  295MPD2     C 4495   3.451   0.840   0.560  0.1506  0.2970 -1.4894
  295MPD2    C1 4496   3.402   0.958   0.500 -0.3551  0.1507 -0.6417
  295MPD2    C2 4497   3.329   1.039   0.583  0.1529 -0.4794 -0.2570
  295MPD2    C3 4498   3.295   1.007   0.716 -0.0944  0.0956  0.1921
  295MPD2    C4 4499   3.346   0.899   0.769 -0.0972 -0.4316  0.0446
  295MPD2    C5 4500   3.423   0.811   0.693 -0.3877 -0.9915  0.2426
  295MPD2     H 4501   3.281   1.124   0.537 -0.2138 -0.6530 -0.1939
  295MPD2    H1 4502   3.328   0.871   0.872 -0.6402 -1.7762 -0.4095
  295MPD2    H2 4503   3.506   0.768   0.500 -0.3600 -0.5157 -0.9788
  295MPD2    H3 4504   3.474   0.729   0.743  1.9279 -0.4878 -1.2838
  295MPD2     N 4505   3.204   1.094   0.780 -0.0640 -0.0352 -0.4001
  295MPD2    H5 4506   3.184   1.182   0.735 -0.4990 -0.8072 -1.7276
  295MPD2    N1 4507   3.425   1.005   0.372  0.0234 -0.4432  0.3287
  295MPD2    H7 4508   3.383   1.094   0.344  1.8277 -0.4210 -2.2917
  296TMC3    C1 4509   3.017   1.148   0.915  0.7544 -0.0372  0.2368
  296TMC3    C2 4510   3.005   1.276   0.877  0.0873 -0.1099  0.1026
  296TMC3    C3 4511   2.887   1.350   0.896  0.2665 -0.2400 -0.0352
  296TMC3    C4 4512   2.911   1.087   0.975 -0.0059 -0.0916 -0.4648
  296TMC3    C5 4513   2.798   1.158   0.987 -0.5828  0.1750  0.2821
  296TMC3    C6 4514   2.780   1.291   0.953 -0.2561  0.1990 -0.6071
  296TMC3     C 4515   3.138   1.061   0.892  0.3464  0.3284  0.3189
  296TMC3     O 4516   3.149   0.962   0.964 -0.2700  0.5271  0.8030
  296TMC3     H 4517   3.090   1.332   0.841 -0.8018 -0.0300 -1.8671
  296TMC3    H1 4518   2.927   0.989   1.020 -1.8156 -0.1155  0.1293
  296TMC3    H2 4519   2.682   1.336   0.941  0.0710  0.8807 -0.7675
  296TMC3    C7 4520   2.684   1.077   1.025 -0.2588 -0.4688 -0.6753
  296TMC3    C8 4521   2.880   1.461   0.804 -0.0533  0.2570 -0.2076
  296TMC3    O1 4522   2.589   1.149   1.072 -0.3666 -0.1965  0.1135
  296TMC3    O2 4523   2.962   1.460   0.713 -0.4394  0.0235  0.0005
  297MPD2     C 4524   0.676   3.001  16.619  0.1118  0.0330  0.9987
  297MPD2    C1 4525   0.666   3.036  16.485 -0.3529  0.3652 -0.0559
  297MPD2    C2 4526   0.789   3.076  16.424 -0.0053  0.3555 -0.0739
  297MPD2    C3 4527   0.910   3.064  16.493 -1.1433  0.3351 -0.5003
  297MPD2    C4 4528   0.913   3.005  16.622 -0.1382 -0.1397 -0.2646
  297MPD2    C5 4529   0.794   2.981  16.690 -0.0393 -0.3890 -0.2241
  297MPD2     H 4530   0.795   3.110  16.321  0.1125 -0.3072 -0.2824
  297MPD2    H1 4531   1.010   3.003  16.670  0.1712  1.6992 -0.7939
  297MPD2    H2 4532   0.591   2.979  16.682 -1.3539  3.6677  0.2927
  297MPD2    H3 4533   0.802   2.950  16.793 -0.4596 -1.5801 -0.5504
  297MPD2     N 4534   1.022   3.123  16.433  0.5299  0.7024 -0.1941
  297MPD2    H5 4535   1.005   3.170  16.345 -0.0783 -0.9904 -0.9805
  297MPD2    N1 4536   0.541   3.044  16.412 -0.5252 -0.0324  0.3654
  297MPD2    H7 4537   0.546   3.067  16.313  3.0848 -2.2639  0.0403
  298TMC3    C1 4538   0.315   3.010  16.355  0.2547  0.1814  0.1067
  298TMC3    C2 4539   0.350   3.036  16.221 -0.6452  0.2933 -0.3341
  298TMC3    C3 4540   0.248   3.033  16.127 -0.5876  0.0874 -0.2465
  298TMC3    C4 4541   0.184   2.974  16.378 -0.3906  0.6772 -0.4769
  298TMC3    C5 4542   0.094   2.957  16.281  0.1569 -0.1947 -1.1503
  298TMC3    C6 4543   0.119   2.997  16.155 -0.0089  0.0209  0.4474
  298TMC3     C 4544   0.414   3.021  16.462  0.0732 -0.1731 -0.1593
  298TMC3     O 4545   0.387   3.016  16.579 -0.4884 -0.3201  0.8887
  298TMC3     H 4546   0.449   3.061  16.185 -0.4343 -2.6146 -1.7498
  298TMC3    H1 4547   0.152   2.962  16.481  1.0433  0.7928 -0.0205
  298TMC3    H2 4548   0.049   2.973  16.076  0.7041  0.6267 -0.3647
  298TMC3    C7 4549   4.695   2.941  16.326  0.3605  0.0942  0.0460
  298TMC3    C8 4550   0.297   3.037  15.991  0.4789  0.1772 -0.8509
  298TMC3    O1 4551   4.667   2.931  16.443  0.6636 -0.5153  0.4390
  298TMC3    O2 4552   0.419   3.026  15.970 -0.9894 -0.2699 -0.3417
  299MPD2     C 4553   0.565   2.596  10.502  0.4921  0.0462  0.0443
  299MPD2    C1 4554   0.554   2.716  10.447 -0.0265 -0.9796  0.3393
  299MPD2    C2 4555   0.461   2.729  10.347  0.0670  0.1303  1.0072
  299MPD2    C3 4556   0.373   2.631  10.308 -0.8316 -0.2994  0.9520
  299MPD2    C4 4557   0.396   2.505  10.361  0.3816 -1.0926  0.2299
  299MPD2    C5 4558   0.489   2.493  10.456 -0.0284  0.4019 -0.5072
  299MPD2     H 4559   0.444   2.832  10.317 -0.8385  0.2585  1.9756
  299MPD2    H1 4560   0.335   2.418  10.343 -0.6575 -0.7863  2.3327
  299MPD2    H2 4561   0.634   2.568  10.581 -1.0890 -0.2325  1.3174
  299MPD2    H3 4562   0.518   2.399  10.503  0.4106  0.8729  0.1620
  299MPD2     N 4563   0.267   2.654  10.220 -0.2140 -0.2896 -0.0332
  299MPD2    H5 4564   0.192   2.585  10.222 -0.3160 -0.3326 -4.0904
  299MPD2    N1 4565   0.626   2.826  10.490 -0.2189  0.4736  0.0313
  299MPD2    H7 4566   0.670   2.806  10.579  1.5373  0.3093 -0.8838
  300TMC3    C1 4567   0.129   2.783  10.055  0.9646 -0.3997 -0.9022
  300TMC3    C2 4568   0.140   2.871   9.952 -0.0704 -0.0179  0.1175
  300TMC3    C3 4569   0.029   2.926   9.903 -0.7887 -0.0500  0.3083
  300TMC3    C4 4570   0.011   2.755  10.112  0.3200 -1.1848  0.0667
  300TMC3    C5 4571   4.640   2.821  10.062 -0.6611 -0.6627 -0.1904
  300TMC3    C6 4572   4.645   2.892   9.946  0.0698 -0.2345  0.4485
  300TMC3     C 4573   0.253   2.765  10.146 -0.6865 -0.3609 -0.0883
  300TMC3     O 4574   0.323   2.866  10.132  0.5466  0.6276  0.1739
  300TMC3     H 4575   0.239   2.895   9.914 -0.0070 -1.7299 -0.8081
  300TMC3    H1 4576   0.008   2.685  10.195  0.3010 -1.0297  0.1988
  300TMC3    H2 4577   4.559   2.953   9.921  1.0470  1.0591  0.2350
  300TMC3    C7 4578   4.517   2.787  10.124  0.1126  0.5916  0.2055
  300TMC3    C8 4579   0.044   3.061   9.858  0.4935 -0.1638 -0.6371
  300TMC3    O1 4580   4.418   2.805  10.053  0.1566 -0.2311 -0.1917
  300TMC3    O2 4581   4.687   3.108   9.795  0.2919  0.2626 -0.9779
  301MPD2     C 4582   2.993   3.999   1.533 -0.5034  0.1738  0.1405
  301MPD2    C1 4583   2.884   3.946   1.461 -0.3523  0.1555  0.9601
  301MPD2    C2 4584   2.868   3.813   1.473 -0.5035  0.2378  0.0138
  301MPD2    C3 4585   2.937   3.726   1.556  0.0707 -0.0717  0.7510
  301MPD2    C4 4586   3.033   3.783   1.632  0.5859 -0.9262 -0.4936
  301MPD2    C5 4587   3.059   3.916   1.621  0.2419 -0.1232  0.7436
  301MPD2     H 4588   2.775   3.772   1.436  0.4770 -0.2160 -1.9088
  301MPD2    H1 4589   3.098   3.728   1.698  1.0289  1.4676  1.0730
  301MPD2    H2 4590   3.010   4.106   1.524 -0.1025 -0.0249 -1.4186
  301MPD2    H3 4591   3.143   3.943   1.684  1.1059 -1.5280  0.2001
  301MPD2     N 4592   2.917   3.585   1.564 -0.3709 -1.0169  0.6185
  301MPD2    H5 4593   2.982   3.537   1.625  1.0740 -1.1104 -0.9831
  301MPD2    N1 4594   2.794   4.010   1.375 -0.6532  0.5534  0.1039
  301MPD2    H7 4595   2.727   3.952   1.326  0.1828 -0.2897 -0.0536
  302TMC3    C1 4596   2.819   3.373   1.497 -0.1534  0.0727 -0.0512
  302TMC3    C2 4597   2.937   3.311   1.520  0.1309  0.2629 -0.2790
  302TMC3    C3 4598   2.948   3.184   1.472 -0.1009 -0.1501  1.1545
  302TMC3    C4 4599   2.720   3.315   1.419  0.3374 -0.1501  1.1935
  302TMC3    C5 4600   2.739   3.192   1.366 -0.4876  0.0395 -0.5574
  302TMC3    C6 4601   2.853   3.120   1.404 -0.2919  0.2374  0.5731
  302TMC3     C 4602   2.816   3.516   1.499 -0.7132 -0.2015  0.6111
  302TMC3     O 4603   2.725   3.564   1.437  0.2546 -1.0480  0.0589
  302TMC3     H 4604   3.024   3.353   1.570  0.5051 -1.1890  0.3101
  302TMC3    H1 4605   2.626   3.362   1.392  0.7735 -0.1519 -0.2886
  302TMC3    H2 4606   2.875   3.024   1.359 -0.8437  0.7701 -0.8583
  302TMC3    C7 4607   2.641   3.113   1.297  0.0176 -0.6567  0.0743
  302TMC3    C8 4608   3.081   3.115   1.481  0.5027 -0.3582  0.2021
  302TMC3    O1 4609   2.675   2.994   1.284  0.2911  0.2903 -0.2539
  302TMC3    O2 4610   3.107   3.035   1.395  0.1745 -0.8187 -0.2101
  303MPD2     C 4611   3.840   3.495  10.213 -0.3843  0.0651  0.2250
  303MPD2    C1 4612   3.761   3.383  10.224  0.6554 -0.0601  0.0903
  303MPD2    C2 4613   3.766   3.281  10.131 -0.3758  0.8875 -0.2041
  303MPD2    C3 4614   3.861   3.284  10.030  0.3355 -0.1873 -0.1437
  303MPD2    C4 4615   3.936   3.401  10.013  0.5006  0.1922  0.0882
  303MPD2    C5 4616   3.926   3.500  10.108  0.0196  0.6700 -0.1344
  303MPD2     H 4617   3.715   3.189  10.155 -1.9845  0.8970 -3.6957
  303MPD2    H1 4618   4.014   3.410   9.939 -3.3130  1.0965 -3.8213
  303MPD2    H2 4619   3.839   3.577  10.283  2.4254  0.4124 -0.1469
  303MPD2    H3 4620   3.982   3.592  10.096 -1.9665  1.8023 -0.7732
  303MPD2     N 4621   3.870   3.185   9.930 -1.0921  0.3305 -0.7124
  303MPD2    H5 4622   3.937   3.209   9.858 -1.1817  0.7459 -0.6576
  303MPD2    N1 4623   3.666   3.390  10.333 -0.4660 -0.5219 -0.0709
  303MPD2    H7 4624   3.652   3.475  10.387  2.1264  0.3759 -0.8126
  304TMC3    C1 4625   3.468   3.327  10.439 -0.1177  0.0404  1.2548
  304TMC3    C2 4626   3.390   3.411  10.370  0.2108  0.0006  0.4666
  304TMC3    C3 4627   3.258   3.380  10.372 -0.3630 -0.2798  0.1814
  304TMC3    C4 4628   3.413   3.225  10.521  0.2890  1.4353 -0.0875
  304TMC3    C5 4629   3.272   3.210  10.538  0.4539  1.0039 -0.3329
  304TMC3    C6 4630   3.200   3.301  10.461  0.0551  0.1252 -0.5380
  304TMC3     C 4631   3.581   3.290  10.366 -0.0743 -0.5171  0.6098
  304TMC3     O 4632   3.576   3.176  10.330  0.0020 -0.4148  0.2491
  304TMC3     H 4633   3.432   3.485  10.303 -0.3594  0.1160  0.2356
  304TMC3    H1 4634   3.479   3.145  10.553 -0.9525 -0.0480 -1.1831
  304TMC3    H2 4635   3.094   3.284  10.456  0.1601 -0.5741 -0.3997
  304TMC3    C7 4636   3.215   3.081  10.547  0.1349  0.1560  0.8065
  304TMC3    C8 4637   3.220   3.337  10.247 -0.4664  0.3717 -0.1334
  304TMC3    O1 4638   3.117   3.066  10.472  0.0766  0.1619 -0.3834
  304TMC3    O2 4639   3.248   3.412  10.153 -0.2773 -0.5702 -0.5364
  305MPD2     C 4640   1.999   4.215  13.318  0.0553  0.5975 -0.3662
  305MPD2    C1 4641   1.872   4.208  13.370 -0.1315  0.5608  0.4527
  305MPD2    C2 4642   1.771   4.140  13.303 -0.3255 -0.1538 -0.3467
  305MPD2    C3 4643   1.792   4.077  13.180  0.1658 -0.0635 -0.5805
  305MPD2    C4 4644   1.919   4.092  13.126  0.3736  0.9120 -0.7254
  305MPD2    C5 4645   2.019   4.160  13.194  0.0444  0.9156 -0.3390
  305MPD2     H 4646   1.675   4.132  13.351 -0.3724 -2.5428 -0.8034
  305MPD2    H1 4647   1.953   4.049  13.033  1.2934  0.9999 -0.4251
  305MPD2    H2 4648   2.067   4.286  13.363 -0.4561  0.7711  0.1305
  305MPD2    H3 4649   2.109   4.192  13.142  1.0669  0.9338  1.4759
  305MPD2     N 4650   1.694   4.011  13.105 -0.0596  0.9584 -0.2214
  305MPD2    H5 4651   1.731   3.954  13.030  0.7002 -0.2452  1.0497
  305MPD2    N1 4652   1.861   4.251  13.504 -0.3901 -0.1863 -0.2297
  305MPD2    H7 4653   1.947   4.285  13.546  0.5195 -1.6138 -0.9226
  306TMC3    C1 4654   1.770   4.284  13.715  0.0413 -0.2174 -0.3772
  306TMC3    C2 4655   1.685   4.238  13.813  0.4318  0.2609 -0.1332
  306TMC3    C3 4656   1.727   4.250  13.942  1.0915  0.1555  0.1205
  306TMC3    C4 4657   1.865   4.376  13.744  0.1331 -0.2837  0.1229
  306TMC3    C5 4658   1.896   4.392  13.878  0.3848  0.3349  0.1845
  306TMC3    C6 4659   1.838   4.318  13.979 -0.3721  0.4141  0.6536
  306TMC3     C 4660   1.740   4.258  13.579 -0.4108  0.3294 -0.7293
  306TMC3     O 4661   1.624   4.224  13.557 -0.0666 -0.3981 -0.1005
  306TMC3     H 4662   1.605   4.165  13.797  0.8650 -0.6000  1.5544
  306TMC3    H1 4663   1.927   4.422  13.668  0.9425  0.3606  1.1633
  306TMC3    H2 4664   1.881   4.311  14.078  0.1212  1.9069  0.5430
  306TMC3    C7 4665   2.000   4.485  13.907 -0.4512  0.3310  0.0096
  306TMC3    C8 4666   1.681   4.147  14.032 -0.1460  0.0735  0.2144
  306TMC3    O1 4667   2.086   4.499  13.821  0.2236 -0.0739 -0.0196
  306TMC3    O2 4668   1.608   4.055  13.996  0.2926  0.1238 -0.1674
  307MPD2     C 4669   4.031   2.357   0.018  0.4172  0.1499 -0.1179
  307MPD2    C1 4670   4.018   2.488   0.053  0.2428 -0.0879 -0.9133
  307MPD2    C2 4671   4.009   2.529   0.189 -0.0002  0.0042  0.1285
  307MPD2    C3 4672   4.008   2.424   0.287 -1.0454  0.3897 -0.2016
  307MPD2    C4 4673   4.007   2.295   0.245 -1.0680 -0.3284  0.0776
  307MPD2    C5 4674   4.017   2.257   0.112 -1.2181  0.2953 -0.3206
  307MPD2     H 4675   4.022   2.630   0.227  1.0279 -0.4596  1.0047
  307MPD2    H1 4676   3.998   2.214   0.316  1.1880  0.2362  0.9967
  307MPD2    H2 4677   4.047   2.336  17.674 -0.6317 -0.7459 -0.0915
  307MPD2    H3 4678   4.017   2.154   0.078  0.2855  0.8203 -1.8823
  307MPD2     N 4679   4.000   2.464   0.424  0.3205 -0.2312 -0.5146
  307MPD2    H5 4680   4.007   2.564   0.441 -1.2082  0.3200 -3.1291
  307MPD2    N1 4681   4.015   2.597  17.725 -0.0463  0.1907 -0.3037
  307MPD2    H7 4682   3.998   2.689   0.003 -0.6685 -0.1885  0.3098
  308TMC3    C1 4683   3.833   2.454   0.859 -0.0520 -0.2704  0.5118
  308TMC3    C2 4684   3.944   2.514   0.912  0.5353 -0.0114  0.1745
  308TMC3    C3 4685   4.031   2.565   0.826 -0.8555 -0.2761  0.6379
  308TMC3    C4 4686   3.817   2.423   0.727 -0.3395 -0.1181 -0.0626
  308TMC3    C5 4687   3.915   2.466   0.645  0.3498  0.0117 -0.1246
  308TMC3    C6 4688   4.011   2.550   0.690  0.7731 -0.3416 -0.2911
  308TMC3     C 4689   3.710   2.444   0.946 -0.2323  0.1591  0.0873
  308TMC3     O 4690   3.733   2.436   1.065  0.1667  0.0832  0.4210
  308TMC3     H 4691   3.936   2.545   1.015  1.7486  0.8274  0.0196
  308TMC3    H1 4692   3.751   2.346   0.691 -2.0011  1.1688  0.2299
  308TMC3    H2 4693   4.095   2.574   0.626  0.2950  1.1353 -0.3473
  308TMC3    C7 4694   3.950   2.386   0.533 -0.3553  0.5913  0.1366
  308TMC3    C8 4695   4.107   2.671   0.868 -0.3654  0.0822 -0.1010
  308TMC3    O1 4696   3.916   2.267   0.531 -0.0796 -0.2323 -0.3916
  308TMC3    O2 4697   4.135   2.687   0.987  0.1663 -0.2568 -0.4894
  309MPD2     C 4698   3.183   2.208  17.138  0.2996 -0.1777 -0.6073
  309MPD2    C1 4699   3.250   2.317  17.080  0.5377  0.5775  0.0904
  309MPD2    C2 4700   3.224   2.441  17.120 -0.2444  0.6324 -0.4770
  309MPD2    C3 4701   3.133   2.460  17.226 -0.1490 -0.4861 -0.2413
  309MPD2    C4 4702   3.073   2.356  17.289 -0.7379  0.0358 -0.8754
  309MPD2    C5 4703   3.093   2.230  17.236  0.2420 -0.8893 -0.5213
  309MPD2     H 4704   3.277   2.523  17.073 -2.1577  2.3370  0.3243
  309MPD2    H1 4705   2.997   2.378  17.364  0.3934  2.5077 -0.4785
  309MPD2    H2 4706   3.173   2.109  17.095 -2.0882 -1.4391  2.9273
  309MPD2    H3 4707   3.042   2.142  17.272 -2.5499  1.7162  1.9381
  309MPD2     N 4708   3.089   2.587  17.270  0.0668  0.0140 -0.2306
  309MPD2    H5 4709   3.010   2.583  17.333  0.1774  1.6540  0.0271
  309MPD2    N1 4710   3.327   2.296  16.966  0.3983  0.0005  0.5253
  309MPD2    H7 4711   3.345   2.384  16.919 -1.4768  0.2968  0.3613
  310TMC3    C1 4712   3.422   2.178  16.781  0.3695  0.0133 -0.0101
  310TMC3    C2 4713   3.382   2.280  16.691  0.1065 -0.5156  0.0193
  310TMC3    C3 4714   3.433   2.272  16.564 -0.3346  0.2485 -0.1499
  310TMC3    C4 4715   3.493   2.070  16.744 -0.8954  0.6236  0.6980
  310TMC3    C5 4716   3.553   2.071  16.619  0.4026  0.5087 -0.3114
  310TMC3    C6 4717   3.522   2.171  16.533  0.0782 -0.0935  0.1314
  310TMC3     C 4718   3.378   2.177  16.923  0.2845 -0.0152 -0.2138
  310TMC3     O 4719   3.388   2.071  16.981  0.3281 -0.3360 -0.2104
  310TMC3     H 4720   3.320   2.366  16.715  0.8356 -0.1374  0.5598
  310TMC3    H1 4721   3.522   1.997  16.818 -0.0346 -0.0042 -0.2535
  310TMC3    H2 4722   3.573   2.179  16.437  0.4379  0.6102  0.3850
  310TMC3    C7 4723   3.539   1.940  16.552  0.1794 -0.1944 -0.8898
  310TMC3    C8 4724   3.363   2.339  16.449 -0.6934  0.0967  0.3114
  310TMC3    O1 4725   3.517   1.946  16.432 -0.5369  0.2164 -0.4114
  310TMC3    O2 4726   3.297   2.436  16.466 -0.2227 -0.0259 -0.3654
  311MPD2     C 4727   4.638   4.362  12.653  1.1134 -0.1582 -0.1415
  311MPD2    C1 4728   0.002   4.273  12.631  0.3488 -0.6122  0.4180
  311MPD2    C2 4729   4.740   4.143  12.696  0.3990  0.2291  0.6412
  311MPD2    C3 4730   4.623   4.099  12.755 -0.1425  0.3046  0.1716
  311MPD2    C4 4731   4.525   4.198  12.769  0.5856  1.2075 -1.2047
  311MPD2    C5 4732   4.526   4.323  12.717  0.4385 -1.0181 -0.3125
  311MPD2     H 4733   0.079   4.073  12.676 -0.2347 -0.4139  0.3601
  311MPD2    H1 4734   4.429   4.181  12.816  0.7051  0.5488 -1.2050
  311MPD2    H2 4735   4.641   4.460  12.608 -2.3903  0.3530  0.7247
  311MPD2    H3 4736   4.452   4.402  12.718  2.1696  0.6122  1.3991
  311MPD2     N 4737   4.594   3.970  12.791 -0.1907 -0.3861 -0.3513
  311MPD2    H5 4738   4.675   3.913  12.810  0.5044  0.7176  0.0481
  311MPD2    N1 4739   0.116   4.315  12.555  0.3472 -1.0663  0.1713
  311MPD2    H7 4740   0.110   4.416  12.540  1.0327 -0.9423  0.7130
  312TMC3    C1 4741   4.448   3.805  12.870  0.7767  0.0060 -0.1171
  312TMC3    C2 4742   4.356   3.729  12.809  0.7680  0.2575 -0.0254
  312TMC3    C3 4743   4.272   3.663  12.894  0.0921 -0.5835 -0.0200
  312TMC3    C4 4744   4.470   3.810  13.004 -0.6033 -0.6134  0.6458
  312TMC3    C5 4745   4.382   3.742  13.084 -0.6640  0.3201  0.1784
  312TMC3    C6 4746   4.285   3.659  13.030 -0.0355  0.9565 -0.0094
  312TMC3     C 4747   4.462   3.927  12.797 -0.1674 -0.8823 -0.0943
  312TMC3     O 4748   4.365   3.975  12.736  0.5036  0.0242  0.4235
  312TMC3     H 4749   4.336   3.724  12.702 -0.3120 -1.1172  0.2316
  312TMC3    H1 4750   4.539   3.880  13.050 -0.3379 -1.9549  2.2974
  312TMC3    H2 4751   4.218   3.608  13.099  1.3677 -1.9275 -0.7901
  312TMC3    C7 4752   4.391   3.757  13.228 -0.0409 -0.5115 -0.3549
  312TMC3    C8 4753   4.141   3.599  12.848 -0.5194  0.1252  0.1653
  312TMC3    O1 4754   4.298   3.743  13.307  0.0193 -0.0443 -0.5293
  312TMC3    O2 4755   4.058   3.591  12.936  0.0189 -0.2712  0.1444
  313MPD2     C 4756   4.155   3.756  10.998  0.2548 -0.7324  0.3132
  313MPD2    C1 4757   4.256   3.744  10.905 -0.3061  0.2678 -1.0014
  313MPD2    C2 4758   4.306   3.620  10.882 -0.3751 -0.2737 -0.0350
  313MPD2    C3 4759   4.263   3.506  10.947 -0.0087  0.4797  0.3389
  313MPD2    C4 4760   4.161   3.519  11.039  0.9986 -0.2823 -0.1421
  313MPD2    C5 4761   4.103   3.645  11.064 -0.9960 -0.2836 -0.1825
  313MPD2     H 4762   4.373   3.605  10.798 -1.6639  0.9361 -1.2992
  313MPD2    H1 4763   4.113   3.437  11.092  0.7551  0.2924  0.5332
  313MPD2    H2 4764   4.108   3.853  11.009  2.9355  0.6991 -0.7398
  313MPD2    H3 4765   4.030   3.660  11.142 -1.7390 -2.4727 -0.4425
  313MPD2     N 4766   4.316   3.382  10.907  0.0643 -0.1637  0.4340
  313MPD2    H5 4767   4.375   3.385  10.825  0.5909 -3.4989  0.6772
  313MPD2    N1 4768   4.299   3.860  10.834  0.3429 -0.6372  1.0252
  313MPD2    H7 4769   4.394   3.861  10.798 -0.3710 -0.7950 -0.8505
  314TMC3    C1 4770   4.325   4.063  10.733 -0.2821  0.0517  0.6056
  314TMC3    C2 4771   4.441   4.111  10.794  0.1068  0.7802  0.5169
  314TMC3    C3 4772   4.502   4.217  10.736  0.3116 -0.8310 -0.4491
  314TMC3    C4 4773   4.274   4.123  10.619 -0.7844  0.3600  0.4448
  314TMC3    C5 4774   4.338   4.230  10.565 -0.0825  0.0113  0.1647
  314TMC3    C6 4775   4.450   4.278  10.630  0.5391  0.0038 -0.0898
  314TMC3     C 4776   4.230   3.979  10.808 -0.1428  0.0262  0.7327
  314TMC3     O 4777   4.111   3.998  10.793  0.1156 -0.0312 -0.2544
  314TMC3     H 4778   4.479   4.060  10.882 -0.6451 -1.6704 -0.5642
  314TMC3    H1 4779   4.184   4.084  10.572 -2.3766  0.9354  2.9900
  314TMC3    H2 4780   4.511   4.346  10.572  0.4693  0.5819  0.5164
  314TMC3    C7 4781   4.370   4.195  10.429  0.1952  0.6769 -0.4148
  314TMC3    C8 4782   4.628   4.269  10.779 -0.2549 -0.4690 -1.0811
  314TMC3    O1 4783   4.480   4.153  10.413 -0.6477 -0.5418 -0.5393
  314TMC3    O2 4784   4.659   4.374  10.726  0.1866 -0.5901  0.3628
  315MPD2     C 4785   4.273   2.341  17.531  0.4244  0.3972 -0.0221
  315MPD2    C1 4786   4.334   2.364  17.647 -0.7131  0.9924 -0.3216
  315MPD2    C2 4787   4.353   2.494  17.684  0.2472  0.0996  0.0125
  315MPD2    C3 4788   4.337   2.596  17.595 -0.3194  1.6066 -0.0154
  315MPD2    C4 4789   4.299   2.567  17.461  0.4797  0.3023  0.7051
  315MPD2    C5 4790   4.261   2.437  17.429  0.4883 -1.3119  0.0125
  315MPD2     H 4791   4.373   2.521   0.025  1.1873  2.4247 -0.7714
  315MPD2    H1 4792   4.301   2.640  17.381 -0.7120 -0.6780 -0.2111
  315MPD2    H2 4793   4.229   2.246  17.503  1.8200 -0.4020  0.5188
  315MPD2    H3 4794   4.221   2.397  17.337 -0.5357 -0.1497 -0.0422
  315MPD2     N 4795   4.375   2.722  17.639 -0.6513  0.5373 -0.1573
  315MPD2    H5 4796   4.394   2.737  17.738  0.6737  1.6353 -0.5778
  315MPD2    N1 4797   4.364   2.265  17.746  0.0576 -0.3872 -0.3269
  315MPD2    H7 4798   4.414   2.306   0.062 -0.0008  0.0342 -0.5123
  316TMC3    C1 4799   4.476   2.942  17.628 -0.7073 -0.6868 -0.6736
  316TMC3    C2 4800   4.572   2.921  17.724  0.4268  0.4347 -0.3281
  316TMC3    C3 4801   4.632   3.024   0.022 -0.0973  0.1029  0.1406
  316TMC3    C4 4802   4.443   3.072  17.589 -0.1726  0.1660 -0.2205
  316TMC3    C5 4803   4.509   3.171  17.652 -0.0094 -0.5244  0.9111
  316TMC3    C6 4804   4.593   3.150  17.759  0.3306 -0.3818 -0.0169
  316TMC3     C 4805   4.409   2.829  17.552 -0.1746  0.2106 -0.2522
  316TMC3     O 4806   4.403   2.843  17.429  0.3725  0.6809  0.5294
  316TMC3     H 4807   4.605   2.821  17.750 -0.1305  0.1743 -0.6278
  316TMC3    H1 4808   4.372   3.078  17.508  0.3726  0.3797 -0.6867
  316TMC3    H2 4809   4.640   3.238   0.042 -0.1407  0.2650 -0.7985
  316TMC3    C7 4810   4.519   3.302  17.591 -0.3752  0.0631 -0.6732
  316TMC3    C8 4811   4.723   3.006   0.143  0.2999 -0.5740 -0.1620
  316TMC3    O1 4812   4.552   3.399  17.656  0.1293 -0.0177 -0.0819
  316TMC3    O2 4813   0.016   3.112   0.200 -0.0093 -0.2914  0.2068
  317MPD2     C 4814   1.718   1.290  12.209 -0.3859  0.3885 -0.3058
  317MPD2    C1 4815   1.789   1.178  12.195  0.4477  0.0839 -0.2572
  317MPD2    C2 4816   1.814   1.098  12.296  0.3232  0.9553 -0.5863
  317MPD2    C3 4817   1.776   1.132  12.426 -0.7127 -0.3410 -0.0631
  317MPD2    C4 4818   1.709   1.250  12.445  0.3575 -0.5092  0.7033
  317MPD2    C5 4819   1.681   1.328  12.334 -0.2944 -0.5671  0.1328
  317MPD2     H 4820   1.865   1.002  12.290 -1.8005 -0.2944  1.1583
  317MPD2    H1 4821   1.676   1.289  12.541  0.3252  0.1748  0.4186
  317MPD2    H2 4822   1.723   1.373  12.141  0.2741  0.6657  0.0797
  317MPD2    H3 4823   1.630   1.424  12.333  0.6471 -0.0797 -0.2254
  317MPD2     N 4824   1.791   1.033  12.520  0.1818 -0.6802  0.2105
  317MPD2    H5 4825   1.821   0.944  12.482  0.6603  0.0967 -1.2405
  317MPD2    N1 4826   1.848   1.143  12.077  0.5332  0.2946 -0.5567
  317MPD2    H7 4827   1.906   1.060  12.070  1.4234  0.8980 -0.2075
  318TMC3    C1 4828   1.809   0.924  12.724  0.3328  0.6645 -0.0469
  318TMC3    C2 4829   1.754   0.811  12.675 -1.3701 -0.0245 -0.7920
  318TMC3    C3 4830   1.785   0.696  12.736  0.4373 -0.5495 -0.0077
  318TMC3    C4 4831   1.896   0.926  12.832 -1.0298 -0.1351  1.0411
  318TMC3    C5 4832   1.939   0.809  12.880 -0.2587  0.1660  0.0976
  318TMC3    C6 4833   1.890   0.692  12.827 -0.4230  0.6971 -0.0483
  318TMC3     C 4834   1.788   1.058  12.659 -0.0208  0.1452  0.1810
  318TMC3     O 4835   1.781   1.165  12.720 -0.2858 -0.1874  0.1312
  318TMC3     H 4836   1.677   0.813  12.599 -2.8789  2.7460  0.7975
  318TMC3    H1 4837   1.933   1.023  12.863 -1.5843  0.1718  0.7241
  318TMC3    H2 4838   1.910   0.598  12.877 -2.0912 -0.2192 -1.1120
  318TMC3    C7 4839   2.074   0.807  12.935  0.4908  0.5738 -0.0040
  318TMC3    C8 4840   1.704   0.579  12.719  0.2339 -0.2921 -0.0539
  318TMC3    O1 4841   2.138   0.909  12.908 -0.0749 -0.4788 -0.6877
  318TMC3    O2 4842   1.750   0.471  12.761 -0.1218 -0.0920 -0.2908
  319MPD2     C 4843   2.842   2.092  16.079  0.4264 -0.6177  0.0458
  319MPD2    C1 4844   2.793   2.090  16.203 -0.1344 -0.6506 -0.4437
  319MPD2    C2 4845   2.654   2.072  16.215  0.2137 -0.2341  0.3261
  319MPD2    C3 4846   2.575   2.058  16.101 -1.0096  0.3677  0.4222
  319MPD2    C4 4847   2.634   2.056  15.980  0.4226 -0.5955 -0.3682
  319MPD2    C5 4848   2.769   2.068  15.965  0.2807 -0.1258 -0.1074
  319MPD2     H 4849   2.615   2.073  16.316 -3.6899  2.9595 -1.2029
  319MPD2    H1 4850   2.571   2.026  15.898  0.5135  0.8135 -0.9426
  319MPD2    H2 4851   2.949   2.105  16.065  0.2558  2.9282  2.0724
  319MPD2    H3 4852   2.826   2.075  15.872  0.6116 -0.1941  0.0889
  319MPD2     N 4853   2.437   2.031  16.106 -0.2125 -0.6157 -0.3110
  319MPD2    H5 4854   2.398   2.010  16.015  0.3983 -0.3277 -0.6486
  319MPD2    N1 4855   2.878   2.102  16.318  0.6729  0.5195 -0.3954
  319MPD2    H7 4856   2.824   2.118  16.401  0.2483 -0.4087 -0.4894
  320TMC3    C1 4857   2.224   1.974  16.179  0.3408 -0.0344 -0.2227
  320TMC3    C2 4858   2.169   2.036  16.069 -0.1664  0.9749  0.1658
  320TMC3    C3 4859   2.035   2.024  16.050 -1.0812  1.0786 -0.3711
  320TMC3    C4 4860   2.153   1.891  16.266 -0.6492 -0.0040 -0.3768
  320TMC3    C5 4861   2.024   1.870  16.223 -0.3169 -0.2106  0.4228
  320TMC3    C6 4862   1.962   1.936  16.121  0.0397 -0.4916 -0.4623
  320TMC3     C 4863   2.359   1.995  16.214  0.2113 -0.0945  0.0142
  320TMC3     O 4864   2.397   1.964  16.329 -0.0640  0.1197  0.3749
  320TMC3     H 4865   2.230   2.102  16.008  1.2522  0.1120  0.6746
  320TMC3    H1 4866   2.191   1.849  16.359 -2.1830  0.6978  0.5609
  320TMC3    H2 4867   1.857   1.913  16.113 -0.2962  1.1322 -0.8319
  320TMC3    C7 4868   1.962   1.735  16.247 -0.4796 -0.0320  0.2746
  320TMC3    C8 4869   1.978   2.098  15.939 -0.0290 -0.7953  0.9851
  320TMC3    O1 4870   1.894   1.698  16.150 -0.3961  0.1592  0.3643
  320TMC3    O2 4871   2.042   2.199  15.909  0.3201 -0.1701  0.1066
  321TMC3    C1 4872   3.054   2.024  16.456  0.1688  0.0589  0.2180
  321TMC3    C2 4873   3.158   1.936  16.470  0.5328  0.7468 -0.2363
  321TMC3    C3 4874   3.210   1.901  16.590  0.0560 -0.0748  0.2379
  321TMC3    C4 4875   3.011   2.101  16.563  0.2182  0.7426  0.1372
  321TMC3    C5 4876   3.083   2.081  16.683 -0.0595 -0.0836 -0.0306
  321TMC3    C6 4877   3.174   1.982  16.691 -0.3055  0.8160  0.0587
  321TMC3     C 4878   3.003   2.042  16.324  0.7647  0.2159 -0.1253
  321TMC3     O 4879   3.047   1.968  16.239  0.4373  0.3060 -0.9226
  321TMC3     H 4880   3.172   1.863  16.391  0.3350  1.5750 -1.0205
  321TMC3    H1 4881   2.942   2.185  16.557 -1.5321 -0.7342 -0.5642
  321TMC3    H2 4882   3.224   1.961  16.785 -1.9442 -2.6179  0.1489
  321TMC3    C7 4883   3.018   2.090  16.810 -0.6163  0.3564 -0.9481
  321TMC3    C8 4884   3.186   1.760  16.619  0.1079  0.4365 -0.1078
  321TMC3    O1 4885   3.025   1.986  16.874  0.3882 -0.3082 -0.0609
  321TMC3    O2 4886   3.223   1.670  16.545 -0.6377  0.4488 -0.1256
  322MPD2     C 4887   1.311   3.342  13.498 -0.9689  0.1041  0.3543
  322MPD2    C1 4888   1.284   3.325  13.632  0.1206 -0.2848 -0.0145
  322MPD2    C2 4889   1.304   3.198  13.692  0.0549 -0.1085 -0.9878
  322MPD2    C3 4890   1.369   3.098  13.623  0.1569 -0.0493  0.8473
  322MPD2    C4 4891   1.404   3.125  13.491  0.7748  0.3937 -0.0999
  322MPD2    C5 4892   1.372   3.244  13.437  0.1470 -0.1340 -0.4847
  322MPD2     H 4893   1.283   3.183  13.797  0.9557 -1.3349 -0.9815
  322MPD2    H1 4894   1.460   3.062  13.423 -0.1896 -0.8092  0.2357
  322MPD2    H2 4895   1.316   3.437  13.446 -1.6900  0.3750  0.7795
  322MPD2    H3 4896   1.420   3.265  13.342  1.4986 -0.3710  0.1556
  322MPD2     N 4897   1.387   2.967  13.678 -0.0802 -0.5585  0.2179
  322MPD2    H5 4898   1.354   2.944  13.772  0.7713  0.8322  0.8650
  322MPD2    N1 4899   1.258   3.439  13.704  1.3098  0.1528 -0.1061
  322MPD2    H7 4900   1.270   3.530  13.661  3.6340 -0.2425 -0.3308
  323TMC3    C1 4901   1.278   3.537  13.919 -0.4408  0.2803 -0.3217
  323TMC3    C2 4902   1.372   3.628  13.877  0.8257 -0.4818  0.3685
  323TMC3    C3 4903   1.464   3.678  13.962 -1.0771  0.7654 -0.3651
  323TMC3    C4 4904   1.282   3.498  14.054 -0.3339  0.1315 -0.1185
  323TMC3    C5 4905   1.385   3.533  14.130  1.1735 -0.1481  0.4274
  323TMC3    C6 4906   1.460   3.638  14.095 -0.0260  0.6863 -0.0830
  323TMC3     C 4907   1.221   3.433  13.834 -0.6599 -0.2294 -0.3454
  323TMC3     O 4908   1.152   3.349  13.886  0.1387  0.5570  0.0426
  323TMC3     H 4909   1.403   3.632  13.773  1.2357  2.4832  0.6064
  323TMC3    H1 4910   1.206   3.436  14.100 -2.1217  2.7299  0.4827
  323TMC3    H2 4911   1.524   3.694  14.163 -1.7928  0.6875  1.5509
  323TMC3    C7 4912   1.450   3.415  14.178  0.0400 -0.5443 -0.4160
  323TMC3    C8 4913   1.592   3.745  13.928  0.1404 -0.7328  0.3310
  323TMC3    O1 4914   1.384   3.315  14.169  0.0646 -0.5407  0.5546
  323TMC3    O2 4915   1.680   3.725  14.006  0.0014 -0.6462 -0.1748
  324MPD2     C 4916   2.590   4.475  14.225 -0.0406  0.1414 -0.3794
  324MPD2    C1 4917   2.661   4.557  14.139  0.1420 -0.5151 -0.8092
  324MPD2    C2 4918   2.599   4.582  14.020 -0.2036 -0.0849  0.2466
  324MPD2    C3 4919   2.470   4.534  13.987 -0.5627  0.3104  0.0974
  324MPD2    C4 4920   2.408   4.456  14.078 -1.1177 -0.5860  0.6597
  324MPD2    C5 4921   2.467   4.423  14.195 -0.2001  0.3679  0.0408
  324MPD2     H 4922   2.641   4.664  13.964 -0.4104 -0.3687 -0.3229
  324MPD2    H1 4923   2.310   4.415  14.055 -1.4140  0.7809 -0.4675
  324MPD2    H2 4924   2.625   4.436  14.320  0.1453 -1.0427 -0.9352
  324MPD2    H3 4925   2.422   4.359  14.270  1.0781 -0.9881 -0.3461
  324MPD2     N 4926   2.400   4.581  13.875  0.3757 -0.1918 -0.3736
  324MPD2    H5 4927   2.304   4.547  13.873 -0.4397  2.1128 -0.7399
  324MPD2    N1 4928   2.793   4.606  14.172 -0.4859  0.4850  0.5630
  324MPD2    H7 4929   2.825   4.676  14.106 -1.2285  2.0955  1.9064
  325TMC3    C1 4930   2.323   4.720  13.715  0.0869 -0.3825 -0.5137
  325TMC3    C2 4931   2.250   4.635  13.638  0.2991 -0.0601  0.0817
  325TMC3    C3 4932   2.157   4.679  13.547 -0.1693  0.5414  0.2814
  325TMC3    C4 4933   2.301   0.114  13.706  0.4109  0.6259  0.1772
  325TMC3    C5 4934   2.201   0.156  13.620  0.0073 -0.0625  0.2287
  325TMC3    C6 4935   2.151   0.072  13.525 -0.1117 -0.0201  0.2915
  325TMC3     C 4936   2.440   4.676  13.782 -0.2466  0.8779 -0.0970
  325TMC3     O 4937   2.532   0.015  13.773 -0.0253 -0.5095  0.2144
  325TMC3     H 4938   2.266   4.528  13.647  3.4038  0.3436 -0.6004
  325TMC3    H1 4939   2.355   0.181  13.772 -1.0328  1.4424  0.5172
  325TMC3    H2 4940   2.079   0.102  13.450  0.5743 -0.2877 -0.4754
  325TMC3    C7 4941   2.095   0.231  13.677 -0.0189  0.3253 -0.2834
  325TMC3    C8 4942   2.041   4.601  13.524  0.3014  0.0188  0.5999
  325TMC3    O1 4943   1.982   0.207  13.642 -0.2822 -0.0706  0.1506
  325TMC3    O2 4944   2.057   4.487  13.494  0.2517 -0.0220  0.9268
  326MPD2     C 4945   4.489   1.791  10.655 -0.2555  0.2402 -1.0272
  326MPD2    C1 4946   4.500   1.658  10.619  0.5910 -0.5210 -0.7656
  326MPD2    C2 4947   4.549   1.574  10.716 -0.3491  0.3248  1.0567
  326MPD2    C3 4948   4.597   1.623  10.841  0.4740  0.5892 -0.0307
  326MPD2    C4 4949   4.590   1.758  10.863 -0.5403  0.1625  0.4700
  326MPD2    C5 4950   4.545   1.843  10.769 -0.1325 -0.1556  0.1270
  326MPD2     H 4951   4.535   1.468  10.701 -0.5039  0.5134 -0.0986
  326MPD2    H1 4952   4.624   1.803  10.955  0.5957  2.1214 -0.9079
  326MPD2    H2 4953   4.446   1.867  10.591 -0.5799  1.1948  0.3245
  326MPD2    H3 4954   4.541   1.951  10.777 -0.4614 -0.1927  0.5055
  326MPD2     N 4955   4.654   1.541  10.939  0.3133  0.2070 -0.5756
  326MPD2    H5 4956   4.672   1.578  11.031  0.6909 -0.2296 -0.4735
  326MPD2    N1 4957   4.454   1.615  10.492 -0.5551  0.1076 -0.0636
  326MPD2    H7 4958   4.442   1.514  10.481 -1.7130  0.2994 -0.6020
  327TMC3    C1 4959   4.324   1.625  10.293  0.0191 -0.4645 -0.2413
  327TMC3    C2 4960   4.223   1.694  10.234 -0.1032  1.0390  0.3000
  327TMC3    C3 4961   4.111   1.629  10.196  0.4167 -0.3481 -0.9585
  327TMC3    C4 4962   4.315   1.490  10.311  0.2001  0.3435 -0.3646
  327TMC3    C5 4963   4.202   1.429  10.263  0.3852 -0.2250  0.1627
  327TMC3    C6 4964   4.102   1.496  10.200  0.6740  0.3849 -0.3173
  327TMC3     C 4965   4.407   1.697  10.388 -0.0748 -0.1149  0.3537
  327TMC3     O 4966   4.408   1.820  10.374 -0.0961  0.4600  0.0563
  327TMC3     H 4967   4.230   1.802  10.223  0.2521  0.9967  0.0953
  327TMC3    H1 4968   4.399   1.428  10.338  0.0064  0.6984  1.0677
  327TMC3    H2 4969   4.006   1.448  10.189 -0.4129  2.2478  1.0911
  327TMC3    C7 4970   4.167   1.292  10.300  0.1042 -0.6162  0.1267
  327TMC3    C8 4971   4.022   1.710  10.119 -0.7110 -0.1394  0.0980
  327TMC3    O1 4972   4.054   1.254  10.279 -0.2275 -0.5256 -0.1167
  327TMC3    O2 4973   4.056   1.763  10.016  0.5610  0.3902  0.4478
  328MPD2     C 4974   1.942   0.844  16.847 -0.6830 -0.8061  0.1931
  328MPD2    C1 4975   1.828   0.789  16.791  0.1431  0.0047 -0.2381
  328MPD2    C2 4976   1.725   0.873  16.752 -0.1526  0.9920 -0.5280
  328MPD2    C3 4977   1.730   1.011  16.770 -0.0104 -0.0509  0.8902
  328MPD2    C4 4978   1.843   1.066  16.822 -0.7480  0.1210 -0.6378
  328MPD2    C5 4979   1.946   0.982  16.867 -0.4813  0.3035  0.3633
  328MPD2     H 4980   1.644   0.829  16.696 -0.9354  1.5141  0.1873
  328MPD2    H1 4981   1.840   1.172  16.845 -2.6123  0.5079 -2.6019
  328MPD2    H2 4982   2.028   0.789  16.883 -0.2827 -0.4894 -0.2737
  328MPD2    H3 4983   2.026   1.018  16.931 -1.4891  0.6649  1.4230
  328MPD2     N 4984   1.617   1.097  16.750 -0.2928 -0.1789 -0.0674
  328MPD2    H5 4985   1.622   1.195  16.775 -0.3294 -0.5784  1.5160
  328MPD2    N1 4986   1.805   0.654  16.766  0.2628 -0.9475 -0.4015
  328MPD2    H7 4987   1.722   0.637  16.710 -0.4735 -0.6356  0.5914
  329TMC3    C1 4988   1.843   0.419  16.750  0.6905 -0.6587  0.4306
  329TMC3    C2 4989   1.709   0.404  16.765 -0.8668 -0.4540 -0.3483
  329TMC3    C3 4990   1.661   0.294  16.701 -0.5349  0.3104  0.1707
  329TMC3    C4 4991   1.930   0.353  16.671  0.3563 -0.7012 -0.4039
  329TMC3    C5 4992   1.871   0.236  16.617  0.0622  0.7524  0.0903
  329TMC3    C6 4993   1.741   0.211  16.633  0.9304  0.1423 -0.5470
  329TMC3     C 4994   1.884   0.551  16.805  0.5270 -0.2242 -0.5415
  329TMC3     O 4995   1.990   0.555  16.866 -0.0497  0.1416  0.2161
  329TMC3     H 4996   1.657   0.465  16.838 -0.3983  1.9564 -2.0330
  329TMC3    H1 4997   2.023   0.396  16.637 -0.9565  0.7852 -2.0924
  329TMC3    H2 4998   1.692   0.131  16.578 -0.5002 -0.1674  1.1689
  329TMC3    C7 4999   1.948   0.165  16.507 -0.4301  0.1394  0.0626
  329TMC3    C8 5000   1.514   0.286  16.681 -0.2913  0.1375 -0.6396
  329TMC3    O1 5001   1.874   0.118  16.423  0.5055  0.9357  0.5235
  329TMC3    O2 5002   1.468   0.226  16.586  0.1083  0.2697  0.1191
  330TMC3    C1 5003   4.463   0.915   9.178  0.5960  0.3484  0.0589
  330TMC3    C2 5004   4.368   0.819   9.139 -0.5766 -0.1268 -0.6593
  330TMC3    C3 5005   4.411   0.690   9.155 -0.2655 -0.0049 -0.1598
  330TMC3    C4 5006   4.574   0.883   9.249  0.2691 -0.3609 -0.1137
  330TMC3    C5 5007   4.599   0.757   9.283 -0.0375  0.2563  0.2653
  330TMC3    C6 5008   4.524   0.654   9.226 -0.4215 -0.1572 -0.5870
  330TMC3     C 5009   4.449   1.055   9.135 -0.4966  0.6193 -0.5295
  330TMC3     O 5010   4.507   1.139   9.201 -0.1618  0.9747 -0.3719
  330TMC3     H 5011   4.269   0.838   9.099 -0.0994  0.9775 -1.3276
  330TMC3    H1 5012   4.643   0.963   9.273 -0.6890  1.2684 -2.7647
  330TMC3    H2 5013   4.562   0.554   9.243  0.0877  0.0397 -0.5750
  330TMC3    C7 5014   4.732   0.734   9.339  0.6190 -0.2213 -0.5429
  330TMC3    C8 5015   4.306   0.596   9.119 -0.2552  0.1582 -0.2870
  330TMC3    O1 5016   0.042   0.827   9.398 -0.0527  0.0996  0.2083
  330TMC3    O2 5017   4.223   0.622   9.038 -0.2715  0.3552  0.8762
  331MPD2     C 5018   2.136   4.195  12.376  0.1251 -0.7521  0.3086
  331MPD2    C1 5019   2.214   4.172  12.264  0.1476 -0.2727  0.1965
  331MPD2    C2 5020   2.249   4.046  12.227  0.0352  0.3804  0.4598
  331MPD2    C3 5021   2.207   3.942  12.303  1.6867 -1.0161 -0.2614
  331MPD2    C4 5022   2.129   3.964  12.417  0.4688 -0.1560 -0.1161
  331MPD2    C5 5023   2.092   4.091  12.456  0.2983 -0.6490  0.2295
  331MPD2     H 5024   2.318   4.022  12.146  0.0662  1.9147  0.0377
  331MPD2    H1 5025   2.115   3.882  12.487 -0.2586  1.4812  1.6647
  331MPD2    H2 5026   2.111   4.294  12.411  0.6408 -0.0766 -1.2789
  331MPD2    H3 5027   2.033   4.112  12.544 -1.7705 -1.3147 -0.9991
  331MPD2     N 5028   2.255   3.817  12.266  0.7590 -0.2015 -0.6418
  331MPD2    H5 5029   2.322   3.819  12.190 -2.6445 -2.0238 -3.6770
  331MPD2    N1 5030   2.263   4.290  12.193 -0.1345  1.2063 -0.3972
  331MPD2    H7 5031   2.220   4.377  12.220  1.1977  1.7920 -0.1939
  332TMC3    C1 5032   2.265   3.588  12.243  0.6106  0.7949 -0.0426
  332TMC3    C2 5033   2.322   3.627  12.119 -0.7404  0.0124 -0.0229
  332TMC3    C3 5034   2.436   3.555  12.085 -0.0510 -0.5773 -0.1738
  332TMC3    C4 5035   2.290   3.474  12.310 -0.2288  0.2384 -0.2098
  332TMC3    C5 5036   2.400   3.407  12.268 -0.0368  0.0028 -0.2290
  332TMC3    C6 5037   2.477   3.445  12.159 -0.6831 -0.3004 -0.1171
  332TMC3     C 5038   2.211   3.700  12.316  0.2588  0.0146  0.5316
  332TMC3     O 5039   2.146   3.683  12.417  0.0113 -0.2826  0.3930
  332TMC3     H 5040   2.283   3.709  12.060 -0.5276 -1.9077 -2.7935
  332TMC3    H1 5041   2.236   3.449  12.401 -1.3557 -0.4382 -1.0533
  332TMC3    H2 5042   2.568   3.391  12.139 -0.3254 -0.7001  2.5161
  332TMC3    C7 5043   2.447   3.319  12.375  1.1501  0.6748  0.1200
  332TMC3    C8 5044   2.489   3.582  11.952 -0.4637 -0.4035  0.0486
  332TMC3    O1 5045   2.363   3.273  12.448 -0.4138  0.0285 -0.3858
  332TMC3    O2 5046   2.476   3.697  11.910  0.4497 -0.0140  0.2116
  333MPD2     C 5047   3.058   4.622  10.623  0.0256  0.2546  0.4595
  333MPD2    C1 5048   3.081   4.568  10.499  0.4498  0.2180 -0.1992
  333MPD2    C2 5049   3.061   4.435  10.488 -0.1313  0.0202  0.4723
  333MPD2    C3 5050   3.024   4.348  10.581  0.1758  0.4198 -0.1968
  333MPD2    C4 5051   3.007   4.404  10.706 -0.2490 -0.2916  0.2029
  333MPD2    C5 5052   3.019   4.538  10.726  0.7364 -0.1172 -0.3178
  333MPD2     H 5053   3.065   4.393  10.389  0.1494 -0.5116  0.7098
  333MPD2    H1 5054   2.969   4.347  10.791  2.4725  0.8350  2.1796
  333MPD2    H2 5055   3.077   4.725  10.649  0.7157 -0.1057  1.4028
  333MPD2    H3 5056   3.005   4.571  10.828  0.4445  0.8020 -0.6544
  333MPD2     N 5057   3.001   4.209  10.547  0.0274 -0.0608 -0.5668
  333MPD2    H5 5058   3.034   4.184  10.454  2.1009  0.5413  0.0107
  333MPD2    N1 5059   3.151   4.646  10.402  0.1676  0.3189 -0.2105
  333MPD2    H7 5060   3.195   4.734  10.426  0.4784  0.0819  0.0833
  334TMC3    C1 5061   3.257   4.681  10.190  0.0943 -0.0374 -0.4969
  334TMC3    C2 5062   3.338   4.624  10.101  0.6292 -0.5546  0.1878
  334TMC3    C3 5063   3.424   4.706  10.034  0.2892 -0.1574  0.0896
  334TMC3    C4 5064   3.245   0.077  10.196  0.4975  0.0094 -0.5464
  334TMC3    C5 5065   3.328   0.154  10.119  0.0329  0.3468 -0.2154
  334TMC3    C6 5066   3.425   0.102  10.047  0.5723 -0.4577 -0.7065
  334TMC3     C 5067   3.181   4.596  10.274 -0.2776  0.6180  0.2848
  334TMC3     O 5068   3.153   4.490  10.219 -0.3840  0.0142  0.1810
  334TMC3     H 5069   3.354   4.517  10.096  0.5301 -0.6196  1.3285
  334TMC3    H1 5070   3.163   0.119  10.253  1.3920 -0.4865  1.0984
  334TMC3    H2 5071   3.505   0.163  10.006  0.5614 -0.5813 -0.9163
  334TMC3    C7 5072   3.317   0.294  10.134  0.5092 -0.4830 -0.7685
  334TMC3    C8 5073   3.544   4.638   9.986  0.2981  0.0728  0.2413
  334TMC3    O1 5074   3.412   0.369  10.127 -0.2582 -0.2998  0.0292
  334TMC3    O2 5075   3.525   4.516   9.971 -0.0531  0.1514  0.2512
  335TMC3    C1 5076   2.641   1.144  17.328  0.5567  1.0647  0.0107
  335TMC3    C2 5077   2.542   1.093  17.250 -0.0632 -0.3011  0.5915
  335TMC3    C3 5078   2.572   1.013  17.146 -0.9478 -0.2881  0.2268
  335TMC3    C4 5079   2.771   1.120  17.294  0.4445  0.4400  0.2732
  335TMC3    C5 5080   2.795   1.031  17.199  0.0650  0.4160  0.5729
  335TMC3    C6 5081   2.698   0.972  17.127 -0.0816 -0.5454 -0.3002
  335TMC3     C 5082   2.602   1.247  17.426  0.0141  0.8650  0.5876
  335TMC3     O 5083   2.492   1.295  17.412 -0.1084  0.4123  0.3917
  335TMC3     H 5084   2.445   1.135  17.274 -0.1973  0.0886 -0.6355
  335TMC3    H1 5085   2.849   1.177  17.343  0.7974  0.4584 -0.2997
  335TMC3    H2 5086   2.726   0.918  17.038  0.4651 -2.1127  0.8266
  335TMC3    C7 5087   2.928   1.051  17.133  0.1465  0.1485 -0.7718
  335TMC3    C8 5088   2.471   0.962  17.061 -0.4393 -0.0163  0.1042
  335TMC3    O1 5089   2.974   0.956  17.066 -0.1544 -0.1988 -0.2651
  335TMC3    O2 5090   2.381   1.039  17.031 -0.0583 -0.6042  0.5283
  336MPD2     C 5091   2.285   3.236  16.055 -0.0856  0.0642 -0.5998
  336MPD2    C1 5092   2.379   3.183  15.972 -1.0598 -0.5219  1.0340
  336MPD2    C2 5093   2.446   3.070  16.015 -0.3834  0.8722  1.0821
  336MPD2    C3 5094   2.420   3.009  16.138  0.8249 -0.2297  0.1154
  336MPD2    C4 5095   2.330   3.067  16.224 -0.4071  0.2308  0.0725
  336MPD2    C5 5096   2.269   3.184  16.182 -0.4971  0.4397  0.1193
  336MPD2     H 5097   2.531   3.033  15.959 -2.7326 -0.8639 -1.3245
  336MPD2    H1 5098   2.302   3.015  16.315 -2.3300  0.4153 -0.4140
  336MPD2    H2 5099   2.213   3.308  16.018  0.7302  1.2535  0.1191
  336MPD2    H3 5100   2.186   3.216  16.245 -0.8080  0.1713 -0.1542
  336MPD2     N 5101   2.477   2.888  16.178  0.4044 -0.9050 -0.5595
  336MPD2    H5 5102   2.459   2.860  16.274 -1.1536 -0.6272 -0.7666
  336MPD2    N1 5103   2.416   3.248  15.851 -0.4527 -0.6487  0.3102
  336MPD2    H7 5104   2.358   3.330  15.840 -2.3042 -2.0613 -0.6317
  337TMC3    C1 5105   2.506   3.316  15.663 -0.3484 -0.5021 -0.8937
  337TMC3    C2 5106   2.398   3.331  15.582  0.2505  0.1581 -0.1784
  337TMC3    C3 5107   2.374   3.445  15.514 -0.4131  0.6309 -0.1979
  337TMC3    C4 5108   2.589   3.422  15.682 -1.0168  0.7218  0.6110
  337TMC3    C5 5109   2.567   3.539  15.616 -0.0480 -0.2494 -0.5241
  337TMC3    C6 5110   2.465   3.552  15.526 -0.8838  0.0579  0.8382
  337TMC3     C 5111   2.507   3.208  15.759  0.1894  0.9338  0.1120
  337TMC3     O 5112   2.600   3.125  15.756  0.1950 -0.1449  0.1726
  337TMC3     H 5113   2.335   3.243  15.580  2.6992 -1.5866 -0.4193
  337TMC3    H1 5114   2.654   3.404  15.766  0.2253 -2.1894 -0.9892
  337TMC3    H2 5115   2.455   3.647  15.475  2.3775 -0.0755 -0.0311
  337TMC3    C7 5116   2.641   3.651  15.664 -0.6855  0.1654  0.2385
  337TMC3    C8 5117   2.243   3.483  15.458  0.2261 -0.4925  0.2059
  337TMC3    O1 5118   2.628   3.750  15.594  0.1213 -0.0074 -0.3133
  337TMC3    O2 5119   2.227   3.605  15.441 -0.2201 -0.3072  0.1011
  338MPD2     C 5120   2.427   2.300   0.770  0.5990  0.4909 -0.3036
  338MPD2    C1 5121   2.431   2.373   0.653 -0.2349 -0.0974 -0.8861
  338MPD2    C2 5122   2.314   2.400   0.586 -0.7539 -0.0913  0.1167
  338MPD2    C3 5123   2.192   2.376   0.640  0.5026 -1.1125 -0.2074
  338MPD2    C4 5124   2.189   2.327   0.766 -0.0016  0.2304 -0.7728
  338MPD2    C5 5125   2.308   2.279   0.829 -1.1056 -0.0559 -0.4244
  338MPD2     H 5126   2.315   2.446   0.488 -0.5904  1.6564  0.9307
  338MPD2    H1 5127   2.098   2.323   0.825  1.4705  1.2107  1.5882
  338MPD2    H2 5128   2.516   2.267   0.822  0.9181 -1.9979 -2.4819
  338MPD2    H3 5129   2.313   2.235   0.928 -0.3137  1.0276  0.0126
  338MPD2     N 5130   2.073   2.400   0.558 -0.2669 -0.4636 -0.5419
  338MPD2    H5 5131   2.086   2.431   0.463  0.3472  0.0421 -0.2947
  338MPD2    N1 5132   2.549   2.413   0.587 -0.3569  0.4552  0.3927
  338MPD2    H7 5133   2.536   2.470   0.504 -0.5100 -0.4840 -0.2370
  339TMC3    C1 5134   1.842   2.410   0.491  0.1140  0.1100 -0.3295
  339TMC3    C2 5135   1.723   2.348   0.507 -0.0473  0.1481 -0.6310
  339TMC3    C3 5136   1.645   2.335   0.387 -0.1914  0.3588  0.0973
  339TMC3    C4 5137   1.896   2.459   0.376  0.2854 -0.7862 -0.1253
  339TMC3    C5 5138   1.822   2.432   0.263 -0.2365  0.1985 -0.7251
  339TMC3    C6 5139   1.698   2.379   0.266 -0.4823 -0.1820 -0.3739
  339TMC3     C 5140   1.935   2.387   0.597  0.4093 -0.4300 -0.4463
  339TMC3     O 5141   1.891   2.346   0.704 -0.2147 -0.6157  0.0011
  339TMC3     H 5142   1.692   2.317   0.606  1.0542 -0.2593 -0.4017
  339TMC3    H1 5143   1.989   2.514   0.366  0.2835 -0.1178  3.6808
  339TMC3    H2 5144   1.647   2.350   0.175  0.2201  0.9168 -1.1188
  339TMC3    C7 5145   1.912   2.383   0.161 -0.6938  0.3661 -0.8715
  339TMC3    C8 5146   1.500   2.328   0.391  0.6035  0.4236  1.2674
  339TMC3    O1 5147   2.002   2.455   0.124  0.1096 -0.1385 -0.8345
  339TMC3    O2 5148   1.444   2.339   0.284  0.9504  0.2737  0.0609
  340MPD2     C 5149   2.929   1.335  10.289 -0.6765 -0.4426  0.1442
  340MPD2    C1 5150   2.931   1.286  10.158 -0.7488 -0.2113 -0.1091
  340MPD2    C2 5151   3.019   1.183  10.124 -0.1864  0.0726 -0.5496
  340MPD2    C3 5152   3.096   1.132  10.219 -0.4047  0.6959 -0.2416
  340MPD2    C4 5153   3.104   1.188  10.350  0.1613  0.5958  0.9048
  340MPD2    C5 5154   3.021   1.291  10.380 -0.0234  0.0090  0.1149
  340MPD2     H 5155   3.024   1.146  10.022 -0.4487 -1.3023 -0.0585
  340MPD2    H1 5156   3.184   1.160  10.418 -0.4314 -1.4551  0.7588
  340MPD2    H2 5157   2.877   1.424  10.321  1.2349  1.2689 -1.5697
  340MPD2    H3 5158   3.028   1.331  10.480  0.9715 -0.9673  0.4352
  340MPD2     N 5159   3.194   1.033  10.190 -0.3170  0.1896 -0.0669
  340MPD2    H5 5160   3.274   1.013  10.250  0.8614 -0.5390 -1.8804
  340MPD2    N1 5161   2.842   1.338  10.062 -0.7888  0.3553 -0.7559
  340MPD2    H7 5162   2.863   1.311   9.966  0.9125 -0.6131 -0.1058
  341TMC3    C1 5163   2.661   1.429   9.965  0.1274 -0.2363  0.4395
  341TMC3    C2 5164   2.566   1.341   9.958 -0.4348  0.5475  0.3111
  341TMC3    C3 5165   2.537   1.280   9.840  0.3791  0.4316  0.5933
  341TMC3    C4 5166   2.734   1.468   9.860  0.5978 -0.1708  0.1063
  341TMC3    C5 5167   2.703   1.423   9.735  0.8774  0.3367 -0.3125
  341TMC3    C6 5168   2.604   1.328   9.724 -0.0400 -0.2262  0.4238
  341TMC3     C 5169   2.734   1.413  10.091  0.5209 -0.0273 -0.1303
  341TMC3     O 5170   2.686   1.462  10.191 -0.1377 -0.1303 -0.3303
  341TMC3     H 5171   2.517   1.300  10.045  3.4908 -1.1532  1.7414
  341TMC3    H1 5172   2.817   1.535   9.875 -0.5288  0.8852  1.6522
  341TMC3    H2 5173   2.584   1.288   9.626  1.6206 -1.1542  0.4731
  341TMC3    C7 5174   2.790   1.459   9.625 -0.7275 -0.9092 -0.6296
  341TMC3    C8 5175   2.469   1.153   9.846 -0.1051 -0.4305  0.3191
  341TMC3    O1 5176   2.889   1.528   9.648 -0.1529 -0.3338  0.1983
  341TMC3    O2 5177   2.406   1.120   9.946 -0.2204 -0.1086 -0.2096
  342MPD2     C 5178   0.910   3.814  17.562  0.9102  0.1699  0.0328
  342MPD2    C1 5179   1.032   3.807  17.499 -0.0835 -0.2289  0.1791
  342MPD2    C2 5180   1.082   3.924  17.446  0.3272  0.3209  0.5322
  342MPD2    C3 5181   1.015   4.048  17.465  0.0439  0.3611  0.5835
  342MPD2    C4 5182   0.893   4.047  17.529  0.2126  0.0381  0.4844
  342MPD2    C5 5183   0.850   3.934  17.588 -0.1105  1.0139  0.8177
  342MPD2     H 5184   1.166   3.924  17.378  0.6818 -1.7894  0.9685
  342MPD2    H1 5185   0.832   4.136  17.537  2.3934  1.5041  0.9740
  342MPD2    H2 5186   0.856   3.724  17.593  3.2912 -0.9270  0.9651
  342MPD2    H3 5187   0.761   3.925  17.650 -0.9761  0.6537 -0.4771
  342MPD2     N 5188   1.041   4.158  17.385 -0.0113 -0.9426 -0.2491
  342MPD2    H5 5189   0.958   4.213  17.368 -0.6159 -2.0869 -0.9639
  342MPD2    N1 5190   1.102   3.689  17.472  0.7502 -0.1257 -0.7905
  342MPD2    H7 5191   1.159   3.694  17.388  0.2506 -1.7774 -1.2202
  343TMC3    C1 5192   1.167   3.462  17.486 -0.0157  0.2874 -0.8049
  343TMC3    C2 5193   1.272   3.488  17.407 -0.3645  0.3112  0.5044
  343TMC3    C3 5194   1.351   3.381  17.373  0.5091  0.4369  0.6179
  343TMC3    C4 5195   1.143   3.332  17.529  0.3374 -0.1990  0.4979
  343TMC3    C5 5196   1.231   3.235  17.495  0.6143 -0.0979 -0.2373
  343TMC3    C6 5197   1.334   3.252  17.414  0.0039  0.3974  0.2241
  343TMC3     C 5198   1.073   3.565  17.526 -0.1575 -0.1205 -0.9727
  343TMC3     O 5199   0.989   3.532  17.607  0.4022  0.3736 -0.1547
  343TMC3     H 5200   1.305   3.585  17.372 -2.6215  0.0008 -2.4443
  343TMC3    H1 5201   1.061   3.309  17.596 -0.9391  2.5096 -0.1310
  343TMC3    H2 5202   1.408   3.177  17.389  1.9788  1.6877  2.1429
  343TMC3    C7 5203   1.206   3.102  17.535  0.2494 -0.0444  0.0955
  343TMC3    C8 5204   1.449   3.408  17.270  0.2270  0.2998 -0.3440
  343TMC3    O1 5205   1.295   3.022  17.542 -0.0427 -0.1958  0.7904
  343TMC3    O2 5206   1.488   3.522  17.268 -0.1888  0.6965 -0.2558
  344MPD2     C 5207   0.860   3.577  10.191 -0.4640 -0.7847  0.4190
  344MPD2    C1 5208   0.923   3.572  10.312 -0.0489  0.0069 -0.2334
  344MPD2    C2 5209   1.015   3.673  10.337 -0.7617 -0.4243 -0.2552
  344MPD2    C3 5210   1.025   3.784  10.253 -0.6295  0.2117  0.7932
  344MPD2    C4 5211   0.949   3.788  10.139  0.2497 -0.5694 -0.4834
  344MPD2    C5 5212   0.877   3.679  10.106  0.5771  0.2196 -0.3044
  344MPD2     H 5213   1.077   3.661  10.425 -1.9810  2.3760  0.9720
  344MPD2    H1 5214   0.946   3.871  10.069  0.0643 -0.5116 -0.4076
  344MPD2    H2 5215   0.800   3.497  10.150 -1.7532 -0.1907  1.1065
  344MPD2    H3 5216   0.810   3.687  10.022  1.1094 -2.4091 -0.9791
  344MPD2     N 5217   1.122   3.889  10.266  0.2769  0.0486 -0.1424
  344MPD2    H5 5218   1.133   3.946  10.183  0.0382 -0.4143 -0.4926
  344MPD2    N1 5219   0.914   3.463  10.405  0.1623  0.0874  0.2534
  344MPD2    H7 5220   0.999   3.448  10.458  1.4513 -3.8296 -2.9035
  345TMC3    C1 5221   1.314   3.983  10.331 -0.5525  0.2624 -0.4344
  345TMC3    C2 5222   1.426   3.970  10.402  0.0033 -0.1191 -0.5982
  345TMC3    C3 5223   1.533   4.050  10.378 -0.2311  0.5031 -0.0421
  345TMC3    C4 5224   1.309   4.081  10.240 -0.6231 -0.7295  1.0558
  345TMC3    C5 5225   1.411   4.170  10.216  0.4140  0.0277  0.1311
  345TMC3    C6 5226   1.530   4.147  10.279  0.8184  0.6302 -0.3127
  345TMC3     C 5227   1.204   3.900  10.372  0.5111 -0.3905  0.1575
  345TMC3     O 5228   1.214   3.847  10.482 -0.1209  0.4628  0.0382
  345TMC3     H 5229   1.424   3.898  10.483  1.0431 -0.6895 -1.0803
  345TMC3    H1 5230   1.210   4.098  10.200  0.1655 -0.4662 -0.7537
  345TMC3    H2 5231   1.611   4.211  10.247  1.2136  1.0624  1.6047
  345TMC3    C7 5232   1.381   4.306  10.176 -0.2345  0.2407 -0.4604
  345TMC3    C8 5233   1.583   4.112  10.497  0.3815 -0.1456 -0.2133
  345TMC3    O1 5234   1.467   4.387  10.203  0.4315  0.2120 -0.0451
  345TMC3    O2 5235   1.592   4.235  10.499 -0.2269 -0.3009 -0.1566
  346MPD2     C 5236   1.159   4.719  13.385  0.3681 -0.7604 -0.0052
  346MPD2    C1 5237   1.241   0.085  13.393  0.3406  0.4883  0.2758
  346MPD2    C2 5238   1.267   0.131  13.520 -0.3552  0.1615 -0.2466
  346MPD2    C3 5239   1.214   0.077  13.632 -0.6575  0.3867 -0.5588
  346MPD2    C4 5240   1.118   4.723  13.620 -0.5871  0.0761 -0.0323
  346MPD2    C5 5241   1.100   4.664  13.495 -0.5401  0.1135 -0.6513
  346MPD2     H 5242   1.343   0.208  13.531 -1.0789  0.4399  2.7902
  346MPD2    H1 5243   1.085   4.677  13.713 -1.4862 -1.0367 -0.9007
  346MPD2    H2 5244   1.129   4.676  13.290 -1.3488 -1.2845  0.7787
  346MPD2    H3 5245   1.035   4.579  13.485  3.5406 -2.8883 -1.8167
  346MPD2     N 5246   1.260   0.132  13.750 -0.3551  1.3498  0.0020
  346MPD2    H5 5247   1.337   0.195  13.730  1.1757 -0.4080  0.4555
  346MPD2    N1 5248   1.301   0.148  13.284 -0.1029  0.3859 -0.4541
  346MPD2    H7 5249   1.383   0.201  13.310 -0.0130 -0.5963  1.2858
  347TMC3    C1 5250   1.308   0.168  13.982  0.6564  0.7512  0.2162
  347TMC3    C2 5251   1.428   0.221  13.939  0.2366  0.7533 -0.5128
  347TMC3    C3 5252   1.518   0.247  14.035  0.2066  0.1376 -0.1349
  347TMC3    C4 5253   1.285   0.128  14.111  0.4536  0.0041 -0.2115
  347TMC3    C5 5254   1.383   0.159  14.202 -0.0250  0.2998  0.2241
  347TMC3    C6 5255   1.503   0.217  14.162  0.2840 -0.7643 -0.6467
  347TMC3     C 5256   1.219   0.111  13.873  0.3084 -0.4886 -0.3765
  347TMC3     O 5257   1.128   0.041  13.913  0.5085  0.4552 -0.9171
  347TMC3     H 5258   1.435   0.255  13.836  0.4752 -1.0735 -1.0969
  347TMC3    H1 5259   1.204   0.063  14.142  1.2125 -0.0633  1.6350
  347TMC3    H2 5260   1.586   0.227  14.231  1.1542  2.4819 -2.1767
  347TMC3    C7 5261   1.382   0.132  14.346 -0.0703 -0.1879  0.1555
  347TMC3    C8 5262   1.656   0.243  13.989 -0.5142 -0.4606 -0.3228
  347TMC3    O1 5263   1.463   0.197  14.411 -0.3717 -0.2145 -0.1804
  347TMC3    O2 5264   1.677   0.167  13.893  0.7556  0.4023 -0.0436
  348MPD2     C 5265   4.641   4.546  11.646 -0.4257 -0.3436 -0.0542
  348MPD2    C1 5266   0.009   4.630  11.670 -0.1206 -0.6101 -0.3675
  348MPD2    C2 5267   0.041   4.724  11.576 -0.6676 -0.8680  0.2529
  348MPD2    C3 5268   4.703   4.740  11.460 -0.5358  0.2219  0.2731
  348MPD2    C4 5269   4.592   4.664  11.445 -0.1586 -0.5069 -0.4679
  348MPD2    C5 5270   4.567   4.566  11.531 -0.2644  0.4004  0.4850
  348MPD2     H 5271   0.114   0.057  11.607 -0.4784 -0.5049 -1.0764
  348MPD2    H1 5272   4.522   4.667  11.362 -1.1645  0.6575  0.4153
  348MPD2    H2 5273   4.602   4.474  11.717  0.4239 -1.2548 -0.5095
  348MPD2    H3 5274   4.477   4.509  11.511  0.1969 -0.2987  0.3906
  348MPD2     N 5275   0.005   0.096  11.367 -0.2952  0.2837 -0.4996
  348MPD2    H5 5276   0.084   0.149  11.403  0.1022 -0.6213 -0.0252
  348MPD2    N1 5277   0.082   4.622  11.789  0.1328 -0.0859  0.5821
  348MPD2    H7 5278   0.178   4.652  11.780 -0.8506  1.6899 -4.1848
  349TMC3    C1 5279   0.132   4.501  11.991  0.6418  0.7604  1.1889
  349TMC3    C2 5280   0.091   4.376  12.041  0.0590 -0.5565 -0.4783
  349TMC3    C3 5281   0.172   4.267  12.028  0.2104 -0.8768  0.7279
  349TMC3    C4 5282   0.265   4.507  11.938 -0.0308  0.1858 -0.6043
  349TMC3    C5 5283   0.331   4.393  11.909 -0.6325 -0.0762 -0.4728
  349TMC3    C6 5284   0.287   4.275  11.955 -0.5140 -0.2197 -0.0662
  349TMC3     C 5285   0.037   4.563  11.904  0.4553  0.1976  0.1359
  349TMC3     O 5286   4.664   4.538  11.941  0.1074  0.0604  0.6297
  349TMC3     H 5287   4.734   4.357  12.084 -0.1440 -3.3958 -2.2133
  349TMC3    H1 5288   0.302   4.603  11.904 -0.1726  0.0082 -1.2680
  349TMC3    H2 5289   0.349   4.188  11.937 -1.2348 -0.9906  1.2477
  349TMC3    C7 5290   0.362   4.395  11.773 -0.2293  0.2594 -0.1394
  349TMC3    C8 5291   0.151   4.153  12.112  0.3476  0.2733  0.1300
  349TMC3    O1 5292   0.287   4.338  11.698 -0.1356  0.1729 -0.2940
  349TMC3    O2 5293   0.256   4.122  12.162  0.2720  0.2176  0.2873
  350MPD2     C 5294   4.237   3.256  10.002  0.7367 -0.6138  0.2622
  350MPD2    C1 5295   4.265   3.123  10.024 -0.8182  0.7515 -0.6119
  350MPD2    C2 5296   4.303   3.073  10.152  0.0497  0.5185  0.8224
  350MPD2    C3 5297   4.288   3.155  10.261 -0.5027 -0.0823  0.0961
  350MPD2    C4 5298   4.263   3.290  10.235 -0.3412 -0.2120 -0.1278
  350MPD2    C5 5299   4.244   3.342  10.107 -0.5109  0.3823 -0.0249
  350MPD2     H 5300   4.325   2.969  10.168 -1.8844  0.3097  2.0600
  350MPD2    H1 5301   4.250   3.356  10.320  3.4844  2.0930 -1.3577
  350MPD2    H2 5302   4.226   3.291   9.900 -2.0276 -1.4239  0.2758
  350MPD2    H3 5303   4.220   3.448  10.104  1.8378  0.9156  0.0207
  350MPD2     N 5304   4.311   3.101  10.394  1.2163  0.8297 -0.3469
  350MPD2    H5 5305   4.342   3.005  10.401  0.5373  0.5864 -0.7223
  350MPD2    N1 5306   4.268   3.026   9.924 -0.1763 -0.0121  0.1041
  350MPD2    H7 5307   4.310   2.937   9.951 -1.1601 -0.2869  0.7116
  351TMC3    C1 5308   4.219   2.916   9.712  1.0429 -0.0336 -0.2360
  351TMC3    C2 5309   4.334   2.839   9.715  0.1218  0.1165 -0.5457
  351TMC3    C3 5310   4.350   2.744   9.618  0.5690 -0.6177 -0.6554
  351TMC3    C4 5311   4.128   2.906   9.607  0.2200  0.2008 -0.2284
  351TMC3    C5 5312   4.155   2.826   9.503  0.7798  0.4686  0.0994
  351TMC3    C6 5313   4.261   2.731   9.515 -0.8326 -0.0090 -0.8165
  351TMC3     C 5314   4.200   3.034   9.801  0.1179 -0.4035 -0.2333
  351TMC3     O 5315   4.121   3.126   9.763 -0.0203  0.5103 -0.0243
  351TMC3     H 5316   4.415   2.853   9.785 -0.2769 -0.5397  0.0555
  351TMC3    H1 5317   4.044   2.974   9.597  0.3163  0.6911  2.3260
  351TMC3    H2 5318   4.283   2.667   9.430  2.3144 -0.9817  0.7118
  351TMC3    C7 5319   4.069   2.830   9.386 -0.6665 -0.2538  0.6833
  351TMC3    C8 5320   4.465   2.649   9.607  0.1124 -0.5711  0.0005
  351TMC3    O1 5321   4.011   2.933   9.364  0.5313 -0.4585 -0.3871
  351TMC3    O2 5322   4.514   2.630   9.496  0.3361  0.2240  0.1977
  352MPD2     C 5323   2.681   0.147   0.855  0.4344 -0.5238  0.7190
  352MPD2    C1 5324   2.562   0.108   0.908 -0.0300 -0.6971  0.1648
  352MPD2    C2 5325   2.545   4.731   0.973  0.4690  0.9210  0.1845
  352MPD2    C3 5326   2.649   4.641   0.961  0.2700 -0.7613  1.0325
  352MPD2    C4 5327   2.763   4.681   0.896  0.2105 -0.2437 -0.0837
  352MPD2    C5 5328   2.784   0.059   0.848  0.0409 -1.1303 -0.3694
  352MPD2     H 5329   2.460   4.703   1.035 -0.5723  0.5330 -1.4369
  352MPD2    H1 5330   2.840   4.609   0.872 -0.0197 -0.6374  0.3503
  352MPD2    H2 5331   2.678   0.238   0.796  2.5444 -2.3984 -2.2981
  352MPD2    H3 5332   2.883   0.074   0.804  0.1719 -3.0928 -0.7151
  352MPD2     N 5333   2.644   4.516   1.021  0.5338  0.7844 -0.1139
  352MPD2    H5 5334   2.731   4.465   1.017  0.0996  0.2667 -2.5586
  352MPD2    N1 5335   2.462   0.206   0.894 -0.1370 -0.2886 -0.1630
  352MPD2    H7 5336   2.480   0.297   0.853  0.2745 -0.9799 -1.5330
  353TMC3    C1 5337   2.554   4.317   1.129  0.1083 -0.3559 -0.3390
  353TMC3    C2 5338   2.665   4.288   1.200 -0.9098  0.7432 -0.1786
  353TMC3    C3 5339   2.668   4.175   1.275  0.0459 -0.0785 -0.4164
  353TMC3    C4 5340   2.445   4.234   1.137  0.9461 -0.7601 -0.4358
  353TMC3    C5 5341   2.450   4.129   1.226  0.1528 -0.0200 -1.0331
  353TMC3    C6 5342   2.560   4.086   1.280 -0.2802  0.0611  0.0632
  353TMC3     C 5343   2.530   4.450   1.063  0.7588 -0.2226  0.8546
  353TMC3     O 5344   2.411   4.485   1.062  0.1496 -0.1697 -0.0188
  353TMC3     H 5345   2.746   4.358   1.216  0.4879 -0.7587 -0.7134
  353TMC3    H1 5346   2.361   4.245   1.071 -1.5432  1.3752  3.0708
  353TMC3    H2 5347   2.566   4.002   1.348  1.0869 -1.2591 -1.6567
  353TMC3    C7 5348   2.351   4.029   1.205 -0.2827  0.0802  0.0386
  353TMC3    C8 5349   2.789   4.150   1.351  0.2084 -0.4267 -0.1536
  353TMC3    O1 5350   2.375   3.913   1.221 -0.5662  0.2872 -0.0885
  353TMC3    O2 5351   2.865   4.239   1.381  0.2172  0.3373  0.4047
  354TMC3    C1 5352   3.817   0.906  13.171  0.0867 -0.3196  0.2563
  354TMC3    C2 5353   3.750   1.021  13.171  0.4246 -0.1820  0.0514
  354TMC3    C3 5354   3.759   1.108  13.062  0.2018  0.4571 -0.0457
  354TMC3    C4 5355   3.877   0.870  13.056  0.0815  0.3879 -0.2974
  354TMC3    C5 5356   3.893   0.964  12.953  0.1081  0.0294  0.5943
  354TMC3    C6 5357   3.834   1.090  12.949 -0.0671  0.7409  0.5431
  354TMC3     C 5358   3.834   0.830  13.292  0.2768  0.2899  0.1713
  354TMC3     O 5359   3.876   0.714  13.299 -0.0229 -0.4841  0.6775
  354TMC3     H 5360   3.678   1.043  13.248 -0.4967  0.1804 -0.9212
  354TMC3    H1 5361   3.934   0.779  13.048 -0.4935  0.0850 -0.9039
  354TMC3    H2 5362   3.838   1.147  12.856 -1.0985  0.8045  0.5396
  354TMC3    C7 5363   3.971   0.934  12.836 -0.0023 -0.2113  0.6590
  354TMC3    C8 5364   3.708   1.241  13.075  0.2740 -0.2851  0.5991
  354TMC3    O1 5365   3.973   0.817  12.798 -0.5878 -0.5447  0.0043
  354TMC3    O2 5366   3.618   1.257  13.156  0.6059  0.4371 -0.7246
  355MPD2     C 5367   4.169   2.158  11.524  0.1664 -0.8001 -0.2467
  355MPD2    C1 5368   4.244   2.147  11.415  0.7021  0.0189 -0.4172
  355MPD2    C2 5369   4.371   2.102  11.426 -0.1022 -0.5781 -0.2145
  355MPD2    C3 5370   4.427   2.091  11.551  0.0227  0.2991 -0.1431
  355MPD2    C4 5371   4.347   2.115  11.658 -0.0146 -0.0221  0.1730
  355MPD2    C5 5372   4.216   2.144  11.652 -0.8080 -0.5458  0.1792
  355MPD2     H 5373   4.424   2.072  11.336  2.0752 -2.1075  1.5655
  355MPD2    H1 5374   4.372   2.096  11.762  0.8179 -4.7452 -0.9048
  355MPD2    H2 5375   4.064   2.181  11.513  0.0847 -0.6812  0.7423
  355MPD2    H3 5376   4.151   2.148  11.739 -0.2967  1.0910  0.4725
  355MPD2     N 5377   4.564   2.071  11.578  0.5777 -0.4014 -0.4976
  355MPD2    H5 5378   4.592   2.086  11.675  0.5269 -1.7930 -0.2674
  355MPD2    N1 5379   4.193   2.191  11.291  0.0644  0.6093 -0.5355
  355MPD2    H7 5380   4.093   2.201  11.288  0.1009  1.1260 -0.1274
  356TMC3    C1 5381   0.054   2.086  11.534 -0.7452  0.5242 -0.2395
  356TMC3    C2 5382   0.116   2.167  11.447 -0.5063  0.2888 -0.3871
  356TMC3    C3 5383   0.228   2.239  11.485 -0.3884 -0.9873 -0.0855
  356TMC3    C4 5384   0.085   2.083  11.668 -0.6554 -0.4998 -0.2259
  356TMC3    C5 5385   0.184   2.165  11.711 -0.4539 -0.4835  0.0991
  356TMC3    C6 5386   0.255   2.245  11.620 -0.2698 -0.2171 -0.3008
  356TMC3     C 5387   4.667   2.055  11.489  0.3120  0.5149  0.7572
  356TMC3     O 5388   4.650   2.047  11.371 -0.1765  0.1729  0.0118
  356TMC3     H 5389   0.077   2.186  11.347  0.1672 -0.0507 -0.7116
  356TMC3    H1 5390   0.041   2.008  11.732 -0.1884 -0.8875 -0.3604
  356TMC3    H2 5391   0.332   2.309  11.661  0.5485 -0.1683 -1.8842
  356TMC3    C7 5392   0.208   2.171  11.851 -0.2249 -0.0666  0.1634
  356TMC3    C8 5393   0.270   2.342  11.393  0.5590 -0.5535  0.0870
  356TMC3    O1 5394   0.201   2.064  11.913 -0.6584 -0.6075 -0.4323
  356TMC3    O2 5395   0.272   2.313  11.275  0.0301 -0.3456  0.6723
  357MPD2     C 5396   4.231   1.863   0.304 -0.0349  0.2530 -0.6184
  357MPD2    C1 5397   4.185   1.932   0.413 -0.5494 -0.0438  0.0871
  357MPD2    C2 5398   4.049   1.971   0.411  0.3581 -0.2226  0.2275
  357MPD2    C3 5399   3.971   1.946   0.300  0.2227  1.0827 -0.3270
  357MPD2    C4 5400   4.026   1.877   0.197  0.9416  1.2660  0.2821
  357MPD2    C5 5401   4.152   1.833   0.199  0.2846  0.3087 -0.2369
  357MPD2     H 5402   4.002   2.034   0.486 -1.1325  0.8941 -1.6491
  357MPD2    H1 5403   3.966   1.854   0.110  0.5502  4.0751 -0.1970
  357MPD2    H2 5404   4.332   1.825   0.295 -0.3763 -0.8522  0.3048
  357MPD2    H3 5405   4.189   1.781   0.111 -0.0298  1.4406 -1.0343
  357MPD2     N 5406   3.830   1.974   0.307 -0.0991  0.1787 -0.3558
  357MPD2    H5 5407   3.789   2.008   0.394  1.4451  0.2713  0.3410
  357MPD2    N1 5408   4.287   1.963   0.505  0.4290  0.6116 -0.1481
  357MPD2    H7 5409   4.384   1.935   0.490  0.6406  2.2180 -1.7315
  358TMC3    C1 5410   4.342   1.948   0.739 -0.1066 -0.2704  1.1259
  358TMC3    C2 5411   4.375   1.816   0.719  0.5166 -0.8050  0.3373
  358TMC3    C3 5412   4.349   1.722   0.816  0.1312 -1.0053 -0.5907
  358TMC3    C4 5413   4.292   1.981   0.863 -0.3751 -0.5996 -0.3314
  358TMC3    C5 5414   4.282   1.888   0.964  0.2384 -0.3266 -0.4277
  358TMC3    C6 5415   4.316   1.755   0.945 -0.1235 -0.2071  0.1815
  358TMC3     C 5416   4.257   1.997   0.635 -0.0640 -0.1805  0.2367
  358TMC3     O 5417   4.157   2.054   0.679  0.5220  0.2421 -0.3456
  358TMC3     H 5418   4.389   1.778   0.618  0.2320  1.0662 -0.4191
  358TMC3    H1 5419   4.273   2.085   0.887 -0.9634 -0.9849  0.8548
  358TMC3    H2 5420   4.280   1.681   1.015  1.7261  0.1767  1.5452
  358TMC3    C7 5421   4.238   1.927   1.100  0.8132 -0.0534  0.0211
  358TMC3    C8 5422   4.314   1.592   0.761  0.3107 -0.4750 -0.1955
  358TMC3    O1 5423   4.245   1.841   1.190 -0.1419  0.5904  0.3081
  358TMC3    O2 5424   4.282   1.592   0.639 -0.4588  0.0837  0.0081
  359MPD2     C 5425   3.959   0.386  12.014 -1.4913  0.3008 -0.2214
  359MPD2    C1 5426   4.069   0.295  12.020  0.7515 -0.5335  0.1040
  359MPD2    C2 5427   4.048   0.176  12.088 -0.5988 -0.3489  0.6034
  359MPD2    C3 5428   3.935   0.155  12.172  0.6508  1.0635  0.5714
  359MPD2    C4 5429   3.843   0.256  12.187  0.3222  0.2331 -0.3773
  359MPD2    C5 5430   3.853   0.366  12.100  0.0476 -0.3698  0.8177
  359MPD2     H 5431   4.126   0.102  12.074 -0.3471 -0.3910  2.2022
  359MPD2    H1 5432   3.757   0.253  12.253  0.5391 -0.4645 -0.1237
  359MPD2    H2 5433   3.947   0.465  11.940  1.3185  1.3579  0.4199
  359MPD2    H3 5434   3.785   0.450  12.101 -1.3761 -1.4969 -2.7831
  359MPD2     N 5435   3.911   0.037  12.240 -0.3472 -0.4300  0.3743
  359MPD2    H5 5436   3.826   0.034  12.294  0.0794 -0.2717  1.0483
  359MPD2    N1 5437   4.187   0.312  11.957 -0.1381  0.3465  0.3301
  359MPD2    H7 5438   4.258   0.241  11.971 -1.0890 -0.7914 -0.6260
  360TMC3    C1 5439   4.344   0.392  11.801  0.2851  0.0884 -0.3392
  360TMC3    C2 5440   4.440   0.332  11.876 -0.5947  0.1978 -0.1270
  360TMC3    C3 5441   4.562   0.301  11.817 -1.0276  0.4173 -0.7654
  360TMC3    C4 5442   4.364   0.417  11.666  0.2651 -0.0580  0.2762
  360TMC3    C5 5443   4.476   0.370  11.607 -0.1285 -0.6829 -0.6848
  360TMC3    C6 5444   4.579   0.322  11.683 -0.0814 -0.4517  0.1110
  360TMC3     C 5445   4.217   0.416  11.864 -0.1734 -0.6490 -0.2113
  360TMC3     O 5446   4.141   0.501  11.818 -0.2032  0.4222  0.3158
  360TMC3     H 5447   4.438   0.344  11.984  1.6532 -3.6515  0.3271
  360TMC3    H1 5448   4.283   0.475  11.622  0.5786 -0.5849 -0.9981
  360TMC3    H2 5449   4.661   0.276  11.629 -1.3659 -3.4762  0.7247
  360TMC3    C7 5450   4.482   0.375  11.467 -0.0017  0.3047  0.7733
  360TMC3    C8 5451   4.680   0.260  11.899  0.0272 -0.4677 -0.4879
  360TMC3    O1 5452   4.592   0.402  11.426  0.4450  0.0146  0.0670
  360TMC3    O2 5453   4.645   0.234  12.011  0.5602  0.3437 -0.3220
  361MPD2     C 5454   1.988   4.154  16.352  0.3188 -0.1015 -0.0898
  361MPD2    C1 5455   1.951   4.204  16.476 -0.2650 -0.2477 -0.1386
  361MPD2    C2 5456   2.014   4.146  16.587 -0.1158 -0.2658  0.0406
  361MPD2    C3 5457   2.092   4.031  16.576  0.2067 -0.5885 -0.1320
  361MPD2    C4 5458   2.128   3.985  16.451  0.5955  0.2806  0.2594
  361MPD2    C5 5459   2.073   4.052  16.344 -0.6674 -0.5993  0.7536
  361MPD2     H 5460   2.007   4.184  16.688 -0.6356  0.9189 -0.4475
  361MPD2    H1 5461   2.180   3.891  16.437 -1.0437 -0.1492 -2.9950
  361MPD2    H2 5462   1.955   4.210  16.265  0.4602 -0.6046 -0.4676
  361MPD2    H3 5463   2.110   4.017  16.248 -0.2316  2.3626 -0.1471
  361MPD2     N 5464   2.148   3.958  16.679 -0.0876 -0.2349 -0.0752
  361MPD2    H5 5465   2.194   3.872  16.651  1.0117 -0.1246  1.4033
  361MPD2    N1 5466   1.868   4.314  16.493  0.2659 -0.4807 -0.1812
  361MPD2    H7 5467   1.874   4.359  16.584  0.5306 -0.2280 -0.3273
  362TMC3    C1 5468   1.702   4.473  16.450 -0.8781 -0.1082  0.5636
  362TMC3    C2 5469   1.672   4.480  16.580  0.1428 -0.3908  0.5379
  362TMC3    C3 5470   1.567   4.562  16.614 -0.6521  0.2285  0.1757
  362TMC3    C4 5471   1.634   4.543  16.359  0.3635 -0.2773  0.6245
  362TMC3    C5 5472   1.528   4.619  16.393  0.8326 -0.4482 -0.7622
  362TMC3    C6 5473   1.490   4.635  16.527  0.9550  0.4953  0.5527
  362TMC3     C 5474   1.788   4.370  16.395  0.4982  0.0164 -0.6187
  362TMC3     O 5475   1.763   4.343  16.279  0.0523  0.1825 -0.0391
  362TMC3     H 5476   1.708   4.415  16.660 -1.5317 -1.7861  0.1740
  362TMC3    H1 5477   1.653   4.536  16.253  0.0338  2.1621  0.4013
  362TMC3    H2 5478   1.410   4.700  16.561 -0.0011 -0.1895 -0.3778
  362TMC3    C7 5479   1.491   4.729  16.316 -0.5643 -0.0237  1.1025
  362TMC3    C8 5480   1.552   4.580  16.751  0.1492 -0.9666  0.7967
  362TMC3    O1 5481   1.384   0.050  16.329  0.0219 -0.4342 -0.1483
  362TMC3    O2 5482   1.638   4.543  16.826  0.1627  0.3096  0.3744
  363TMC3    C1 5483   0.785   3.075   9.413 -0.9246  0.0114  0.1816
  363TMC3    C2 5484   0.886   3.011   9.477 -0.1090 -0.0413  0.6061
  363TMC3    C3 5485   0.871   2.879   9.510 -0.1538  0.1390  0.1337
  363TMC3    C4 5486   0.666   3.014   9.379 -0.2985 -0.3341  0.6175
  363TMC3    C5 5487   0.650   2.886   9.412  0.3908 -0.2628 -0.0025
  363TMC3    C6 5488   0.752   2.811   9.474 -0.1722  0.6768 -0.0133
  363TMC3     C 5489   0.801   3.219   9.407 -1.0477  0.1036 -0.1519
  363TMC3     O 5490   0.866   3.281   9.493 -0.1750  0.3355 -0.3755
  363TMC3     H 5491   0.974   3.073   9.494 -0.1035  0.4454 -1.2414
  363TMC3    H1 5492   0.580   3.074   9.352  0.6201  1.0400  0.7040
  363TMC3    H2 5493   0.733   2.706   9.495  2.8509 -0.8064 -4.7178
  363TMC3    C7 5494   0.523   2.816   9.380 -0.8133  0.0352 -0.0347
  363TMC3    C8 5495   0.961   2.830   9.615 -0.2725 -0.7256 -0.1272
  363TMC3    O1 5496   0.511   2.700   9.412  0.0426  0.4648  0.2158
  363TMC3    O2 5497   1.042   2.914   9.650  0.2264  0.0389 -0.2985
  364MPD2     C 5498   3.647   2.052  10.177  0.5720  0.1380 -0.5101
  364MPD2    C1 5499   3.748   2.049  10.081 -0.1213 -0.2163 -0.6753
  364MPD2    C2 5500   3.827   1.933  10.078  0.4092  0.2487  0.2473
  364MPD2    C3 5501   3.810   1.835  10.175 -0.2081  0.0853 -0.0616
  364MPD2    C4 5502   3.705   1.843  10.267 -0.3970 -0.1011  0.5270
  364MPD2    C5 5503   3.627   1.957  10.271  0.4730 -0.7509  0.3119
  364MPD2     H 5504   3.908   1.925  10.007  1.9307 -0.6266  2.0768
  364MPD2    H1 5505   3.691   1.775  10.350  1.8973 -2.8085 -1.2758
  364MPD2    H2 5506   3.584   2.140  10.187 -0.2092 -0.5451  0.5408
  364MPD2    H3 5507   3.552   1.961  10.350 -0.9137 -0.1587 -1.0294
  364MPD2     N 5508   3.909   1.734  10.195  0.1178 -0.1228 -0.0904
  364MPD2    H5 5509   3.906   1.687  10.285 -1.9542 -0.8950 -0.5526
  364MPD2    N1 5510   3.764   2.163   9.997  0.7916 -0.0753 -1.1471
  364MPD2    H7 5511   3.706   2.244  10.021  0.3123  0.2949 -3.5808
  365TMC3    C1 5512   3.878   2.287   9.829  0.9145 -0.0655  0.3804
  365TMC3    C2 5513   3.915   2.290   9.697  0.0402  0.0083 -0.2995
  365TMC3    C3 5514   3.968   2.404   9.648 -0.3082  0.8373 -0.6485
  365TMC3    C4 5515   3.900   2.391   9.912 -0.7930  0.3101 -0.1979
  365TMC3    C5 5516   3.960   2.504   9.859  0.3182  0.3833  0.3991
  365TMC3    C6 5517   3.995   2.508   9.729 -0.1003 -0.6621 -0.2615
  365TMC3     C 5518   3.835   2.162   9.881  0.6097 -0.5841 -0.2483
  365TMC3     O 5519   3.862   2.061   9.813 -0.0691  0.2195  0.1055
  365TMC3     H 5520   3.894   2.202   9.636 -1.0279 -0.0528  0.1632
  365TMC3    H1 5521   3.885   2.377  10.018  1.2545 -1.2613 -0.0968
  365TMC3    H2 5522   4.043   2.594   9.684  0.0973 -1.1409 -0.9712
  365TMC3    C7 5523   3.982   2.615   9.940  0.2686 -0.1356  0.1804
  365TMC3    C8 5524   4.068   2.375   9.542 -0.1567  0.1241  0.1914
  365TMC3    O1 5525   4.059   2.699   9.890  0.0227 -0.0540 -0.3140
  365TMC3    O2 5526   4.120   2.473   9.492 -0.1066 -0.0259 -0.4098
  366MPD2     C 5527   2.573   1.880  15.468 -0.0911  0.3537 -0.5462
  366MPD2    C1 5528   2.463   1.931  15.402  0.4176 -0.3845  0.0710
  366MPD2    C2 5529   2.456   1.929  15.264 -0.3045  0.1026  0.0978
  366MPD2    C3 5530   2.571   1.908  15.196 -1.0397 -0.4141 -0.4125
  366MPD2    C4 5531   2.679   1.850  15.260 -0.0318  0.5629 -0.1910
  366MPD2    C5 5532   2.680   1.838  15.395 -0.3301 -0.7248 -0.5069
  366MPD2     H 5533   2.369   1.965  15.210  0.1944  1.6076  0.3064
  366MPD2    H1 5534   2.775   1.842  15.210 -0.2963  1.8619 -0.9183
  366MPD2    H2 5535   2.583   1.886  15.576  1.5060 -0.1838 -0.6697
  366MPD2    H3 5536   2.763   1.812  15.459  0.6942 -0.4559 -1.7155
  366MPD2     N 5537   2.596   1.947  15.060 -0.1357 -0.0996 -0.2632
  366MPD2    H5 5538   2.670   1.900  15.008  0.8813 -0.5082  1.5673
  366MPD2    N1 5539   2.356   1.991  15.470  0.4645 -0.8388  0.7066
  366MPD2    H7 5540   2.282   2.041  15.423  2.0852  1.2823  0.3667
  367TMC3    C1 5541   2.255   2.130  15.628 -0.4504  0.0556 -0.1315
  367TMC3    C2 5542   2.308   2.215  15.714 -0.5157  0.3902 -0.1846
  367TMC3    C3 5543   2.244   2.338  15.719 -0.2834 -0.2524 -0.4346
  367TMC3    C4 5544   2.154   2.157  15.534 -0.7298 -0.0867  0.2151
  367TMC3    C5 5545   2.083   2.271  15.554  0.5098 -0.0373 -0.8801
  367TMC3    C6 5546   2.141   2.368  15.632 -0.9833 -0.8139 -0.4146
  367TMC3     C 5547   2.351   2.023  15.605 -0.7401  0.1907  0.4504
  367TMC3     O 5548   2.421   1.985  15.698 -0.0544 -0.0083 -0.6474
  367TMC3     H 5549   2.376   2.180  15.791  2.3316  1.8535 -2.0200
  367TMC3    H1 5550   2.126   2.096  15.449  0.0949 -1.0423  0.6305
  367TMC3    H2 5551   2.094   2.466  15.636  0.0255 -0.3232 -0.7284
  367TMC3    C7 5552   2.006   2.326  15.450 -0.0888  0.5658  0.0773
  367TMC3    C8 5553   2.317   2.460  15.756  0.1918 -0.1410  0.1257
  367TMC3    O1 5554   2.031   2.441  15.421  0.0837 -0.1781 -0.3528
  367TMC3    O2 5555   2.402   2.441  15.843 -0.0954  0.2571 -0.6645
  368MPD2     C 5556   2.464   4.296  12.504  0.1179  0.5208 -0.7232
  368MPD2    C1 5557   2.544   4.377  12.587  0.7551  0.1507 -0.1761
  368MPD2    C2 5558   2.663   4.318  12.627 -0.1850 -0.3585  0.7750
  368MPD2    C3 5559   2.702   4.187  12.587  0.3370  0.2569 -0.0873
  368MPD2    C4 5560   2.622   4.128  12.489  0.5123 -0.0003 -0.6775
  368MPD2    C5 5561   2.505   4.180  12.453  1.1785  1.2515 -0.0995
  368MPD2     H 5562   2.719   4.364  12.707  0.3108 -0.3170  0.3999
  368MPD2    H1 5563   2.651   4.035  12.441  1.6185  0.0511 -0.0886
  368MPD2    H2 5564   2.367   4.335  12.477  0.2996  1.3853 -0.1437
  368MPD2    H3 5565   2.436   4.129  12.387  1.9609  0.7845 -0.5706
  368MPD2     N 5566   2.822   4.123  12.615 -0.0991  0.0214  0.6988
  368MPD2    H5 5567   2.841   4.044  12.555 -0.9002 -0.9167  1.6717
  368MPD2    N1 5568   2.500   4.507  12.625 -0.3564  0.0428  0.0988
  368MPD2    H7 5569   2.413   4.539  12.582  0.9600  0.3521 -2.3721
  369TMC3    C1 5570   2.490   4.716  12.715  0.1056 -0.5645 -0.8145
  369TMC3    C2 5571   2.565   0.082  12.684 -0.5897  0.3401  0.1018
  369TMC3    C3 5572   2.495   0.182  12.614 -0.1524 -0.1396  0.9489
  369TMC3    C4 5573   2.361   4.697  12.679  0.2219 -0.2936  0.4169
  369TMC3    C5 5574   2.304   0.059  12.613  0.0591  0.1460  1.7386
  369TMC3    C6 5575   2.366   0.174  12.572 -0.3510 -0.4721  0.4621
  369TMC3     C 5576   2.555   4.588  12.724 -0.0556  0.1388 -0.6017
  369TMC3     O 5577   2.648   4.573  12.800  0.1796 -0.2544  0.3532
  369TMC3     H 5578   2.668   0.079  12.718 -0.3570  1.7788 -0.4518
  369TMC3    H1 5579   2.303   4.620  12.728 -1.4862  2.0656  2.1059
  369TMC3    H2 5580   2.327   0.229  12.487 -1.4093  0.4274  1.5173
  369TMC3    C7 5581   2.174   0.026  12.568  0.1348  0.0520  0.6079
  369TMC3    C8 5582   2.580   0.283  12.549 -0.6314 -0.6414 -0.9460
  369TMC3    O1 5583   2.159   4.646  12.551  0.8071  0.6855  0.6608
  369TMC3    O2 5584   2.538   0.336  12.446 -0.8547 -0.2382  0.5179
  370TMC3    C1 5585   2.742   0.212  16.039  0.0844  0.3060 -0.2636
  370TMC3    C2 5586   2.690   0.147  16.143  0.3950  0.4715  0.0173
  370TMC3    C3 5587   2.651   0.014  16.136  0.4079 -0.7243 -0.4014
  370TMC3    C4 5588   2.771   0.146  15.919  0.0832 -0.2518 -0.0924
  370TMC3    C5 5589   2.755   0.013  15.922  0.0882  0.0975 -0.1492
  370TMC3    C6 5590   2.698   4.683  16.026  0.3594 -0.0482 -0.4153
  370TMC3     C 5591   2.824   0.330  16.062  0.5587 -0.0224  0.0683
  370TMC3     O 5592   2.878   0.330  16.168 -0.4354  0.2144  0.0854
  370TMC3     H 5593   2.674   0.215  16.226 -0.4303  2.0413 -1.4373
  370TMC3    H1 5594   2.794   0.202  15.829 -2.2924  1.6741  0.4964
  370TMC3    H2 5595   2.687   4.575  16.023  0.1760 -0.0980  1.7201
  370TMC3    C7 5596   2.811   4.683  15.811  0.6431 -0.0991  0.3910
  370TMC3    C8 5597   2.630   4.688  16.266  0.2843  0.3978 -0.4107
  370TMC3    O1 5598   2.830   0.010  15.709 -0.0355  0.0343 -0.2522
  370TMC3    O2 5599   2.672   4.575  16.287 -0.1583 -0.5571  1.1578
  371TMC3    C1 5600   4.094   3.213  15.380 -0.1112  0.2434  0.3119
  371TMC3    C2 5601   3.990   3.208  15.460 -0.5555  0.8052  0.1250
  371TMC3    C3 5602   3.896   3.305  15.445  0.3381 -1.2093  0.0137
  371TMC3    C4 5603   4.106   3.303  15.272  0.9529 -0.7143 -0.0158
  371TMC3    C5 5604   4.010   3.397  15.258  0.7415 -0.4282  0.6191
  371TMC3    C6 5605   3.901   3.400  15.344  0.0498  0.8156 -0.5995
  371TMC3     C 5606   4.172   3.082  15.377  0.1428 -0.2236 -0.4920
  371TMC3     O 5607   4.275   3.086  15.314 -0.1094  0.0772  0.1847
  371TMC3     H 5608   3.995   3.149  15.551 -0.5525  2.3850  1.1566
  371TMC3    H1 5609   4.194   3.287  15.211  1.5661  2.2732  0.0924
  371TMC3    H2 5610   3.827   3.475  15.319 -0.2533 -0.2558 -2.8522
  371TMC3    C7 5611   4.020   3.504  15.158 -0.4459 -0.7721 -0.0396
  371TMC3    C8 5612   3.791   3.298  15.535 -0.5531  0.1160 -0.1198
  371TMC3    O1 5613   3.935   3.590  15.161  0.3649  0.7392  0.1143
  371TMC3    O2 5614   3.775   3.189  15.588 -0.3348 -0.1386 -0.6038
  372MPD2     C 5615   3.150   4.435  13.035  1.0926 -0.0440 -0.0202
  372MPD2    C1 5616   3.258   4.435  13.124 -0.4138 -0.1735 -0.1031
  372MPD2    C2 5617   3.242   4.376  13.247 -0.1825  0.1997 -0.9013
  372MPD2    C3 5618   3.125   4.325  13.286  0.8269 -0.5443  0.2394
  372MPD2    C4 5619   3.012   4.337  13.204  0.2063  0.1877 -0.5017
  372MPD2    C5 5620   3.026   4.392  13.079  0.7584  1.0907  0.1062
  372MPD2     H 5621   3.322   4.374  13.320  1.6618 -0.2332 -2.9402
  372MPD2    H1 5622   2.915   4.302  13.236  0.0840  2.0762  1.1659
  372MPD2    H2 5623   3.146   4.475  12.934 -1.9098 -2.3115 -0.8094
  372MPD2    H3 5624   2.939   4.401  13.014 -0.2786 -2.0006  1.0701
  372MPD2     N 5625   3.116   4.271  13.418 -0.2878 -0.0344 -0.2164
  372MPD2    H5 5626   3.202   4.269  13.472 -1.3018 -1.1622  1.3620
  372MPD2    N1 5627   3.380   4.503  13.090 -0.3538  0.1879  0.5169
  372MPD2    H7 5628   3.457   4.483  13.153 -0.5139 -0.1913  0.5932
  373TMC3    C1 5629   3.005   4.220  13.616 -0.3962 -0.8683  0.8397
  373TMC3    C2 5630   2.894   4.267  13.689  0.1635 -0.0484 -0.5989
  373TMC3    C3 5631   2.874   4.201  13.804 -0.4044 -0.0152  0.1306
  373TMC3    C4 5632   3.088   4.126  13.654  0.2664  0.2126  0.6788
  373TMC3    C5 5633   3.069   4.063  13.778  0.1064 -0.1978  0.1503
  373TMC3    C6 5634   2.957   4.096  13.845  0.4751 -0.2431 -0.0817
  373TMC3     C 5635   3.000   4.224  13.477  0.1754 -0.4107 -0.3811
  373TMC3     O 5636   2.881   4.212  13.442 -0.3293  0.3516  0.1540
  373TMC3     H 5637   2.827   4.339  13.644  0.4244  0.3687 -0.3139
  373TMC3    H1 5638   3.175   4.106  13.592  0.1696  0.9394  0.3035
  373TMC3    H2 5639   2.924   4.057  13.941 -0.4639  1.9130  0.4822
  373TMC3    C7 5640   3.180   3.998  13.834 -0.0092 -0.4580 -1.1481
  373TMC3    C8 5641   2.760   4.246  13.885  0.3187 -0.2040  0.5670
  373TMC3    O1 5642   3.277   3.989  13.761 -0.0700  0.2864 -0.4615
  373TMC3    O2 5643   2.663   4.288  13.824 -0.3326  0.3605  0.0552
  374TMC3    C1 5644   4.402   0.201   9.706  0.3160  0.4300 -0.2253
  374TMC3    C2 5645   4.440   0.327   9.672 -0.1097 -0.2371  0.7174
  374TMC3    C3 5646   4.343   0.401   9.603  0.2682 -0.4513  0.8974
  374TMC3    C4 5647   4.274   0.150   9.690 -0.0469 -0.2416 -0.2476
  374TMC3    C5 5648   4.187   0.221   9.623  0.5817 -0.8137  0.3377
  374TMC3    C6 5649   4.219   0.348   9.580 -0.7639  0.3016 -0.1667
  374TMC3     C 5650   4.495   0.114   9.779  0.2404 -0.0288 -0.0884
  374TMC3     O 5651   4.455   0.002   9.798  0.2757 -0.3632  0.4302
  374TMC3     H 5652   4.541   0.365   9.681 -0.2653  0.6935 -1.5671
  374TMC3    H1 5653   4.251   0.049   9.721  1.0731 -0.4190 -0.0052
  374TMC3    H2 5654   4.142   0.418   9.552 -1.5695  0.0073  1.2931
  374TMC3    C7 5655   4.054   0.164   9.600  0.4895 -0.4500 -0.8279
  374TMC3    C8 5656   4.370   0.544   9.562 -0.5335 -0.4513  0.3712
  374TMC3    O1 5657   4.061   0.043   9.577  0.2892 -0.3676 -0.1358
  374TMC3    O2 5658   4.310   0.594   9.466  0.0716  0.2745  0.2586
  375MPD2     C 5659   4.193   0.895  16.560 -0.5717  0.6246  0.6134
  375MPD2    C1 5660   4.072   0.860  16.498 -0.1633 -1.1286 -0.4544
  375MPD2    C2 5661   4.059   0.791  16.378 -0.0753  0.5136 -1.3854
  375MPD2    C3 5662   4.175   0.766  16.304  0.4181 -0.9539 -0.2668
  375MPD2    C4 5663   4.294   0.785  16.364  0.3016 -0.7089  0.5336
  375MPD2    C5 5664   4.299   0.849  16.483  0.0281 -0.0137 -0.1122
  375MPD2     H 5665   3.961   0.785  16.332 -1.0172  0.0690  0.6986
  375MPD2    H1 5666   4.387   0.743  16.327 -0.4463 -1.1834 -0.7841
  375MPD2    H2 5667   4.197   0.924  16.664  2.3081  1.1088  0.3651
  375MPD2    H3 5668   4.395   0.849  16.533 -0.2715 -2.4616  0.4447
  375MPD2     N 5669   4.175   0.714  16.167 -0.1283  0.3088 -0.0171
  375MPD2    H5 5670   4.268   0.679  16.144 -1.2525 -1.6625 -1.5005
  375MPD2    N1 5671   3.952   0.892  16.558  0.0105 -0.3948  0.3102
  375MPD2    H7 5672   3.864   0.887  16.508  0.0367  1.3917  0.0715
  376TMC3    C1 5673   4.102   0.581  15.982  0.3357  0.2805  0.9573
  376TMC3    C2 5674   4.169   0.475  16.035  0.2005  0.1233  0.3437
  376TMC3    C3 5675   4.154   0.361  15.970 -0.0924 -0.4307 -0.0636
  376TMC3    C4 5676   4.014   0.572  15.883  0.1204 -0.1404  0.5948
  376TMC3    C5 5677   3.995   0.450  15.816  0.1883  0.6624 -0.0940
  376TMC3    C6 5678   4.066   0.340  15.867  0.1559  0.6492  0.6956
  376TMC3     C 5679   4.073   0.688  16.082 -0.1859 -0.2811  0.4729
  376TMC3     O 5680   3.956   0.724  16.080  0.3346  0.0742  0.4896
  376TMC3     H 5681   4.230   0.483  16.124 -0.4771  2.2781  0.6217
  376TMC3    H1 5682   3.986   0.663  15.832 -0.8165 -0.9861 -0.3919
  376TMC3    H2 5683   4.062   0.244  15.815 -4.4043  1.0633  0.2632
  376TMC3    C7 5684   3.997   0.447  15.677  0.0953 -0.7019  0.0316
  376TMC3    C8 5685   4.249   0.253  15.995 -0.2838 -0.7358 -0.1487
  376TMC3    O1 5686   4.030   0.549  15.620  0.0960  0.0779 -0.4043
  376TMC3    O2 5687   4.214   0.138  15.962 -0.1295  0.5294  0.4189
  377MPD2     C 5688   1.789   0.488  12.107  0.0694 -0.0125 -0.1174
  377MPD2    C1 5689   1.823   0.360  12.123  0.1096 -0.2575  0.0439
  377MPD2    C2 5690   1.732   0.265  12.167  0.3192  0.7789  0.0759
  377MPD2    C3 5691   1.602   0.303  12.188 -0.0481  0.9136  0.3591
  377MPD2    C4 5692   1.562   0.434  12.173 -0.2519  0.1513 -1.1637
  377MPD2    C5 5693   1.651   0.525  12.126 -0.1588  0.0474 -0.1328
  377MPD2     H 5694   1.759   0.160  12.174  0.5204  0.9354  1.7626
  377MPD2    H1 5695   1.460   0.468  12.187 -0.3469 -0.6858  0.2069
  377MPD2    H2 5696   1.862   0.561  12.073 -1.6037  0.7484 -2.0599
  377MPD2    H3 5697   1.617   0.621  12.088 -0.5753 -0.1541 -0.2657
  377MPD2     N 5698   1.500   0.214  12.230 -0.9460 -0.2064  0.0578
  377MPD2    H5 5699   1.430   0.256  12.290 -0.3953  2.5092 -1.1680
  377MPD2    N1 5700   1.952   0.327  12.091  0.7380 -0.4528  1.0460
  377MPD2    H7 5701   2.002   0.402  12.044 -0.9609  0.1805  0.2229
  378TMC3    C1 5702   2.360   0.359  12.139 -0.1177 -0.1267  0.2417
  378TMC3    C2 5703   2.226   0.348  12.111 -0.1403 -0.0088 -0.1526
  378TMC3    C3 5704   2.167   0.226  12.137  0.0979 -0.1616  0.2159
  378TMC3    C4 5705   2.442   0.248  12.175 -0.2301 -0.0221 -0.2193
  378TMC3    C5 5706   2.370   0.135  12.205 -0.0487  1.3081 -0.5183
  378TMC3    C6 5707   2.236   0.126  12.201  0.1692 -0.3141  0.4995
  378TMC3     C 5708   2.424   0.487  12.093  0.5441 -0.0996  0.1835
  378TMC3     O 5709   2.417   0.511  11.976  0.0070  0.6476 -0.0363
  378TMC3     H 5710   2.182   0.427  12.052 -2.2152 -0.2992  1.0086
  378TMC3    H1 5711   2.548   0.250  12.195 -0.2128  3.0077 -0.6745
  378TMC3    H2 5712   2.189   0.037  12.242  1.8594 -2.1670 -1.5582
  378TMC3    C7 5713   2.436   0.010  12.227 -0.1201  0.3554 -0.0476
  378TMC3    C8 5714   2.024   0.213  12.128  0.0706 -0.0075  0.2710
  378TMC3    O1 5715   2.374   4.671  12.292  0.5794  0.3009 -0.0062
  378TMC3    O2 5716   1.980   0.117  12.184  0.1755 -0.0442 -0.4471
  379MPD2     C 5717   3.173   2.287  15.977 -0.0689  0.1884 -0.0759
  379MPD2    C1 5718   3.190   2.402  16.047 -0.4657  0.0663  0.4301
  379MPD2    C2 5719   3.249   2.394  16.174 -0.2220  0.3346 -0.2635
  379MPD2    C3 5720   3.300   2.275  16.218 -0.2227  0.1496  0.7481
  379MPD2    C4 5721   3.282   2.161  16.148  0.1753 -0.2003 -0.6470
  379MPD2    C5 5722   3.218   2.165  16.026 -0.4003 -0.5857 -0.1020
  379MPD2     H 5723   3.258   2.484  16.234 -1.3697 -0.3249  0.8903
  379MPD2    H1 5724   3.321   2.067  16.186  2.9045  0.9700 -0.5462
  379MPD2    H2 5725   3.126   2.292  15.879 -0.9102  0.6340  0.3525
  379MPD2    H3 5726   3.210   2.080  15.959  1.7191 -1.2448  0.4890
  379MPD2     N 5727   3.374   2.258  16.342 -0.6461  0.4343  0.0868
  379MPD2    H5 5728   3.432   2.176  16.358 -0.6649  0.4717  0.3491
  379MPD2    N1 5729   3.145   2.524  15.987  0.9556 -0.4876 -0.0085
  379MPD2    H7 5730   3.105   2.516  15.894  0.0875 -0.5815  0.3780
  380TMC3    C1 5731   3.130   2.750  15.929  0.2609  0.2132 -0.1751
  380TMC3    C2 5732   3.219   2.846  15.892 -0.0857  0.0818  0.0547
  380TMC3    C3 5733   3.161   2.936  15.810 -0.5024  0.6970  0.5016
  380TMC3    C4 5734   2.998   2.744  15.889 -0.2978  0.2052 -0.1160
  380TMC3    C5 5735   2.946   2.846  15.813 -0.3625  0.4509 -0.1528
  380TMC3    C6 5736   3.033   2.945  15.778 -0.0623 -0.1078 -0.1110
  380TMC3     C 5737   3.169   2.655  16.026 -0.5008  0.4087 -1.0224
  380TMC3     O 5738   3.247   2.692  16.114  0.4481 -0.4307 -0.7014
  380TMC3     H 5739   3.324   2.837  15.914 -0.3427  1.7723  1.9277
  380TMC3    H1 5740   2.932   2.662  15.916  1.3971 -0.8759  0.7876
  380TMC3    H2 5741   2.998   3.020  15.709 -1.0948  0.3017  0.8593
  380TMC3    C7 5742   2.868   2.799  15.701  0.4342 -0.3071  0.7733
  380TMC3    C8 5743   3.238   2.975  15.693  0.0486  0.5799  0.5020
  380TMC3    O1 5744   2.918   2.818  15.590  0.5090  0.8648  0.2633
  380TMC3    O2 5745   3.195   3.067  15.627 -0.2475 -0.4588 -0.3370
  381TMC3    C1 5746   2.787   3.983  16.283  0.1144 -0.4941 -0.0291
  381TMC3    C2 5747   2.893   4.067  16.258 -0.1904  0.1398 -0.2613
  381TMC3    C3 5748   2.873   4.200  16.277 -0.1158  0.0046  0.1172
  381TMC3    C4 5749   2.670   4.025  16.335  0.4386  0.6885  0.9011
  381TMC3    C5 5750   2.656   4.158  16.351 -0.2147 -0.2290 -0.7041
  381TMC3    C6 5751   2.757   4.247  16.327  0.0640 -0.1254  0.2991
  381TMC3     C 5752   2.798   3.845  16.240 -0.1910 -0.0352  0.1292
  381TMC3     O 5753   2.912   3.793  16.251  0.4384 -0.2590  0.2827
  381TMC3     H 5754   2.985   4.034  16.211  0.2634 -0.4844  1.0836
  381TMC3    H1 5755   2.593   3.954  16.361  0.5885  0.0248 -0.4703
  381TMC3    H2 5756   2.757   4.348  16.366  0.1241 -0.3975  1.0024
  381TMC3    C7 5757   2.522   4.203  16.346  0.0285  0.0310 -0.1544
  381TMC3    C8 5758   2.979   4.288  16.226  1.2723 -0.9903 -0.2332
  381TMC3    O1 5759   2.440   4.146  16.278  0.3481 -0.4505  0.0086
  381TMC3    O2 5760   3.070   4.236  16.167 -0.4566  0.0354  0.1793
  382MPD2     C 5761   1.451   2.309  16.776  0.3388 -0.5128 -0.1447
  382MPD2    C1 5762   1.571   2.242  16.788  0.3517  0.3973 -0.2039
  382MPD2    C2 5763   1.567   2.117  16.852 -0.0078  0.2577 -0.2023
  382MPD2    C3 5764   1.454   2.066  16.911  1.0808 -0.6755 -0.3169
  382MPD2    C4 5765   1.338   2.138  16.902 -0.6373 -0.3258 -0.5922
  382MPD2    C5 5766   1.336   2.254  16.839  0.2262  0.5666  0.4223
  382MPD2     H 5767   1.663   2.067  16.861 -0.1758  0.8000  4.2292
  382MPD2    H1 5768   1.243   2.106  16.943  0.0375 -2.2947 -0.5481
  382MPD2    H2 5769   1.451   2.402  16.721  1.4969  1.1190  2.6405
  382MPD2    H3 5770   1.242   2.307  16.834  0.0029 -0.0612 -1.8160
  382MPD2     N 5771   1.456   1.942  16.980  0.3565  0.0302  0.5887
  382MPD2    H5 5772   1.369   1.909  17.021  0.0485 -0.7141 -0.6839
  382MPD2    N1 5773   1.701   2.308  16.770 -0.2012 -0.5396  0.4421
  382MPD2    H7 5774   1.786   2.261  16.802  1.4575  0.6960 -2.1773
  383TMC3    C1 5775   1.537   1.757  17.105 -0.3062  0.9175 -0.3040
  383TMC3    C2 5776   1.414   1.689  17.088 -0.5009 -1.0241 -0.0030
  383TMC3    C3 5777   1.407   1.556  17.136  0.3069  0.0037  0.1261
  383TMC3    C4 5778   1.635   1.702  17.177 -0.3696  0.5389 -0.3592
  383TMC3    C5 5779   1.619   1.578  17.229 -0.1362  0.5012 -0.4385
  383TMC3    C6 5780   1.515   1.495  17.195  0.0215 -0.2186 -0.0384
  383TMC3     C 5781   1.571   1.873  17.017  0.2240 -0.0018 -0.4355
  383TMC3     O 5782   1.691   1.896  17.003 -0.3734 -0.2337  0.3437
  383TMC3     H 5783   1.337   1.733  17.026  0.7162  1.4535  0.2471
  383TMC3    H1 5784   1.736   1.741  17.166 -0.9413  1.7998 -1.0948
  383TMC3    H2 5785   1.512   1.391  17.226  0.6152  0.2105  1.4688
  383TMC3    C7 5786   1.742   1.508  17.261  0.4482 -0.6616 -0.1528
  383TMC3    C8 5787   1.279   1.488  17.115  0.1641 -0.2102  0.2769
  383TMC3    O1 5788   1.748   1.393  17.211  0.5278 -0.1291  0.1358
  383TMC3    O2 5789   1.176   1.550  17.103 -0.1081 -0.0956 -0.0662
  384MPD2     C 5790   3.280   3.197  11.886  0.5515  0.5162 -0.0659
  384MPD2    C1 5791   3.370   3.175  11.985  0.6383  0.1441  0.0792
  384MPD2    C2 5792   3.493   3.124  11.946 -0.5067  0.1134 -0.6531
  384MPD2    C3 5793   3.530   3.108  11.813  0.3265  0.0235 -0.4798
  384MPD2    C4 5794   3.441   3.147  11.714 -0.5824 -0.0047 -0.1957
  384MPD2    C5 5795   3.316   3.191  11.754 -0.6798  0.0332 -0.2028
  384MPD2     H 5796   3.569   3.112  12.022 -3.3082 -1.3484  1.9092
  384MPD2    H1 5797   3.460   3.140  11.608 -0.6971 -2.3605 -0.0662
  384MPD2    H2 5798   3.178   3.226  11.910  1.9746  3.2811  2.5628
  384MPD2    H3 5799   3.238   3.212  11.682  0.7101  1.1539 -1.3812
  384MPD2     N 5800   3.653   3.055  11.764 -0.2404 -0.3029 -0.3966
  384MPD2    H5 5801   3.659   3.040  11.664  0.9713 -1.4541 -0.1512
  384MPD2    N1 5802   3.330   3.197  12.121  0.4327 -0.5631  0.6913
  384MPD2    H7 5803   3.235   3.223  12.142  0.2464 -1.2930  0.7279
  385TMC3    C1 5804   3.860   2.944  11.790  0.1047 -0.4681  0.2639
  385TMC3    C2 5805   3.818   2.850  11.702  0.3384  0.1088  0.1738
  385TMC3    C3 5806   3.864   2.718  11.715  0.2046  0.5247 -1.0323
  385TMC3    C4 5807   3.955   2.908  11.889  0.0613 -0.0242  0.6534
  385TMC3    C5 5808   3.991   2.783  11.903  0.3967 -0.2254  0.7443
  385TMC3    C6 5809   3.948   2.682  11.818  0.0212 -0.4468  0.1478
  385TMC3     C 5810   3.762   3.028  11.848  0.2598  0.2636  0.0504
  385TMC3     O 5811   3.764   3.018  11.970 -0.4972 -0.6212 -0.8332
  385TMC3     H 5812   3.736   2.877  11.636 -1.2905 -4.4712  0.2992
  385TMC3    H1 5813   3.984   2.981  11.964 -1.2634  2.5006 -1.3088
  385TMC3    H2 5814   3.959   2.577  11.839  4.1089 -0.1146 -0.4375
  385TMC3    C7 5815   3.977   2.730  12.032 -0.2481 -0.3139 -0.1238
  385TMC3    C8 5816   3.789   2.618  11.648  0.3991 -0.1905 -0.6320
  385TMC3    O1 5817   4.035   2.625  12.060 -0.4186 -0.3943  0.3457
  385TMC3    O2 5818   3.778   2.505  11.701 -0.2807  0.1541  0.1025
  386TMC3    C1 5819   3.713   4.648  11.171  0.4172  0.3727  0.5749
  386TMC3    C2 5820   3.700   0.024  11.093 -0.2623  0.3501  0.6105
  386TMC3    C3 5821   3.581   0.092  11.087 -0.2883  0.1321 -0.0952
  386TMC3    C4 5822   3.617   4.623  11.266 -0.0812 -0.2622  0.2708
  386TMC3    C5 5823   3.512   4.709  11.270  0.6158 -0.1783 -0.7559
  386TMC3    C6 5824   3.483   0.067  11.177  0.2938  0.1256 -0.8850
  386TMC3     C 5825   3.837   4.587  11.197  0.1265 -0.5251 -0.5203
  386TMC3     O 5826   3.937   4.650  11.173 -0.2044  0.3663  0.3783
  386TMC3     H 5827   3.772   0.038  11.013  1.8315 -0.0607  2.4221
  386TMC3    H1 5828   3.626   4.553  11.348  0.7840 -1.7006 -1.0586
  386TMC3    H2 5829   3.396   0.129  11.193 -0.1544 -0.9206  0.6933
  386TMC3    C7 5830   3.451   4.727  11.402 -0.5061 -0.0860  0.4341
  386TMC3    C8 5831   3.568   0.222  11.023 -0.5101  0.5394  0.0544
  386TMC3    O1 5832   3.345   0.042  11.394  0.5223 -0.3921  0.2094
  386TMC3    O2 5833   3.451   0.254  11.003 -0.1330  0.2509  0.3287
  387MPD2     C 5834   1.362   1.130  10.149 -0.4135  0.6693 -0.0289
  387MPD2    C1 5835   1.490   1.070  10.138  0.3101  0.1816 -0.6151
  387MPD2    C2 5836   1.504   0.949  10.074 -0.1713 -0.1069 -0.5169
  387MPD2    C3 5837   1.397   0.871  10.040 -0.2862 -0.3704 -0.3633
  387MPD2    C4 5838   1.275   0.933  10.040  0.1674  0.6801  0.5363
  387MPD2    C5 5839   1.261   1.059  10.095  0.3788  0.7066  0.4856
  387MPD2     H 5840   1.603   0.909  10.058 -0.0569  0.5257 -1.3672
  387MPD2    H1 5841   1.181   0.882  10.017  2.0592 -2.0768 -1.0714
  387MPD2    H2 5842   1.348   1.225  10.198 -2.6226  1.7587 -2.7738
  387MPD2    H3 5843   1.172   1.122  10.098  0.3684  0.7365 -0.5663
  387MPD2     N 5844   1.418   0.736   9.999 -0.1581 -0.2691  0.1772
  387MPD2    H5 5845   1.513   0.700  10.003  0.5378  1.4923 -0.2346
  387MPD2    N1 5846   1.605   1.114  10.200 -0.7783  0.1447 -0.2737
  387MPD2    H7 5847   1.696   1.074  10.179 -0.8532  2.0431 -4.3167
  388TMC3    C1 5848   1.732   1.224  10.357  0.1397 -0.1321 -0.1844
  388TMC3    C2 5849   1.734   1.325  10.447  0.4355 -0.4127  0.4139
  388TMC3    C3 5850   1.812   1.310  10.561  0.4803  0.2240  0.4578
  388TMC3    C4 5851   1.794   1.106  10.386 -0.1271  0.3268 -0.1664
  388TMC3    C5 5852   1.850   1.088  10.506 -0.2360  0.7141  0.4176
  388TMC3    C6 5853   1.863   1.189  10.598 -0.2857  0.2675  0.0113
  388TMC3     C 5854   1.606   1.213  10.290 -0.3054  0.0619  0.5042
  388TMC3     O 5855   1.516   1.291  10.319  0.6665 -0.1610 -0.3517
  388TMC3     H 5856   1.684   1.415  10.416  0.4397 -1.4955 -2.6817
  388TMC3    H1 5857   1.786   1.025  10.315  0.5549  1.8342 -1.9405
  388TMC3    H2 5858   1.908   1.187  10.696  0.3196 -1.8041 -0.3138
  388TMC3    C7 5859   1.882   0.954  10.547 -0.4351 -0.3887  0.5569
  388TMC3    C8 5860   1.847   1.425  10.645  0.5743 -0.2530  0.7781
  388TMC3    O1 5861   1.992   0.938  10.596  0.2000  0.6230 -0.4068
  388TMC3    O2 5862   1.882   1.408  10.759 -0.2728 -0.3689 -0.1392
  389MPD2     C 5863   0.841   3.615  10.743  0.7870  0.4238 -0.5635
  389MPD2    C1 5864   0.718   3.583  10.697  0.1515 -0.8474 -0.3208
  389MPD2    C2 5865   0.632   3.515  10.781 -0.0315  0.4183  0.5076
  389MPD2    C3 5866   0.677   3.476  10.908  0.2545  0.0086 -0.0405
  389MPD2    C4 5867   0.811   3.501  10.949  0.7038 -0.1353  1.0652
  389MPD2    C5 5868   0.881   3.583  10.872 -0.3932  0.5556  0.6628
  389MPD2     H 5869   0.529   3.503  10.750  0.5222  0.0409 -1.2127
  389MPD2    H1 5870   0.848   3.487  11.050  0.9542 -1.3219  0.8035
  389MPD2    H2 5871   0.904   3.674  10.678  0.4139 -0.1279 -1.4146
  389MPD2    H3 5872   0.982   3.611  10.900 -0.4561  3.0527 -1.5889
  389MPD2     N 5873   0.597   3.416  11.006 -0.0083  0.1255 -0.5603
  389MPD2    H5 5874   0.636   3.411  11.099  0.4539  2.2728 -0.6418
  389MPD2    N1 5875   0.681   3.642  10.574 -0.6729  0.1941 -0.0527
  389MPD2    H7 5876   0.738   3.717  10.537 -0.1157 -0.6711 -0.9372
  390TMC3    C1 5877   0.419   3.340  11.130  0.6644  0.1013 -0.5601
  390TMC3    C2 5878   0.320   3.247  11.134 -0.3973  0.1975  0.6571
  390TMC3    C3 5879   0.281   3.196  11.252  0.2190 -0.2055 -0.1304
  390TMC3    C4 5880   0.466   3.399  11.248  0.4945  0.4047  0.3041
  390TMC3    C5 5881   0.419   3.349  11.364  0.0218  0.1480 -0.2911
  390TMC3    C6 5882   0.331   3.246  11.370  0.5460 -0.2751  0.5091
  390TMC3     C 5883   0.464   3.377  10.999 -0.4435  0.2503 -0.4158
  390TMC3     O 5884   0.393   3.349  10.908  0.8159  0.2031  0.1764
  390TMC3     H 5885   0.291   3.195  11.043  0.1419  0.2841  0.4292
  390TMC3    H1 5886   0.520   3.493  11.248 -1.1097  1.3345  3.1153
  390TMC3    H2 5887   0.329   3.194  11.466 -1.1058 -1.5755 -0.2409
  390TMC3    C7 5888   0.480   3.395  11.494 -0.6137  0.5017 -0.9189
  390TMC3    C8 5889   0.180   3.092  11.258 -0.2325  0.3640  0.2023
  390TMC3    O1 5890   0.571   3.475  11.478 -0.3199  0.2979 -0.3442
  390TMC3    O2 5891   0.169   3.027  11.159  0.0404  0.4980 -0.2007
  391MPD2     C 5892   4.477   0.355  10.614 -0.1723 -0.1707 -0.2917
  391MPD2    C1 5893   4.596   0.391  10.663 -0.6556 -0.4865  0.1449
  391MPD2    C2 5894   4.673   0.486  10.592 -0.8151 -0.0828  0.2408
  391MPD2    C3 5895   4.625   0.546  10.482  0.6438  1.5429  0.3528
  391MPD2    C4 5896   4.498   0.511  10.434 -0.0165  0.0864  0.6368
  391MPD2    C5 5897   4.428   0.418  10.504 -0.2049 -0.4974 -0.4617
  391MPD2     H 5898   0.033   0.509  10.624 -0.1266  0.2007 -2.1035
  391MPD2    H1 5899   4.458   0.561  10.347  1.4401  1.5629  0.8104
  391MPD2    H2 5900   4.404   0.298  10.670  0.3167  1.2959  1.8093
  391MPD2    H3 5901   4.335   0.378  10.465  0.3702 -0.7433 -1.5834
  391MPD2     N 5902   4.706   0.644  10.418  0.1683 -0.2719 -0.4476
  391MPD2    H5 5903   0.053   0.661  10.465  1.2661 -1.2731 -2.1457
  391MPD2    N1 5904   4.650   0.329  10.776 -0.7828 -0.1508 -0.1400
  391MPD2    H7 5905   4.590   0.254  10.810 -0.1285  0.0299  1.4202
  392TMC3    C1 5906   0.051   0.776  10.232  0.5595 -0.3223 -0.3586
  392TMC3    C2 5907   0.025   0.821  10.107 -0.2686  0.3718  0.3626
  392TMC3    C3 5908   0.129   0.878  10.042  0.5625  0.2704 -0.6396
  392TMC3    C4 5909   0.175   0.779  10.296  0.5483  0.2058 -0.8550
  392TMC3    C5 5910   0.271   0.836  10.226  0.5682 -0.2042 -0.0686
  392TMC3    C6 5911   0.253   0.891  10.103 -0.2836 -0.3787  0.4192
  392TMC3     C 5912   4.682   0.690  10.290 -0.5563 -0.1346 -0.7026
  392TMC3     O 5913   4.578   0.688  10.228 -0.3539  0.0947  0.2003
  392TMC3     H 5914   4.682   0.800  10.041  0.7601 -0.3912 -0.6932
  392TMC3    H1 5915   0.180   0.752  10.401 -1.3183  0.1305 -0.7782
  392TMC3    H2 5916   0.328   0.930  10.035  0.5343 -0.3420  1.3438
  392TMC3    C7 5917   0.383   0.879  10.308  0.0538 -0.3223 -0.6220
  392TMC3    C8 5918   0.107   0.850   9.903  0.3306  0.1737 -0.0075
  392TMC3    O1 5919   0.407   0.819  10.412 -0.0336 -0.3780 -0.1137
  392TMC3    O2 5920   0.144   0.738   9.875  0.4544 -0.5606 -0.5167
  393TMC3    C1 5921   4.303   3.678  10.493  0.5134  0.1116  0.4201
  393TMC3    C2 5922   4.253   3.802  10.450 -0.7492  0.1795  0.0996
  393TMC3    C3 5923   4.125   3.844  10.470  0.3760  0.5718 -0.1323
  393TMC3    C4 5924   4.210   3.599  10.559 -0.2332  0.0506  0.4056
  393TMC3    C5 5925   4.095   3.659  10.608 -0.5900  0.2792  0.3375
  393TMC3    C6 5926   4.056   3.785  10.567  0.2779 -0.1150  0.0878
  393TMC3     C 5927   4.386   3.613  10.390 -0.8057 -0.0860 -0.2770
  393TMC3     O 5928   4.351   3.653  10.278  0.3254  0.5127  0.2833
  393TMC3     H 5929   4.313   3.862  10.382 -0.3682  0.5230  0.7420
  393TMC3    H1 5930   4.255   3.506  10.592 -0.0926  0.2038  0.6489
  393TMC3    H2 5931   3.958   3.822  10.596 -0.0448 -1.4493  0.7178
  393TMC3    C7 5932   3.997   3.573  10.664  0.1219  0.2048  0.5726
  393TMC3    C8 5933   4.053   3.874  10.353 -0.0459 -0.0092 -0.2697
  393TMC3    O1 5934   3.888   3.625  10.686 -0.1200 -0.5733 -0.1135
  393TMC3    O2 5935   3.943   3.922  10.378  0.3404  0.2988  0.3039
  394TMC3    C1 5936   0.531   3.703  10.394 -0.1286 -0.9199 -0.0639
  394TMC3    C2 5937   0.456   3.647  10.291 -0.2167  0.1015  0.0955
  394TMC3    C3 5938   0.462   3.694  10.160 -0.6748  0.0196 -0.4074
  394TMC3    C4 5939   0.601   3.819  10.370  0.0338 -0.1336  0.1951
  394TMC3    C5 5940   0.597   3.872  10.238  0.0835 -0.1096  0.0320
  394TMC3    C6 5941   0.529   3.813  10.139 -0.5724 -1.2180  0.1481
  394TMC3     C 5942   0.564   3.608  10.505 -0.0817 -0.1531  0.0548
  394TMC3     O 5943   0.488   3.516  10.529 -1.0390  0.0897 -0.3692
  394TMC3     H 5944   0.410   3.551  10.309  0.5019 -0.6146 -1.8893
  394TMC3    H1 5945   0.662   3.871  10.443 -0.6647 -1.0530  1.4351
  394TMC3    H2 5946   0.572   3.834  10.041  0.7754 -1.6142  0.6519
  394TMC3    C7 5947   0.636   4.011  10.215  0.1632  0.0526  0.1715
  394TMC3    C8 5948   0.469   3.603  10.055 -0.3218  0.2499 -0.3925
  394TMC3    O1 5949   0.733   4.057  10.274  0.5030 -0.1001 -0.1499
  394TMC3    O2 5950   0.532   3.635   9.957  0.0874  0.1172  0.5356
  395TMC3    C1 5951   0.466   0.069  14.849  0.0202 -0.5487  0.2479
  395TMC3    C2 5952   0.344   0.068  14.796 -0.3850 -0.1136  0.1433
  395TMC3    C3 5953   0.319   0.166  14.692  0.6325 -0.5172 -0.1135
  395TMC3    C4 5954   0.573   0.150  14.802  0.7342  0.0346 -0.0288
  395TMC3    C5 5955   0.541   0.245  14.704 -0.1041  0.3290  1.1165
  395TMC3    C6 5956   0.416   0.251  14.653  0.3855  0.4161  0.5156
  395TMC3     C 5957   0.481   0.030  14.990 -0.4357 -0.7904 -0.0792
  395TMC3     O 5958   0.381   0.027  15.055 -0.0499 -0.3606 -0.1168
  395TMC3     H 5959   0.258   0.011  14.828 -1.0022  1.8790  1.9973
  395TMC3    H1 5960   0.676   0.134  14.833  0.3866 -1.1235  0.5232
  395TMC3    H2 5961   0.407   0.318  14.569 -1.8268 -2.0752 -1.2289
  395TMC3    C7 5962   0.648   0.334  14.662  0.3179 -1.2024  0.2387
  395TMC3    C8 5963   0.194   0.169  14.620  0.2135  0.4368  0.2013
  395TMC3    O1 5964   0.616   0.444  14.618 -0.1369 -0.0995  0.2199
  395TMC3    O2 5965   0.179   0.273  14.558  0.1866  0.0904 -0.1473
  396MPD2     C 5966   4.356   2.061  16.912 -0.0307 -0.0213  0.0273
  396MPD2    C1 5967   4.473   1.998  16.877 -0.3628 -0.0337  0.3819
  396MPD2    C2 5968   4.589   2.071  16.857  0.3662  0.7722  0.6922
  396MPD2    C3 5969   4.580   2.211  16.855  0.3802 -0.1702 -0.3825
  396MPD2    C4 5970   4.458   2.271  16.880 -0.0039  0.2862 -0.1003
  396MPD2    C5 5971   4.344   2.198  16.909  0.7825  1.1281 -0.0324
  396MPD2     H 5972   4.682   2.017  16.844 -1.3683 -2.2460  0.8615
  396MPD2    H1 5973   4.450   2.379  16.872 -1.0124 -0.1124 -4.2952
  396MPD2    H2 5974   4.271   1.996  16.927 -0.2450  0.1006 -0.6578
  396MPD2    H3 5975   4.246   2.239  16.935  0.0720 -1.2686  1.0815
  396MPD2     N 5976   4.688   2.291  16.812  0.7611  0.2556 -0.3529
  396MPD2    H5 5977   0.036   2.244  16.827 -0.3959 -1.8154 -0.0307
  396MPD2    N1 5978   4.474   1.860  16.861 -0.0879  0.2941  0.1876
  396MPD2    H7 5979   4.396   1.807  16.898  1.2111 -1.9523 -0.2965
  397TMC3    C1 5980   4.528   1.647  16.771  0.1451 -0.0886 -0.6776
  397TMC3    C2 5981   4.565   1.573  16.659 -0.3460 -0.6077 -0.2040
  397TMC3    C3 5982   4.609   1.445  16.683 -0.0602  0.8825  0.0399
  397TMC3    C4 5983   4.533   1.586  16.900  0.6452 -0.4867  0.3412
  397TMC3    C5 5984   4.559   1.458  16.909  0.2538 -0.4616  0.0703
  397TMC3    C6 5985   4.602   1.380  16.804  0.1654  0.4561 -0.4193
  397TMC3     C 5986   4.556   1.791  16.776  0.0938 -0.3728  0.7658
  397TMC3     O 5987   4.640   1.836  16.696  0.3155 -0.7175 -0.2373
  397TMC3     H 5988   4.594   1.631  16.572 -0.8105 -2.1953 -1.4289
  397TMC3    H1 5989   4.531   1.654  16.984 -1.3462 -0.1311  0.0038
  397TMC3    H2 5990   4.655   1.288  16.828 -0.0852  1.0454  2.4593
  397TMC3    C7 5991   4.506   1.389  17.028  0.0849 -0.2686 -0.1536
  397TMC3    C8 5992   4.685   1.376  16.585 -0.1758  0.7701 -0.4726
  397TMC3    O1 5993   4.531   1.444  17.134  0.3104  0.0220 -0.0147
  397TMC3    O2 5994   0.049   1.422  16.552 -0.2513 -0.2106 -0.2389
  398MPD2     C 5995   3.337   2.969   0.045  0.4642 -0.7355  0.3679
  398MPD2    C1 5996   3.360   2.940   0.178 -0.0813 -0.4430 -0.5749
  398MPD2    C2 5997   3.441   3.027   0.244  0.1558  0.0504  1.2972
  398MPD2    C3 5998   3.497   3.144   0.192  0.0855 -0.0025 -0.7182
  398MPD2    C4 5999   3.471   3.176   0.060  0.0757  1.1968 -0.5195
  398MPD2    C5 6000   3.391   3.087  17.757 -0.5598 -0.2105 -0.2503
  398MPD2     H 6001   3.477   3.005   0.344  0.0271  0.4475  1.4310
  398MPD2    H1 6002   3.501   3.271   0.019 -1.3157  2.6452  1.8121
  398MPD2    H2 6003   3.279   2.907  17.740 -0.6069 -0.1856  0.7843
  398MPD2    H3 6004   3.376   3.107  17.651  1.5468  2.0916 -0.1102
  398MPD2     N 6005   3.566   3.228   0.277  0.3207  0.1397 -0.3235
  398MPD2    H5 6006   3.584   3.188   0.369 -0.5153  2.2943  0.7719
  398MPD2    N1 6007   3.314   2.823   0.238  0.5426  0.2712  0.4450
  398MPD2    H7 6008   3.343   2.792   0.330  2.9149 -0.5966 -0.6171
  399TMC3    C1 6009   3.211   2.613   0.228  0.5490  0.4400 -0.0364
  399TMC3    C2 6010   3.316   2.554   0.296 -0.0024  0.3722  0.0131
  399TMC3    C3 6011   3.301   2.430   0.343 -0.2650 -0.3580 -0.4810
  399TMC3    C4 6012   3.097   2.545   0.205 -0.0616 -0.0677  0.3857
  399TMC3    C5 6013   3.086   2.419   0.255  0.5658 -0.3378 -0.7638
  399TMC3    C6 6014   3.185   2.364   0.333  0.5033 -0.8640  0.1050
  399TMC3     C 6015   3.218   2.747   0.177 -0.9757  0.4801  0.2437
  399TMC3     O 6016   3.145   2.780   0.088  0.1534 -0.8075 -0.0225
  399TMC3     H 6017   3.409   2.609   0.301 -0.4688  1.0221  1.3418
  399TMC3    H1 6018   3.022   2.600   0.149 -0.6878  0.3942  1.6813
  399TMC3    H2 6019   3.170   2.261   0.364 -0.5575 -1.3281 -1.9213
  399TMC3    C7 6020   2.963   2.353   0.245 -0.5187 -0.4156  0.6174
  399TMC3    C8 6021   3.411   2.372   0.411 -0.0694 -0.1276  0.1165
  399TMC3    O1 6022   2.954   2.251   0.319  0.6388 -0.1918 -0.2463
  399TMC3    O2 6023   3.520   2.419   0.388 -0.1404 -0.7992  0.1319
  400TMC3    C1 6024   1.387   1.143  16.688 -0.0949 -0.2386 -0.3476
  400TMC3    C2 6025   1.270   1.093  16.627  0.0232 -0.2469 -0.0672
  400TMC3    C3 6026   1.166   1.172  16.600 -0.9568 -0.3920  0.2604
  400TMC3    C4 6027   1.384   1.272  16.734  0.7020  0.8351 -0.5327
  400TMC3    C5 6028   1.261   1.340  16.731 -0.1802  0.2876 -0.3809
  400TMC3    C6 6029   1.159   1.299  16.650 -0.0337  0.8493 -0.9011
  400TMC3     C 6030   1.495   1.050  16.699  0.4647 -0.2280 -0.5750
  400TMC3     O 6031   1.459   0.939  16.664 -0.2481  0.6260 -0.1919
  400TMC3     H 6032   1.260   0.988  16.601 -1.8081 -0.3549  1.0305
  400TMC3    H1 6033   1.464   1.314  16.793 -0.0914 -1.7095  2.3637
  400TMC3    H2 6034   1.059   1.342  16.652  1.0628  3.3433  0.3971
  400TMC3    C7 6035   1.279   1.482  16.737  0.0064  0.4966 -0.1052
  400TMC3    C8 6036   1.043   1.112  16.556 -0.1767 -0.2434 -0.0941
  400TMC3    O1 6037   1.398   1.518  16.739  0.1325  0.2587 -0.2062
  400TMC3    O2 6038   0.937   1.163  16.594  0.4727  0.1139  0.0755
  401MPD2     C 6039   0.044   4.515  17.570 -0.5654  1.1064  0.2187
  401MPD2    C1 6040   0.091   4.453  17.684  0.5583 -0.1390  0.2735
  401MPD2    C2 6041   0.094   4.315  17.682  0.2561 -0.3375  0.4263
  401MPD2    C3 6042   0.049   4.240  17.583 -0.1492 -0.9411 -0.0154
  401MPD2    C4 6043   4.734   4.296  17.468 -0.1358  0.4163 -0.1101
  401MPD2    C5 6044   0.006   4.437  17.462  0.1488  0.9280  0.4137
  401MPD2     H 6045   0.151   4.271   0.002 -0.3085 -2.3240 -0.2603
  401MPD2    H1 6046   4.695   4.234  17.387  1.3925  1.3977 -1.5980
  401MPD2    H2 6047   0.050   4.624  17.568 -1.6457  1.1922  1.7761
  401MPD2    H3 6048   4.719   4.491  17.372  2.7449  1.7100  0.0907
  401MPD2     N 6049   0.050   4.101  17.609  0.1247 -0.3444  0.7364
  401MPD2    H5 6050   0.064   4.080  17.708 -0.5770 -0.5008  0.7983
  401MPD2    N1 6051   0.145   4.516   0.036 -0.3322 -0.1029  0.1916
  401MPD2    H7 6052   0.165   4.452   0.112 -0.5361 -0.4185 -0.0239
  402TMC3    C1 6053   4.738   3.872  17.589 -0.2713  0.1612 -0.7959
  402TMC3    C2 6054   4.711   3.868  17.723  0.4623 -0.1868 -1.1593
  402TMC3    C3 6055   4.736   3.758   0.036 -0.2646  0.4996  0.0598
  402TMC3    C4 6056   0.043   3.759  17.529 -0.4882 -0.1091  0.5331
  402TMC3    C5 6057   0.056   3.644  17.604  0.1948  0.2863  1.3015
  402TMC3    C6 6058   0.038   3.647  17.741 -0.6982 -0.5122  0.3507
  402TMC3     C 6059   0.012   4.000  17.525 -0.2443 -0.2393  0.4769
  402TMC3     O 6060   0.008   4.002  17.405 -0.9925  0.4697 -0.1938
  402TMC3     H 6061   4.650   3.949  17.761 -0.8287 -2.1086  0.8337
  402TMC3    H1 6062   0.072   3.749  17.425 -1.1076  0.2959  0.3218
  402TMC3    H2 6063   0.061   3.560   0.040  1.1764 -0.5264 -0.4026
  402TMC3    C7 6064   0.164   3.561  17.563  0.2643  0.6124  0.5261
  402TMC3    C8 6065   4.725   3.759   0.181  0.0435  0.0571  0.1672
  402TMC3    O1 6066   0.182   3.554  17.440 -1.0062 -0.4485 -0.3274
  402TMC3    O2 6067   0.022   3.659   0.236 -0.2144 -0.6404  0.4061
  403MPD2     C 6068   3.138   2.058  13.585 -0.2440 -0.1422 -0.8792
  403MPD2    C1 6069   3.178   2.145  13.491 -0.4057 -0.6449 -0.6087
  403MPD2    C2 6070   3.315   2.180  13.493  0.0645  0.0828  0.0217
  403MPD2    C3 6071   3.402   2.115  13.581 -0.2017 -0.3606  0.0286
  403MPD2    C4 6072   3.349   2.028  13.679  0.2623 -0.1743  0.2904
  403MPD2    C5 6073   3.221   1.999  13.682  0.5443 -0.2393  0.1522
  403MPD2     H 6074   3.355   2.264  13.437 -1.2654 -0.7870 -2.1879
  403MPD2    H1 6075   3.414   1.982  13.753  2.2827  1.2103 -0.6274
  403MPD2    H2 6076   3.035   2.025  13.589  0.0997 -1.3235 -1.6961
  403MPD2    H3 6077   3.176   1.925  13.747  0.9847  0.5224  1.3190
  403MPD2     N 6078   3.537   2.141  13.576  0.2414  0.4825 -0.2176
  403MPD2    H5 6079   3.560   2.221  13.517 -0.7013  0.2929 -0.8371
  403MPD2    N1 6080   3.074   2.210  13.419  0.1584 -0.4865 -0.2162
  403MPD2    H7 6081   2.978   2.179  13.430 -0.0200  1.8381  4.9170
  404TMC3    C1 6082   2.961   2.346  13.264 -0.0461  0.3860  0.5291
  404TMC3    C2 6083   2.849   2.312  13.331 -0.6200  0.0108  0.2176
  404TMC3    C3 6084   2.731   2.298  13.261 -0.2942 -0.0238 -0.6089
  404TMC3    C4 6085   2.967   2.364  13.130  0.2452 -0.0470  0.1899
  404TMC3    C5 6086   2.847   2.350  13.064  0.5249 -0.6530 -0.1487
  404TMC3    C6 6087   2.732   2.314  13.121  0.0632 -0.4209  0.0239
  404TMC3     C 6088   3.084   2.298  13.318  0.1092 -0.0358  0.2947
  404TMC3     O 6089   3.190   2.317  13.263 -0.1551 -0.0561  0.1197
  404TMC3     H 6090   2.854   2.307  13.440  0.5380 -1.7125  0.0904
  404TMC3    H1 6091   3.060   2.387  13.079 -0.5613 -0.7051 -1.5820
  404TMC3    H2 6092   2.646   2.288  13.061 -0.6743 -2.6961  2.0932
  404TMC3    C7 6093   2.851   2.372  12.918 -0.0321 -0.5495  0.0447
  404TMC3    C8 6094   2.656   2.182  13.296  0.0033  0.0857  1.0031
  404TMC3    O1 6095   2.957   2.354  12.856  0.0086  0.4860 -0.3847
  404TMC3    O2 6096   2.653   2.095  13.217 -0.6953  0.2329 -0.2920
  405MPD2     C 6097   3.612   3.362  14.416 -0.1034 -0.0194 -0.1718
  405MPD2    C1 6098   3.552   3.248  14.359  0.4932 -0.6245  0.4059
  405MPD2    C2 6099   3.422   3.253  14.331 -0.1853  0.6118 -0.3693
  405MPD2    C3 6100   3.349   3.368  14.354  0.5930  0.5299  0.0811
  405MPD2    C4 6101   3.403   3.481  14.406  0.7490  0.4822 -0.1553
  405MPD2    C5 6102   3.539   3.474  14.433  0.1356 -0.3156  1.1332
  405MPD2     H 6103   3.366   3.174  14.283 -1.7760  1.8019 -0.4538
  405MPD2    H1 6104   3.346   3.568  14.435 -1.4520 -0.9672 -0.0705
  405MPD2    H2 6105   3.716   3.370  14.442 -0.0595 -1.7453  0.2146
  405MPD2    H3 6106   3.595   3.563  14.460 -1.3689  1.1259 -0.3687
  405MPD2     N 6107   3.213   3.355  14.323  0.1043 -0.1549 -0.5458
  405MPD2    H5 6108   3.197   3.271  14.270  2.8483 -1.6953  1.0282
  405MPD2    N1 6109   3.640   3.135  14.342 -0.1060  0.5927  0.3123
  405MPD2    H7 6110   3.738   3.140  14.368  0.3133 -2.0199 -0.8294
  406TMC3    C1 6111   2.771   3.416  14.230 -0.7200 -0.6638 -0.0584
  406TMC3    C2 6112   2.761   3.303  14.157 -0.2394 -0.5432 -0.2386
  406TMC3    C3 6113   2.874   3.225  14.166 -0.1588 -0.0485  0.7943
  406TMC3    C4 6114   2.874   3.448  14.316 -0.4584  0.1699  0.5744
  406TMC3    C5 6115   2.982   3.373  14.307  0.0187  0.4605  0.2826
  406TMC3    C6 6116   2.989   3.255  14.243 -0.4867 -0.1870 -0.0413
  406TMC3     C 6117   2.646   3.488  14.228  0.1602 -0.2691 -0.0195
  406TMC3     O 6118   2.598   3.525  14.333  0.3437 -0.0050 -0.1002
  406TMC3     H 6119   2.676   3.270  14.098  1.4944 -1.4391 -2.2477
  406TMC3    H1 6120   2.884   3.542  14.367 -1.6966  0.4225  0.3544
  406TMC3    H2 6121   3.076   3.190  14.251  0.6848  1.2669 -0.8098
  406TMC3    C7 6122   3.103   3.438  14.349 -0.0773 -0.1980  0.7965
  406TMC3    C8 6123   2.879   3.099  14.092 -0.0217  0.8840  0.4865
  406TMC3    O1 6124   3.100   3.550  14.401 -0.0576  0.4525 -0.2423
  406TMC3    O2 6125   2.777   3.034  14.092  0.5938  0.1826 -0.0994
  407MPD2     C 6126   0.731   0.703  10.040 -0.3442  0.0822  0.7127
  407MPD2    C1 6127   0.855   0.734  10.043  0.4151  0.0248 -0.1407
  407MPD2    C2 6128   0.922   0.795  10.149 -0.0110  0.3888  0.2604
  407MPD2    C3 6129   0.850   0.811  10.266  0.0198 -0.5331 -0.7343
  407MPD2    C4 6130   0.716   0.783  10.270  0.6471  0.1134 -0.1855
  407MPD2    C5 6131   0.663   0.733  10.155 -0.8188  0.2572 -0.6619
  407MPD2     H 6132   1.023   0.830  10.133 -0.9435  1.8045 -2.5387
  407MPD2    H1 6133   0.650   0.801  10.354 -1.2428 -0.8440 -1.4663
  407MPD2    H2 6134   0.684   0.665   9.949 -2.0772 -0.2204  1.7312
  407MPD2    H3 6135   0.557   0.710  10.149 -0.9218  0.2220  1.3002
  407MPD2     N 6136   0.904   0.874  10.384 -0.2826  0.5804 -0.3106
  407MPD2    H5 6137   0.842   0.910  10.456 -0.4463  1.0463 -0.6836
  407MPD2    N1 6138   0.931   0.730   9.924 -0.2210  0.1551  0.0403
  407MPD2    H7 6139   1.024   0.771   9.929 -0.4530  0.8845 -1.6961
  408TMC3    C1 6140   0.982   0.718   9.708 -0.7839 -0.4191 -0.3156
  408TMC3    C2 6141   1.056   0.618   9.645  0.2820 -0.2562  0.3164
  408TMC3    C3 6142   1.179   0.646   9.597  0.3413 -0.2747 -0.3567
  408TMC3    C4 6143   1.033   0.848   9.721 -0.3089 -0.6580 -0.7276
  408TMC3    C5 6144   1.157   0.869   9.663  0.2781 -0.6329 -0.0859
  408TMC3    C6 6145   1.229   0.767   9.609  0.0457  0.2953 -0.3818
  408TMC3     C 6146   0.892   0.677   9.809 -0.5925  0.1324 -0.0836
  408TMC3     O 6147   0.793   0.610   9.778  0.2369  0.2474 -0.4001
  408TMC3     H 6148   1.026   0.515   9.662  1.9476 -0.5624  1.4078
  408TMC3    H1 6149   0.976   0.919   9.779 -2.6108 -2.2331 -1.0351
  408TMC3    H2 6150   1.326   0.796   9.570 -1.3821  3.0787 -1.9401
  408TMC3    C7 6151   1.230   0.989   9.701 -0.3596 -0.5255  0.9771
  408TMC3    C8 6152   1.264   0.530   9.615 -0.1889  0.4153  0.2618
  408TMC3    O1 6153   1.353   0.973   9.710 -0.1173 -0.1250 -0.1207
  408TMC3    O2 6154   1.228   0.413   9.603  0.3493 -0.1732  1.0637
  409MPD2     C 6155   0.436   0.542  16.595 -0.3231  0.9683  0.1217
  409MPD2    C1 6156   0.516   0.593  16.698  0.2975  0.0130 -0.5406
  409MPD2    C2 6157   0.518   0.728  16.715  0.2496 -0.5485 -0.1697
  409MPD2    C3 6158   0.467   0.812  16.624  0.0174  0.3704  0.4684
  409MPD2    C4 6159   0.399   0.758  16.514 -0.0518  0.1089  1.0850
  409MPD2    C5 6160   0.379   0.626  16.505 -0.5948  0.1216  0.5556
  409MPD2     H 6161   0.578   0.770  16.795  0.5175 -0.7444 -0.2679
  409MPD2    H1 6162   0.356   0.825  16.441 -2.0500 -2.2995  0.0569
  409MPD2    H2 6163   0.419   0.436  16.580  0.3565  0.9773 -0.7233
  409MPD2    H3 6164   0.328   0.583  16.420  0.6179  0.3765 -0.2931
  409MPD2     N 6165   0.483   0.957  16.621  0.7221 -0.2992  0.9153
  409MPD2    H5 6166   0.420   1.007  16.560  0.0527  0.5770  2.3381
  409MPD2    N1 6167   0.586   0.514  16.792  0.4936  0.3894 -0.1071
  409MPD2    H7 6168   0.642   0.572  16.854  1.0698  1.6212 -1.7727
  410TMC3    C1 6169   0.580   1.171  16.684  0.2785  0.6359 -0.0103
  410TMC3    C2 6170   0.655   1.226  16.789 -0.0818  0.4650  0.7267
  410TMC3    C3 6171   0.724   1.340  16.756  0.5895 -0.1736 -0.4134
  410TMC3    C4 6172   0.585   1.224  16.558 -0.5304  0.4379 -0.4610
  410TMC3    C5 6173   0.648   1.340  16.540 -0.4214  0.1470  0.1799
  410TMC3    C6 6174   0.723   1.401  16.630  0.4149  0.0726  0.2884
  410TMC3     C 6175   0.582   1.024  16.690  0.3659 -0.2284  0.2684
  410TMC3     O 6176   0.677   0.990  16.750  0.1037 -0.2379  0.3605
  410TMC3     H 6177   0.638   1.185  16.888  0.5167 -0.3144  0.5121
  410TMC3    H1 6178   0.532   1.172  16.480  0.5657  1.9538 -2.2330
  410TMC3    H2 6179   0.800   1.472  16.603  2.5906 -2.1255  0.6769
  410TMC3    C7 6180   0.661   1.373  16.399  0.1238 -0.3835  0.2017
  410TMC3    C8 6181   0.844   1.355  16.827 -0.0144 -0.2050 -0.0818
  410TMC3    O1 6182   0.617   1.293  16.316 -0.0201  0.1101  0.5279
  410TMC3    O2 6183   0.915   1.447  16.796  0.7029 -0.0568  0.2995
  411MPD2     C 6184   0.540   1.045  14.804  0.0858 -1.3213  0.1443
  411MPD2    C1 6185   0.506   1.099  14.680 -0.6640  0.2643  0.4578
  411MPD2    C2 6186   0.410   1.027  14.608 -0.1266 -0.9983 -0.2162
  411MPD2    C3 6187   0.361   0.906  14.654 -0.5373  0.4669  0.7529
  411MPD2    C4 6188   0.408   0.854  14.768  0.3829 -0.0333  0.6018
  411MPD2    C5 6189   0.496   0.925  14.843  0.4012 -0.4686 -0.5442
  411MPD2     H 6190   0.371   1.062  14.513  0.7181  2.0866  0.6016
  411MPD2    H1 6191   0.365   0.764  14.811  0.0798 -0.0874  0.1827
  411MPD2    H2 6192   0.611   1.094  14.871 -2.6540  2.7281  0.0992
  411MPD2    H3 6193   0.532   0.879  14.934  2.2401 -2.1643 -2.1226
  411MPD2     N 6194   0.261   0.833  14.585 -0.0019 -0.1676 -0.6358
  411MPD2    H5 6195   0.240   0.737  14.608  0.3240 -0.5721 -2.0272
  411MPD2    N1 6196   0.570   1.205  14.628  0.2634  0.6076  0.0264
  411MPD2    H7 6197   0.644   1.250  14.682  2.6169 -0.6259 -2.1604
  412TMC3    C1 6198   0.114   0.779  14.412 -0.6328  0.5800 -0.4961
  412TMC3    C2 6199   4.724   0.791  14.365 -0.1317 -0.6064 -0.5731
  412TMC3    C3 6200   4.693   0.714  14.258  0.4953 -0.3736  0.1476
  412TMC3    C4 6201   0.207   0.704  14.346  0.8657 -0.3203  0.3913
  412TMC3    C5 6202   0.179   0.634  14.231 -0.5762  0.0849  0.1470
  412TMC3    C6 6203   0.045   0.634  14.206 -0.8227  1.1353  0.0152
  412TMC3     C 6204   0.172   0.888  14.496 -0.2857 -0.2923  0.0134
  412TMC3     O 6205   0.130   1.000  14.484 -0.3544 -0.3619 -0.1937
  412TMC3     H 6206   4.652   0.857  14.412  0.3329 -1.5790  1.4790
  412TMC3    H1 6207   0.311   0.733  14.361  0.9156 -0.7629  0.9023
  412TMC3    H2 6208   0.009   0.564  14.133 -1.6893 -0.0777  1.6092
  412TMC3    C7 6209   0.260   0.672  14.116  0.2851 -0.0370 -0.0007
  412TMC3    C8 6210   4.607   0.777  14.160 -0.6321  0.2397  0.5978
  412TMC3    O1 6211   0.203   0.678  14.007 -0.3325  0.6586  0.2579
  412TMC3    O2 6212   4.495   0.827  14.186  0.3163 -0.1822 -1.0129
  413MPD2     C 6213   2.551   4.551  15.177 -0.0780 -0.3470  0.0568
  413MPD2    C1 6214   2.449   4.495  15.113  0.3161 -0.0581  0.4125
  413MPD2    C2 6215   2.437   4.355  15.122 -0.3552 -0.7865 -0.8670
  413MPD2    C3 6216   2.521   4.279  15.210  0.1075  0.0913  0.0470
  413MPD2    C4 6217   2.616   4.345  15.281  0.0231  0.2931 -0.0957
  413MPD2    C5 6218   2.627   4.476  15.260  0.3518 -0.3306 -0.0477
  413MPD2     H 6219   2.349   4.314  15.075  0.3133 -1.2224 -1.7345
  413MPD2    H1 6220   2.685   4.302  15.353  1.4857  2.8189  0.0330
  413MPD2    H2 6221   2.566   4.657  15.187 -0.1090 -0.4501  1.1986
  413MPD2    H3 6222   2.707   4.522  15.317  0.2289 -0.2019  0.0189
  413MPD2     N 6223   2.518   4.139  15.207  0.8793 -0.2596 -0.5256
  413MPD2    H5 6224   2.439   4.115  15.148 -1.7377  1.0534  2.4267
  413MPD2    N1 6225   2.365   4.589  15.043  0.3021  0.0994 -0.3887
  413MPD2    H7 6226   2.415   4.677  15.036  0.7929 -0.1760 -0.3472
  414TMC3    C1 6227   2.574   3.905  15.251 -0.6697 -0.6177 -0.6635
  414TMC3    C2 6228   2.651   3.818  15.321  0.1286 -0.8724 -0.8801
  414TMC3    C3 6229   2.663   3.687  15.276 -0.4245  0.1939  0.5274
  414TMC3    C4 6230   2.501   3.863  15.142  0.2861 -0.2912 -0.0340
  414TMC3    C5 6231   2.505   3.723  15.115  0.0326 -0.4794 -0.4914
  414TMC3    C6 6232   2.585   3.634  15.182 -0.1559  0.6716 -0.3721
  414TMC3     C 6233   2.608   4.047  15.269 -0.1540 -0.5374 -0.9397
  414TMC3     O 6234   2.724   4.066  15.307 -0.3109 -0.3054  0.4339
  414TMC3     H 6235   2.716   3.865  15.394 -0.9030  0.4360 -0.8006
  414TMC3    H1 6236   2.460   3.939  15.076 -1.7456 -1.8346 -0.5596
  414TMC3    H2 6237   2.605   3.536  15.140  1.3866  0.4389  0.9021
  414TMC3    C7 6238   2.522   3.697  14.975  0.0279  0.2610 -0.1647
  414TMC3    C8 6239   2.803   3.641  15.279 -0.7012 -0.4752  0.5257
  414TMC3    O1 6240   2.440   3.742  14.898 -0.5146  0.1408 -0.1727
  414TMC3    O2 6241   2.831   3.591  15.173 -0.1392 -0.4102  0.1227
  415TMC3    C1 6242   3.805   3.016   9.787 -0.8527  0.9696 -0.2351
  415TMC3    C2 6243   3.797   3.099   9.679  0.1860  0.1924  0.6080
  415TMC3    C3 6244   3.770   3.043   9.559 -0.5270 -0.4256 -0.3628
  415TMC3    C4 6245   3.767   2.883   9.782 -0.4175 -0.3604  0.0261
  415TMC3    C5 6246   3.743   2.831   9.657  0.0894  1.1922 -0.2794
  415TMC3    C6 6247   3.749   2.908   9.541 -0.0956 -0.5410 -0.4216
  415TMC3     C 6248   3.795   3.069   9.919 -0.5421 -0.2950 -0.4695
  415TMC3     O 6249   3.707   3.025   9.994  0.4539  0.2042 -0.0751
  415TMC3     H 6250   3.802   3.206   9.698 -1.5936  0.1044  1.5465
  415TMC3    H1 6251   3.768   2.817   9.869 -1.0963  0.3705  0.5873
  415TMC3    H2 6252   3.721   2.873   9.442 -1.1697  1.5779 -0.8669
  415TMC3    C7 6253   3.684   2.702   9.642 -0.3613  0.5151 -0.3979
  415TMC3    C8 6254   3.727   3.140   9.457  0.2716 -0.1562 -0.4587
  415TMC3    O1 6255   3.691   2.646   9.531 -0.4349 -0.2111 -0.0423
  415TMC3    O2 6256   3.625   3.128   9.389 -0.1473 -0.0371 -0.1169
  416MPD2     C 6257   0.135   1.241  11.483 -0.1997 -0.7720  0.1089
  416MPD2    C1 6258   0.004   1.233  11.433 -1.4183  0.1421 -1.0606
  416MPD2    C2 6259   4.724   1.156  11.321 -0.3566  0.0296  0.2009
  416MPD2    C3 6260   0.086   1.073  11.270 -0.6791 -0.1313  0.1497
  416MPD2    C4 6261   0.205   1.063  11.334 -0.2918  0.1548 -0.1522
  416MPD2    C5 6262   0.230   1.154  11.433 -0.0315 -0.5338  0.5606
  416MPD2     H 6263   4.623   1.149  11.282  0.1787 -0.8110 -1.0235
  416MPD2    H1 6264   0.287   1.001  11.299 -0.5881 -0.5312  0.3419
  416MPD2    H2 6265   0.161   1.312  11.560 -0.2890 -0.1231 -0.4662
  416MPD2    H3 6266   0.330   1.170  11.472  0.6783 -0.9729 -1.0860
  416MPD2     N 6267   0.083   1.003  11.147  0.3775 -0.2305 -0.1879
  416MPD2    H5 6268   0.169   0.963  11.111  0.0514  0.4075 -1.6733
  416MPD2    N1 6269   4.654   1.332  11.478  0.3702  0.2567  0.0023
  416MPD2    H7 6270   4.685   1.408  11.538  0.8942  0.0208  0.0211
  417TMC3    C1 6271   4.468   1.478  11.487 -0.1052  0.4158 -0.1084
  417TMC3    C2 6272   4.475   1.515  11.619  0.5800 -0.5003  0.9465
  417TMC3    C3 6273   4.390   1.615  11.662  0.3312  0.2751  0.3278
  417TMC3    C4 6274   4.375   1.533  11.400 -0.0850  0.4034 -0.5620
  417TMC3    C5 6275   4.288   1.624  11.445 -0.3157 -0.0395 -0.7479
  417TMC3    C6 6276   4.301   1.671  11.581 -0.4258 -0.2610 -0.8886
  417TMC3     C 6277   4.524   1.353  11.440 -0.6157  0.0249 -0.1754
  417TMC3     O 6278   4.463   1.298  11.355 -0.0507 -0.1893  0.6256
  417TMC3     H 6279   4.555   1.472  11.679  0.2411  0.6064  2.1793
  417TMC3    H1 6280   4.382   1.521  11.293  0.3021 -0.4073 -0.4477
  417TMC3    H2 6281   4.235   1.748  11.621 -0.0474 -0.9024  0.9764
  417TMC3    C7 6282   4.163   1.648  11.372 -0.0397 -0.8024 -0.1277
  417TMC3    C8 6283   4.381   1.648  11.803  0.2004 -0.2120  0.4661
  417TMC3    O1 6284   4.106   1.752  11.393 -0.1367  0.3504  0.4466
  417TMC3    O2 6285   4.333   1.760  11.827  0.2382 -0.3906  0.2652
  418TMC3    C1 6286   3.912   3.504   0.319  0.3472  0.5685 -0.0296
  418TMC3    C2 6287   3.781   3.507   0.283 -0.5971 -0.5281 -0.0202
  418TMC3    C3 6288   3.698   3.414   0.348 -0.6212  0.0487 -0.2493
  418TMC3    C4 6289   3.964   3.402   0.391 -1.0614 -0.0861  1.0702
  418TMC3    C5 6290   3.888   3.319   0.462 -0.2724  0.1211 -0.0238
  418TMC3    C6 6291   3.754   3.325   0.435 -0.0452 -0.3194  0.1159
  418TMC3     C 6292   3.987   3.555   0.209 -0.6822 -1.5016 -0.3457
  418TMC3     O 6293   3.971   3.672   0.182 -0.2976  0.2314 -0.5840
  418TMC3     H 6294   3.743   3.575   0.208 -2.8686 -0.8767  0.8206
  418TMC3    H1 6295   4.072   3.405   0.400 -0.9542  0.0794 -0.3545
  418TMC3    H2 6296   3.692   3.254   0.489 -0.6355 -0.1163 -0.3038
  418TMC3    C7 6297   3.940   3.216   0.548 -0.3096  0.6202  0.3196
  418TMC3    C8 6298   3.607   3.359   0.251 -1.4014  0.1194 -0.2972
  418TMC3    O1 6299   3.862   3.129   0.576  0.6977 -0.3172 -0.5535
  418TMC3    O2 6300   3.570   3.433   0.162 -0.2111 -0.0806  0.1478
  419MPD2     C 6301   2.244   1.594  11.700  0.6134  0.2969  0.6322
  419MPD2    C1 6302   2.191   1.698  11.773 -0.6035 -0.2603  0.4494
  419MPD2    C2 6303   2.135   1.677  11.901  0.1806 -0.4106  0.1974
  419MPD2    C3 6304   2.142   1.549  11.948 -1.2541 -0.1908  0.0542
  419MPD2    C4 6305   2.195   1.443  11.879  0.0580 -0.2899 -0.0640
  419MPD2    C5 6306   2.244   1.468  11.751  0.5197 -0.2358  0.3117
  419MPD2     H 6307   2.081   1.755  11.953  0.4645  0.8408 -1.3861
  419MPD2    H1 6308   2.194   1.340  11.915  2.3066 -0.2719  0.0776
  419MPD2    H2 6309   2.279   1.609  11.599  2.1172 -1.5122  0.8865
  419MPD2    H3 6310   2.267   1.384  11.686  2.7020  0.8270 -0.2988
  419MPD2     N 6311   2.091   1.532  12.085  1.1958 -0.2086 -0.7035
  419MPD2    H5 6312   2.049   1.612  12.132 -2.3734 -1.6587 -1.4146
  419MPD2    N1 6313   2.176   1.832  11.723 -0.0005  0.2123  0.4188
  419MPD2    H7 6314   2.143   1.906  11.783 -2.3557  0.9705 -1.8187
  420TMC3    C1 6315   2.086   1.468  12.306  0.9115  0.3032  0.4918
  420TMC3    C2 6316   2.003   1.573  12.337  0.5442 -0.7834  0.5459
  420TMC3    C3 6317   1.945   1.568  12.457 -0.2150 -0.6947 -0.3218
  420TMC3    C4 6318   2.124   1.377  12.398 -0.1179 -0.1296  0.3343
  420TMC3    C5 6319   2.084   1.396  12.529  0.4543 -0.4994  0.4107
  420TMC3    C6 6320   1.980   1.480  12.557 -0.7088 -0.8293  0.3035
  420TMC3     C 6321   2.129   1.430  12.172 -0.5984 -0.5730 -0.0681
  420TMC3     O 6322   2.192   1.326  12.149  0.1335  0.5374  0.5064
  420TMC3     H 6323   1.969   1.652  12.272  1.6198  0.0697  1.0059
  420TMC3    H1 6324   2.213   1.316  12.381  1.7904  2.6450  0.3569
  420TMC3    H2 6325   1.952   1.500  12.660 -1.7835 -0.5119 -0.0480
  420TMC3    C7 6326   2.135   1.312  12.637  0.7934  0.1230  0.2444
  420TMC3    C8 6327   1.821   1.647  12.480 -0.6040  0.0202 -0.5209
  420TMC3    O1 6328   2.066   1.309  12.738 -0.1840 -0.0699  0.0454
  420TMC3    O2 6329   1.806   1.743  12.401  0.0531 -0.1365  0.4708
  421TMC3    C1 6330   3.768   2.150  13.645  0.0216  0.1097 -0.2981
  421TMC3    C2 6331   3.768   2.286  13.622 -0.1773 -0.1967 -0.1386
  421TMC3    C3 6332   3.873   2.351  13.675  0.6773 -0.4273  0.0870
  421TMC3    C4 6333   3.872   2.076  13.692  0.2356 -0.2719 -0.1096
  421TMC3    C5 6334   3.977   2.148  13.735 -0.2283  0.5083  0.2860
  421TMC3    C6 6335   3.976   2.283  13.739 -0.8881  0.6497  0.5903
  421TMC3     C 6336   3.640   2.083  13.653 -0.0552 -0.1760 -0.5783
  421TMC3     O 6337   3.633   1.987  13.728 -0.2039  0.0613  0.0427
  421TMC3     H 6338   3.685   2.339  13.577 -0.2462 -2.4725 -2.6799
  421TMC3    H1 6339   3.869   1.967  13.692 -2.2041 -0.2072  0.2827
  421TMC3    H2 6340   4.064   2.330  13.781  0.3667 -1.0210 -0.1385
  421TMC3    C7 6341   4.093   2.089  13.795  0.3713  1.1042 -0.5838
  421TMC3    C8 6342   3.855   2.489  13.720  0.1545 -0.2460 -0.0313
  421TMC3    O1 6343   4.203   2.144  13.793  0.1847  0.5851  0.1017
  421TMC3    O2 6344   3.959   2.546  13.753  0.2395 -0.4917 -0.2036
  422TMC3    C1 6345   0.497   4.338  12.308 -0.6102 -1.0612  0.2102
  422TMC3    C2 6346   0.485   4.474  12.313 -0.2126  0.2608  0.5946
  422TMC3    C3 6347   0.386   4.537  12.377 -0.4461 -0.0344 -0.1837
  422TMC3    C4 6348   0.404   4.257  12.377  0.1078 -0.2435  0.6028
  422TMC3    C5 6349   0.322   4.328  12.447 -0.2334 -0.0975  0.7166
  422TMC3    C6 6350   0.295   4.467  12.445  0.7318 -0.5874  0.3982
  422TMC3     C 6351   0.580   4.285  12.203  0.4035 -0.3428  0.1613
  422TMC3     O 6352   0.683   4.341  12.171  0.1426  0.0342 -0.4142
  422TMC3     H 6353   0.566   4.530  12.267  0.3939 -0.6795  0.5166
  422TMC3    H1 6354   0.401   4.149  12.384  0.2726 -0.4274 -1.9214
  422TMC3    H2 6355   0.235   4.518  12.520  0.2728 -0.0446 -0.3384
  422TMC3    C7 6356   0.229   4.250  12.523 -0.1114 -0.5568 -0.5468
  422TMC3    C8 6357   0.414   4.679  12.413  0.0138  0.4392 -0.2168
  422TMC3    O1 6358   0.243   4.131  12.540 -0.4144  0.1119 -0.0694
  422TMC3    O2 6359   0.527   4.721  12.390  0.1226  0.2163  0.0353
  423MPD2     C 6360   2.116   0.572   0.352  0.3819 -0.3962 -0.1134
  423MPD2    C1 6361   2.175   0.452   0.401 -0.5295  0.2304  0.4097
  423MPD2    C2 6362   2.228   0.356   0.320  0.1038  0.1782 -0.9051
  423MPD2    C3 6363   2.202   0.368   0.186 -0.0857 -0.9365 -0.2444
  423MPD2    C4 6364   2.135   0.477   0.132 -0.2376 -0.3032 -0.2280
  423MPD2    C5 6365   2.095   0.576   0.214  0.2032 -0.0120 -0.2124
  423MPD2     H 6366   2.268   0.268   0.368  0.2587  0.4640 -0.5103
  423MPD2    H1 6367   2.107   0.487   0.027 -0.6494 -0.4456 -0.1313
  423MPD2    H2 6368   2.069   0.651   0.410  1.4153 -1.6160  2.3668
  423MPD2    H3 6369   2.046   0.661   0.167 -0.1478 -0.8151 -1.2953
  423MPD2     N 6370   2.239   0.269   0.093 -0.1150  0.4638  0.6205
  423MPD2    H5 6371   2.217   0.287  17.757 -0.6249 -1.1474  0.4271
  423MPD2    N1 6372   2.175   0.424   0.540 -0.6063  0.2048  0.4407
  423MPD2    H7 6373   2.219   0.335   0.560 -4.1629 -1.3224  1.4016
  424TMC3    C1 6374   2.129   0.438   0.767 -0.3561 -0.2115 -0.9089
  424TMC3    C2 6375   2.231   0.343   0.794 -0.6415 -0.1469  0.0233
  424TMC3    C3 6376   2.257   0.316   0.924  0.7377 -0.5820  0.8586
  424TMC3    C4 6377   2.076   0.509   0.872 -0.1665  0.3590  0.0367
  424TMC3    C5 6378   2.113   0.470   0.998 -0.1492 -0.6881  0.1441
  424TMC3    C6 6379   2.201   0.372   1.027 -0.2543  0.6500 -0.5451
  424TMC3     C 6380   2.107   0.497   0.637  0.1126 -0.8066 -0.2027
  424TMC3     O 6381   2.034   0.593   0.629 -0.4864 -0.2279 -0.3165
  424TMC3     H 6382   2.278   0.278   0.721  0.4069 -1.0384  1.4769
  424TMC3    H1 6383   2.011   0.595   0.861  0.0336  0.4558 -0.3937
  424TMC3    H2 6384   2.214   0.335   1.128  1.6185  0.6270 -0.8020
  424TMC3    C7 6385   2.068   0.542   1.117  0.2856  0.0782  0.9427
  424TMC3    C8 6386   2.339   0.197   0.946  0.2281 -0.2662 -0.0334
  424TMC3    O1 6387   2.123   0.518   1.225 -0.4170  0.4315  0.2848
  424TMC3    O2 6388   2.278   0.111   1.005 -0.6726  0.3023 -0.3776
  425MPD2     C 6389   1.411   4.202  16.465 -0.6957 -0.1759  1.2697
  425MPD2    C1 6390   1.482   4.164  16.580 -0.0045 -0.6571  0.3802
  425MPD2    C2 6391   1.435   4.208  16.698 -0.4945  0.5891  0.9604
  425MPD2    C3 6392   1.319   4.284  16.709 -0.3951 -0.0829  0.0394
  425MPD2    C4 6393   1.249   4.315  16.593  0.5760  0.2225 -0.5233
  425MPD2    C5 6394   1.298   4.279  16.469  0.3225 -0.8308 -0.3248
  425MPD2     H 6395   1.487   4.178  16.788  3.0992  0.3551 -1.1967
  425MPD2    H1 6396   1.164   4.382  16.600 -1.4646 -2.4004 -0.3437
  425MPD2    H2 6397   1.447   4.159  16.373 -1.2262  1.6820  0.2125
  425MPD2    H3 6398   1.247   4.301  16.376  1.5571 -0.4123 -0.8942
  425MPD2     N 6399   1.272   4.313  16.840 -0.3645  0.7624 -0.0877
  425MPD2    H5 6400   1.330   4.286  16.919 -0.2545  1.1807 -0.0269
  425MPD2    N1 6401   1.588   4.065  16.564 -0.0130  0.4493  0.4378
  425MPD2    H7 6402   1.600   4.025  16.472  2.9442  2.3967 -0.0380
  426TMC3    C1 6403   1.767   3.911  16.636 -0.7341  0.0395 -0.0333
  426TMC3    C2 6404   1.755   3.839  16.525 -1.2908 -0.3806 -0.0619
  426TMC3    C3 6405   1.818   3.717  16.512  0.2719  0.9463  0.3960
  426TMC3    C4 6406   1.829   3.868  16.746 -0.5980  0.2504  0.3588
  426TMC3    C5 6407   1.882   3.740  16.733  0.4667 -0.3974 -0.7154
  426TMC3    C6 6408   1.883   3.666  16.619 -0.3403  0.5145 -0.4266
  426TMC3     C 6409   1.672   4.020  16.667  0.3659  0.1034 -0.2373
  426TMC3     O 6410   1.670   4.051  16.785 -0.2610  0.0793  0.4543
  426TMC3     H 6411   1.694   3.881  16.446  0.2186  1.1940 -0.4047
  426TMC3    H1 6412   1.843   3.920  16.840  0.7381 -0.1766  0.3979
  426TMC3    H2 6413   1.920   3.565  16.627 -1.0717  0.1613 -1.5879
  426TMC3    C7 6414   1.943   3.677  16.845 -0.7870 -0.0797  0.5404
  426TMC3    C8 6415   1.795   3.623  16.403  0.4802 -0.3869  0.0831
  426TMC3    O1 6416   2.015   3.582  16.822 -0.1541 -0.3262  0.4555
  426TMC3    O2 6417   1.846   3.518  16.420  0.0115 -0.4603  0.1988
  427MPD2     C 6418   4.320   1.020  14.892  0.1291 -0.1680  0.0680
  427MPD2    C1 6419   4.397   1.120  14.953  0.2868  0.0454 -0.2673
  427MPD2    C2 6420   4.355   1.249  14.942 -0.1899  0.4515 -0.2082
  427MPD2    C3 6421   4.234   1.282  14.876 -0.0528  1.1697 -0.3433
  427MPD2    C4 6422   4.156   1.179  14.826 -0.0266  0.4597  0.1402
  427MPD2    C5 6423   4.195   1.049  14.839  0.4185  0.2797  0.1273
  427MPD2     H 6424   4.413   1.321  15.000  1.4162 -0.5243 -0.6027
  427MPD2    H1 6425   4.060   1.189  14.776  1.7855 -0.5291 -3.4768
  427MPD2    H2 6426   4.345   0.916  14.878 -0.5836 -0.4744  1.1276
  427MPD2    H3 6427   4.148   0.962  14.793 -1.4468  0.1664  2.2767
  427MPD2     N 6428   4.182   1.410  14.870 -0.2799  0.2379  0.4475
  427MPD2    H5 6429   4.099   1.421  14.813  2.7134 -0.3929 -4.0108
  427MPD2    N1 6430   4.512   1.081  15.039  0.6242  0.2094  0.1734
  427MPD2    H7 6431   4.565   1.159  15.075  1.3120 -0.6138  0.9445
  428TMC3    C1 6432   4.648   0.942  15.181 -0.9545  0.1303  0.4880
  428TMC3    C2 6433   4.641   0.826  15.252  0.1459  0.8143  0.7510
  428TMC3    C3 6434   0.005   0.809  15.343  0.5379  0.6294  0.1866
  428TMC3    C4 6435   0.006   1.035  15.197  0.6519 -0.4252  0.2481
  428TMC3    C5 6436   0.109   1.002  15.281 -0.3489 -0.3308 -0.3996
  428TMC3    C6 6437   0.112   0.891  15.359 -0.1314  0.0057 -0.2872
  428TMC3     C 6438   4.541   0.950  15.080  0.3179  0.5324 -0.5997
  428TMC3     O 6439   4.487   0.841  15.063  0.1298  0.1330  0.2085
  428TMC3     H 6440   4.564   0.750  15.245  2.1373 -1.2162  0.9242
  428TMC3    H1 6441   0.007   1.118  15.127  0.8833  0.1210  0.9041
  428TMC3    H2 6442   0.195   0.862  15.422 -1.0835  0.1301  1.0304
  428TMC3    C7 6443   0.231   1.080  15.277 -0.1227  0.5238 -0.2594
  428TMC3    C8 6444   0.012   0.687  15.423  0.2521  0.7944 -0.0482
  428TMC3    O1 6445   0.306   1.069  15.370  0.1068 -0.0822  0.0133
  428TMC3    O2 6446   0.122   0.657  15.465  0.5318  0.3559  0.4983
  429MPD2     C 6447   0.181   1.500  17.262 -0.3826 -0.1297 -0.3790
  429MPD2    C1 6448   0.300   1.518  17.329 -0.1025  0.7334 -0.3348
  429MPD2    C2 6449   0.361   1.638  17.305 -0.5450 -0.6504  0.6186
  429MPD2    C3 6450   0.319   1.725  17.204 -0.3931 -0.3659  0.5276
  429MPD2    C4 6451   0.198   1.705  17.143 -0.0850 -0.2219  0.4462
  429MPD2    C5 6452   0.128   1.595  17.176  0.1849 -0.2077  0.3129
  429MPD2     H 6453   0.451   1.665  17.360 -0.2819  0.1380 -0.1881
  429MPD2    H1 6454   0.147   1.782  17.085  2.4628  2.1228  1.3248
  429MPD2    H2 6455   0.120   1.413  17.286  0.2295 -0.6631 -0.7505
  429MPD2    H3 6456   0.024   1.583  17.147 -0.1676 -0.0910  1.4863
  429MPD2     N 6457   0.412   1.829  17.179  0.6590  0.2167 -0.6790
  429MPD2    H5 6458   0.505   1.827  17.220 -0.1971  1.5845  1.3230
  429MPD2    N1 6459   0.371   1.419  17.407 -0.7158  0.3534 -0.1516
  429MPD2    H7 6460   0.455   1.440  17.461 -0.6753  0.7487 -0.3692
  430TMC3    C1 6461   0.515   2.010  17.063 -0.0690 -0.4186 -0.1834
  430TMC3    C2 6462   0.491   2.123  16.985  0.4297 -0.3242  0.5669
  430TMC3    C3 6463   0.594   2.190  16.929 -0.2852 -0.5356  0.0346
  430TMC3    C4 6464   0.639   1.963  17.067  0.0682 -0.4738 -0.0795
  430TMC3    C5 6465   0.743   2.025  17.004 -0.0188 -0.3626 -0.1261
  430TMC3    C6 6466   0.721   2.144  16.936 -0.1830 -0.2207 -0.5596
  430TMC3     C 6467   0.402   1.922  17.078 -0.2908 -0.0756  1.0509
  430TMC3     O 6468   0.310   1.939  16.998  0.0198 -0.3193 -1.2543
  430TMC3     H 6469   0.391   2.164  16.977 -0.1857 -2.1989 -1.3741
  430TMC3    H1 6470   0.655   1.864  17.106 -0.6238 -1.0802 -1.3215
  430TMC3    H2 6471   0.802   2.196  16.886 -1.2495  1.4760 -0.5403
  430TMC3    C7 6472   0.859   1.935  16.967  0.7024 -0.9340 -0.2604
  430TMC3    C8 6473   0.585   2.262  16.796  0.3093  0.3004 -0.1437
  430TMC3    O1 6474   0.857   1.828  17.020 -0.6358  0.2418  0.1875
  430TMC3    O2 6475   0.687   2.309  16.748  0.3427  0.2218  0.2926
  431MPD2     C 6476   1.732   2.242  12.231 -0.3243 -0.5483  0.4885
  431MPD2    C1 6477   1.832   2.318  12.178 -0.3788  0.7110 -0.3680
  431MPD2    C2 6478   1.875   2.285  12.057  0.0739  0.4536  0.0490
  431MPD2    C3 6479   1.821   2.181  11.988 -0.7292 -0.3632 -0.0073
  431MPD2    C4 6480   1.728   2.097  12.047 -0.0941  0.2106  0.2916
  431MPD2    C5 6481   1.677   2.132  12.170 -0.4120  0.0510  0.3010
  431MPD2     H 6482   1.953   2.346  12.014  2.5919 -3.0633 -0.3670
  431MPD2    H1 6483   1.690   2.012  11.992  0.4691  0.0644  0.1308
  431MPD2    H2 6484   1.701   2.268  12.332 -3.3314 -0.1549 -0.5218
  431MPD2    H3 6485   1.601   2.073  12.221 -1.0787 -0.0461 -0.8041
  431MPD2     N 6486   1.867   2.149  11.857 -0.7309 -0.6359  0.3554
  431MPD2    H5 6487   1.848   2.055  11.824  0.7382 -0.5786 -0.6343
  431MPD2    N1 6488   1.901   2.428  12.241 -0.2287  0.6452  0.1589
  431MPD2    H7 6489   1.967   2.473  12.179 -1.7020  1.5290 -0.7842
  432TMC3    C1 6490   2.001   2.171  11.660  0.0092 -0.5397  0.0063
  432TMC3    C2 6491   2.042   2.255  11.555 -0.1542  0.5233 -0.3347
  432TMC3    C3 6492   2.133   2.206  11.458 -0.2867  0.3136  0.5139
  432TMC3    C4 6493   2.048   2.044  11.666 -0.2391 -0.2424 -0.0073
  432TMC3    C5 6494   2.136   1.993  11.574 -0.2540  0.3237  0.0196
  432TMC3    C6 6495   2.176   2.076  11.469  0.0325 -0.1283  0.2351
  432TMC3     C 6496   1.927   2.236  11.773  0.2983  0.1663  0.5577
  432TMC3     O 6497   1.929   2.358  11.778  0.3116  0.5294 -0.4114
  432TMC3     H 6498   2.014   2.359  11.558 -1.8926  0.0155  0.7709
  432TMC3    H1 6499   2.002   1.978  11.739  0.3775  0.3458  0.9088
  432TMC3    H2 6500   2.258   2.041  11.408 -2.0249 -1.5359 -1.7329
  432TMC3    C7 6501   2.210   1.868  11.594 -0.8367  0.1693 -0.1704
  432TMC3    C8 6502   2.230   2.308  11.416 -0.5427  0.2444 -0.0881
  432TMC3    O1 6503   2.263   1.809  11.502  0.1347 -0.3187  0.0744
  432TMC3    O2 6504   2.188   2.417  11.375 -0.1440  0.8199  0.3180
  433MPD2     C 6505   1.151   0.744  11.148 -0.0736 -0.1305 -0.5503
  433MPD2    C1 6506   1.060   0.643  11.134  0.2215  0.1128 -0.4548
  433MPD2    C2 6507   0.972   0.615  11.239 -0.0089  0.2878 -0.1388
  433MPD2    C3 6508   0.981   0.686  11.356 -1.0754  0.5809  0.8330
  433MPD2    C4 6509   1.085   0.783  11.367  0.3572 -0.7525 -0.2529
  433MPD2    C5 6510   1.164   0.813  11.263 -0.4180  0.4000  0.0560
  433MPD2     H 6511   0.902   0.533  11.229  0.9912 -0.9365  2.7226
  433MPD2    H1 6512   1.094   0.846  11.454  0.7865 -1.1493 -0.0121
  433MPD2    H2 6513   1.227   0.759  11.072  0.6158 -0.1549  0.1479
  433MPD2    H3 6514   1.236   0.894  11.269 -3.2326  3.0103 -1.4685
  433MPD2     N 6515   0.901   0.635  11.460 -0.9049  0.1549  0.1517
  433MPD2    H5 6516   0.821   0.574  11.446 -0.7465  0.1463 -0.6793
  433MPD2    N1 6517   1.064   0.564  11.021  0.3729  0.2065  0.0419
  433MPD2    H7 6518   1.156   0.540  10.984  0.0397  2.0166 -1.9967
  434TMC3    C1 6519   0.997   0.379  10.891  0.4635 -0.0520  0.0462
  434TMC3    C2 6520   1.101   0.298  10.931  0.1320  0.3123 -0.2082
  434TMC3    C3 6521   1.115   0.175  10.863  0.2014 -0.3722 -0.3616
  434TMC3    C4 6522   0.906   0.340  10.798 -0.4882  0.5483  0.5442
  434TMC3    C5 6523   0.922   0.220  10.739  0.5014  0.3834 -0.3481
  434TMC3    C6 6524   1.021   0.132  10.768 -0.2107  0.0528 -0.4759
  434TMC3     C 6525   0.956   0.481  10.985 -0.1678 -1.0736  0.5261
  434TMC3     O 6526   0.834   0.510  10.999 -0.2909  0.0523 -0.2038
  434TMC3     H 6527   1.190   0.342  10.973 -0.3963  1.1903 -0.0029
  434TMC3    H1 6528   0.829   0.406  10.761  0.1671  1.1804  0.3183
  434TMC3    H2 6529   1.045   0.042  10.712  1.4824  0.1950  0.0142
  434TMC3    C7 6530   0.834   0.189  10.622 -0.4212  0.2190  1.6054
  434TMC3    C8 6531   1.181   0.073  10.941 -0.5549 -0.3530  0.5857
  434TMC3    O1 6532   0.775   0.285  10.574  0.3158  0.8170 -0.0494
  434TMC3    O2 6533   1.212   0.121  11.046 -0.7239 -0.1050  0.4215
  435MPD2     C 6534   2.952   0.035  15.232  0.7794 -0.7509  0.3298
  435MPD2    C1 6535   2.937   0.060  15.367 -0.5939 -0.6616 -0.8330
  435MPD2    C2 6536   3.047   0.029  15.457  0.2745 -0.7781 -0.0633
  435MPD2    C3 6537   3.161   4.722  15.407 -0.0194 -0.4684  0.2721
  435MPD2    C4 6538   3.166   4.692  15.265 -0.4275  0.5671 -0.0422
  435MPD2    C5 6539   3.062   4.713  15.185 -0.4797  0.6358 -0.4077
  435MPD2     H 6540   3.032   0.030  15.564 -0.7648  2.6060 -0.2397
  435MPD2    H1 6541   3.250   4.646  15.213  0.3324 -2.2328  3.6742
  435MPD2    H2 6542   2.871   0.047  15.160  1.2809  0.5681 -0.0121
  435MPD2    H3 6543   3.063   4.689  15.080  2.1977 -0.5087 -0.1084
  435MPD2     N 6544   3.256   4.674  15.503 -0.6453 -0.2664 -0.6418
  435MPD2    H5 6545   3.233   4.684  15.601  0.4059 -2.0662 -0.2068
  435MPD2    N1 6546   2.819   0.097  15.424  0.3495  0.0328 -0.3873
  435MPD2    H7 6547   2.817   0.108  15.525 -0.3814  1.2990 -0.5362
  436TMC3    C1 6548   2.512   0.319  15.617 -0.9124 -0.1944 -0.9360
  436TMC3    C2 6549   2.616   0.254  15.560 -0.3406 -0.0998 -0.0023
  436TMC3    C3 6550   2.596   0.167  15.453  0.6719  0.3609 -0.7158
  436TMC3    C4 6551   2.389   0.319  15.553 -0.4222 -0.3400  0.8231
  436TMC3    C5 6552   2.368   0.225  15.455 -0.0124  0.2422 -0.4671
  436TMC3    C6 6553   2.470   0.152  15.399 -0.3014 -0.0643  0.2007
  436TMC3     C 6554   2.531   0.388  15.743  0.2488  0.0201 -0.5467
  436TMC3     O 6555   2.641   0.409  15.783  0.2777  0.4020 -0.3360
  436TMC3     H 6556   2.710   0.271  15.611 -0.6238 -1.2521  0.9155
  436TMC3    H1 6557   2.304   0.374  15.592  1.2862  1.3418  2.1977
  436TMC3    H2 6558   2.455   0.073  15.327 -1.4189 -1.9828  2.5313
  436TMC3    C7 6559   2.231   0.203  15.408 -0.3961 -0.2482  0.3070
  436TMC3    C8 6560   2.703   0.133  15.358  0.2716  0.2391 -0.0374
  436TMC3    O1 6561   2.150   0.289  15.431  0.0084 -0.2061 -0.1896
  436TMC3    O2 6562   2.669   0.133  15.240 -0.5721  0.5944 -0.0570
  437TMC3    C1 6563   1.391   2.583  12.876 -0.0142  0.4702 -0.1615
  437TMC3    C2 6564   1.297   2.647  12.957  0.3697  1.0225 -0.5784
  437TMC3    C3 6565   1.256   2.775  12.925 -0.2510  0.1047  0.0956
  437TMC3    C4 6566   1.443   2.645  12.769  0.6690  0.4122  0.0168
  437TMC3    C5 6567   1.400   2.767  12.740  0.2408 -0.5860 -0.1842
  437TMC3    C6 6568   1.310   2.831  12.814  0.2863  0.7624  0.1503
  437TMC3     C 6569   1.372   2.438  12.878 -0.0799  0.4003 -0.3089
  437TMC3     O 6570   1.281   2.388  12.940 -0.3508  0.0647 -0.0484
  437TMC3     H 6571   1.240   2.585  13.025  1.2812  2.5760  1.5856
  437TMC3    H1 6572   1.489   2.589  12.689  2.7622 -0.9480  2.1518
  437TMC3    H2 6573   1.296   2.937  12.795 -0.4954  0.9566  1.8166
  437TMC3    C7 6574   1.484   2.838  12.651 -0.6764 -0.6432 -0.1783
  437TMC3    C8 6575   1.131   2.812  12.976  0.0276  0.3296 -0.3787
  437TMC3    O1 6576   1.435   2.930  12.589  0.5822 -0.1985  0.1980
  437TMC3    O2 6577   1.080   2.749  13.067 -0.2194 -0.2351 -0.4467
  438MPD2     C 6578   3.916   3.103  16.567  0.8371  0.3111  0.6884
  438MPD2    C1 6579   3.974   3.046  16.681 -0.4502 -0.2940 -0.0950
  438MPD2    C2 6580   3.917   3.074  16.807  0.3768  0.4672  0.4498
  438MPD2    C3 6581   3.819   3.174  16.818 -0.2370  0.4336 -0.3270
  438MPD2    C4 6582   3.767   3.227  16.696 -0.1153  0.0376 -0.0379
  438MPD2    C5 6583   3.816   3.198  16.569  0.2924 -0.5976 -0.0027
  438MPD2     H 6584   3.970   3.029  16.891 -0.2339  0.2489  0.7161
  438MPD2    H1 6585   3.693   3.306  16.691 -0.3542 -0.1131  1.1800
  438MPD2    H2 6586   3.956   3.063  16.474 -0.8318 -3.3421  1.5389
  438MPD2    H3 6587   3.781   3.235  16.474 -1.0093  2.5034  1.6585
  438MPD2     N 6588   3.761   3.191  16.946  0.0162  0.8094 -0.1123
  438MPD2    H5 6589   3.790   3.128  17.021 -1.2557  0.7979  0.3683
  438MPD2    N1 6590   4.074   2.944  16.669  0.4126 -0.0996  0.0978
  438MPD2    H7 6591   4.136   2.921  16.746  2.5763 -0.4202 -1.7465
  439TMC3    C1 6592   4.220   2.796  16.550  0.5386  0.1169  0.9816
  439TMC3    C2 6593   4.258   2.748  16.429  0.0784 -0.0543 -0.3991
  439TMC3    C3 6594   4.385   2.697  16.411  0.3554  0.2057 -0.8207
  439TMC3    C4 6595   4.303   2.784  16.660 -1.0226 -0.3632  0.3196
  439TMC3    C5 6596   4.425   2.730  16.637  1.1151  0.0546 -0.5650
  439TMC3    C6 6597   4.471   2.684  16.517  0.5923 -0.5311 -0.1132
  439TMC3     C 6598   4.097   2.873  16.548  0.3547  0.7013  0.3085
  439TMC3     O 6599   4.016   2.849  16.457  0.5842 -0.1718  0.6516
  439TMC3     H 6600   4.203   2.783  16.342  1.5842  1.0918 -0.9060
  439TMC3    H1 6601   4.276   2.827  16.756 -2.5139  1.7884 -1.0694
  439TMC3    H2 6602   4.569   2.636  16.516  1.2539  0.8457 -1.4271
  439TMC3    C7 6603   4.524   2.755  16.743 -0.2014  0.0351  0.4012
  439TMC3    C8 6604   4.431   2.646  16.282  0.4638 -0.7252 -0.1133
  439TMC3    O1 6605   4.484   2.746  16.859  0.2936 -0.4706 -0.2945
  439TMC3    O2 6606   4.551   2.626  16.277 -0.3424  1.0221 -0.2867
  440MPD2     C 6607   3.079   3.080  14.542  0.2178  0.3319  0.1248
  440MPD2    C1 6608   3.067   3.190  14.628  0.0659  0.1519 -0.1892
  440MPD2    C2 6609   3.180   3.230  14.694  0.7856  0.6676 -0.2225
  440MPD2    C3 6610   3.303   3.176  14.681 -0.3843  0.3364  0.2108
  440MPD2    C4 6611   3.318   3.065  14.595 -0.4333 -0.2720 -0.2057
  440MPD2    C5 6612   3.202   3.025  14.524  0.0833 -0.3310  0.0601
  440MPD2     H 6613   3.158   3.313  14.760  0.1010  0.0577  0.3140
  440MPD2    H1 6614   3.411   3.010  14.587 -1.0305 -1.1992 -0.7264
  440MPD2    H2 6615   2.984   3.039  14.507  0.0869 -0.0938  0.9695
  440MPD2    H3 6616   3.195   2.940  14.457  0.9341  0.3568 -0.9040
  440MPD2     N 6617   3.409   3.219  14.757 -0.5657 -0.0538  0.4521
  440MPD2    H5 6618   3.493   3.161  14.756 -0.3077  0.3073  1.3510
  440MPD2    N1 6619   2.949   3.256  14.669 -0.0823  0.0080  0.0033
  440MPD2    H7 6620   2.952   3.324  14.745  1.2388 -1.3042  1.1257
  441TMC3    C1 6621   3.496   3.348  14.938 -0.0807  0.9989  0.0209
  441TMC3    C2 6622   3.463   3.445  15.023  0.0850 -0.0746 -0.3335
  441TMC3    C3 6623   3.516   3.444  15.148 -0.3670 -0.6803  0.6109
  441TMC3    C4 6624   3.568   3.241  14.977  0.0095 -0.0177  0.0387
  441TMC3    C5 6625   3.614   3.243  15.107  0.2072  0.6186  0.5470
  441TMC3    C6 6626   3.587   3.345  15.197 -0.0180  0.5957  0.1956
  441TMC3     C 6627   3.404   3.334  14.832  0.4854  0.2887 -0.0393
  441TMC3     O 6628   3.327   3.429  14.823 -0.6907 -0.5044 -1.1133
  441TMC3     H 6629   3.405   3.533  14.995 -2.7963 -1.9399 -0.2302
  441TMC3    H1 6630   3.568   3.145  14.926  1.2272 -0.4321  0.8091
  441TMC3    H2 6631   3.618   3.338  15.300 -3.5007  2.7692  1.3854
  441TMC3    C7 6632   3.619   3.112  15.162  0.2842  0.7562 -0.0778
  441TMC3    C8 6633   3.463   3.522  15.251  0.3092 -0.1642 -0.2696
  441TMC3    O1 6634   3.662   3.020  15.094  0.0730 -0.3077  0.9031
  441TMC3    O2 6635   3.540   3.563  15.340 -0.0258  0.5899 -0.2444
  442MPD2     C 6636   1.443   3.803  16.820 -0.1318 -1.1121  0.0156
  442MPD2    C1 6637   1.354   3.815  16.719  0.3949  0.0557 -0.3407
  442MPD2    C2 6638   1.365   3.735  16.602 -0.6463  0.3279 -0.4568
  442MPD2    C3 6639   1.452   3.629  16.594 -0.0723  0.6509 -0.2924
  442MPD2    C4 6640   1.539   3.612  16.693  0.4329  0.4072  0.6709
  442MPD2    C5 6641   1.537   3.704  16.801 -0.6790 -0.1671  0.0835
  442MPD2     H 6642   1.292   3.747  16.522 -1.0456  1.1202  0.0288
  442MPD2    H1 6643   1.614   3.535  16.692 -1.0539 -1.0248 -0.2445
  442MPD2    H2 6644   1.442   3.861  16.911 -0.0654  0.0615 -0.7324
  442MPD2    H3 6645   1.604   3.694  16.885 -1.2882  1.8384  0.8090
  442MPD2     N 6646   1.450   3.536  16.491  0.1314  0.2539 -0.6155
  442MPD2    H5 6647   1.517   3.460  16.501 -1.4789 -1.3802 -2.1028
  442MPD2    N1 6648   1.242   3.901  16.733  0.1950  0.5418  0.3214
  442MPD2    H7 6649   1.179   3.899  16.654  0.6342 -2.3767  0.0572
  443TMC3    C1 6650   1.067   4.026  16.838  0.7847  0.0344  0.2351
  443TMC3    C2 6651   0.999   4.037  16.721 -0.7637 -0.1619  0.0299
  443TMC3    C3 6652   0.858   4.019  16.722  0.1677 -0.0573  0.6968
  443TMC3    C4 6653   0.999   4.021  16.954  0.2700 -0.8934  0.3752
  443TMC3    C5 6654   0.864   4.011  16.951 -0.4524  0.3148 -0.4053
  443TMC3    C6 6655   0.791   4.005  16.836  0.3560 -0.4068  0.5143
  443TMC3     C 6656   1.204   3.980  16.841  0.5249 -0.0028  0.1597
  443TMC3     O 6657   1.260   3.996  16.948  0.1910 -0.6175  0.4689
  443TMC3     H 6658   1.060   4.049  16.632 -0.0199  0.7376  0.6680
  443TMC3    H1 6659   1.044   4.017  17.053 -2.0325 -2.7702  1.3753
  443TMC3    H2 6660   0.682   4.005  16.833  0.3435  1.4725  0.8670
  443TMC3    C7 6661   0.789   3.998  17.075  0.5832  0.0149  0.7228
  443TMC3    C8 6662   0.782   4.027  16.596 -0.5049 -0.5570  0.0472
  443TMC3    O1 6663   0.845   4.056  17.171  0.3345 -0.1421 -0.2612
  443TMC3    O2 6664   0.674   3.971  16.605  0.4496  0.2549 -0.2106
  444MPD2     C 6665   1.650   3.393  17.061 -0.8885 -0.6379  0.0469
  444MPD2    C1 6666   1.551   3.305  17.066  0.2606  0.2748  0.2812
  444MPD2    C2 6667   1.542   3.199  16.974  0.1297 -0.1623 -0.3060
  444MPD2    C3 6668   1.620   3.202  16.863  0.7102 -0.2043  0.5959
  444MPD2    C4 6669   1.720   3.299  16.853 -0.5033 -1.0134 -0.5473
  444MPD2    C5 6670   1.745   3.390  16.956 -0.4284  0.8232 -0.2326
  444MPD2     H 6671   1.464   3.125  16.989  0.6907 -1.0352 -1.7107
  444MPD2    H1 6672   1.788   3.303  16.768  1.5016 -1.3524  1.0426
  444MPD2    H2 6673   1.655   3.482  17.123 -1.5350 -0.7794  0.3031
  444MPD2    H3 6674   1.832   3.454  16.950  0.6640 -0.6953 -0.6292
  444MPD2     N 6675   1.615   3.088  16.786 -0.0993  0.3110  0.2199
  444MPD2    H5 6676   1.545   3.023  16.821 -0.6357  1.9287  2.1374
  444MPD2    N1 6677   1.453   3.310  17.169 -0.2954 -0.0965 -0.4285
  444MPD2    H7 6678   1.375   3.247  17.181  0.3503 -0.7748  0.1729
  445TMC3    C1 6679   1.628   2.932  16.600  0.0437  0.3852  0.7325
  445TMC3    C2 6680   1.519   2.854  16.643 -0.3276  0.0891 -0.5834
  445TMC3    C3 6681   1.471   2.750  16.564 -0.4604  0.0141 -0.1510
  445TMC3    C4 6682   1.690   2.900  16.480 -0.1597 -0.5720  0.2585
  445TMC3    C5 6683   1.654   2.783  16.415  0.4807  0.0974  0.2164
  445TMC3    C6 6684   1.547   2.709  16.456 -0.1632 -0.3561 -0.5666
  445TMC3     C 6685   1.677   3.056  16.662 -0.7132  0.7357  0.5778
  445TMC3     O 6686   1.739   3.128  16.585  0.5152 -0.4294 -0.0627
  445TMC3     H 6687   1.465   2.879  16.734 -1.8425  0.0115 -1.4695
  445TMC3    H1 6688   1.785   2.946  16.455 -1.4621  0.0959 -3.4701
  445TMC3    H2 6689   1.505   2.630  16.395 -0.2961  0.1437 -1.1293
  445TMC3    C7 6690   1.765   2.712  16.353 -0.2762 -0.4499  0.7952
  445TMC3    C8 6691   1.340   2.679  16.590  0.0303  0.3533  0.6422
  445TMC3    O1 6692   1.860   2.778  16.319 -0.1846  0.2888 -0.3846
  445TMC3    O2 6693   1.329   2.569  16.535 -0.2827  0.4181  0.1118
  446MPD2     C 6694   0.681   0.282  11.251  0.2457  0.2022  0.0222
  446MPD2    C1 6695   0.752   0.207  11.163  0.8275  0.4495 -0.4971
  446MPD2    C2 6696   0.886   0.179  11.178 -0.4345 -0.3693 -0.4135
  446MPD2    C3 6697   0.951   0.233  11.286  0.0434 -0.2035  0.2799
  446MPD2    C4 6698   0.875   0.309  11.377  0.2288  0.5554  0.3410
  446MPD2    C5 6699   0.739   0.325  11.363 -0.4259  0.4272 -0.1829
  446MPD2     H 6700   0.929   0.117  11.100 -0.1534 -0.8951  0.1576
  446MPD2    H1 6701   0.928   0.359  11.458  0.3634 -3.9866  3.0880
  446MPD2    H2 6702   0.574   0.288  11.235  0.2032  2.5876  1.1411
  446MPD2    H3 6703   0.685   0.375  11.442  0.6462  0.8774  0.2685
  446MPD2     N 6704   1.094   0.232  11.278 -0.1788 -0.6559 -0.1682
  446MPD2    H5 6705   1.137   0.186  11.199  1.5303 -0.4103  0.6293
  446MPD2    N1 6706   0.673   0.162  11.063  0.2513  0.9583  0.0246
  446MPD2    H7 6707   0.585   0.211  11.053 -0.2070 -0.1112 -1.2631
  447TMC3    C1 6708   1.316   0.305  11.314  0.3128 -0.2749 -0.2131
  447TMC3    C2 6709   1.345   0.428  11.264  0.7288 -0.0190  0.2307
  447TMC3    C3 6710   1.477   0.441  11.212 -0.0435 -0.1805 -0.1607
  447TMC3    C4 6711   1.400   0.196  11.313  0.1833  0.2890 -0.4314
  447TMC3    C5 6712   1.525   0.219  11.266  0.5210 -0.2979 -0.2793
  447TMC3    C6 6713   1.561   0.337  11.222 -0.3083  0.2063 -0.1615
  447TMC3     C 6714   1.178   0.301  11.362  0.2119 -0.5022  0.0241
  447TMC3     O 6715   1.150   0.397  11.434  0.6195  0.4871 -0.3261
  447TMC3     H 6716   1.273   0.508  11.256  0.7171  0.0589  1.1803
  447TMC3    H1 6717   1.374   0.101  11.357  1.9931 -0.2508 -0.5274
  447TMC3    H2 6718   1.663   0.346  11.188 -0.5288  1.9655 -0.3232
  447TMC3    C7 6719   1.611   0.107  11.276 -1.2583 -0.1630  0.1248
  447TMC3    C8 6720   1.472   0.530  11.103 -0.0028  0.3743 -0.6817
  447TMC3    O1 6721   1.568   4.732  11.277 -0.1187  0.0127 -0.0212
  447TMC3    O2 6722   1.367   0.532  11.038  0.0784  0.2789  0.2674
  448TMC3    C1 6723   4.163   4.650  16.695  0.8742  1.0284  0.1037
  448TMC3    C2 6724   4.125   4.522  16.658 -0.0805 -0.7064 -0.0432
  448TMC3    C3 6725   4.204   4.414  16.702  0.3137  0.3238  0.6157
  448TMC3    C4 6726   4.274   4.671  16.774  0.4448  0.1764 -0.8895
  448TMC3    C5 6727   4.350   4.562  16.806  0.6172  0.1801  0.3251
  448TMC3    C6 6728   4.317   4.433  16.772  0.2783  0.0325 -0.2805
  448TMC3     C 6729   4.072   0.015  16.665  0.0045 -0.1478  0.5046
  448TMC3     O 6730   3.973   4.725  16.604  0.0427  0.7225  0.5811
  448TMC3     H 6731   4.039   4.501  16.595 -0.4783 -0.8552  0.5457
  448TMC3    H1 6732   4.286   0.025  16.824  2.2910  0.0707 -1.1109
  448TMC3    H2 6733   4.375   4.350  16.810 -0.7567 -1.4528 -1.9584
  448TMC3    C7 6734   4.418   4.568  16.933 -0.2489  0.4371 -0.5654
  448TMC3    C8 6735   4.168   4.273  16.672 -0.1158  0.5988 -0.2697
  448TMC3    O1 6736   4.420   4.470  17.006 -0.7757  0.0613  0.4457
  448TMC3    O2 6737   4.215   4.192  16.748  0.1113 -0.0940  0.1842
  449MPD2     C 6738   0.659   3.013  13.935 -0.1797 -0.3200  0.4018
  449MPD2    C1 6739   0.549   3.005  14.026 -0.4326  0.3815  0.0623
  449MPD2    C2 6740   0.487   2.888  14.049  0.2908  0.9072  0.8372
  449MPD2    C3 6741   0.526   2.773  13.990  0.9097 -0.0777 -0.8436
  449MPD2    C4 6742   0.634   2.772  13.903 -0.2573 -0.0613 -0.2911
  449MPD2    C5 6743   0.694   2.890  13.878  0.4717 -0.5078  0.5058
  449MPD2     H 6744   0.402   2.880  14.116 -0.6391  0.8487 -0.3452
  449MPD2    H1 6745   0.674   2.682  13.858  0.0025  0.1319 -0.4440
  449MPD2    H2 6746   0.700   3.105  13.895  0.1495 -0.9694 -0.7607
  449MPD2    H3 6747   0.781   2.900  13.814 -0.2946  0.0377 -0.4618
  449MPD2     N 6748   0.456   2.657  14.029  0.4078  0.0996  0.5242
  449MPD2    H5 6749   0.390   2.666  14.105  0.6894 -1.1323  0.9210
  449MPD2    N1 6750   0.496   3.116  14.084  0.0803  0.1352  0.3190
  449MPD2    H7 6751   0.405   3.097  14.125 -0.4158  1.7679 -0.0391
  450TMC3    C1 6752   0.435   3.344  14.120 -0.3345 -0.7414 -0.6945
  450TMC3    C2 6753   0.416   3.412  14.003  0.1763 -0.1206 -0.7408
  450TMC3    C3 6754   0.299   3.398  13.938  0.0163 -0.4867 -0.8646
  450TMC3    C4 6755   0.327   3.278  14.176  0.1003  0.1648  0.2666
  450TMC3    C5 6756   0.213   3.254  14.101 -1.0828  0.5273  0.1135
  450TMC3    C6 6757   0.202   3.315  13.979  0.8573  0.3543 -0.6973
  450TMC3     C 6758   0.543   3.250  14.086  0.5377  0.3457 -0.1402
  450TMC3     O 6759   0.632   3.292  14.016  0.5243 -0.3013  0.5730
  450TMC3     H 6760   0.505   3.466  13.972 -2.1178  2.5465 -2.6034
  450TMC3    H1 6761   0.341   3.220  14.267 -0.5759 -1.3309 -0.5995
  450TMC3    H2 6762   0.125   3.291  13.908  0.1691 -0.4160  0.3164
  450TMC3    C7 6763   0.156   3.127  14.115 -0.3759 -0.1842  0.1435
  450TMC3    C8 6764   0.315   3.394  13.793  0.3721  0.3267 -0.0886
  450TMC3    O1 6765   0.232   3.043  14.160  0.2221  0.4645  0.5576
  450TMC3    O2 6766   0.212   3.393  13.717  0.4797 -0.5053 -0.1588
  451MPD2     C 6767   1.760   1.379   1.212  0.2661  0.1381 -0.3626
  451MPD2    C1 6768   1.777   1.345   1.082  0.4666  0.3298  0.3631
  451MPD2    C2 6769   1.859   1.243   1.051 -0.7252  0.3109 -0.8623
  451MPD2    C3 6770   1.922   1.169   1.147 -0.9616 -0.8908  0.2811
  451MPD2    C4 6771   1.912   1.215   1.282  0.1888 -0.0062 -0.2333
  451MPD2    C5 6772   1.821   1.310   1.315 -0.0346  0.1376  0.0327
  451MPD2     H 6773   1.872   1.221   0.946 -0.5018 -0.5479 -0.6615
  451MPD2    H1 6774   1.972   1.170   1.360  1.8446  0.2177 -1.3693
  451MPD2    H2 6775   1.703   1.465   1.246 -1.6041 -1.8166  1.4276
  451MPD2    H3 6776   1.814   1.340   1.419 -1.5515  0.9882 -0.3120
  451MPD2     N 6777   2.026   1.073   1.109  0.6438  0.1843  0.3351
  451MPD2    H5 6778   2.089   1.029   1.176 -0.8267  0.4326  1.9030
  451MPD2    N1 6779   1.694   1.419   0.990 -0.2869  0.3552 -0.2190
  451MPD2    H7 6780   1.636   1.494   1.026  1.5078  2.0803 -0.9116
  452TMC3    C1 6781   2.142   0.951   0.952 -0.2330 -0.0958 -0.6261
  452TMC3    C2 6782   2.126   0.885   0.838 -0.2032  0.4779  0.2533
  452TMC3    C3 6783   2.223   0.884   0.739 -0.6276  0.2975 -0.1397
  452TMC3    C4 6784   2.250   1.036   0.967 -0.0107  0.3067  0.6433
  452TMC3    C5 6785   2.346   1.040   0.864 -0.1960  0.1206  0.3811
  452TMC3    C6 6786   2.344   0.951   0.757  0.1952 -0.8167  0.7324
  452TMC3     C 6787   2.018   1.004   0.992 -0.1713  0.3244 -0.2138
  452TMC3     O 6788   1.928   1.009   0.911  0.3504 -0.0035 -0.1658
  452TMC3     H 6789   2.034   0.830   0.820 -0.6451  1.2343  0.2367
  452TMC3    H1 6790   2.258   1.111   1.045 -1.5022 -0.7809  1.8406
  452TMC3    H2 6791   2.396   0.983   0.667  0.7407 -0.9035  1.0139
  452TMC3    C7 6792   2.401   1.174   0.843 -0.5856 -0.0762  0.2428
  452TMC3    C8 6793   2.162   0.900   0.608  0.6080 -0.2669 -0.3002
  452TMC3    O1 6794   2.348   1.272   0.898 -0.2841 -0.2467 -0.4026
  452TMC3    O2 6795   2.050   0.946   0.606  0.4284  0.0152 -0.0986
  453TMC3    C1 6796   3.220   3.620  11.109 -0.0974 -0.3607  1.0099
  453TMC3    C2 6797   3.173   3.507  11.048  0.3162  0.7125  0.0737
  453TMC3    C3 6798   3.156   3.514  10.909 -0.0872  0.1394  0.0740
  453TMC3    C4 6799   3.245   3.740  11.044 -0.3256 -0.2568  0.0937
  453TMC3    C5 6800   3.222   3.738  10.910 -0.0050  0.0419  0.1085
  453TMC3    C6 6801   3.181   3.627  10.842 -0.0652 -0.0396 -0.1450
  453TMC3     C 6802   3.223   3.616  11.252 -0.2252 -0.3839 -0.1035
  453TMC3     O 6803   3.291   3.700  11.311 -0.6464  0.0233 -0.0891
  453TMC3     H 6804   3.156   3.417  11.104  4.6205 -0.3661 -0.3367
  453TMC3    H1 6805   3.279   3.816  11.114 -1.1778 -0.9322  1.2363
  453TMC3    H2 6806   3.177   3.623  10.734  0.1772  1.3331 -0.2106
  453TMC3    C7 6807   3.252   3.856  10.832 -0.2063 -0.0857 -0.1628
  453TMC3    C8 6808   3.122   3.401  10.835  1.1731 -0.2415  0.1911
  453TMC3    O1 6809   3.259   3.854  10.711 -0.2537 -0.2809  0.4833
  453TMC3    O2 6810   3.038   3.418  10.745 -0.1629  0.5209 -0.5235
  454MPD2     C 6811   2.151   2.908  15.549  0.0260  0.3469  0.0240
  454MPD2    C1 6812   2.055   2.843  15.619 -0.9968  0.2059  0.6994
  454MPD2    C2 6813   2.068   2.825  15.754  0.2832  0.4398  0.6527
  454MPD2    C3 6814   2.185   2.865  15.816 -0.2206  0.3852  1.2924
  454MPD2    C4 6815   2.282   2.926  15.745 -0.2704 -0.1054  1.1672
  454MPD2    C5 6816   2.269   2.941  15.611 -0.2690  0.0612  0.2766
  454MPD2     H 6817   1.993   2.768  15.807 -1.0144  0.5006 -1.1256
  454MPD2    H1 6818   2.383   2.942  15.782  0.5240  1.2549 -1.5511
  454MPD2    H2 6819   2.148   2.923  15.441  0.9114 -0.0029 -0.0466
  454MPD2    H3 6820   2.356   2.976  15.557 -1.5993  1.2879 -1.0705
  454MPD2     N 6821   2.213   2.831  15.952  0.2579  0.0517 -0.4360
  454MPD2    H5 6822   2.312   2.832  15.976  0.3204 -1.7290 -0.6210
  454MPD2    N1 6823   1.941   2.789  15.562 -0.6674  0.0652 -0.1853
  454MPD2    H7 6824   1.892   2.710  15.601  0.2861 -1.0550 -1.2677
  455TMC3    C1 6825   1.991   2.848  16.036  0.0426 -0.3578 -0.9947
  455TMC3    C2 6826   1.975   2.983  16.047 -0.3677  0.3480 -0.0815
  455TMC3    C3 6827   1.850   3.043  16.033 -0.2533  0.1570  0.6478
  455TMC3    C4 6828   1.887   2.767  16.013 -0.9006 -0.3633  0.1876
  455TMC3    C5 6829   1.765   2.832  15.999 -0.6042 -0.0426 -0.1726
  455TMC3    C6 6830   1.743   2.966  15.999  0.0061  0.0340  0.3770
  455TMC3     C 6831   2.126   2.793  16.047 -1.0780  0.2613 -0.5759
  455TMC3     O 6832   2.159   2.750  16.154 -0.3777  0.1009 -0.2913
  455TMC3     H 6833   2.060   3.045  16.074  0.3933 -0.6215 -0.2362
  455TMC3    H1 6834   1.914   2.664  15.994  0.3471  0.2315 -1.2639
  455TMC3    H2 6835   1.646   3.009  15.980  0.9888  2.1289  0.0532
  455TMC3    C7 6836   1.660   2.747  15.939  0.2370  0.0492 -0.2512
  455TMC3    C8 6837   1.814   3.168  16.098  0.0481  0.1452  0.3236
  455TMC3    O1 6838   1.698   2.681  15.846 -0.8046 -0.3730 -0.4990
  455TMC3    O2 6839   1.884   3.200  16.197 -0.3573 -1.0971 -0.1968
  456MPD2     C 6840   4.369   2.976  16.154  0.3932 -0.7092  0.1960
  456MPD2    C1 6841   4.466   2.994  16.249 -0.2096  0.5481  0.4676
  456MPD2    C2 6842   4.436   3.071  16.357 -0.2882 -0.8552  0.2931
  456MPD2    C3 6843   4.310   3.122  16.372 -0.6412 -0.2091 -0.2897
  456MPD2    C4 6844   4.207   3.091  16.284  0.4259  0.2368 -0.2903
  456MPD2    C5 6845   4.239   3.011  16.178 -0.4080 -0.1944  0.1149
  456MPD2     H 6846   4.517   3.090  16.426 -0.1984 -0.1151 -0.0143
  456MPD2    H1 6847   4.108   3.127  16.311 -0.2183 -2.0710  0.3745
  456MPD2    H2 6848   4.401   2.927  16.063  0.4753 -0.8928  0.3215
  456MPD2    H3 6849   4.163   2.994  16.103  0.0910  0.6400 -0.5796
  456MPD2     N 6850   4.285   3.205  16.487 -0.3189 -0.2142 -0.2068
  456MPD2    H5 6851   4.356   3.206  16.560  0.0892 -2.3609 -0.5834
  456MPD2    N1 6852   4.600   2.960  16.224 -0.0831 -0.2579 -0.2365
  456MPD2    H7 6853   4.610   2.937  16.125  0.3378 -1.3164  0.0489
  457TMC3    C1 6854   4.188   3.384  16.614  0.8960 -0.0228 -0.6163
  457TMC3    C2 6855   4.161   3.512  16.589 -0.4646  0.0338 -0.2257
  457TMC3    C3 6856   4.181   3.597  16.693  0.1538  0.0717 -0.4285
  457TMC3    C4 6857   4.242   3.336  16.732  0.0790  0.3545  0.1707
  457TMC3    C5 6858   4.254   3.423  16.832 -0.1482 -0.0292 -0.6121
  457TMC3    C6 6859   4.236   3.559  16.812  0.0511 -0.0617 -0.6309
  457TMC3     C 6860   4.178   3.291  16.502  0.6545 -0.3609 -0.5043
  457TMC3     O 6861   4.106   3.332  16.412 -0.3318 -0.1769 -0.0599
  457TMC3     H 6862   4.142   3.543  16.487  1.1768 -0.1222 -0.5837
  457TMC3    H1 6863   4.253   3.229  16.743  0.4286  0.5723  2.0744
  457TMC3    H2 6864   4.238   3.634  16.890 -0.3536  0.0989 -0.7736
  457TMC3    C7 6865   4.312   3.391  16.959 -0.1760  0.5851 -0.3068
  457TMC3    C8 6866   4.158   3.736  16.680  0.2107 -0.0386  0.0445
  457TMC3    O1 6867   4.311   3.269  16.993  0.0132  0.0008 -0.0095
  457TMC3    O2 6868   4.222   3.812  16.749  0.0646  0.2568  0.1264
  458MPD2     C 6869   1.957   3.010  12.559 -0.1879  1.2384 -1.0299
  458MPD2    C1 6870   1.964   2.903  12.643 -0.1478 -0.0214  0.0740
  458MPD2    C2 6871   1.849   2.838  12.664 -0.4886  0.0151  0.3824
  458MPD2    C3 6872   1.731   2.868  12.613 -0.9120  0.2978 -0.3011
  458MPD2    C4 6873   1.722   2.980  12.538  0.1670 -0.0041  0.3544
  458MPD2    C5 6874   1.838   3.048  12.504 -0.0943 -0.7701  0.1480
  458MPD2     H 6875   1.864   2.753  12.730 -3.1327 -2.0971 -1.7537
  458MPD2    H1 6876   1.635   2.995  12.475 -0.3182  0.0552  1.0344
  458MPD2    H2 6877   2.046   3.066  12.529  0.5063  0.1120 -1.0727
  458MPD2    H3 6878   1.841   3.126  12.428 -1.4708  0.7043  1.5980
  458MPD2     N 6879   1.618   2.791  12.651 -0.2588  0.5860 -0.2732
  458MPD2    H5 6880   1.636   2.704  12.700 -1.9968  1.4705  1.9408
  458MPD2    N1 6881   2.083   2.882  12.708  0.4774 -0.5147  0.1679
  458MPD2    H7 6882   2.162   2.928  12.665 -1.1328  1.7897 -0.3261
  459TMC3    C1 6883   2.251   2.784  12.852  1.0016  0.2565 -0.1278
  459TMC3    C2 6884   2.348   2.816  12.762 -0.2328 -0.1069 -0.3432
  459TMC3    C3 6885   2.477   2.764  12.790 -0.4857  0.5798  0.0736
  459TMC3    C4 6886   2.272   2.691  12.952 -0.2563 -0.2317  0.4798
  459TMC3    C5 6887   2.400   2.652  12.982  1.0410  0.0265  0.3282
  459TMC3    C6 6888   2.506   2.686  12.899  0.3177  0.5379  0.4814
  459TMC3     C 6889   2.108   2.797  12.818  0.0201  0.1248 -0.2554
  459TMC3     O 6890   2.027   2.732  12.884  0.3687  0.1188 -0.4121
  459TMC3     H 6891   2.332   2.892  12.686  1.3213 -0.1349 -0.6946
  459TMC3    H1 6892   2.191   2.667  13.020 -1.2172 -4.7429 -2.2413
  459TMC3    H2 6893   2.606   2.657  12.929 -1.1569 -3.1268  1.8329
  459TMC3    C7 6894   2.421   2.524  13.047  0.6282  0.8173 -0.4893
  459TMC3    C8 6895   2.594   2.818  12.719  0.1309  0.5259  0.2868
  459TMC3    O1 6896   2.475   2.433  12.987  0.0929 -0.1708  0.1572
  459TMC3    O2 6897   2.710   2.783  12.756  0.5173 -0.6433  0.3278
  460MPD2     C 6898   1.713   0.770  10.993  0.3053  1.0474 -0.3324
  460MPD2    C1 6899   1.593   0.706  10.994 -0.1180  0.5893 -0.1366
  460MPD2    C2 6900   1.499   0.752  10.901  0.2692 -0.2522 -0.6102
  460MPD2    C3 6901   1.523   0.848  10.807  0.3807  0.3726 -0.3597
  460MPD2    C4 6902   1.652   0.909  10.804 -0.4899  0.6790 -1.0011
  460MPD2    C5 6903   1.743   0.869  10.902 -0.2388  0.8803  1.1842
  460MPD2     H 6904   1.400   0.708  10.904 -0.6841  2.0044  0.6038
  460MPD2    H1 6905   1.666   0.986  10.729  2.1561  0.6260 -0.5405
  460MPD2    H2 6906   1.800   0.745  11.053 -0.6173 -0.7962  0.2055
  460MPD2    H3 6907   1.837   0.922  10.896  0.8867 -1.4847 -2.1179
  460MPD2     N 6908   1.416   0.889  10.713  0.0546  0.0526  0.0386
  460MPD2    H5 6909   1.318   0.875  10.733 -0.2899 -0.2905 -1.8374
  460MPD2    N1 6910   1.578   0.609  11.098  0.6769 -0.2125  0.4175
  460MPD2    H7 6911   1.654   0.602  11.165  0.1022  1.4204  1.2413
  461TMC3    C1 6912   1.304   1.028  10.560 -0.1266 -0.4389 -0.4397
  461TMC3    C2 6913   1.204   0.936  10.555 -0.6942  0.1478 -0.2370
  461TMC3    C3 6914   1.080   0.973  10.509  0.2204  0.3594 -1.0545
  461TMC3    C4 6915   1.295   1.151  10.506  0.2923 -1.1114 -0.0810
  461TMC3    C5 6916   1.176   1.189  10.461 -0.7371 -0.2544 -0.4110
  461TMC3    C6 6917   1.065   1.106  10.466 -0.1663  0.1825 -0.7274
  461TMC3     C 6918   1.435   0.984  10.615  0.4697  0.0521  0.1847
  461TMC3     O 6919   1.534   1.022  10.557  0.1837 -0.9485 -0.4999
  461TMC3     H 6920   1.224   0.838  10.597 -1.9007  0.3897  0.8913
  461TMC3    H1 6921   1.374   1.221  10.531 -2.2579  1.2871  1.1519
  461TMC3    H2 6922   0.965   1.143  10.450  0.3513  1.7922 -0.2302
  461TMC3    C7 6923   1.155   1.316  10.400 -0.1866  0.7020 -0.3623
  461TMC3    C8 6924   1.037   0.885  10.401 -0.0936 -0.2976  0.3340
  461TMC3    O1 6925   1.043   1.341  10.353 -0.1431  0.2616 -0.2128
  461TMC3    O2 6926   1.128   0.827  10.345  0.3492  0.3947  0.3822
  462TMC3    C1 6927   0.836   0.904  17.231 -0.4979  0.0831 -1.0042
  462TMC3    C2 6928   0.830   0.800  17.137 -0.5029 -0.4605 -0.2633
  462TMC3    C3 6929   0.943   0.717  17.127 -0.4883  0.0744 -0.0545
  462TMC3    C4 6930   0.938   0.925  17.316 -0.2461 -0.0039 -0.4561
  462TMC3    C5 6931   1.050   0.842  17.299 -0.1572 -0.6903  0.1849
  462TMC3    C6 6932   1.051   0.737  17.212  0.6407 -0.0476  0.4015
  462TMC3     C 6933   0.753   1.021  17.205  0.7742  0.4437  0.0369
  462TMC3     O 6934   0.657   1.011  17.127  0.1216 -0.0313 -0.0919
  462TMC3     H 6935   0.733   0.781  17.093 -0.6163  0.2002 -0.3000
  462TMC3    H1 6936   0.930   0.993  17.400  0.0814  0.9989 -1.2275
  462TMC3    H2 6937   1.146   0.707  17.170  0.1729 -0.3815 -0.4129
  462TMC3    C7 6938   1.152   0.823  17.401  0.6763  0.7396  0.2795
  462TMC3    C8 6939   0.955   0.623  17.018 -0.2279 -0.1991  0.1316
  462TMC3    O1 6940   1.225   0.723  17.391  0.6498  0.0086 -0.2691
  462TMC3    O2 6941   0.867   0.617  16.932 -0.8671 -0.5955  0.7133
  463MPD2     C 6942   2.572   4.234   1.625  0.2130 -0.0312 -0.4049
  463MPD2    C1 6943   2.468   4.298   1.559 -0.5513  0.0654  0.7202
  463MPD2    C2 6944   2.500   4.421   1.506  0.1912  0.5668  0.4051
  463MPD2    C3 6945   2.624   4.476   1.514  0.1767  0.3055  1.2336
  463MPD2    C4 6946   2.722   4.409   1.591 -0.1209  0.1301  0.2400
  463MPD2    C5 6947   2.693   4.293   1.647 -0.1812  0.2498  0.1419
  463MPD2     H 6948   2.425   4.457   1.437  0.1277 -3.4907 -1.6391
  463MPD2    H1 6949   2.824   4.444   1.605  0.2462 -1.0493  0.5266
  463MPD2    H2 6950   2.574   4.132   1.661 -1.1815  0.7386  1.8840
  463MPD2    H3 6951   2.767   4.239   1.705 -0.9261  0.2300  1.0861
  463MPD2     N 6952   2.657   4.605   1.454 -0.0676  0.5192  0.5430
  463MPD2    H5 6953   2.751   4.638   1.472  0.1967  1.2129 -2.0873
  463MPD2    N1 6954   2.351   4.229   1.531  0.2051 -0.0738 -0.6879
  463MPD2    H7 6955   2.287   4.266   1.462 -1.2175  0.2177  0.8010
  464TMC3    C1 6956   2.179   4.079   1.549 -0.6795  0.6728 -0.4350
  464TMC3    C2 6957   2.074   4.162   1.534  0.5722 -0.3725  0.0389
  464TMC3    C3 6958   1.957   4.096   1.495 -0.2171 -0.7021  0.7900
  464TMC3    C4 6959   2.173   3.946   1.522  0.0401 -0.5012  0.3307
  464TMC3    C5 6960   2.060   3.887   1.475 -0.3819 -0.9142 -0.3979
  464TMC3    C6 6961   1.947   3.960   1.469  0.4775  0.6171  0.1571
  464TMC3     C 6962   2.311   4.118   1.598 -0.4848 -0.6345  0.2621
  464TMC3     O 6963   2.367   4.052   1.687  0.1748  0.7732  0.0634
  464TMC3     H 6964   2.080   4.268   1.553 -1.9516 -0.1721 -0.2917
  464TMC3    H1 6965   2.264   3.887   1.525  0.3059  0.0076  1.9725
  464TMC3    H2 6966   1.852   3.913   1.447  1.2276 -0.4452 -0.8106
  464TMC3    C7 6967   2.078   3.752   1.409 -0.6624  0.3912 -0.2062
  464TMC3    C8 6968   1.839   4.173   1.463 -0.1576  0.1500  0.4650
  464TMC3    O1 6969   2.193   3.715   1.399 -0.3841 -1.2464 -0.0646
  464TMC3    O2 6970   1.869   4.289   1.426 -0.2222  0.2602 -0.3836
  465MPD2     C 6971   3.593   3.925  16.446  0.2543  0.8394 -0.2284
  465MPD2    C1 6972   3.563   3.928  16.584  0.3415  0.3181  1.1497
  465MPD2    C2 6973   3.469   3.835  16.631  0.1459 -0.0020 -0.5833
  465MPD2    C3 6974   3.422   3.732  16.550 -0.5055  0.2491 -0.3335
  465MPD2    C4 6975   3.464   3.719  16.424 -1.2301  0.6113  0.4645
  465MPD2    C5 6976   3.545   3.817  16.373  0.8354  0.2726 -0.2099
  465MPD2     H 6977   3.441   3.821  16.735 -0.3568  0.0192 -0.7153
  465MPD2    H1 6978   3.429   3.631  16.370 -1.8328  0.6141  0.8548
  465MPD2    H2 6979   3.652   4.005  16.402  1.4924  0.3267  0.5129
  465MPD2    H3 6980   3.587   3.807  16.273 -1.7343 -0.6713 -1.1786
  465MPD2     N 6981   3.336   3.642  16.613  0.7447 -0.1233 -0.3462
  465MPD2    H5 6982   3.324   3.659  16.713 -1.2279  1.3116 -0.8377
  465MPD2    N1 6983   3.632   4.015  16.668  0.2833 -0.0399 -0.4219
  465MPD2    H7 6984   3.620   3.997  16.767 -2.0131 -0.2722 -0.7418
  466TMC3    C1 6985   3.197   3.402  16.883 -0.1062 -0.5519  0.1187
  466TMC3    C2 6986   3.063   3.369  16.871  0.0642  0.2445  0.2043
  466TMC3    C3 6987   3.004   3.385  16.746  0.0584 -0.0315 -0.1737
  466TMC3    C4 6988   3.271   3.442  16.775  0.5184 -0.4682  0.2996
  466TMC3    C5 6989   3.206   3.449  16.654  0.0453  0.4453 -0.1864
  466TMC3    C6 6990   3.075   3.422  16.639 -0.7197  0.1699 -0.4702
  466TMC3     C 6991   3.265   3.392  17.010  0.2730  0.0569 -0.0192
  466TMC3     O 6992   3.342   3.484  17.028  0.0469 -0.4184  0.2958
  466TMC3     H 6993   3.004   3.346  16.959  1.9614 -1.2141  1.1158
  466TMC3    H1 6994   3.378   3.458  16.784  0.6667 -1.4471  0.1954
  466TMC3    H2 6995   3.027   3.447  16.545  1.3837  0.0261 -1.5893
  466TMC3    C7 6996   3.264   3.539  16.559 -0.0757 -0.0814  0.1134
  466TMC3    C8 6997   2.879   3.453  16.766 -0.2122  0.3850  0.6575
  466TMC3    O1 6998   3.228   3.522  16.445 -0.1029  0.1578 -0.0857
  466TMC3    O2 6999   2.857   3.513  16.873 -0.5630  0.2861  0.6786
  467TMC3    C1 7000   4.169   1.761  13.537  0.2113 -1.3474 -0.8214
  467TMC3    C2 7001   4.209   1.881  13.491 -0.0369  0.4025  0.8150
  467TMC3    C3 7002   4.116   1.965  13.445 -0.4758 -0.0177 -0.7972
  467TMC3    C4 7003   4.050   1.707  13.514  0.2002  0.5489  0.3142
  467TMC3    C5 7004   3.957   1.791  13.458  0.5114  0.5426 -0.0728
  467TMC3    C6 7005   3.987   1.918  13.423 -0.0681  0.2070  0.2855
  467TMC3     C 7006   4.270   1.675  13.578  0.3256  0.2281 -0.8898
  467TMC3     O 7007   4.387   1.693  13.544 -0.6151 -0.4086 -0.2529
  467TMC3     H 7008   4.307   1.921  13.514  0.4781  0.1465 -0.9408
  467TMC3    H1 7009   4.021   1.606  13.538 -1.1664  1.1905  1.3245
  467TMC3    H2 7010   3.904   1.978  13.388 -0.7084  0.2571  1.8912
  467TMC3    C7 7011   3.838   1.727  13.397 -0.1265 -0.3301  0.4003
  467TMC3    C8 7012   4.156   2.096  13.388  0.1976 -0.2816 -0.6179
  467TMC3    O1 7013   3.820   1.740  13.274  0.6019  1.2763  0.0281
  467TMC3    O2 7014   4.074   2.189  13.391 -0.4568 -0.2001 -0.4401
  468MPD2     C 7015   2.994   0.681  10.242 -1.0539  0.0177  0.4343
  468MPD2    C1 7016   3.118   0.650  10.295 -0.7473 -0.3383 -0.3472
  468MPD2    C2 7017   3.188   0.536  10.259 -0.1972  0.1892  0.6121
  468MPD2    C3 7018   3.130   0.454  10.166 -0.0120 -0.2191 -0.1195
  468MPD2    C4 7019   3.006   0.480  10.112  0.6036 -0.5805 -0.2236
  468MPD2    C5 7020   2.941   0.592  10.152  0.2563 -0.0674 -0.0448
  468MPD2     H 7021   3.284   0.515  10.305 -0.5420 -0.0831  1.2016
  468MPD2    H1 7022   2.954   0.418  10.040  1.0548 -1.9182  0.5807
  468MPD2    H2 7023   2.940   0.774  10.253  1.3187  1.5846 -1.0442
  468MPD2    H3 7024   2.844   0.616  10.111  0.2012 -0.2930 -0.0482
  468MPD2     N 7025   3.183   0.325  10.136  0.0471 -0.3947  0.9184
  468MPD2    H5 7026   3.108   0.264  10.105 -0.1317 -0.1059  0.7859
  468MPD2    N1 7027   3.174   0.732  10.403 -0.4088 -0.3993  0.3295
  468MPD2    H7 7028   3.258   0.700  10.450 -0.5516 -0.4624  0.5427
  469TMC3    C1 7029   3.167   0.873  10.597 -0.5010 -0.2142 -0.7823
  469TMC3    C2 7030   3.274   0.796  10.643 -0.4550  0.2111 -0.1634
  469TMC3    C3 7031   3.359   0.865  10.727  0.2897  0.2067 -0.4346
  469TMC3    C4 7032   3.139   1.000  10.638  0.1089 -0.3609  0.1972
  469TMC3    C5 7033   3.226   1.058  10.720  0.3784  0.1186 -0.5874
  469TMC3    C6 7034   3.338   0.993  10.767  0.0494 -0.6067  0.3497
  469TMC3     C 7035   3.105   0.830  10.471 -0.1422  0.1527  0.5125
  469TMC3     O 7036   3.008   0.894  10.442  0.4608 -0.2814 -0.2488
  469TMC3     H 7037   3.293   0.696  10.606 -1.4290  0.3504 -1.0380
  469TMC3    H1 7038   3.048   1.052  10.610 -0.5086 -0.1745  2.5843
  469TMC3    H2 7039   3.417   1.041  10.823  0.0278  0.5797 -0.6442
  469TMC3    C7 7040   3.196   1.190  10.762 -0.4383  0.0677  0.1640
  469TMC3    C8 7041   3.497   0.816  10.754  0.0495  0.3959  0.1208
  469TMC3    O1 7042   3.106   1.253  10.708 -0.2682 -0.5193 -0.3140
  469TMC3    O2 7043   3.588   0.898  10.763  0.6135  0.0068  0.0872
  470TMC3    C1 7044   0.235   0.887   0.215  0.0862  0.4772 -0.3961
  470TMC3    C2 7045   0.312   0.974   0.295 -0.4407 -0.1538 -0.2562
  470TMC3    C3 7046   0.252   1.064   0.376 -0.8830 -0.6079 -0.3528
  470TMC3    C4 7047   0.098   0.882   0.239  1.0885  0.3073 -0.0952
  470TMC3    C5 7048   0.038   0.964   0.329  0.3057 -0.3697 -0.6807
  470TMC3    C6 7049   0.114   1.064   0.381  0.0688  0.0227  0.2747
  470TMC3     C 7050   0.304   0.812   0.109 -0.2720 -0.0519 -0.0191
  470TMC3     O 7051   0.419   0.779   0.130 -0.1404 -0.3865  0.1264
  470TMC3     H 7052   0.417   0.980   0.269 -0.5320  0.8199 -0.4183
  470TMC3    H1 7053   0.037   0.799   0.207 -2.2210  2.6008  0.3292
  470TMC3    H2 7054   0.065   1.136   0.446 -1.6787 -1.4035  0.5263
  470TMC3    C7 7055   4.651   0.931   0.390 -0.7281 -0.1139  0.0227
  470TMC3    C8 7056   0.333   1.165   0.452  0.4638  0.2860  0.2448
  470TMC3    O1 7057   4.577   0.863   0.322 -0.3013  0.0925  0.1936
  470TMC3    O2 7058   0.278   1.221   0.545  0.1282 -0.3385  0.0124
  471MPD2     C 7059   0.370   2.295  16.329  0.2029 -0.0298  0.0034
  471MPD2    C1 7060   0.499   2.307  16.372 -0.5473  0.1609  0.1893
  471MPD2    C2 7061   0.533   2.280  16.505 -0.6356 -0.3506  0.3965
  471MPD2    C3 7062   0.434   2.260  16.596 -0.5211  0.1533  0.1309
  471MPD2    C4 7063   0.306   2.254  16.555 -0.0012  0.3216  0.1410
  471MPD2    C5 7064   0.274   2.275  16.424 -0.3752 -0.3251 -0.4201
  471MPD2     H 7065   0.637   2.281  16.534 -0.9890  0.4909  1.6067
  471MPD2    H1 7066   0.225   2.230  16.623 -0.3840 -0.5446 -0.6269
  471MPD2    H2 7067   0.346   2.298  16.223 -0.7669 -0.9707  0.1981
  471MPD2    H3 7068   0.171   2.275  16.388 -1.1698  0.3358  1.8618
  471MPD2     N 7069   0.460   2.244  16.739 -0.5052  0.2121 -0.2092
  471MPD2    H5 7070   0.381   2.201  16.786 -1.0063 -0.2668 -1.4862
  471MPD2    N1 7071   0.606   2.343  16.287 -0.0445  0.1282  0.2849
  471MPD2    H7 7072   0.697   2.333  16.329 -0.4065 -1.2677  0.7484
  472TMC3    C1 7073   0.729   2.292  16.092 -0.4228  0.6685 -0.2163
  472TMC3    C2 7074   0.720   2.285  15.956 -0.3362 -0.6983  0.1862
  472TMC3    C3 7075   0.783   2.181  15.895  0.2535  0.0011 -0.3838
  472TMC3    C4 7076   0.803   2.198  16.158  0.3745 -0.0248 -0.1383
  472TMC3    C5 7077   0.864   2.096  16.091 -0.1083 -0.4091 -0.3425
  472TMC3    C6 7078   0.858   2.092  15.956 -0.6140  0.9027  0.1361
  472TMC3     C 7079   0.605   2.342  16.150 -0.8315 -0.4469  0.2885
  472TMC3     O 7080   0.513   2.355  16.068 -0.1371 -0.0613 -0.6381
  472TMC3     H 7081   0.650   2.344  15.898  1.5243 -0.3800 -1.7246
  472TMC3    H1 7082   0.787   2.189  16.265 -0.4243  1.1907 -0.1505
  472TMC3    H2 7083   0.919   2.023  15.899  0.9431  2.6657 -0.3124
  472TMC3    C7 7084   0.848   1.966  16.158  0.2509 -0.8948  0.0197
  472TMC3    C8 7085   0.715   2.123  15.775 -1.0126 -0.3442 -0.2644
  472TMC3    O1 7086   0.836   1.964  16.281  0.2899  0.5900  0.1505
  472TMC3    O2 7087   0.755   2.169  15.667  0.5123 -0.3728  0.2952
  473MPD2     C 7088   0.846   3.925  13.268  0.7850  0.4284  0.1900
  473MPD2    C1 7089   0.747   4.009  13.309  0.9965 -0.1915 -0.1385
  473MPD2    C2 7090   0.782   4.098  13.416  0.6575  0.1728  0.6861
  473MPD2    C3 7091   0.905   4.085  13.480  0.9496 -0.0862  0.4076
  473MPD2    C4 7092   0.997   3.992  13.442  0.2244  0.4492  0.4557
  473MPD2    C5 7093   0.970   3.917  13.329 -0.2021 -0.3882 -0.3555
  473MPD2     H 7094   0.709   4.169  13.451  0.6513  0.6214 -0.2432
  473MPD2    H1 7095   1.093   3.972  13.488  1.4299  3.3482 -0.7747
  473MPD2    H2 7096   0.826   3.863  13.181 -0.4517  0.2161  0.6133
  473MPD2    H3 7097   1.040   3.837  13.305  0.7465  0.5178 -0.6576
  473MPD2     N 7098   0.943   4.166  13.589 -0.1337  0.9233 -0.1284
  473MPD2    H5 7099   1.036   4.147  13.626 -0.3214  0.6976  0.2275
  473MPD2    N1 7100   0.622   4.029  13.243  0.1912 -0.1497 -0.1503
  473MPD2    H7 7101   0.561   4.102  13.278 -0.1001 -0.5613  0.2156
  474TMC3    C1 7102   0.941   4.337  13.754 -0.2883  1.0403 -0.1100
  474TMC3    C2 7103   0.861   4.433  13.810  0.4016  0.1535 -0.0665
  474TMC3    C3 7104   0.921   4.518  13.902 -0.5865 -0.7267 -0.4091
  474TMC3    C4 7105   1.079   4.323  13.778  0.2016 -0.5042 -0.1497
  474TMC3    C5 7106   1.129   4.411  13.871 -0.1241 -0.4699 -0.0390
  474TMC3    C6 7107   1.054   4.511  13.934  1.0049 -0.1589 -0.4791
  474TMC3     C 7108   0.872   4.278  13.634  0.5209  0.5022  0.6405
  474TMC3     O 7109   0.780   4.347  13.582  0.1305 -0.3061 -0.3893
  474TMC3     H 7110   0.754   4.438  13.801  0.3533  0.9474  0.8826
  474TMC3    H1 7111   1.137   4.250  13.723  2.6185  1.2030  0.1446
  474TMC3    H2 7112   1.096   4.579  14.007  2.5347 -1.5276 -0.0840
  474TMC3    C7 7113   1.269   4.417  13.880 -0.9706 -0.0565 -0.1569
  474TMC3    C8 7114   0.833   4.601  13.986  0.0147  0.5779 -0.5496
  474TMC3    O1 7115   1.334   4.374  13.785 -0.6577 -0.2297  0.0849
  474TMC3    O2 7116   0.715   4.560  14.001 -0.4940  0.1074  0.1292
  475MPD2     C 7117   3.845   3.185  10.947 -0.0380  0.0936 -0.0541
  475MPD2    C1 7118   3.925   3.127  10.846 -0.2723  0.2719  0.1102
  475MPD2    C2 7119   3.979   3.212  10.748  0.0156  0.2496 -0.9002
  475MPD2    C3 7120   3.957   3.353  10.760 -0.9211 -0.2164  0.5074
  475MPD2    C4 7121   3.876   3.408  10.857  0.6833 -0.3805 -0.4503
  475MPD2    C5 7122   3.817   3.325  10.951 -0.0810 -0.4629  0.4709
  475MPD2     H 7123   4.049   3.170  10.676 -0.8024 -0.7207 -1.1370
  475MPD2    H1 7124   3.878   3.512  10.884  0.6519  0.2487 -2.8162
  475MPD2    H2 7125   3.807   3.119  11.023 -0.0939  1.8753  1.4699
  475MPD2    H3 7126   3.781   3.377  11.039 -0.7573  0.4514 -0.3441
  475MPD2     N 7127   4.036   3.440  10.678  0.0945  1.0211  0.7087
  475MPD2    H5 7128   4.113   3.413  10.618 -1.2588  3.2565 -2.0770
  475MPD2    N1 7129   3.961   2.990  10.868 -0.2936 -0.3546  0.3567
  475MPD2    H7 7130   3.906   2.949  10.942  0.8732  1.8357  2.4713
  476TMC3    C1 7131   4.176   2.966  10.779 -0.1757  0.1366  0.1695
  476TMC3    C2 7132   4.223   2.991  10.652 -0.0915  0.0495 -0.2927
  476TMC3    C3 7133   4.314   3.096  10.639  0.6775  0.3499  0.1877
  476TMC3    C4 7134   4.223   3.041  10.887  0.1541 -0.6998  0.0573
  476TMC3    C5 7135   4.309   3.148  10.866  0.0452 -0.1409 -0.5808
  476TMC3    C6 7136   4.348   3.173  10.745 -0.3525 -0.3482  0.5927
  476TMC3     C 7137   4.049   2.909  10.797  0.2248  1.3927  0.5532
  476TMC3     O 7138   4.046   2.787  10.785 -0.5684  0.2389  0.0965
  476TMC3     H 7139   4.176   2.947  10.566  0.0960 -0.6551 -0.0342
  476TMC3    H1 7140   4.190   3.010  10.986 -1.6010  0.2881 -0.2189
  476TMC3    H2 7141   4.418   3.256  10.736  1.1679 -1.6361  0.4745
  476TMC3    C7 7142   4.291   3.260  10.966  0.7654 -0.3104 -1.0511
  476TMC3    C8 7143   4.298   3.176  10.511  0.4864  0.6129 -0.2254
  476TMC3    O1 7144   4.216   3.234  11.063 -1.0067  0.5545 -0.1920
  476TMC3    O2 7145   4.259   3.287  10.532  0.2135  0.4119  0.0888
  477MPD2     C 7146   2.185   4.374  11.576  0.1332  0.0778 -0.0820
  477MPD2    C1 7147   2.081   4.279  11.584  0.5060 -0.2605  0.7414
  477MPD2    C2 7148   2.115   4.141  11.567 -0.6215 -0.3186 -0.9359
  477MPD2    C3 7149   2.245   4.099  11.523 -0.1965 -0.1321 -0.0021
  477MPD2    C4 7150   2.343   4.196  11.504  0.2649 -0.1662 -0.1431
  477MPD2    C5 7151   2.309   4.329  11.539  0.2320 -0.6406 -0.1233
  477MPD2     H 7152   2.036   4.067  11.571  0.1419 -1.1087 -0.1911
  477MPD2    H1 7153   2.446   4.171  11.483  0.8106  0.8683  1.2770
  477MPD2    H2 7154   2.174   4.480  11.599  0.9099 -0.0621  0.9361
  477MPD2    H3 7155   2.382   4.408  11.551 -0.4334 -0.1059  0.3820
  477MPD2     N 7156   2.272   3.961  11.513  0.6703 -0.2941  0.0339
  477MPD2    H5 7157   2.192   3.903  11.539 -0.2495  1.1121  0.3255
  477MPD2    N1 7158   1.949   4.329  11.599  0.4947  1.0818 -0.2586
  477MPD2    H7 7159   1.945   4.430  11.610  0.7109  1.0917 -0.2803
  478TMC3    C1 7160   1.708   4.338  11.600  0.4382 -0.0510  0.0563
  478TMC3    C2 7161   1.714   4.468  11.653  0.4201 -0.5802  0.3785
  478TMC3    C3 7162   1.617   4.558  11.605  0.1401 -0.4584 -0.0199
  478TMC3    C4 7163   1.602   4.298  11.527 -0.2906 -0.4359 -0.0994
  478TMC3    C5 7164   1.505   4.387  11.488  0.3239  0.5429  0.1065
  478TMC3    C6 7165   1.516   4.516  11.525 -0.1829  0.4857 -0.0834
  478TMC3     C 7166   1.824   4.258  11.610 -0.2660  0.5942 -0.2566
  478TMC3     O 7167   1.813   4.135  11.619  0.3032 -0.2603 -0.6061
  478TMC3     H 7168   1.788   4.493  11.729 -1.0193  3.9048  0.3001
  478TMC3    H1 7169   1.597   4.190  11.513 -0.9527 -0.0501 -2.8889
  478TMC3    H2 7170   1.456   4.591  11.475  2.5983  3.5586  1.2265
  478TMC3    C7 7171   1.438   4.355  11.363 -0.0938 -0.0220 -0.1556
  478TMC3    C8 7172   1.612   4.679  11.684  0.1272  0.3366  0.7115
  478TMC3    O1 7173   1.405   4.237  11.352  0.1421 -0.5555 -0.8723
  478TMC3    O2 7174   1.715   4.715  11.740 -0.3114  0.0588 -0.5807
  479MPD2     C 7175   0.379   1.252  14.997  0.2923  0.6796  0.3653
  479MPD2    C1 7176   0.360   1.228  15.124 -0.3149  0.3481 -0.0946
  479MPD2    C2 7177   0.457   1.270  15.223  0.2112 -0.5846  0.2606
  479MPD2    C3 7178   0.551   1.363  15.185 -0.8980 -0.4098 -0.2359
  479MPD2    C4 7179   0.569   1.387  15.051  0.2556 -0.3141 -0.2284
  479MPD2    C5 7180   0.481   1.335  14.959  0.6364  0.9282  0.2808
  479MPD2     H 7181   0.455   1.247  15.329  0.3333 -1.3084  0.1056
  479MPD2    H1 7182   0.641   1.461  15.017 -2.4053  1.6761 -1.6166
  479MPD2    H2 7183   0.311   1.212  14.922 -0.5794  0.0230  1.4975
  479MPD2    H3 7184   0.496   1.351  14.853  0.0295  2.2200  0.3953
  479MPD2     N 7185   0.646   1.439  15.262 -0.3691  0.1304  0.6713
  479MPD2    H5 7186   0.734   1.457  15.215  0.3649  2.0625  2.7961
  479MPD2    N1 7187   0.248   1.155  15.159  0.2346 -0.1640 -0.4371
  479MPD2    H7 7188   0.179   1.133  15.087 -0.3839 -0.8794  0.3746
  480TMC3    C1 7189   0.350   1.331  15.555 -0.5311 -0.1838  0.1202
  480TMC3    C2 7190   0.244   1.402  15.496 -0.3455 -0.4687  0.1049
  480TMC3    C3 7191   0.279   1.499  15.401  0.1111 -0.6848 -0.8508
  480TMC3    C4 7192   0.481   1.369  15.545 -0.8302 -0.1984  0.0483
  480TMC3    C5 7193   0.506   1.472  15.453  0.4578  0.4137  0.8068
  480TMC3    C6 7194   0.411   1.540  15.384 -0.0361 -0.1111 -0.3270
  480TMC3     C 7195   0.329   1.210  15.638  0.4899 -0.2627  0.1004
  480TMC3     O 7196   0.426   1.161  15.697  0.3513 -0.0872  0.3337
  480TMC3     H 7197   0.143   1.364  15.486 -0.4184  0.2931 -2.0727
  480TMC3    H1 7198   0.563   1.317  15.594  0.3544  2.8711  1.3608
  480TMC3    H2 7199   0.438   1.625  15.322  0.8339 -0.6670 -0.7057
  480TMC3    C7 7200   0.641   1.464  15.398 -0.0116 -1.1111 -0.1333
  480TMC3    C8 7201   0.190   1.527  15.285 -0.4685 -0.6550 -0.0006
  480TMC3    O1 7202   0.730   1.512  15.475  0.2038  0.1284 -0.4930
  480TMC3    O2 7203   0.070   1.518  15.303 -0.4329 -0.4263  0.2222
  481MPD2     C 7204   2.589   1.075  13.817  0.5722  1.1044  0.0412
  481MPD2    C1 7205   2.506   0.966  13.780  0.0868 -0.6491  0.5584
  481MPD2    C2 7206   2.491   0.864  13.871 -0.0199  0.1427 -0.3527
  481MPD2    C3 7207   2.556   0.877  13.994  0.4057 -0.7008  0.0502
  481MPD2    C4 7208   2.640   0.983  14.028  0.3075  0.3891  0.4625
  481MPD2    C5 7209   2.650   1.086  13.939  0.1601  0.1950 -0.1153
  481MPD2     H 7210   2.423   0.781  13.857  0.4668 -0.4341  0.7382
  481MPD2    H1 7211   2.693   0.996  14.122  0.8913  0.8793  0.0662
  481MPD2    H2 7212   2.597   1.160  13.751  2.6516 -0.5254 -1.8541
  481MPD2    H3 7213   2.703   1.179  13.952 -0.0947  0.3217  0.0117
  481MPD2     N 7214   2.536   0.781  14.096 -0.5255 -0.1188 -0.0860
  481MPD2    H5 7215   2.596   0.788  14.178  0.0238 -1.8080 -0.3368
  481MPD2    N1 7216   2.446   0.964  13.650  0.0437 -0.2642 -0.2943
  481MPD2    H7 7217   2.469   1.040  13.587 -3.5245 -1.2038 -2.7152
  482TMC3    C1 7218   2.320   0.908  13.476 -0.1177 -0.1512 -0.7462
  482TMC3    C2 7219   2.188   0.896  13.460 -0.1719 -0.1968  0.5239
  482TMC3    C3 7220   2.125   0.926  13.343 -0.0072  0.0779  0.3107
  482TMC3    C4 7221   2.402   0.961  13.379 -0.7365 -0.2336 -0.5238
  482TMC3    C5 7222   2.337   0.990  13.259 -0.5457  0.9553  0.3313
  482TMC3    C6 7223   2.202   0.976  13.243 -0.7092 -0.0714 -0.2464
  482TMC3     C 7224   2.371   0.866  13.602  0.3783 -0.3971 -0.2056
  482TMC3     O 7225   2.345   0.758  13.647  0.6554 -0.4471  0.1478
  482TMC3     H 7226   2.128   0.849  13.537 -1.8302  0.9659 -0.0551
  482TMC3    H1 7227   2.510   0.970  13.377 -0.9460  2.7109  2.4675
  482TMC3    H2 7228   2.169   0.994  13.142 -0.7416  1.5086  0.0474
  482TMC3    C7 7229   2.426   1.024  13.148 -0.2909  0.3508 -0.5933
  482TMC3    C8 7230   1.985   0.880  13.320 -0.2003 -0.4969 -0.0772
  482TMC3    O1 7231   2.544   0.990  13.163 -0.3188  0.3575 -0.4798
  482TMC3    O2 7232   1.954   0.782  13.388  0.5580  0.1410 -0.1211
  483TMC3    C1 7233   0.231   4.681   0.176 -0.5300  0.0114 -0.2791
  483TMC3    C2 7234   0.218   0.073   0.217  0.0162 -0.2571 -0.0458
  483TMC3    C3 7235   0.246   0.106   0.345 -0.4483 -0.3476 -0.0174
  483TMC3    C4 7236   0.267   4.580   0.259  0.6920 -0.0282 -0.7799
  483TMC3    C5 7237   0.301   4.620   0.387  0.4886 -0.0060  0.0725
  483TMC3    C6 7238   0.283   0.009   0.431 -0.5361  0.0367 -0.5046
  483TMC3     C 7239   0.168   4.654   0.050 -0.4297 -0.8928  0.9248
  483TMC3     O 7240   0.151   0.004  17.732  0.2394 -0.3257  0.2526
  483TMC3     H 7241   0.189   0.146   0.143 -1.0446  0.8717  1.5137
  483TMC3    H1 7242   0.292   4.483   0.216  2.3761  0.8785 -1.8666
  483TMC3    H2 7243   0.325   0.035   0.528 -1.2880  2.0660 -0.7050
  483TMC3    C7 7244   0.388   4.528   0.461 -0.1071  0.8072 -0.2933
  483TMC3    C8 7245   0.335   0.218   0.353 -0.3199 -0.6672  0.7727
  483TMC3    O1 7246   0.437   4.574   0.561  0.2350  0.1579  0.7793
  483TMC3    O2 7247   0.382   0.255   0.247  0.4623 -0.2955  0.2582
  484MPD2     C 7248   2.581   2.907  12.357 -0.8114 -0.7228 -0.4531
  484MPD2    C1 7249   2.637   2.892  12.483 -0.5513 -0.6486  0.1575
  484MPD2    C2 7250   2.773   2.920  12.492 -0.9935 -0.1632 -0.3812
  484MPD2    C3 7251   2.845   2.957  12.383 -1.0663 -0.1878  0.1866
  484MPD2    C4 7252   2.785   2.965  12.260 -0.4569  0.1226  0.8333
  484MPD2    C5 7253   2.658   2.931  12.239 -0.6343  0.1112  0.6509
  484MPD2     H 7254   2.816   2.915  12.591  1.5710 -1.3562 -1.5600
  484MPD2    H1 7255   2.834   2.992  12.167 -0.1777  0.9341  1.2106
  484MPD2    H2 7256   2.475   2.903  12.335 -1.3742  0.4413  2.0775
  484MPD2    H3 7257   2.611   2.943  12.142 -1.1412  0.0260  0.8848
  484MPD2     N 7258   2.986   2.995  12.381  0.2688 -0.6262 -0.1918
  484MPD2    H5 7259   3.025   3.017  12.290  0.3925 -1.0455 -0.2405
  484MPD2    N1 7260   2.552   2.851  12.591  0.0645 -0.9578  0.4251
  484MPD2    H7 7261   2.455   2.838  12.563  0.5361 -1.2609 -1.0726
  485TMC3    C1 7262   3.208   3.026  12.464 -0.4946 -0.3959  0.3951
  485TMC3    C2 7263   3.300   2.981  12.556 -0.0056 -0.1286  0.1405
  485TMC3    C3 7264   3.424   3.030  12.554  0.3061 -0.5872  0.3001
  485TMC3    C4 7265   3.238   3.117  12.367 -0.4332 -0.4072  0.2123
  485TMC3    C5 7266   3.362   3.170  12.367  0.2556  0.1925  0.0568
  485TMC3    C6 7267   3.456   3.127  12.460  0.0664  0.6137  0.2826
  485TMC3     C 7268   3.070   2.981  12.489 -0.0515 -0.0563  0.8207
  485TMC3     O 7269   3.042   2.935  12.600 -0.3674  0.6388 -0.1932
  485TMC3     H 7270   3.281   2.906  12.631 -3.0512 -0.4212 -0.9029
  485TMC3    H1 7271   3.164   3.160  12.301  1.0671  1.3710 -0.3123
  485TMC3    H2 7272   3.552   3.177  12.458  0.3118  0.1348  0.2191
  485TMC3    C7 7273   3.419   3.163  12.225 -0.4361  0.0880  0.1199
  485TMC3    C8 7274   3.520   2.928  12.568 -0.1677 -0.6759 -0.2240
  485TMC3    O1 7275   3.528   3.104  12.231 -0.4184 -0.1598 -0.5903
  485TMC3    O2 7276   3.517   2.845  12.657  0.6584 -0.3927  0.2574
  486MPD2     C 7277   4.725   1.638  12.029  0.3947  0.1624  0.3203
  486MPD2    C1 7278   4.712   1.695  12.157  0.3115  0.6206  0.2233
  486MPD2    C2 7279   4.669   1.827  12.166 -0.1295 -0.2465  0.7175
  486MPD2    C3 7280   4.631   1.896  12.053 -0.2355  0.1114  0.6263
  486MPD2    C4 7281   4.644   1.839  11.927 -0.3523  0.0206  0.2211
  486MPD2    C5 7282   4.689   1.710  11.913  0.3454 -1.3676  0.1110
  486MPD2     H 7283   4.656   1.871  12.265 -0.5875  0.5915  0.2794
  486MPD2    H1 7284   4.615   1.904  11.844 -2.1598 -0.6808  0.3178
  486MPD2    H2 7285   0.018   1.537  12.013 -0.2804  0.3024 -2.1003
  486MPD2    H3 7286   4.715   1.679  11.812  0.1140  2.1830 -1.0232
  486MPD2     N 7287   4.595   2.032  12.083  0.0496 -0.0266 -0.1573
  486MPD2    H5 7288   4.591   2.053  12.182 -2.6153  1.5052 -0.5837
  486MPD2    N1 7289   0.011   1.624  12.267 -0.1648 -0.2231  0.3236
  486MPD2    H7 7290   0.043   1.528  12.258 -0.6672 -0.4678  1.0965
  487TMC3    C1 7291   0.006   1.554  12.486  0.0333 -0.1138 -0.1808
  487TMC3    C2 7292   4.656   1.456  12.458  0.1977  0.7734  0.4353
  487TMC3    C3 7293   4.601   1.389  12.561 -0.4790  0.7342  0.7352
  487TMC3    C4 7294   0.057   1.568  12.610 -0.3682  0.0317  0.3996
  487TMC3    C5 7295   0.003   1.488  12.711  0.3076 -0.4519  0.3062
  487TMC3    C6 7296   4.640   1.399  12.690 -0.1242 -0.7244 -0.3603
  487TMC3     C 7297   0.009   1.666  12.393 -0.3737 -0.3901  0.3946
  487TMC3     O 7298   0.020   1.785  12.434  0.5185  0.6718  0.5268
  487TMC3     H 7299   4.611   1.450  12.360 -0.4490 -1.2343  0.8538
  487TMC3    H1 7300   0.145   1.630  12.623 -0.4981  0.0145  1.3763
  487TMC3    H2 7301   4.602   1.321  12.756 -0.3539 -0.5441 -0.2796
  487TMC3    C7 7302   0.071   1.469  12.838  0.3331  0.3867 -0.0589
  487TMC3    C8 7303   4.516   1.287  12.512  0.1958  0.8479 -0.2123
  487TMC3    O1 7304   0.003   1.427  12.934  0.4068  0.1611 -0.4897
  487TMC3    O2 7305   4.557   1.220  12.420 -0.4691 -0.3367  0.6049
  488MPD2     C 7306   0.023   3.337  16.290 -0.8760  0.5151  0.1016
  488MPD2    C1 7307   0.139   3.391  16.344  0.7693 -0.0349 -0.0043
  488MPD2    C2 7308   0.152   3.422  16.482  0.3218  0.2067 -0.1564
  488MPD2    C3 7309   0.034   3.405  16.556 -0.5612  0.1407 -0.5858
  488MPD2    C4 7310   4.656   3.372  16.499  0.0222 -0.3321 -0.0324
  488MPD2    C5 7311   4.650   3.336  16.363 -0.3911  0.2170 -0.0989
  488MPD2     H 7312   0.245   3.464  16.518 -0.9695  2.4112  0.5650
  488MPD2    H1 7313   4.565   3.374  16.558  0.9062 -3.0589  1.4384
  488MPD2    H2 7314   0.005   3.293  16.193  1.6807 -0.1822 -0.0618
  488MPD2    H3 7315   4.555   3.308  16.321  0.7255  0.2608 -2.6785
  488MPD2     N 7316   0.041   3.429  16.695 -0.0040 -0.4446 -0.1617
  488MPD2    H5 7317   0.126   3.469  16.735 -0.2168 -0.8325  0.6918
  488MPD2    N1 7318   0.249   3.423  16.263  0.0529 -0.4516 -0.3259
  488MPD2    H7 7319   0.330   3.461  16.310 -1.0132  0.5655  0.6735
  489TMC3    C1 7320   4.737   3.431  16.930  0.6824  0.2093  0.4350
  489TMC3    C2 7321   0.081   3.537  16.953 -0.0040 -1.1120 -0.0610
  489TMC3    C3 7322   0.155   3.533  17.070  0.0796 -0.5252  0.1958
  489TMC3    C4 7323   4.723   3.326  17.011 -0.5479 -0.2223 -0.1992
  489TMC3    C5 7324   0.056   3.327  17.132 -0.0848 -0.4357  0.1713
  489TMC3    C6 7325   0.146   3.428  17.160  0.8058 -0.6991 -0.0251
  489TMC3     C 7326   4.687   3.405  16.792  0.3410  0.7004 -0.4416
  489TMC3     O 7327   4.588   3.335  16.779 -0.2165 -0.2508  0.2498
  489TMC3     H 7328   0.096   3.619  16.884  1.1211  1.6585  3.4390
  489TMC3    H1 7329   4.656   3.246  16.983 -0.3821 -0.0708 -1.0315
  489TMC3    H2 7330   0.215   3.429  17.244  1.9796 -2.1695 -0.9767
  489TMC3    C7 7331   0.030   3.218  17.221  0.5298  0.0147 -0.8595
  489TMC3    C8 7332   0.252   3.645  17.081 -0.0242 -0.6522 -0.1722
  489TMC3    O1 7333   4.718   3.116  17.180  0.2966 -0.0500 -0.0810
  489TMC3    O2 7334   0.276   3.701  16.976  0.6406  0.3333  0.1804
  490MPD2     C 7335   1.465   2.382  17.132  0.2115 -0.0201 -0.1331
  490MPD2    C1 7336   1.394   2.413  17.250  0.1594  0.2464 -0.1991
  490MPD2    C2 7337   1.437   2.527  17.326 -1.1186  0.4004  0.1308
  490MPD2    C3 7338   1.531   2.607  17.278 -0.5118  0.8059 -0.4717
  490MPD2    C4 7339   1.605   2.571  17.161 -1.0468 -0.0720  0.0807
  490MPD2    C5 7340   1.572   2.461  17.085  0.6213  0.5556 -0.6255
  490MPD2     H 7341   1.387   2.549  17.419  0.5509  1.5872  0.7355
  490MPD2    H1 7342   1.685   2.629  17.116 -0.9802  1.6102  2.3366
  490MPD2    H2 7343   1.441   2.292  17.077  1.5366  0.4437 -1.4532
  490MPD2    H3 7344   1.615   2.439  16.988  1.2563 -1.7798  0.1837
  490MPD2     N 7345   1.564   2.731  17.335  0.7925 -0.2238 -0.7420
  490MPD2    H5 7346   1.634   2.788  17.289  2.1161 -1.4258 -0.2318
  490MPD2    N1 7347   1.286   2.344  17.298  0.1914  0.0501 -0.8858
  490MPD2    H7 7348   1.240   2.381  17.381 -1.6452  0.7476 -2.2226
  491TMC3    C1 7349   1.128   2.185  17.324 -0.1744  0.7322  0.3299
  491TMC3    C2 7350   1.108   2.054  17.367 -0.1999  0.2847  0.8912
  491TMC3    C3 7351   0.979   2.015  17.374 -0.5458  0.1621 -0.0326
  491TMC3    C4 7352   1.026   2.258  17.283 -0.0549 -0.5822  0.1495
  491TMC3    C5 7353   0.896   2.213  17.286  0.0899 -0.0118  0.9337
  491TMC3    C6 7354   0.873   2.086  17.318 -0.8501 -0.4113 -0.0582
  491TMC3     C 7355   1.253   2.211  17.261  0.1299 -0.4791  0.8742
  491TMC3     O 7356   1.314   2.120  17.203  0.5430 -0.0915  0.4597
  491TMC3     H 7357   1.190   1.984  17.374  1.1914  1.8421  0.1835
  491TMC3    H1 7358   1.054   2.358  17.249  0.5765 -1.6274 -2.4553
  491TMC3    H2 7359   0.770   2.054  17.313 -0.8125  0.1161 -3.7181
  491TMC3    C7 7360   0.785   2.298  17.248  0.6733  0.2076  0.7250
  491TMC3    C8 7361   0.941   1.967  17.505  0.3276 -0.0350 -0.1484
  491TMC3    O1 7362   0.673   2.247  17.238  0.4737  0.3673  0.5094
  491TMC3    O2 7363   0.827   1.926  17.531 -0.1025  0.4200 -0.2679
  492MPD2     C 7364   1.103   3.280  11.034 -0.1958 -0.8242 -0.6329
  492MPD2    C1 7365   0.996   3.195  11.002  0.1319 -1.1398 -0.0220
  492MPD2    C2 7366   0.956   3.100  11.094  0.1234  0.0208 -0.4975
  492MPD2    C3 7367   1.008   3.097  11.223 -0.1696  0.5811 -0.4937
  492MPD2    C4 7368   1.103   3.191  11.259 -0.4784  0.0779  0.5123
  492MPD2    C5 7369   1.155   3.274  11.161  0.0531 -0.1365  0.1504
  492MPD2     H 7370   0.896   3.016  11.062  0.7669 -1.5162  2.2622
  492MPD2    H1 7371   1.153   3.193  11.355  1.6133 -1.4936 -0.5703
  492MPD2    H2 7372   1.145   3.350  10.963 -0.7670  1.5378  1.3948
  492MPD2    H3 7373   1.237   3.341  11.182  1.4819 -1.6448 -0.6416
  492MPD2     N 7374   0.980   2.997  11.315 -0.0507 -0.3946 -0.1546
  492MPD2    H5 7375   1.036   2.987  11.399  0.3479  0.4363 -0.3146
  492MPD2    N1 7376   0.941   3.201  10.871 -0.3346 -0.2148  0.3410
  492MPD2    H7 7377   1.001   3.242  10.800  1.0534 -0.2560  1.4928
  493TMC3    C1 7378   0.790   3.157  10.686 -0.3580 -0.3470  0.2106
  493TMC3    C2 7379   0.853   3.249  10.607 -0.6034  0.3725  0.0142
  493TMC3    C3 7380   0.846   3.241  10.473  0.1665 -0.2739 -0.7459
  493TMC3    C4 7381   0.727   3.044  10.637 -0.9987 -0.0655  0.4294
  493TMC3    C5 7382   0.725   3.040  10.499 -0.3352 -0.0315 -0.0375
  493TMC3    C6 7383   0.777   3.136  10.416 -0.5126 -0.2662 -0.2971
  493TMC3     C 7384   0.834   3.128  10.823 -0.9376 -0.0250 -0.8599
  493TMC3     O 7385   0.755   3.061  10.893  0.3477  0.3518 -0.2514
  493TMC3     H 7386   0.905   3.334  10.650  0.2685 -0.1092 -0.0925
  493TMC3    H1 7387   0.698   2.964  10.704  0.7394 -0.3025  0.9082
  493TMC3    H2 7388   0.772   3.135  10.307 -2.4382  0.6302 -0.2337
  493TMC3    C7 7389   0.649   2.942  10.425  0.2889 -0.2746 -0.3703
  493TMC3    C8 7390   0.822   3.366  10.394 -0.2680 -0.1416 -0.2926
  493TMC3    O1 7391   0.628   2.964  10.308 -0.0242  0.4656 -0.3894
  493TMC3    O2 7392   0.721   3.364  10.320  0.8234  0.3741 -0.1662
  494TMC3    C1 7393   1.906   4.554   0.357 -0.2161  0.9157 -0.1542
  494TMC3    C2 7394   1.914   4.422   0.366  0.5402  0.2565 -0.3554
  494TMC3    C3 7395   1.973   4.352   0.265 -0.2008 -0.2295 -0.7806
  494TMC3    C4 7396   1.932   4.619   0.238  0.2232  0.0291  0.4159
  494TMC3    C5 7397   1.982   4.541   0.132 -0.0232 -0.1467  0.0199
  494TMC3    C6 7398   2.003   4.413   0.146 -0.4442  0.2578 -0.2075
  494TMC3     C 7399   1.828   4.618   0.459  0.6401  0.6830  0.6241
  494TMC3     O 7400   1.747   4.550   0.520  0.4594  0.1856  0.0022
  494TMC3     H 7401   1.898   4.374   0.462 -2.0556  0.2899 -0.7764
  494TMC3    H1 7402   1.934   4.727   0.233  0.9788 -0.0662 -1.4592
  494TMC3    H2 7403   2.039   4.354   0.062 -0.1376  0.2681 -0.0859
  494TMC3    C7 7404   2.001   4.599   0.002  0.1170 -0.0868 -1.0593
  494TMC3    C8 7405   1.966   4.212   0.262 -0.4357  0.1110 -0.5241
  494TMC3    O1 7406   2.048   4.529  17.672  0.8086 -0.1959 -0.1784
  494TMC3    O2 7407   1.881   4.160   0.335  0.4532 -0.0608 -0.2381
  495TMC3    C1 7408   0.611   1.374  14.473  0.1502 -0.1663 -1.2777
  495TMC3    C2 7409   0.553   1.414  14.355 -0.4540  0.6810 -0.0310
  495TMC3    C3 7410   0.460   1.512  14.350 -0.4425 -0.3136 -0.0872
  495TMC3    C4 7411   0.578   1.453  14.585 -0.3556 -0.1981 -0.7310
  495TMC3    C5 7412   0.486   1.550  14.576 -0.2748 -0.0043  0.0756
  495TMC3    C6 7413   0.409   1.575  14.462 -0.1464 -0.0450  0.2205
  495TMC3     C 7414   0.571   1.237  14.495 -0.7544 -0.0604 -0.0814
  495TMC3     O 7415   0.507   1.190  14.407 -0.3696  0.5189 -0.1811
  495TMC3     H 7416   0.583   1.360  14.266  1.9435  3.0094 -0.6326
  495TMC3    H1 7417   0.634   1.428  14.675  0.9266 -1.7848 -1.9519
  495TMC3    H2 7418   0.329   1.647  14.453  0.9909  1.2131  0.1662
  495TMC3    C7 7419   0.453   1.616  14.695 -0.1012 -0.6647  0.5336
  495TMC3    C8 7420   0.339   1.487  14.280  0.0821 -0.1520  0.3978
  495TMC3    O1 7421   0.531   1.598  14.783  0.1253  0.3172  0.4924
  495TMC3    O2 7422   0.259   1.580  14.271 -0.0990 -0.2852  0.0440
  496MPD2     C 7423   2.187   1.681  14.966 -0.1090  0.4608  0.4290
  496MPD2    C1 7424   2.248   1.607  15.068  0.3406  0.0992  0.7934
  496MPD2    C2 7425   2.166   1.551  15.161 -0.7172 -0.4325 -0.5416
  496MPD2    C3 7426   2.035   1.578  15.168 -0.0024 -0.0539 -0.0409
  496MPD2    C4 7427   1.975   1.663  15.074  0.1335  1.5187  0.5110
  496MPD2    C5 7428   2.052   1.712  14.974  0.2936 -0.8593  0.4416
  496MPD2     H 7429   2.205   1.486  15.239  1.3450  0.4660 -0.8421
  496MPD2    H1 7430   1.867   1.670  15.070  0.1564  1.0293 -0.7921
  496MPD2    H2 7431   2.246   1.724  14.886 -0.0819 -0.5710 -0.1072
  496MPD2    H3 7432   2.009   1.769  14.892 -0.9094 -0.6303  1.2352
  496MPD2     N 7433   1.969   1.528  15.277  0.2886  0.1499  0.9529
  496MPD2    H5 7434   2.028   1.482  15.345  1.4230 -0.7340 -0.6214
  496MPD2    N1 7435   2.391   1.575  15.051 -0.0539 -0.6022 -0.0149
  496MPD2    H7 7436   2.439   1.596  14.964 -1.1274 -2.6228 -1.0849
  497TMC3    C1 7437   1.799   1.441  15.416 -0.4770  0.4343  0.3692
  497TMC3    C2 7438   1.701   1.356  15.390  0.3019  0.8898  0.7233
  497TMC3    C3 7439   1.693   1.247  15.468 -0.4473  0.8276  0.4895
  497TMC3    C4 7440   1.902   1.416  15.505  0.1924  0.0527  0.6051
  497TMC3    C5 7441   1.889   1.305  15.579  0.7432 -0.4957  0.2619
  497TMC3    C6 7442   1.793   1.216  15.558  0.5039  0.4908 -0.4135
  497TMC3     C 7443   1.838   1.534  15.309 -0.4927 -0.4901  0.5635
  497TMC3     O 7444   1.745   1.579  15.243  0.5000  0.3543 -0.0052
  497TMC3     H 7445   1.620   1.384  15.323 -0.8930  0.0535  1.8341
  497TMC3    H1 7446   1.995   1.471  15.517 -0.1086  0.4817  1.0141
  497TMC3    H2 7447   1.780   1.126  15.617 -0.1233  1.7764  1.3844
  497TMC3    C7 7448   1.982   1.284  15.688 -0.1635 -0.4763  0.3084
  497TMC3    C8 7449   1.637   1.144  15.388  0.0170  0.6056  0.2347
  497TMC3    O1 7450   1.969   1.172  15.738  0.3922 -0.3286 -0.9226
  497TMC3    O2 7451   1.615   1.165  15.270 -0.2224  0.2236  1.1326
  498MPD2     C 7452   3.749   3.597   9.224 -0.4170  0.3456  0.2748
  498MPD2    C1 7453   3.878   3.558   9.259  0.0842 -0.4514  0.2173
  498MPD2    C2 7454   3.890   3.450   9.346 -0.0245  0.0724 -0.1977
  498MPD2    C3 7455   3.786   3.361   9.371 -0.1681 -0.0304  0.0302
  498MPD2    C4 7456   3.660   3.397   9.327  0.6927 -0.3921  0.3615
  498MPD2    C5 7457   3.644   3.516   9.260 -0.6239  0.0660 -0.3598
  498MPD2     H 7458   3.987   3.440   9.393  0.2638  1.5466 -0.4749
  498MPD2    H1 7459   3.564   3.349   9.343  1.3895 -1.9129 -0.0584
  498MPD2    H2 7460   3.732   3.678   9.155  0.2099 -0.6511 -1.0472
  498MPD2    H3 7461   3.544   3.544   9.229  0.3059  1.2153 -2.3564
  498MPD2     N 7462   3.812   3.248   9.449  0.1219 -0.6671  0.3566
  498MPD2    H5 7463   3.901   3.246   9.498  1.2615  0.0899 -1.6662
  498MPD2    N1 7464   3.994   3.617   9.206 -0.1335 -0.1716 -0.0747
  498MPD2    H7 7465   4.080   3.577   9.242  0.1830  0.4245 -0.1642
  499TMC3    C1 7466   4.131   3.802   9.136  0.1394  0.7832  0.2070
  499TMC3    C2 7467   4.236   3.720   9.160 -0.1504  0.2424  0.1440
  499TMC3    C3 7468   4.358   3.776   9.157 -0.4142 -0.4919 -0.6992
  499TMC3    C4 7469   4.136   3.933   9.109  0.6446 -0.4454 -0.2327
  499TMC3    C5 7470   4.265   3.986   9.124 -0.4273 -0.5679 -0.4506
  499TMC3    C6 7471   4.379   3.911   9.142  0.0933  0.5444  1.1272
  499TMC3     C 7472   3.996   3.745   9.146 -0.2198 -0.1398  0.2705
  499TMC3     O 7473   3.905   3.827   9.135 -0.2027  0.2185 -0.3331
  499TMC3     H 7474   4.233   3.612   9.166  0.5217  0.1918 -0.4412
  499TMC3    H1 7475   4.049   3.989   9.078 -0.1765 -1.9313 -0.5850
  499TMC3    H2 7476   4.476   3.959   9.146 -0.6676  2.3809 -2.6697
  499TMC3    C7 7477   4.277   4.133   9.110 -0.0403 -0.2488  0.2187
  499TMC3    C8 7478   4.476   3.700   9.196 -0.6204 -0.0190 -0.4266
  499TMC3    O1 7479   4.382   4.182   9.149  0.1352  0.2019  0.2046
  499TMC3    O2 7480   4.574   3.764   9.239  0.3831 -0.3394 -0.1803
  500MPD2     C 7481   0.180   3.765  10.492  0.1969 -0.1360 -0.1030
  500MPD2    C1 7482   0.230   3.877  10.435  0.3168 -0.4015 -0.5522
  500MPD2    C2 7483   0.212   3.890  10.300  0.0245  0.1411  0.4388
  500MPD2    C3 7484   0.143   3.800  10.222  0.1422 -0.2810 -0.4330
  500MPD2    C4 7485   0.088   3.686  10.280  0.0770  0.1898  0.1616
  500MPD2    C5 7486   0.113   3.669  10.414  1.0752  0.2117  0.1113
  500MPD2     H 7487   0.254   3.978  10.253 -0.2002  0.6088  1.1238
  500MPD2    H1 7488   0.018   3.628  10.221 -0.5019  1.3732 -0.3293
  500MPD2    H2 7489   0.183   3.749  10.599 -1.5806 -0.8888 -0.1696
  500MPD2    H3 7490   0.070   3.583  10.465  3.1874 -0.0591  1.3961
  500MPD2     N 7491   0.125   3.816  10.082 -0.2796  0.2141 -0.3829
  500MPD2    H5 7492   0.054   3.765  10.031 -0.1315 -0.7620  0.3844
  500MPD2    N1 7493   0.293   3.978  10.518 -0.6732  0.1231  0.2992
  500MPD2    H7 7494   0.335   4.053  10.465  1.6825 -0.9614  0.6462
  501TMC3    C1 7495   0.411   4.076  10.691 -0.0803  0.2191 -0.0197
  501TMC3    C2 7496   0.455   4.163  10.590  0.1733 -0.4503  0.1308
  501TMC3    C3 7497   0.590   4.179  10.572  0.2779 -0.0390  0.0107
  501TMC3    C4 7498   0.502   4.016  10.779 -0.0387 -0.1619 -0.2910
  501TMC3    C5 7499   0.640   4.018  10.742  0.7471  0.5431  0.2533
  501TMC3    C6 7500   0.684   4.100  10.636  0.4539  0.2675  0.0800
  501TMC3     C 7501   0.307   3.983  10.656  0.4698 -0.2937  0.3628
  501TMC3     O 7502   0.284   3.897  10.738  0.7141  0.6157  0.4288
  501TMC3     H 7503   0.386   4.228  10.537 -0.8584  0.2733  2.3360
  501TMC3    H1 7504   0.461   3.969  10.867 -0.7579  1.1674  0.0884
  501TMC3    H2 7505   0.791   4.115  10.631  0.1010  2.1134 -2.3592
  501TMC3    C7 7506   0.725   3.957  10.847 -0.7453 -0.2216  0.4864
  501TMC3    C8 7507   0.641   4.316  10.566 -0.5122 -0.2995 -0.3380
  501TMC3    O1 7508   0.671   3.946  10.957 -0.1827  0.2977 -0.5510
  501TMC3    O2 7509   0.724   4.344  10.642  0.0580  0.2419  0.1710
  502TMC3    C1 7510   0.076   2.302  14.777  0.8838 -0.1951  0.1387
  502TMC3    C2 7511   0.058   2.424  14.722 -0.1337  0.0729 -0.9145
  502TMC3    C3 7512   4.676   2.475  14.751  0.0746  0.4106 -0.9542
  502TMC3    C4 7513   4.719   2.239  14.850 -0.6993  0.2167 -0.5838
  502TMC3    C5 7514   4.594   2.291  14.871  0.4495  0.0074  0.0552
  502TMC3    C6 7515   4.574   2.419  14.830 -0.1391  0.7488 -0.0173
  502TMC3     C 7516   0.209   2.318  14.835 -0.1746 -0.1353  0.4637
  502TMC3     O 7517   0.302   2.318  14.755 -0.8109  0.3750  0.0550
  502TMC3     H 7518   0.140   2.478  14.677 -1.3456  0.6295 -2.4457
  502TMC3    H1 7519   0.001   2.142  14.894  0.5793  0.6418 -0.3359
  502TMC3    H2 7520   4.475   2.462  14.834  0.4799  2.0890  0.9451
  502TMC3    C7 7521   4.492   2.217  14.941  0.3505 -0.1802  1.0373
  502TMC3    C8 7522   4.687   2.616  14.762  0.4406  0.3735  0.7178
  502TMC3    O1 7523   4.532   2.107  14.974  0.3201  0.2251 -0.4232
  502TMC3    O2 7524   0.042   2.672  14.717  0.2103  0.1628 -0.3276
  503MPD2     C 7525   2.541   3.307  16.758  0.3330  0.8672 -0.2682
  503MPD2    C1 7526   2.540   3.358  16.886  0.5543 -0.1797  0.7087
  503MPD2    C2 7527   2.616   3.301  16.984 -0.0581  0.3925 -1.0471
  503MPD2    C3 7528   2.702   3.196  16.949  0.5973  0.3703 -0.1016
  503MPD2    C4 7529   2.701   3.139  16.825  0.2671 -0.4157 -0.7367
  503MPD2    C5 7530   2.619   3.202  16.733  0.2122 -0.0559  0.7980
  503MPD2     H 7531   2.605   3.338  17.086 -0.7363 -0.6742 -0.7326
  503MPD2    H1 7532   2.762   3.057  16.788  0.3360 -0.3646 -0.7373
  503MPD2    H2 7533   2.480   3.352  16.681  0.6704 -0.1053 -1.1057
  503MPD2    H3 7534   2.623   3.165  16.631  0.7270 -1.3466  1.2867
  503MPD2     N 7535   2.779   3.139  17.056 -0.2895 -0.8301  0.5608
  503MPD2    H5 7536   2.775   3.197  17.139  1.2249  1.8449 -1.2382
  503MPD2    N1 7537   2.474   3.479  16.933 -0.8851 -0.3063 -0.2450
  503MPD2    H7 7538   2.492   3.515  17.026  0.8882 -0.1068 -0.6624
  504TMC3    C1 7539   2.935   3.013  17.164 -0.4472  0.8799  0.2079
  504TMC3    C2 7540   2.855   3.015  17.276  0.6475  0.5152  0.2819
  504TMC3    C3 7541   2.881   2.934  17.382 -0.4927  0.3152  0.1715
  504TMC3    C4 7542   3.031   2.919  17.149  0.1418  0.3040  0.2235
  504TMC3    C5 7543   3.044   2.820  17.249 -0.2528 -0.7219  0.4577
  504TMC3    C6 7544   2.977   2.833  17.375  0.2818  0.2964  0.3662
  504TMC3     C 7545   2.854   3.017  17.046  0.1200  0.1617  0.1697
  504TMC3     O 7546   2.879   2.931  16.965 -0.4519 -0.2003 -0.7570
  504TMC3     H 7547   2.784   3.096  17.283 -0.4575 -0.4741  0.5330
  504TMC3    H1 7548   3.086   2.905  17.057 -0.7489  3.0047 -0.7134
  504TMC3    H2 7549   2.995   2.766  17.458  2.1581 -0.0934 -0.3456
  504TMC3    C7 7550   3.123   2.704  17.207  0.1522  0.5260  0.4325
  504TMC3    C8 7551   2.765   2.929  17.477  0.3167 -0.3384  0.4158
  504TMC3    O1 7552   3.192   2.722  17.111  0.5473 -0.2303  0.3859
  504TMC3    O2 7553   2.671   3.001  17.442  0.1195 -0.2257 -0.0513
  505MPD2     C 7554   3.125   2.948   9.921  0.9542  0.4238  0.4057
  505MPD2    C1 7555   3.101   2.902  10.047 -0.1904 -0.4953 -0.7754
  505MPD2    C2 7556   3.127   2.991  10.148  0.0574  0.2949  0.2925
  505MPD2    C3 7557   3.164   3.118  10.129  0.3377 -0.9394  0.2197
  505MPD2    C4 7558   3.189   3.154  10.000  0.1761  0.1353  0.0071
  505MPD2    C5 7559   3.176   3.070   9.897  0.2958 -0.2186  0.4433
  505MPD2     H 7560   3.101   2.956  10.248  0.7444 -1.0079  0.0163
  505MPD2    H1 7561   3.214   3.258   9.984 -1.2488  0.0803 -2.4643
  505MPD2    H2 7562   3.110   2.886   9.834 -0.8899 -0.6977  1.5466
  505MPD2    H3 7563   3.201   3.100   9.796  1.1491  0.3173  0.8078
  505MPD2     N 7564   3.185   3.202  10.244 -0.0837 -0.4178 -0.0621
  505MPD2    H5 7565   3.175   3.151  10.331 -2.0940  0.0809 -0.0053
  505MPD2    N1 7566   3.060   2.768  10.059 -0.1215 -0.2534 -0.0276
  505MPD2    H7 7567   3.068   2.709   9.977  0.4110  0.3099 -0.3758
  506TMC3    C1 7568   3.011   2.564  10.180  0.4870  0.3661 -0.1619
  506TMC3    C2 7569   3.115   2.511  10.111 -0.6014 -0.7763 -0.0022
  506TMC3    C3 7570   3.172   2.400  10.151 -0.5633  0.3337  0.0535
  506TMC3    C4 7571   2.981   2.514  10.300  0.4835  0.8176  0.8251
  506TMC3    C5 7572   3.050   2.408  10.348 -0.3211 -0.4916  0.1060
  506TMC3    C6 7573   3.139   2.340  10.271 -0.0557 -0.4704  0.0058
  506TMC3     C 7574   3.007   2.710  10.177 -0.4943 -0.2750  0.4880
  506TMC3     O 7575   2.977   2.769  10.280  0.3106 -0.6662 -0.0547
  506TMC3     H 7576   3.144   2.552  10.015 -1.1844 -0.0931  0.1183
  506TMC3    H1 7577   2.902   2.562  10.357 -0.2652  0.4974  0.0475
  506TMC3    H2 7578   3.206   2.268  10.317  2.0715  2.8975  2.1548
  506TMC3    C7 7579   3.106   2.437  10.483  0.3686  0.5832 -0.4227
  506TMC3    C8 7580   3.275   2.322  10.080 -0.2753  0.5374  1.1091
  506TMC3    O1 7581   3.169   2.350  10.540 -0.5898 -0.0454  0.1099
  506TMC3    O2 7582   3.264   2.205  10.042 -0.2415 -0.2386  0.5492
  507TMC3    C1 7583   3.622   2.767  14.491 -0.2832 -0.3450  0.4327
  507TMC3    C2 7584   3.560   2.675  14.414 -0.1372  0.3049 -0.5111
  507TMC3    C3 7585   3.556   2.700  14.285 -0.4883 -0.0699  0.2674
  507TMC3    C4 7586   3.668   2.882  14.440 -0.9158  0.4946  0.6095
  507TMC3    C5 7587   3.667   2.907  14.310  0.0666  0.6249 -0.1019
  507TMC3    C6 7588   3.610   2.814  14.233 -0.4587  0.1187  0.0254
  507TMC3     C 7589   3.590   2.777  14.634 -0.2709  0.6476  0.7613
  507TMC3     O 7590   3.658   2.863  14.693  0.2523  0.8353 -0.0741
  507TMC3     H 7591   3.491   2.605  14.460 -0.2013  0.5982 -0.1597
  507TMC3    H1 7592   3.708   2.954  14.510 -0.0266  1.4831 -0.9205
  507TMC3    H2 7593   3.617   2.815  14.125  2.2187  0.4662  0.2094
  507TMC3    C7 7594   3.595   3.024  14.271 -0.3269  0.4568 -0.0270
  507TMC3    C8 7595   3.434   2.655  14.227 -0.0615 -0.2242  0.6626
  507TMC3    O1 7596   3.499   3.009  14.195 -0.3085  0.1478  0.0744
  507TMC3    O2 7597   3.387   2.549  14.262 -0.3003  0.2063 -0.3839
  508MPD2     C 7598   3.906   0.165  15.459 -0.2215  0.6829 -0.1547
  508MPD2    C1 7599   3.954   0.293  15.488 -0.2245  1.0264 -0.3679
  508MPD2    C2 7600   4.036   0.355  15.391  0.1434  0.1338  0.1023
  508MPD2    C3 7601   4.031   0.311  15.261 -0.0570 -0.2508  1.0316
  508MPD2    C4 7602   3.969   0.194  15.233  0.5273 -0.2480 -0.2945
  508MPD2    C5 7603   3.908   0.122  15.332  0.0424  0.6879 -0.1919
  508MPD2     H 7604   4.092   0.444  15.417 -0.5674  0.8125 -0.6838
  508MPD2    H1 7605   3.960   0.154  15.132 -2.8058  0.2999 -0.2169
  508MPD2    H2 7606   3.859   0.099  15.531  0.4583  1.6922  1.2118
  508MPD2    H3 7607   3.859   0.030  15.304 -1.4322  1.4549 -0.1313
  508MPD2     N 7608   4.084   0.389  15.152 -0.0817 -0.4312  0.0958
  508MPD2    H5 7609   4.142   0.465  15.185  0.2967 -0.4461 -0.5388
  508MPD2    N1 7610   3.947   0.333  15.624 -0.3682 -0.4258 -0.2242
  508MPD2    H7 7611   3.901   0.274  15.692  0.5026 -0.1876  0.5573
  509TMC3    C1 7612   3.987   0.681  14.937 -0.5057  0.1164  0.0241
  509TMC3    C2 7613   4.064   0.749  15.025  0.3314  0.0584 -0.1451
  509TMC3    C3 7614   4.170   0.678  15.077 -0.8638  0.1825 -0.0024
  509TMC3    C4 7615   4.014   0.549  14.895 -0.0548 -0.7664  0.4781
  509TMC3    C5 7616   4.121   0.483  14.944  0.0064  0.6530 -0.1275
  509TMC3    C6 7617   4.204   0.548  15.032 -0.2777 -0.5689  0.4051
  509TMC3     C 7618   3.876   0.752  14.872 -0.2967  0.1771  0.2214
  509TMC3     O 7619   3.815   0.693  14.785  0.2993 -0.7197  0.1601
  509TMC3     H 7620   4.024   0.838  15.072 -0.3448 -0.0123 -0.5831
  509TMC3    H1 7621   3.951   0.487  14.832 -0.3266 -0.2201  0.2200
  509TMC3    H2 7622   4.289   0.498  15.077  0.7417  0.2862 -0.5785
  509TMC3    C7 7623   4.071   0.366  15.018 -0.5087  0.4991  0.2220
  509TMC3    C8 7624   4.227   0.707  15.207 -0.6724 -0.0003  0.5596
  509TMC3    O1 7625   4.022   0.271  14.956  0.3234  0.1454  0.1562
  509TMC3    O2 7626   4.259   0.611  15.275  0.5114 -0.0618 -0.6195
  510MPD2     C 7627   1.704   1.879  14.499  0.4604  0.8865  0.2667
  510MPD2    C1 7628   1.811   1.806  14.547  0.8725  0.7265  0.3978
  510MPD2    C2 7629   1.938   1.807  14.495 -0.0031  0.6105  0.4113
  510MPD2    C3 7630   1.964   1.909  14.404  0.6313 -0.0966  0.0305
  510MPD2    C4 7631   1.860   1.988  14.363  0.0396 -0.6807  0.2342
  510MPD2    C5 7632   1.731   1.977  14.410 -0.0865  0.3897 -0.1283
  510MPD2     H 7633   2.018   1.740  14.526 -1.5285 -1.3855 -0.0004
  510MPD2    H1 7634   1.875   2.065  14.287 -0.4674  0.5181  1.3394
  510MPD2    H2 7635   1.614   1.883  14.559  0.7925  1.4060  0.7357
  510MPD2    H3 7636   1.654   2.047  14.380  0.3060  0.3931 -1.1323
  510MPD2     N 7637   2.097   1.922  14.353 -0.0808 -0.1614  0.0561
  510MPD2    H5 7638   2.174   1.865  14.387 -0.9828 -0.9165  0.8265
  510MPD2    N1 7639   1.769   1.707  14.642  0.0839  0.2365 -0.0947
  510MPD2    H7 7640   1.675   1.711  14.681  0.1626  2.4548 -0.1245
  511TMC3    C1 7641   1.764   1.524  14.782  0.3705  0.6593 -0.5259
  511TMC3    C2 7642   1.660   1.580  14.850  0.1181 -0.2362 -0.5135
  511TMC3    C3 7643   1.589   1.499  14.932 -0.3339 -0.4949 -0.2681
  511TMC3    C4 7644   1.780   1.386  14.777  0.0256 -0.2335 -0.0078
  511TMC3    C5 7645   1.702   1.300  14.853 -0.1016 -0.1835  0.0269
  511TMC3    C6 7646   1.605   1.360  14.935 -1.1411 -0.1431 -0.0057
  511TMC3     C 7647   1.845   1.608  14.691  0.3206  0.3023 -0.1641
  511TMC3     O 7648   1.941   1.547  14.640  0.4589 -0.0751 -0.3178
  511TMC3     H 7649   1.658   1.689  14.851  0.7340 -0.2165 -1.6426
  511TMC3    H1 7650   1.854   1.345  14.709  1.8784 -0.2597  2.0141
  511TMC3    H2 7651   1.543   1.289  14.989  1.9496 -2.1026  0.9189
  511TMC3    C7 7652   1.717   1.163  14.817  0.0124  0.5838 -1.1581
  511TMC3    C8 7653   1.506   1.569  15.026  0.1151 -0.1564  0.6459
  511TMC3    O1 7654   1.818   1.126  14.755  0.8176  0.3760 -0.5316
  511TMC3    O2 7655   1.516   1.693  15.036 -0.2270 -0.1359  0.3839
  512TMC3    C1 7656   1.016   0.844  13.789 -0.3469  1.2766 -0.0930
  512TMC3    C2 7657   1.058   0.921  13.892 -0.7023 -0.4990 -0.3970
  512TMC3    C3 7658   1.049   1.057  13.880  0.1935  0.4858  0.7555
  512TMC3    C4 7659   0.952   0.899  13.682  0.0166 -0.1483 -0.1901
  512TMC3    C5 7660   0.939   1.034  13.679 -0.1853  0.7643 -0.1985
  512TMC3    C6 7661   0.985   1.117  13.776  0.7557 -1.0072  0.2583
  512TMC3     C 7662   1.015   0.698  13.814 -0.0982  0.1927  0.1787
  512TMC3     O 7663   1.047   0.656  13.926  0.0176  0.0203 -0.0743
  512TMC3     H 7664   1.102   0.870  13.977  0.1956 -0.0547 -0.5956
  512TMC3    H1 7665   0.891   0.844  13.612 -1.5194 -1.6696  2.3248
  512TMC3    H2 7666   0.970   1.223  13.762  0.6264 -0.5308  4.0018
  512TMC3    C7 7667   0.878   1.096  13.557  0.1278 -0.9328 -0.4734
  512TMC3    C8 7668   1.143   1.141  13.950  1.4398 -0.1060  0.0542
  512TMC3    O1 7669   0.830   1.211  13.570 -0.4004 -0.0338 -0.1671
  512TMC3    O2 7670   1.243   1.086  13.979  0.0057 -0.2913 -0.1389
  513MPD2     C 7671   2.348   1.557  12.810  0.1472  0.7445 -0.1481
  513MPD2    C1 7672   2.454   1.514  12.730 -0.1956  0.3170  0.0225
  513MPD2    C2 7673   2.547   1.420  12.782  0.1363 -0.1616  0.0695
  513MPD2    C3 7674   2.559   1.395  12.918  0.2343 -0.7394 -0.0769
  513MPD2    C4 7675   2.450   1.437  13.001 -0.1066 -0.3433 -0.3668
  513MPD2    C5 7676   2.350   1.513  12.944 -0.3609  0.0925  0.0848
  513MPD2     H 7677   2.625   1.385  12.714  0.5084  0.7363  0.0344
  513MPD2    H1 7678   2.445   1.406  13.104 -2.3413 -0.4201 -0.4912
  513MPD2    H2 7679   2.272   1.631  12.792 -1.6739 -1.6850 -2.3877
  513MPD2    H3 7680   2.267   1.533  13.010  0.4766 -0.7235  1.3837
  513MPD2     N 7681   2.666   1.316  12.960 -0.4712  1.1162  0.4557
  513MPD2    H5 7682   2.725   1.281  12.885 -1.9749 -0.9917  0.2538
  513MPD2    N1 7683   2.486   1.552  12.597 -0.0552 -0.4140 -0.0377
  513MPD2    H7 7684   2.581   1.527  12.569  0.0125  1.5278 -1.5696
  514TMC3    C1 7685   2.485   1.665  12.407 -0.8031  0.2879  0.1868
  514TMC3    C2 7686   2.504   1.793  12.376 -0.7127  0.4462  1.1601
  514TMC3    C3 7687   2.623   1.818  12.304 -0.6351  0.5352 -0.7369
  514TMC3    C4 7688   2.572   1.568  12.366  0.3691  0.3351 -0.4901
  514TMC3    C5 7689   2.695   1.600  12.318 -0.3419 -1.1545 -0.7255
  514TMC3    C6 7690   2.727   1.728  12.286 -0.3120  0.6956  0.0145
  514TMC3     C 7691   2.415   1.641  12.524 -0.3043  0.2192  0.4391
  514TMC3     O 7692   2.312   1.702  12.552 -0.0514  0.2655 -0.0783
  514TMC3     H 7693   2.434   1.867  12.413 -2.1641  0.3331 -1.3326
  514TMC3    H1 7694   2.543   1.463  12.368  2.1382 -0.0688  3.7672
  514TMC3    H2 7695   2.820   1.755  12.238  1.1506 -1.5775  1.5622
  514TMC3    C7 7696   2.789   1.527  12.397 -0.5961  0.2375  0.5484
  514TMC3    C8 7697   2.634   1.953  12.260 -0.6400  0.4016  0.2526
  514TMC3    O1 7698   2.735   1.484  12.496 -0.3406 -0.3396  0.4740
  514TMC3    O2 7699   2.539   2.021  12.297 -0.0442  0.3936 -0.5699
  515MPD2     C 7700   1.208   2.995  14.381  0.1123  0.0180  0.0629
  515MPD2    C1 7701   1.219   2.892  14.470 -0.0281  0.4287 -0.8861
  515MPD2    C2 7702   1.308   2.894  14.573  0.1475  0.3063 -0.1624
  515MPD2    C3 7703   1.406   2.992  14.581  0.2592 -0.0993 -0.0956
  515MPD2    C4 7704   1.396   3.100  14.492 -0.1130  0.3859  0.4380
  515MPD2    C5 7705   1.290   3.101  14.396 -0.4171 -0.0393 -0.1028
  515MPD2     H 7706   1.297   2.816  14.648 -3.4397  1.1721  0.2078
  515MPD2    H1 7707   1.464   3.184  14.499 -0.5568  0.5948  2.1212
  515MPD2    H2 7708   1.143   2.995  14.294  0.1220 -0.8096  0.0550
  515MPD2    H3 7709   1.277   3.184  14.327  2.3222  0.5119  0.0358
  515MPD2     N 7710   1.509   2.984  14.669  0.3961 -0.4083 -0.7590
  515MPD2    H5 7711   1.571   3.064  14.668 -1.0747  0.7770  4.2234
  515MPD2    N1 7712   1.132   2.783  14.457 -0.2367  0.2189 -0.0071
  515MPD2    H7 7713   1.146   2.695  14.504  0.7390  1.7181  2.4890
  516TMC3    C1 7714   0.965   2.660  14.361 -0.1798 -1.3210 -0.5668
  516TMC3    C2 7715   0.857   2.657  14.275 -0.1752 -0.1393  0.0651
  516TMC3    C3 7716   0.750   2.577  14.298 -0.2535  0.4625  0.2248
  516TMC3    C4 7717   0.980   2.561  14.454 -0.0997  1.6882  0.7249
  516TMC3    C5 7718   0.873   2.471  14.458  0.4160  0.1500 -0.7984
  516TMC3    C6 7719   0.763   2.469  14.372 -0.0287 -0.5172  0.0446
  516TMC3     C 7720   1.018   2.791  14.383  0.9924 -0.8560 -0.0722
  516TMC3     O 7721   0.943   2.887  14.363  0.2472 -0.5116 -0.2286
  516TMC3     H 7722   0.849   2.724  14.191 -1.3732 -0.1510  0.1565
  516TMC3    H1 7723   1.065   2.537  14.517 -0.1411 -2.5408 -0.8266
  516TMC3    H2 7724   0.682   2.396  14.378  0.2608 -0.7122  1.4812
  516TMC3    C7 7725   0.876   2.380  14.573  0.8596  0.2454 -0.2934
  516TMC3    C8 7726   0.628   2.642  14.326 -0.6509 -0.3944  0.1263
  516TMC3    O1 7727   0.940   2.408  14.675  0.4709 -0.4883 -0.1725
  516TMC3    O2 7728   0.539   2.572  14.372 -0.5803  0.0068 -0.2886
  517MPD2     C 7729   0.774   0.058  17.397  0.1841 -0.1250  0.2048
  517MPD2    C1 7730   0.898   0.012  17.433 -0.0389  0.0307  0.3691
  517MPD2    C2 7731   0.954   0.057  17.547 -0.0562 -0.0881  0.4888
  517MPD2    C3 7732   0.895   0.151  17.626  0.5061 -0.3625 -0.2846
  517MPD2    C4 7733   0.769   0.191  17.601 -0.6618 -0.0616  0.6451
  517MPD2    C5 7734   0.706   0.134  17.488 -0.0025 -0.7353  1.0385
  517MPD2     H 7735   1.045   0.005  17.575  0.5914  1.1149  0.6308
  517MPD2    H1 7736   0.716   0.258  17.668  3.3761  1.1591  2.6322
  517MPD2    H2 7737   0.721   0.017  17.312 -0.0930 -1.5640  1.0817
  517MPD2    H3 7738   0.618   0.187  17.452 -0.3124 -1.0184  1.3686
  517MPD2     N 7739   0.952   0.203  17.742  0.1011  0.4800 -0.3327
  517MPD2    H5 7740   0.897   0.270   0.032  1.1778  1.5635 -0.5934
  517MPD2    N1 7741   0.957   4.650  17.356  0.1745 -0.9813  0.2679
  517MPD2    H7 7742   1.034   4.601  17.400  0.3900  0.3944  1.4507
  518TMC3    C1 7743   1.002   4.490  17.183  0.1941 -0.4946 -1.3585
  518TMC3    C2 7744   1.046   4.394  17.267  0.7289  0.2324  0.2203
  518TMC3    C3 7745   1.132   4.293  17.225 -0.3295 -0.4326 -0.2996
  518TMC3    C4 7746   1.048   4.492  17.056  0.1184 -0.0528 -1.1506
  518TMC3    C5 7747   1.131   4.389  17.015 -0.2816 -0.1148  0.1516
  518TMC3    C6 7748   1.177   4.293  17.100  0.3152 -0.9628  0.1265
  518TMC3     C 7749   0.920   4.602  17.231 -0.1673  0.3618 -0.0450
  518TMC3     O 7750   0.848   4.651  17.148  0.2948 -0.4484  0.3743
  518TMC3     H 7751   0.995   4.392  17.363 -0.3058  0.8965 -0.3204
  518TMC3    H1 7752   1.039   4.581  16.995  0.1509  2.6152  2.7512
  518TMC3    H2 7753   1.227   4.203  17.065 -0.0651 -0.7629 -0.9176
  518TMC3    C7 7754   1.161   4.384  16.874  0.0437 -0.5791 -0.0282
  518TMC3    C8 7755   1.152   4.188  17.310  0.6560  1.3568  0.2514
  518TMC3    O1 7756   1.092   4.452  16.802  0.5144  0.4780 -0.4942
  518TMC3    O2 7757   1.261   4.133  17.308 -0.3126  0.4131 -0.0135
  519MPD2     C 7758   2.265   3.270  13.864  0.7646 -0.9822 -0.7647
  519MPD2    C1 7759   2.187   3.154  13.872  0.3160  0.2907  0.1413
  519MPD2    C2 7760   2.251   3.038  13.859  0.8047 -0.7127  0.6096
  519MPD2    C3 7761   2.386   3.032  13.852 -0.2595  0.2962  0.4905
  519MPD2    C4 7762   2.466   3.143  13.851  0.1294  0.3544  0.5593
  519MPD2    C5 7763   2.406   3.265  13.854  0.2048  0.1941  0.1302
  519MPD2     H 7764   2.198   2.944  13.851  0.8055 -0.5763 -0.9951
  519MPD2    H1 7765   2.572   3.145  13.828 -0.4236 -1.1522 -2.0792
  519MPD2    H2 7766   2.225   3.370  13.875 -2.0315 -1.9386 -2.3906
  519MPD2    H3 7767   2.456   3.361  13.858  1.5782 -0.4886 -0.8914
  519MPD2     N 7768   2.434   2.904  13.841  0.3865  0.3951  0.3672
  519MPD2    H5 7769   2.359   2.837  13.828  1.0244  0.3842 -3.3639
  519MPD2    N1 7770   2.051   3.169  13.875 -1.1313  0.4316  0.5802
  519MPD2    H7 7771   2.013   3.263  13.866 -1.2470  0.4112  0.8550
  520TMC3    C1 7772   2.578   2.715  13.827  0.4554 -0.1649  0.1321
  520TMC3    C2 7773   2.469   2.631  13.849 -0.3895  0.0614  0.3474
  520TMC3    C3 7774   2.488   2.503  13.817 -0.3346  0.1523 -1.3560
  520TMC3    C4 7775   2.697   2.669  13.782 -0.0476 -0.3790 -0.9369
  520TMC3    C5 7776   2.707   2.537  13.748  0.5519 -0.0645 -0.8059
  520TMC3    C6 7777   2.604   2.450  13.766 -1.0361 -0.1766 -0.7022
  520TMC3     C 7778   2.563   2.861  13.850  0.1098  0.3236 -0.7242
  520TMC3     O 7779   2.663   2.928  13.868 -0.4719  0.4441 -0.3588
  520TMC3     H 7780   2.378   2.665  13.895 -0.9278  1.7393 -1.9722
  520TMC3    H1 7781   2.782   2.737  13.771  0.5310 -1.1624 -1.3085
  520TMC3    H2 7782   2.614   2.350  13.723  2.8727 -0.5832  1.1377
  520TMC3    C7 7783   2.830   2.472  13.717 -0.3309  0.7823  0.2391
  520TMC3    C8 7784   2.375   2.409  13.816  1.1620  0.4649 -0.5258
  520TMC3    O1 7785   2.841   2.354  13.758 -0.2472  0.5542  0.0039
  520TMC3    O2 7786   2.405   2.289  13.807  0.0467  0.5720 -0.9126
  521MPD2     C 7787   3.143   1.351  17.120  0.2510 -0.3571 -0.0161
  521MPD2    C1 7788   3.108   1.219  17.098  0.1990 -0.1295  0.0570
  521MPD2    C2 7789   3.203   1.131  17.044 -0.9111 -1.1124 -0.1849
  521MPD2    C3 7790   3.326   1.181  17.004 -0.7448  0.1834 -0.1642
  521MPD2    C4 7791   3.357   1.314  17.011 -0.3910  0.3871  0.1165
  521MPD2    C5 7792   3.263   1.395  17.069  0.2433  0.1140  0.1224
  521MPD2     H 7793   3.187   1.026  17.025 -3.2732 -0.8308  0.2663
  521MPD2    H1 7794   3.438   1.359  16.956 -0.6849 -0.1592 -0.7615
  521MPD2    H2 7795   3.082   1.417  17.181  1.1936  2.0157 -1.6460
  521MPD2    H3 7796   3.282   1.502  17.078 -0.3115  0.3619 -1.7339
  521MPD2     N 7797   3.416   1.098  16.939 -0.4393 -0.3686 -0.6570
  521MPD2    H5 7798   3.382   1.003  16.936  2.5161 -1.3608 -2.7492
  521MPD2    N1 7799   2.980   1.178  17.149 -0.0785  0.0433  0.1231
  521MPD2    H7 7800   2.930   1.249  17.200  0.5529 -0.0037  0.8200
  522TMC3    C1 7801   3.599   1.014  16.806 -0.1426  0.4942  0.4839
  522TMC3    C2 7802   3.727   1.017  16.783  0.0554 -0.1109  0.1629
  522TMC3    C3 7803   3.788   0.916  16.719 -0.0036  0.6804 -0.4042
  522TMC3    C4 7804   3.519   0.918  16.756  0.2024  0.7456 -0.5225
  522TMC3    C5 7805   3.582   0.813  16.690 -0.4887  0.5558 -0.0201
  522TMC3    C6 7806   3.718   0.807  16.676  0.7013  0.0340  0.6635
  522TMC3     C 7807   3.542   1.123  16.887 -0.4240 -1.0419  0.2499
  522TMC3     O 7808   3.603   1.228  16.888  0.1006  0.1242  0.2027
  522TMC3     H 7809   3.782   1.094  16.837 -0.0462  1.4832 -2.0369
  522TMC3    H1 7810   3.413   0.909  16.777 -0.0177  0.4678 -1.7650
  522TMC3    H2 7811   3.762   0.720  16.626 -0.2659  2.1697 -3.9368
  522TMC3    C7 7812   3.499   0.701  16.639  0.4728  0.3445 -0.2237
  522TMC3    C8 7813   3.929   0.934  16.686 -0.0722 -0.1572  0.1115
  522TMC3    O1 7814   3.557   0.597  16.621 -0.0525 -0.2089  0.1327
  522TMC3    O2 7815   4.001   0.965  16.778 -0.0274  0.0111  0.0429
  523MPD2     C 7816   1.399   1.577  10.378 -0.1935  0.1268 -0.0583
  523MPD2    C1 7817   1.277   1.526  10.366  0.3125  0.0050  0.2014
  523MPD2    C2 7818   1.178   1.601  10.307  0.2713 -0.2216  0.2868
  523MPD2    C3 7819   1.199   1.732  10.270  0.4767 -0.0884 -0.1774
  523MPD2    C4 7820   1.321   1.787  10.295  0.0277  0.1814 -0.1384
  523MPD2    C5 7821   1.423   1.710  10.336  0.0024 -0.5321  0.0063
  523MPD2     H 7822   1.086   1.552  10.276  0.0466 -0.2669  1.0164
  523MPD2    H1 7823   1.343   1.891  10.273  0.5557  0.3823  1.3387
  523MPD2    H2 7824   1.479   1.517  10.422 -0.1950 -0.9056 -1.4749
  523MPD2    H3 7825   1.518   1.755  10.359  1.1574 -3.3079  0.6037
  523MPD2     N 7826   1.110   1.822  10.203  0.1148  0.5425  0.2327
  523MPD2    H5 7827   1.152   1.912  10.182  0.0221  0.0340 -2.1435
  523MPD2    N1 7828   1.267   1.391  10.408 -0.2215  0.2007  0.0676
  523MPD2    H7 7829   1.353   1.348  10.440 -0.0413  0.2740 -0.3183
  524TMC3    C1 7830   0.934   1.878  10.062 -0.2650 -0.9368  0.0567
  524TMC3    C2 7831   0.883   1.829   9.944  0.0247 -0.1818  0.0075
  524TMC3    C3 7832   0.850   1.929   9.858 -0.0115  0.1767 -0.2060
  524TMC3    C4 7833   0.949   2.009  10.098  0.0017 -0.2418 -0.8893
  524TMC3    C5 7834   0.922   2.100   9.999 -0.0976 -0.1154  0.5823
  524TMC3    C6 7835   0.861   2.064   9.881  0.4007 -0.7076 -0.3754
  524TMC3     C 7836   0.991   1.778  10.146 -0.0637 -0.7849 -0.2613
  524TMC3     O 7837   0.934   1.667  10.150 -0.8859  0.3482  0.6681
  524TMC3     H 7838   0.908   1.727   9.919 -0.5749  0.5709 -3.6416
  524TMC3    H1 7839   0.983   2.043  10.195 -0.3381 -2.7430  0.0880
  524TMC3    H2 7840   0.852   2.135   9.800 -2.2716  2.6881  2.8679
  524TMC3    C7 7841   0.997   2.229  10.009  0.8222 -0.8381 -0.8655
  524TMC3    C8 7842   0.876   1.888   9.726  0.0554 -0.5081 -0.0106
  524TMC3    O1 7843   1.091   2.225  10.085 -0.1919  0.6773 -0.8247
  524TMC3    O2 7844   0.937   1.966   9.654  0.9166  0.6481  0.8980
  525MPD2     C 7845   3.762   2.416  14.267 -0.2661  0.3063 -0.5295
  525MPD2    C1 7846   3.851   2.441  14.367  0.3996 -1.1962 -0.3826
  525MPD2    C2 7847   3.943   2.542  14.332  0.3620  0.5295 -0.1138
  525MPD2    C3 7848   3.931   2.632  14.223 -0.7843 -0.2557  0.7259
  525MPD2    C4 7849   3.830   2.605  14.133 -0.2932  0.2152  0.0769
  525MPD2    C5 7850   3.748   2.495  14.161  0.0215 -0.1517  0.0207
  525MPD2     H 7851   4.031   2.559  14.394 -0.0476 -2.4027  1.2587
  525MPD2    H1 7852   3.804   2.667  14.048  0.2724  0.6159  0.1946
  525MPD2    H2 7853   3.695   2.331  14.271  0.8635 -0.6422 -1.6761
  525MPD2    H3 7854   3.681   2.461  14.084  0.9386 -2.9885  0.4896
  525MPD2     N 7855   4.018   2.743  14.197  0.2556  0.3706  0.4631
  525MPD2    H5 7856   4.004   2.805  14.118 -0.5494  2.9949  2.6882
  525MPD2    N1 7857   3.876   2.361  14.483 -0.3473  0.0535 -0.0682
  525MPD2    H7 7858   3.962   2.375  14.536 -0.5162 -2.2660  0.7939
  526TMC3    C1 7859   3.842   2.210  14.648 -0.5007 -0.4124 -0.7308
  526TMC3    C2 7860   3.763   2.168  14.754  0.8926 -0.5458 -0.3875
  526TMC3    C3 7861   3.820   2.124  14.864 -0.1664  0.1949 -0.2336
  526TMC3    C4 7862   3.983   2.207  14.667 -0.1122  0.3735 -0.7725
  526TMC3    C5 7863   4.039   2.146  14.772  0.5122 -0.3750 -0.4166
  526TMC3    C6 7864   3.954   2.101  14.871  0.2623 -0.0253 -0.4515
  526TMC3     C 7865   3.787   2.259  14.525 -0.1636 -0.0551  0.4395
  526TMC3     O 7866   3.667   2.242  14.494  0.5489  0.6235 -0.1078
  526TMC3     H 7867   3.657   2.188  14.747  0.9355 -0.9172 -2.0416
  526TMC3    H1 7868   4.048   2.233  14.585 -1.5103  0.7181 -1.7646
  526TMC3    H2 7869   3.995   2.072  14.967 -1.1563  1.9523  0.7610
  526TMC3    C7 7870   4.169   2.092  14.771 -0.2939  0.4877 -0.3627
  526TMC3    C8 7871   3.749   2.087  14.982  0.0250 -0.1147  0.0170
  526TMC3    O1 7872   4.194   1.988  14.831  0.1718 -0.6668  0.1130
  526TMC3    O2 7873   3.822   2.082  15.079  0.0153  0.7121  0.2267
  527MPD2     C 7874   1.805   0.912   1.372 -0.5099 -0.8250  0.2394
  527MPD2    C1 7875   1.749   0.895   1.251 -0.6546  0.0021 -0.6076
  527MPD2    C2 7876   1.801   0.797   1.164 -0.0054  0.2560 -0.0653
  527MPD2    C3 7877   1.919   0.723   1.194 -0.1123 -0.4170  0.4558
  527MPD2    C4 7878   1.970   0.744   1.323 -0.1098 -0.5379 -0.0706
  527MPD2    C5 7879   1.915   0.832   1.409  0.5112  0.4372 -0.5771
  527MPD2     H 7880   1.752   0.782   1.068 -1.4343 -0.9864  0.8514
  527MPD2    H1 7881   2.056   0.690   1.364 -0.9535 -1.7076  0.1655
  527MPD2    H2 7882   1.767   0.984   1.443 -0.4295  0.2637 -0.8095
  527MPD2    H3 7883   1.959   0.846   1.508 -1.0950 -4.7575  0.8849
  527MPD2     N 7884   1.968   0.637   1.101  0.8737  0.6925 -0.2700
  527MPD2    H5 7885   1.915   0.626   1.015 -0.0628 -0.6593  0.4773
  527MPD2    N1 7886   1.633   0.966   1.210  0.9176  0.4987  0.0536
  527MPD2    H7 7887   1.594   0.937   1.121 -0.8955 -0.5398  1.1943
  528TMC3    C1 7888   1.467   1.125   1.209  0.4220 -0.1037 -0.2745
  528TMC3    C2 7889   1.486   1.148   1.080 -0.5856  0.2448 -0.2427
  528TMC3    C3 7890   1.373   1.170   1.012  0.7899 -0.3926  0.4061
  528TMC3    C4 7891   1.348   1.126   1.277  0.3092 -0.0105 -0.2546
  528TMC3    C5 7892   1.237   1.148   1.195 -0.2333  0.6806  0.5826
  528TMC3    C6 7893   1.249   1.173   1.062  0.6116 -0.1412 -0.0368
  528TMC3     C 7894   1.570   1.060   1.281  0.1856  0.3463 -0.1195
  528TMC3     O 7895   1.581   1.103   1.393 -0.0401 -0.2220 -0.0935
  528TMC3     H 7896   1.586   1.147   1.039 -0.6761 -0.5963 -0.4320
  528TMC3    H1 7897   1.353   1.107   1.383  0.3839 -1.5979 -0.5521
  528TMC3    H2 7898   1.164   1.174   0.994  0.1971  4.4915  0.5016
  528TMC3    C7 7899   1.102   1.139   1.245  0.1221  0.1249  0.2486
  528TMC3    C8 7900   1.386   1.188   0.869  0.7995  0.8494  0.1735
  528TMC3    O1 7901   1.015   1.143   1.158 -0.0961 -0.0581  0.0089
  528TMC3    O2 7902   1.494   1.156   0.828  0.6213 -0.3529 -0.6520
  529MPD2     C 7903   4.360   3.892  17.711 -0.4380  0.6059 -1.3775
  529MPD2    C1 7904   4.321   3.971   0.052 -0.9300  0.1243 -0.4145
  529MPD2    C2 7905   4.299   4.114   0.029 -0.0847  0.1577  0.4746
  529MPD2    C3 7906   4.353   4.172  17.678  0.2810 -0.0340  0.2738
  529MPD2    C4 7907   4.407   4.095  17.578  0.2350 -0.6368 -0.2820
  529MPD2    C5 7908   4.395   3.960  17.593  0.2769 -0.3280 -0.4724
  529MPD2     H 7909   4.247   4.163   0.111 -3.7897 -3.3224  0.2417
  529MPD2    H1 7910   4.422   4.138  17.479 -0.2789 -1.8247 -0.8915
  529MPD2    H2 7911   4.369   3.784  17.703 -1.9111  0.3709  0.2203
  529MPD2    H3 7912   4.422   3.907  17.502  0.0102 -0.9958 -0.1600
  529MPD2     N 7913   4.354   4.314  17.672 -0.1704  0.3650 -0.1505
  529MPD2    H5 7914   4.391   4.352  17.586 -0.2187 -0.4487 -0.5261
  529MPD2    N1 7915   4.289   3.912   0.177  0.4557  0.2620 -0.1149
  529MPD2    H7 7916   4.234   3.967   0.241  0.0487 -1.4906  1.0170
  530TMC3    C1 7917   4.303   3.774   0.360 -0.2014  0.3603 -0.2972
  530TMC3    C2 7918   4.405   3.743   0.448  0.1629 -0.3885 -0.2348
  530TMC3    C3 7919   4.380   3.730   0.582  0.8495  0.2358  0.5127
  530TMC3    C4 7920   4.174   3.801   0.399 -0.4355  0.0386  0.1270
  530TMC3    C5 7921   4.150   3.782   0.535 -0.3266 -0.3796  0.4241
  530TMC3    C6 7922   4.249   3.744   0.616 -0.4753  0.1059 -0.3581
  530TMC3     C 7923   4.341   3.792   0.225  0.2465 -0.0699  0.2541
  530TMC3     O 7924   4.428   3.717   0.177  0.4341  0.5021 -0.0396
  530TMC3     H 7925   4.504   3.728   0.407  0.1709 -0.6958 -0.1040
  530TMC3    H1 7926   4.098   3.821   0.325  0.5682  0.1967 -0.8485
  530TMC3    H2 7927   4.240   3.720   0.722 -1.2118 -4.5177 -1.4433
  530TMC3    C7 7928   4.010   3.766   0.582 -0.3945 -0.1176  0.2766
  530TMC3    C8 7929   4.470   3.795   0.676 -0.2397  0.3013  0.4116
  530TMC3    O1 7930   3.924   3.818   0.512 -0.1551  0.0127  0.2945
  530TMC3    O2 7931   4.435   3.891   0.744 -0.0892  0.0142  0.2499
  531MPD2     C 7932   3.189   1.231  12.502  0.3961  0.3785 -0.7995
  531MPD2    C1 7933   3.077   1.263  12.574  0.0433  0.0716 -0.8583
  531MPD2    C2 7934   2.990   1.351  12.515 -0.2475 -0.2990  0.0762
  531MPD2    C3 7935   3.007   1.400  12.392 -0.0448 -0.4588 -0.1461
  531MPD2    C4 7936   3.113   1.362  12.320  0.4956  0.7855  0.1490
  531MPD2    C5 7937   3.211   1.287  12.381 -0.3611 -0.4091  0.4747
  531MPD2     H 7938   2.907   1.382  12.578 -1.0307 -1.5506 -0.3284
  531MPD2    H1 7939   3.132   1.388  12.216  1.9976  0.3342  0.3099
  531MPD2    H2 7940   3.263   1.163  12.543 -0.2366 -0.1402 -0.5158
  531MPD2    H3 7941   3.301   1.257  12.328 -0.0435  0.7228  0.3700
  531MPD2     N 7942   2.916   1.495  12.339  0.4214 -0.5747  0.0915
  531MPD2    H5 7943   2.944   1.524  12.246 -0.4601  1.1241  0.3462
  531MPD2    N1 7944   3.059   1.197  12.700 -0.1938 -0.4438  0.4230
  531MPD2    H7 7945   3.124   1.130  12.740 -1.4296 -2.4892 -1.0239
  532TMC3    C1 7946   2.946   1.117  12.895  0.4755 -0.4744  0.1996
  532TMC3    C2 7947   2.822   1.120  12.955  0.1939 -0.0623 -0.7824
  532TMC3    C3 7948   2.803   1.177  13.082 -0.1733  0.1884  0.3538
  532TMC3    C4 7949   3.062   1.147  12.967  0.3464 -0.0664 -0.1388
  532TMC3    C5 7950   3.039   1.210  13.089  0.7054  0.1441  0.3013
  532TMC3    C6 7951   2.914   1.216  13.151 -0.7317 -0.3835 -0.4358
  532TMC3     C 7952   2.939   1.192  12.768 -0.3502 -0.4276  0.0860
  532TMC3     O 7953   2.830   1.247  12.747  0.4575 -0.2819  0.0434
  532TMC3     H 7954   2.747   1.091  12.883  0.6826 -2.6951 -0.2218
  532TMC3    H1 7955   3.164   1.153  12.931  0.3578  2.2875  0.3157
  532TMC3    H2 7956   2.912   1.248  13.254  0.5444 -0.5020 -0.3764
  532TMC3    C7 7957   3.142   1.171  13.180 -0.4308  0.1119 -0.7267
  532TMC3    C8 7958   2.691   1.272  13.087  0.3751 -0.3630 -0.2747
  532TMC3    O1 7959   3.177   1.255  13.262  0.0034 -0.1007  0.0887
  532TMC3    O2 7960   2.645   1.300  13.200 -0.6000  0.2390  0.1382
  533TMC3    C1 7961   4.137   2.926  14.264  0.3321 -0.6538  0.5127
  533TMC3    C2 7962   4.252   2.980  14.229  0.2560  0.6431 -0.4160
  533TMC3    C3 7963   4.276   3.107  14.254  0.1830 -0.2771 -0.2309
  533TMC3    C4 7964   4.035   2.993  14.323 -0.1588 -0.1126  0.8171
  533TMC3    C5 7965   4.067   3.111  14.368  0.2356 -0.1368  0.4670
  533TMC3    C6 7966   4.187   3.173  14.335 -0.7791 -0.1798  0.4121
  533TMC3     C 7967   4.125   2.780  14.274 -0.4002 -0.2830  0.3318
  533TMC3     O 7968   4.187   2.719  14.359  0.5486 -0.2606  0.3002
  533TMC3     H 7969   4.343   2.930  14.198 -1.1784 -0.9080 -2.1073
  533TMC3    H1 7970   3.944   2.945  14.357  0.4536 -0.5533  1.8331
  533TMC3    H2 7971   4.215   3.264  14.386 -2.0349  1.4268 -1.7779
  533TMC3    C7 7972   3.993   3.155  14.485  0.3045 -0.5384 -0.0368
  533TMC3    C8 7973   4.409   3.151  14.289  0.1645  0.9543  0.8635
  533TMC3    O1 7974   3.872   3.123  14.491 -0.4257 -0.1279  0.5082
  533TMC3    O2 7975   4.457   3.092  14.388  0.4754 -0.1958  0.4512
  534MPD2     C 7976   2.056   3.477   1.297 -0.1005  0.1940  0.6478
  534MPD2    C1 7977   1.960   3.575   1.281 -0.7108 -0.7521 -0.3065
  534MPD2    C2 7978   1.859   3.554   1.190  0.5485 -0.2024 -0.4959
  534MPD2    C3 7979   1.858   3.436   1.115  0.2142 -0.9226  0.3173
  534MPD2    C4 7980   1.961   3.337   1.128 -0.1410 -0.4540  0.7576
  534MPD2    C5 7981   2.061   3.364   1.215 -0.7674  0.0988 -0.1666
  534MPD2     H 7982   1.788   3.634   1.172  1.7135  0.9727  0.1484
  534MPD2    H1 7983   1.970   3.247   1.067 -2.0125 -0.5945  0.6855
  534MPD2    H2 7984   2.142   3.504   1.356  2.4233 -1.4669 -2.2714
  534MPD2    H3 7985   2.149   3.301   1.211 -0.5829  0.3050  0.8128
  534MPD2     N 7986   1.751   3.424   1.020  0.4275 -0.2363 -0.2558
  534MPD2    H5 7987   1.684   3.500   1.012  0.1513 -0.3232  1.2543
  534MPD2    N1 7988   1.969   3.700   1.344  0.4366 -0.0792 -0.4989
  534MPD2    H7 7989   1.889   3.760   1.327  0.2057  0.0552  1.0614
  535TMC3    C1 7990   1.633   3.347   0.832 -0.1313 -0.0866 -0.1424
  535TMC3    C2 7991   1.525   3.428   0.854  0.8961  0.1949  0.0971
  535TMC3    C3 7992   1.445   3.431   0.742  0.3755 -0.5420 -0.6082
  535TMC3    C4 7993   1.672   3.292   0.712  0.4266  0.4472  0.1419
  535TMC3    C5 7994   1.589   3.302   0.605 -0.3079 -0.0549  0.3298
  535TMC3    C6 7995   1.470   3.369   0.619  0.0156 -0.5476 -0.0975
  535TMC3     C 7996   1.728   3.317   0.940 -0.3945 -0.2134 -0.0955
  535TMC3     O 7997   1.789   3.209   0.935  1.2051  0.4297 -0.1701
  535TMC3     H 7998   1.496   3.467   0.952  0.3837 -3.7654  1.5360
  535TMC3    H1 7999   1.768   3.243   0.705  1.1832  2.0760 -0.8356
  535TMC3    H2 8000   1.399   3.397   0.542  2.0011  3.6424 -0.3853
  535TMC3    C7 8001   1.662   3.298   0.473 -0.2479  0.3386 -0.4993
  535TMC3    C8 8002   1.332   3.518   0.742 -1.3116  0.4720  0.2876
  535TMC3    O1 8003   1.784   3.318   0.491 -0.0702 -0.3883  0.1844
  535TMC3    O2 8004   1.230   3.471   0.687  0.2937 -0.0777 -0.1062
  536MPD2     C 8005   0.630   2.668  16.343 -0.2931  0.5711 -0.1941
  536MPD2    C1 8006   0.491   2.671  16.350  0.4619 -0.6243  0.9142
  536MPD2    C2 8007   0.420   2.683  16.232  0.3822 -0.9779  0.3339
  536MPD2    C3 8008   0.489   2.682  16.115 -0.5762 -0.0320  0.6697
  536MPD2    C4 8009   0.633   2.687  16.099 -0.5889  0.1778  0.2717
  536MPD2    C5 8010   0.697   2.683  16.223 -0.5726 -0.3889  0.5194
  536MPD2     H 8011   0.312   2.690  16.231  0.3028 -2.2315  1.0781
  536MPD2    H1 8012   0.686   2.679  16.005  0.1233 -0.8188  0.7552
  536MPD2    H2 8013   0.683   2.652  16.436 -2.2181 -1.9424  0.4628
  536MPD2    H3 8014   0.804   2.678  16.239 -0.7237  1.9273  2.1729
  536MPD2     N 8015   0.406   2.678  15.999 -0.5484 -0.0439  0.0929
  536MPD2    H5 8016   0.305   2.679  16.007 -0.7836 -3.2774 -2.5343
  536MPD2    N1 8017   0.424   2.651  16.475  0.7918 -0.2811 -1.1979
  536MPD2    H7 8018   0.484   2.626  16.553 -0.4184  3.5063  0.9755
  537TMC3    C1 8019   0.249   2.591  16.637  1.0702 -0.4853  0.5855
  537TMC3    C2 8020   0.336   2.585  16.739  0.3515 -0.5163 -0.2595
  537TMC3    C3 8021   0.293   2.523  16.852  0.7502 -0.9049  0.2032
  537TMC3    C4 8022   0.122   2.526  16.640  0.1473  0.7495 -0.3032
  537TMC3    C5 8023   0.092   2.460  16.750  0.0847 -0.6924 -0.0580
  537TMC3    C6 8024   0.172   2.450  16.855  0.2890  0.4154 -0.3345
  537TMC3     C 8025   0.289   2.631  16.500  0.0155  0.0640 -0.4122
  537TMC3     O 8026   0.199   2.655  16.426  0.0855  0.1793 -0.6167
  537TMC3     H 8027   0.431   2.636  16.730  0.7512 -0.7942  2.5256
  537TMC3    H1 8028   0.052   2.539  16.557 -1.6985 -0.9016  0.9813
  537TMC3    H2 8029   0.150   2.402  16.950  2.1669 -0.6456 -0.4398
  537TMC3    C7 8030   4.698   2.414  16.766  0.7350 -0.2472  0.1020
  537TMC3    C8 8031   0.380   2.516  16.965  1.0060 -0.1679 -0.3180
  537TMC3    O1 8032   4.608   2.473  16.706 -0.3669 -0.1899 -0.2883
  537TMC3    O2 8033   0.373   2.423  17.047 -0.3935  0.0077  0.1862
  538TMC3    C1 8034   1.958   1.071  11.240  0.3303 -0.2792 -0.0367
  538TMC3    C2 8035   2.057   1.157  11.190  0.0774 -0.2394 -0.2339
  538TMC3    C3 8036   2.025   1.242  11.087 -0.4716  0.6159  0.4231
  538TMC3    C4 8037   1.832   1.072  11.196  0.7874 -0.1045 -0.1851
  538TMC3    C5 8038   1.802   1.165  11.098 -0.3183 -0.2945  0.3935
  538TMC3    C6 8039   1.899   1.251  11.042 -0.5619  0.7376 -0.4253
  538TMC3     C 8040   2.000   0.967  11.336 -0.0605 -0.2504 -0.0276
  538TMC3     O 8041   1.914   0.918  11.404  0.5615 -0.1352  0.3553
  538TMC3     H 8042   2.157   1.158  11.232  0.1138 -0.2298 -0.3200
  538TMC3    H1 8043   1.760   0.999  11.228  2.3526 -1.3783  0.4476
  538TMC3    H2 8044   1.877   1.328  10.970  1.6692  0.6667 -1.1821
  538TMC3    C7 8045   1.667   1.156  11.048 -0.1776  0.0742  0.6265
  538TMC3    C8 8046   2.135   1.323  11.035  0.5960  0.4726 -0.2732
  538TMC3    O1 8047   1.588   1.087  11.104 -0.3751  0.3121 -0.1911
  538TMC3    O2 8048   2.235   1.334  11.105  0.0424  0.1448 -0.3063
  539MPD2     C 8049   1.557   0.209  11.794  0.1034  0.1160 -0.2212
  539MPD2    C1 8050   1.457   0.120  11.754 -0.4386 -0.2469 -0.5447
  539MPD2    C2 8051   1.327   0.146  11.779  0.4354  0.6706 -0.0762
  539MPD2    C3 8052   1.289   0.263  11.845  1.0671 -0.5370 -0.7410
  539MPD2    C4 8053   1.389   0.345  11.882 -0.4059 -0.0594 -0.1006
  539MPD2    C5 8054   1.517   0.313  11.868 -0.1875  0.4515 -0.5349
  539MPD2     H 8055   1.244   0.082  11.750  2.9193 -3.0591  0.9864
  539MPD2    H1 8056   1.381   0.434  11.943 -2.1659 -0.5696  0.4051
  539MPD2    H2 8057   1.662   0.187  11.778  0.1089  0.3572 -0.5222
  539MPD2    H3 8058   1.586   0.390  11.899  1.0212 -0.0865 -1.8783
  539MPD2     N 8059   1.152   0.309  11.867  0.5218 -0.2725  0.2263
  539MPD2    H5 8060   1.130   0.401  11.904 -0.3642 -0.9385  1.3473
  539MPD2    N1 8061   1.485   0.001  11.683  0.0298 -0.1638  0.0676
  539MPD2    H7 8062   1.409   4.684  11.648 -0.8554  0.8304  0.3568
  540TMC3    C1 8063   0.932   0.361  11.786  0.3436  0.2253  0.2627
  540TMC3    C2 8064   0.978   0.483  11.757  0.1716  0.3263 -0.4206
  540TMC3    C3 8065   0.885   0.559  11.686  0.0784 -0.2076 -0.4744
  540TMC3    C4 8066   0.804   0.317  11.761  0.3174 -0.1590 -1.0966
  540TMC3    C5 8067   0.713   0.402  11.705  0.2819 -0.2991 -0.6882
  540TMC3    C6 8068   0.752   0.526  11.659  0.3695  0.6571 -0.2545
  540TMC3     C 8069   1.036   0.257  11.811 -0.2390  0.5606  0.0878
  540TMC3     O 8070   1.014   0.138  11.786 -0.3037  0.2238  0.3570
  540TMC3     H 8071   1.083   0.510  11.755  0.1570  0.2473 -2.0793
  540TMC3    H1 8072   0.792   0.210  11.773  1.5694 -0.1840 -0.1048
  540TMC3    H2 8073   0.682   0.592  11.610  0.4853  0.3240 -0.8647
  540TMC3    C7 8074   0.569   0.368  11.718 -0.2901  0.0062  0.5117
  540TMC3    C8 8075   0.947   0.647  11.591 -0.7519 -0.1060 -0.4095
  540TMC3    O1 8076   0.497   0.442  11.653 -0.2625 -0.0377  0.0543
  540TMC3    O2 8077   1.048   0.705  11.630  0.1096  0.3471  0.1144
  541MPD2     C 8078   3.600   1.517  13.013 -0.4411  0.2210 -0.2971
  541MPD2    C1 8079   3.706   1.459  12.952  0.1111  0.4605  0.4179
  541MPD2    C2 8080   3.778   1.536  12.859  0.7358 -0.6714  0.4204
  541MPD2    C3 8081   3.726   1.664  12.816  0.5644  0.8274 -0.0648
  541MPD2    C4 8082   3.611   1.712  12.879  0.2768  0.2345 -0.3022
  541MPD2    C5 8083   3.542   1.635  12.974  0.3697 -0.2161 -0.0838
  541MPD2     H 8084   3.854   1.492  12.796 -1.1228 -3.0889 -0.1546
  541MPD2    H1 8085   3.567   1.808  12.854 -2.4039 -1.0280 -0.4483
  541MPD2    H2 8086   3.542   1.465  13.088  0.1309  1.2363  0.8382
  541MPD2    H3 8087   3.445   1.669  13.008 -0.0702  0.7568 -2.3268
  541MPD2     N 8088   3.779   1.740  12.718  0.2297 -0.2937  0.2520
  541MPD2    H5 8089   3.711   1.806  12.683  1.2079  0.7891  0.4262
  541MPD2    N1 8090   3.758   1.327  12.982  0.5520  0.1430 -0.0867
  541MPD2    H7 8091   3.845   1.297  12.939  0.4396 -0.1415 -0.1155
  542TMC3    C1 8092   3.943   1.834  12.569 -0.9205 -0.1608  0.2136
  542TMC3    C2 8093   4.058   1.800  12.501 -1.1390  0.9703  0.0887
  542TMC3    C3 8094   4.089   1.872  12.383 -0.0898 -0.1555 -0.7214
  542TMC3    C4 8095   3.871   1.948  12.543  0.0611  0.0788  0.1332
  542TMC3    C5 8096   3.899   2.006  12.431 -0.2992  0.5569  0.2222
  542TMC3    C6 8097   4.003   1.974  12.343  0.1692  0.2414 -0.2657
  542TMC3     C 8098   3.911   1.733  12.672  0.1193 -0.3132 -0.0721
  542TMC3     O 8099   4.001   1.657  12.707 -0.0601  0.6746  0.0605
  542TMC3     H 8100   4.135   1.726  12.520 -1.2232  1.2298  1.4439
  542TMC3    H1 8101   3.788   1.972  12.608 -1.7936 -1.8421 -1.5423
  542TMC3    H2 8102   4.028   2.043  12.264  1.2236  0.5273  0.3190
  542TMC3    C7 8103   3.820   2.124  12.397 -0.4841 -0.3647  0.3161
  542TMC3    C8 8104   4.174   1.817  12.276  0.7564  0.0702  0.2720
  542TMC3    O1 8105   3.748   2.164  12.487 -0.4038  0.0539 -0.5130
  542TMC3    O2 8106   4.160   1.873  12.167  0.7031  0.0202  0.3074
  543TMC3    C1 8107   3.619   3.291  17.109 -0.5412  0.3073 -0.3179
  543TMC3    C2 8108   3.571   3.174  17.155  0.3868 -0.0628 -0.4697
  543TMC3    C3 8109   3.556   3.159  17.284 -0.0766  0.2031  0.4253
  543TMC3    C4 8110   3.680   3.390  17.183 -0.2546  0.7358 -0.1480
  543TMC3    C5 8111   3.668   3.377  17.317  0.0818  0.0617  1.0394
  543TMC3    C6 8112   3.600   3.262  17.367 -0.2098  0.0684 -0.2859
  543TMC3     C 8113   3.661   3.290  16.966 -0.7000 -0.3854 -0.0267
  543TMC3     O 8114   3.641   3.393  16.901  0.2433  0.2460  0.2736
  543TMC3     H 8115   3.519   3.107  17.088  0.2586  1.2179 -1.6588
  543TMC3    H1 8116   3.725   3.475  17.132  1.1419  1.8158  2.8386
  543TMC3    H2 8117   3.581   3.256  17.473  1.3639 -0.7184 -0.0503
  543TMC3    C7 8118   3.725   3.481  17.409 -0.2055 -0.4598 -0.1608
  543TMC3    C8 8119   3.553   3.019  17.328 -0.4061 -0.3134  0.5473
  543TMC3    O1 8120   3.730   3.428  17.521 -0.1345 -0.1804  0.3551
  543TMC3    O2 8121   3.520   2.933  17.251 -0.6272  0.3583 -0.0207
  544MPD2     C 8122   3.689   2.643  17.661  0.0719  0.0973  0.7804
  544MPD2    C1 8123   3.634   2.629  17.531  0.2754  0.6199  0.5421
  544MPD2    C2 8124   3.614   2.745  17.457  0.0857 -0.7003 -0.2508
  544MPD2    C3 8125   3.636   2.875  17.517  0.4252 -0.3339  0.5445
  544MPD2    C4 8126   3.694   2.879  17.645  0.4606  0.1024  0.1673
  544MPD2    C5 8127   3.711   2.766  17.719  0.1471  0.0589  0.6345
  544MPD2     H 8128   3.567   2.736  17.359  0.3332  0.6402 -0.4936
  544MPD2    H1 8129   3.718   2.969  17.700  1.7789 -1.2436  1.8255
  544MPD2    H2 8130   3.711   2.559  17.726 -3.1421 -1.2674  0.1034
  544MPD2    H3 8131   3.761   2.774   0.053  1.1494 -1.1186  0.2017
  544MPD2     N 8132   3.608   3.000  17.449  0.2648 -0.5671 -0.2604
  544MPD2    H5 8133   3.638   3.089  17.488  1.3955 -0.3054 -1.7354
  544MPD2    N1 8134   3.624   2.499  17.477  0.4543 -0.6772 -0.5061
  544MPD2    H7 8135   3.633   2.419  17.538 -2.8016 -0.1166  0.7005
  545TMC3    C1 8136   3.601   2.328  17.320 -0.5875 -0.5690 -0.4382
  545TMC3    C2 8137   3.671   2.297  17.204 -0.6750  0.7201  0.1850
  545TMC3    C3 8138   3.686   2.161  17.186 -0.8943 -0.4337  0.0092
  545TMC3    C4 8139   3.544   2.236  17.405 -0.7380  0.5539  0.3806
  545TMC3    C5 8140   3.566   2.102  17.381 -0.0749  0.0777  0.1583
  545TMC3    C6 8141   3.641   2.065  17.278 -0.1659  0.3842 -0.2556
  545TMC3     C 8142   3.599   2.470  17.344  0.7783  0.3654  0.2310
  545TMC3     O 8143   3.596   2.531  17.239 -0.2495 -0.4659 -0.0355
  545TMC3     H 8144   3.727   2.369  17.145  1.9111 -0.2422  1.4671
  545TMC3    H1 8145   3.471   2.263  17.480 -0.4227 -0.0913  0.9222
  545TMC3    H2 8146   3.638   1.958  17.265 -1.2316  0.3752  0.0442
  545TMC3    C7 8147   3.474   2.008  17.447 -0.5984  0.0898  0.4475
  545TMC3    C8 8148   3.738   2.112  17.058  0.7718  0.2688 -0.9192
  545TMC3    O1 8149   3.361   2.048  17.472 -0.2057 -0.3467 -0.2916
  545TMC3    O2 8150   3.744   1.988  17.049  0.9490  0.5072  0.0711
  546MPD2     C 8151   0.893   2.717  17.664  0.0658 -0.1873  0.5712
  546MPD2    C1 8152   0.807   2.811  17.607  0.6029  0.6259 -0.0478
  546MPD2    C2 8153   0.869   2.929  17.567 -0.3176 -0.2734  0.7040
  546MPD2    C3 8154   1.007   2.951  17.589 -0.2346 -0.3956 -1.1814
  546MPD2    C4 8155   1.083   2.856  17.649 -0.6678  0.1699 -0.1747
  546MPD2    C5 8156   1.022   2.741  17.682  0.6617  0.8021  0.4920
  546MPD2     H 8157   0.805   2.992  17.506  1.8166 -2.7611 -4.0997
  546MPD2    H1 8158   1.191   2.863  17.654 -0.6500 -0.2261  0.0090
  546MPD2    H2 8159   0.857   2.621  17.700 -0.8814  0.0900  0.3604
  546MPD2    H3 8160   1.081   2.663  17.728 -1.9072 -1.2745  0.3167
  546MPD2     N 8161   1.072   3.074  17.545 -0.5148 -0.0594 -0.0566
  546MPD2    H5 8162   1.013   3.144  17.500 -1.2194 -1.8401 -1.9006
  546MPD2    N1 8163   0.665   2.778  17.596  0.0339 -0.0573  0.0041
  546MPD2    H7 8164   0.644   2.688  17.636 -1.1331  0.5046  0.6365
  547TMC3    C1 8165   0.463   2.786  17.463  0.2557  0.1658 -0.2540
  547TMC3    C2 8166   0.392   2.856  17.372  0.4275  0.1620  0.0604
  547TMC3    C3 8167   0.310   2.792  17.279  0.0373  0.2270 -0.1188
  547TMC3    C4 8168   0.458   2.646  17.465  0.1893  0.7625  0.3393
  547TMC3    C5 8169   0.377   2.584  17.374  0.2210  0.1530  0.6256
  547TMC3    C6 8170   0.295   2.656  17.290  0.0010  0.0366  0.4520
  547TMC3     C 8171   0.573   2.859  17.529  0.2458  0.5002  0.3719
  547TMC3     O 8172   0.588   2.976  17.486 -0.0343 -0.4739 -0.0573
  547TMC3     H 8173   0.393   2.964  17.380  1.1876  0.2461 -1.1758
  547TMC3    H1 8174   0.525   2.579  17.516 -2.1387 -1.2015  0.8158
  547TMC3    H2 8175   0.241   2.609  17.208 -0.9415 -1.9120  2.2099
  547TMC3    C7 8176   0.328   2.458  17.409 -0.0804  0.8852 -0.5665
  547TMC3    C8 8177   0.265   2.881  17.172 -0.1941  0.0261 -0.5618
  547TMC3    O1 8178   0.337   2.435  17.527 -0.1236 -0.2677  0.0696
  547TMC3    O2 8179   0.312   2.995  17.174 -0.0830  0.3407 -0.0539
  548MPD2     C 8180   4.597   3.185  12.767  0.0383  0.1059  0.2649
  548MPD2    C1 8181   4.550   3.111  12.665 -0.2988  0.4680  0.4667
  548MPD2    C2 8182   4.637   3.061  12.571  0.1329 -0.1963 -0.0423
  548MPD2    C3 8183   0.035   3.087  12.571  0.7586  0.5588 -0.1789
  548MPD2    C4 8184   0.078   3.174  12.671  0.2127 -0.7606  0.3464
  548MPD2    C5 8185   4.731   3.219  12.766  0.9095 -0.9064  0.3335
  548MPD2     H 8186   4.592   2.992  12.500  1.6148 -1.3025  0.0949
  548MPD2    H1 8187   0.179   3.212  12.674 -0.8287  2.1502 -1.5609
  548MPD2    H2 8188   4.524   3.224  12.837  1.6001  2.1258  0.7508
  548MPD2    H3 8189   0.035   3.275  12.847 -0.1579 -1.1821  1.1147
  548MPD2     N 8190   0.129   3.034  12.475 -0.0197  0.0841 -0.2122
  548MPD2    H5 8191   0.101   2.955  12.417 -1.5671  0.7971 -0.4552
  548MPD2    N1 8192   4.414   3.081  12.656  0.6922  0.1512  0.0309
  548MPD2    H7 8193   4.378   3.010  12.594 -0.5126 -1.8442  2.9990
  549TMC3    C1 8194   4.188   3.087  12.720 -0.0678 -0.0441 -0.2948
  549TMC3    C2 8195   4.083   3.166  12.707  0.0498 -0.1784 -0.9901
  549TMC3    C3 8196   3.965   3.110  12.689 -0.2424 -0.1108 -0.6095
  549TMC3    C4 8197   4.182   2.949  12.735  0.6809  0.1054 -0.3488
  549TMC3    C5 8198   4.055   2.900  12.734 -0.7963  0.1814 -0.8727
  549TMC3    C6 8199   3.951   2.980  12.709 -0.5114  0.3432 -0.1114
  549TMC3     C 8200   4.315   3.149  12.724  0.2400  0.1073  0.4009
  549TMC3     O 8201   4.320   3.265  12.765 -0.2097 -0.5145  0.4598
  549TMC3     H 8202   4.105   3.271  12.691 -0.5236  0.2725  1.2773
  549TMC3    H1 8203   4.270   2.893  12.765 -0.1024 -0.7251  0.3852
  549TMC3    H2 8204   3.856   2.934  12.684 -2.0573  3.7686 -0.5381
  549TMC3    C7 8205   4.030   2.756  12.717  0.0756  0.6412  0.1806
  549TMC3    C8 8206   3.896   3.161  12.574 -0.6806  0.5615  0.6530
  549TMC3    O1 8207   3.912   2.727  12.723 -0.4032  0.2555 -0.8753
  549TMC3    O2 8208   3.774   3.146  12.574  0.0448  0.1995  0.2762
  550TMC3    C1 8209   3.950   1.643  11.787 -0.6901  0.0659 -0.2341
  550TMC3    C2 8210   3.943   1.663  11.924  0.5400  0.5307 -0.0275
  550TMC3    C3 8211   3.952   1.793  11.956  0.6026  0.9284  0.2420
  550TMC3    C4 8212   3.968   1.736  11.689 -0.3831 -0.0887  0.7319
  550TMC3    C5 8213   3.993   1.863  11.739  0.4440 -0.1748  0.8193
  550TMC3    C6 8214   3.979   1.896  11.870 -0.1754  0.3096 -0.0940
  550TMC3     C 8215   3.901   1.512  11.746  0.0533 -0.0051 -0.8104
  550TMC3     O 8216   3.931   1.412  11.803 -0.6239 -0.2170 -0.2963
  550TMC3     H 8217   3.927   1.580  11.993  2.1754 -0.6240 -1.0252
  550TMC3    H1 8218   3.975   1.707  11.585 -1.0995  1.0454  0.3596
  550TMC3    H2 8219   4.019   1.991  11.905  1.5904 -0.5350  0.1614
  550TMC3    C7 8220   3.936   1.973  11.663  0.2892  0.2208 -0.1224
  550TMC3    C8 8221   3.852   1.842  12.053  0.7247  0.9654 -0.5325
  550TMC3    O1 8222   3.885   2.062  11.726 -0.0280  0.2272 -0.5031
  550TMC3    O2 8223   3.847   1.960  12.072 -0.5650  0.3573 -0.2912
  551TMC3    C1 8224   1.322   3.775  12.970 -0.1542 -0.1155 -0.0697
  551TMC3    C2 8225   1.375   3.744  12.853  0.1730 -0.1530  0.8846
  551TMC3    C3 8226   1.489   3.813  12.822  0.7072 -0.1951  0.2725
  551TMC3    C4 8227   1.375   3.870  13.061  0.2229  0.2864  0.5625
  551TMC3    C5 8228   1.491   3.928  13.025  0.2478  0.2542  0.3918
  551TMC3    C6 8229   1.553   3.902  12.907  0.1823  0.5065 -0.5576
  551TMC3     C 8230   1.176   3.778  12.961  0.0539  0.2787  0.1651
  551TMC3     O 8231   1.117   3.692  12.896 -0.4114 -0.1049  0.1108
  551TMC3     H 8232   1.325   3.673  12.787  2.4503  2.1244 -3.3207
  551TMC3    H1 8233   1.340   3.881  13.163  2.1004  1.5491  1.0526
  551TMC3    H2 8234   1.644   3.950  12.873  0.4286  1.0657  0.9114
  551TMC3    C7 8235   1.562   3.994  13.126  0.3991  0.2691  0.2949
  551TMC3    C8 8236   1.501   3.829  12.679  0.0190  0.3995  0.2374
  551TMC3    O1 8237   1.509   4.027  13.232 -0.1941  0.3662 -0.2801
  551TMC3    O2 8238   1.481   3.735  12.604 -0.1788  0.0609 -0.8140
  552MPD2     C 8239   3.306   0.910  13.726  0.7421  0.4010 -0.3450
  552MPD2    C1 8240   3.270   0.787  13.776  0.4454  0.4368 -0.4224
  552MPD2    C2 8241   3.320   0.751  13.901  0.2165 -0.7111  0.0228
  552MPD2    C3 8242   3.410   0.836  13.969  0.6972 -0.8800 -0.1780
  552MPD2    C4 8243   3.439   0.957  13.923 -0.4546 -0.2082  0.5354
  552MPD2    C5 8244   3.399   0.989  13.793  0.5104 -0.0736 -0.4363
  552MPD2     H 8245   3.294   0.658  13.949  1.6178 -0.7294  0.7364
  552MPD2    H1 8246   3.509   1.022  13.975 -1.0391 -0.5647  1.7597
  552MPD2    H2 8247   3.283   0.942  13.625  1.2001  1.7518 -0.0206
  552MPD2    H3 8248   3.426   1.078  13.737 -0.2743 -0.7883 -1.9317
  552MPD2     N 8249   3.463   0.806  14.098 -0.2501 -0.0491 -0.1218
  552MPD2    H5 8250   3.522   0.874  14.144  1.0039 -0.5515 -0.9996
  552MPD2    N1 8251   3.194   0.689  13.707  0.2214 -0.1469  0.2613
  552MPD2    H7 8252   3.184   0.602  13.758  0.1635 -0.9334 -1.0877
  553TMC3    C1 8253   3.059   0.591  13.539  0.0469  0.1688  0.7855
  553TMC3    C2 8254   3.041   0.574  13.402 -0.1359  0.2182 -0.0309
  553TMC3    C3 8255   2.982   0.463  13.347  0.4673 -0.0194  0.1348
  553TMC3    C4 8256   3.004   0.498  13.622  0.1078  0.1577  0.1178
  553TMC3    C5 8257   2.956   0.386  13.569 -0.1859  0.3976 -0.4272
  553TMC3    C6 8258   2.941   0.361  13.433  0.0906  0.1821  0.2634
  553TMC3     C 8259   3.129   0.705  13.586 -0.2528 -0.7326 -0.1101
  553TMC3     O 8260   3.113   0.806  13.524 -0.1799 -0.0867  0.3573
  553TMC3     H 8261   3.082   0.640  13.327  1.0311 -0.3953  0.0641
  553TMC3    H1 8262   3.007   0.510  13.730  0.3042  0.0241  0.1266
  553TMC3    H2 8263   2.913   0.261  13.401 -0.7698  0.2897  0.6623
  553TMC3    C7 8264   3.000   0.276  13.645 -0.1101  0.0613  0.6921
  553TMC3    C8 8265   3.014   0.432  13.213  0.0746 -1.2105  0.6130
  553TMC3    O1 8266   2.920   0.215  13.718 -0.1066 -0.2838 -0.4364
  553TMC3    O2 8267   3.134   0.441  13.176 -0.1103 -0.3582  0.0246
  554TMC3    C1 8268   0.017   0.216  11.161 -0.0978  0.0239 -0.4950
  554TMC3    C2 8269   4.716   0.235  11.033  0.4444 -0.4158  0.0660
  554TMC3    C3 8270   0.059   0.285  10.940 -0.0097  0.2846  0.0515
  554TMC3    C4 8271   0.142   0.247  11.194  0.6129  0.3841  0.6386
  554TMC3    C5 8272   0.228   0.287  11.098  0.4510  1.2759  0.5122
  554TMC3    C6 8273   0.191   0.300  10.970 -0.1638  0.4315  0.2059
  554TMC3     C 8274   4.676   0.130  11.249  0.6266 -0.7747 -0.8520
  554TMC3     O 8275   4.567   0.093  11.207 -0.1379 -0.2521 -0.2609
  554TMC3     H 8276   4.612   0.213  11.009  0.7694  0.9381 -2.5746
  554TMC3    H1 8277   0.185   0.244  11.294  1.7705  1.9587  0.1837
  554TMC3    H2 8278   0.263   0.349  10.906  0.9316 -0.5814  0.6830
  554TMC3    C7 8279   0.347   0.368  11.131  0.1694 -0.0165  0.3862
  554TMC3    C8 8280   0.024   0.367  10.838  0.2447  0.0213  0.4546
  554TMC3    O1 8281   0.436   0.360  11.049 -0.4458  0.2544 -0.2966
  554TMC3    O2 8282   0.102   0.458  10.820  0.5902  0.1874 -0.2790
  555TMC3    C1 8283   3.905   4.306  14.764 -0.5016 -0.1260 -0.7772
  555TMC3    C2 8284   3.845   4.367  14.872 -0.2910  0.4244  0.0427
  555TMC3    C3 8285   3.852   4.304  14.988  0.0932  0.0324 -0.3607
  555TMC3    C4 8286   3.965   4.186  14.776 -0.8329  0.7355 -0.5106
  555TMC3    C5 8287   3.959   4.120  14.894 -0.4091  0.1808  0.9471
  555TMC3    C6 8288   3.904   4.178  15.001 -0.0830 -0.0067  0.0579
  555TMC3     C 8289   3.915   4.369  14.644 -0.1611 -0.2071 -0.8896
  555TMC3     O 8290   4.026   4.377  14.593  0.3828  0.2506  0.7133
  555TMC3     H 8291   3.806   4.467  14.863  1.0777  0.5711 -3.8197
  555TMC3    H1 8292   4.018   4.137  14.695 -0.5283  0.5264 -0.1898
  555TMC3    H2 8293   3.892   4.115  15.088  2.6785 -1.2976 -0.4946
  555TMC3    C7 8294   3.966   3.971  14.889 -0.4967  0.3324 -0.3946
  555TMC3    C8 8295   3.846   4.377  15.112  0.0615  0.4564  0.5550
  555TMC3    O1 8296   3.874   3.908  14.941  0.8922 -0.5904  0.4943
  555TMC3    O2 8297   3.795   4.486  15.110 -0.2326 -0.2133 -0.4232
  556MPD2     C 8298   2.037   2.317  10.346  0.4381 -0.5098  0.4499
  556MPD2    C1 8299   2.102   2.235  10.434  0.3250  0.6458  0.6630
  556MPD2    C2 8300   2.144   2.110  10.391 -0.1118 -0.4411  0.2817
  556MPD2    C3 8301   2.111   2.058  10.269 -0.3794  0.6854  1.2059
  556MPD2    C4 8302   2.036   2.140  10.177 -0.5121  0.5800 -0.2792
  556MPD2    C5 8303   2.013   2.274  10.215  0.1468  0.1127  0.1415
  556MPD2     H 8304   2.217   2.054  10.449  0.4522 -1.3031 -1.2881
  556MPD2    H1 8305   2.013   2.105  10.077 -0.4729  1.1756 -0.4957
  556MPD2    H2 8306   2.005   2.419  10.367  1.6876  0.0487 -0.3943
  556MPD2    H3 8307   1.965   2.336  10.141 -0.1918  0.2328  0.4609
  556MPD2     N 8308   2.171   1.938  10.232 -0.5725 -0.2732 -0.0882
  556MPD2    H5 8309   2.230   1.892  10.300  2.2390  0.5185 -2.0104
  556MPD2    N1 8310   2.136   2.268  10.567  0.3846 -0.0715  0.0828
  556MPD2    H7 8311   2.185   2.201  10.625  1.0866  0.9411  0.6581
  557TMC3    C1 8312   2.159   1.723  10.137 -0.3995 -0.3227  0.7156
  557TMC3    C2 8313   2.177   1.647  10.022 -0.0692  0.1302 -0.6537
  557TMC3    C3 8314   2.171   1.516  10.035  0.5552 -0.0787  0.7520
  557TMC3    C4 8315   2.157   1.666  10.260 -0.3543 -0.4019 -0.4851
  557TMC3    C5 8316   2.136   1.530  10.259  0.4149 -0.2223 -0.2790
  557TMC3    C6 8317   2.146   1.452  10.155 -0.2885  0.0363  1.0514
  557TMC3     C 8318   2.145   1.869  10.122  0.0260 -0.2081  0.8550
  557TMC3     O 8319   2.100   1.901  10.014  0.4070 -0.1907  0.3766
  557TMC3     H 8320   2.184   1.697   9.926 -0.2380 -0.9198 -1.2146
  557TMC3    H1 8321   2.138   1.723  10.350 -1.7656  1.5568 -2.0104
  557TMC3    H2 8322   2.114   1.349  10.156 -0.2932  0.0354 -1.4275
  557TMC3    C7 8323   2.149   1.461  10.388 -0.9615  0.1871 -0.2220
  557TMC3    C8 8324   2.173   1.434   9.913  0.3004  0.5124  0.1421
  557TMC3    O1 8325   2.092   1.352  10.406 -0.0486  0.3922 -0.2083
  557TMC3    O2 8326   2.116   1.326   9.921  0.9229 -0.0429  0.5988
  558TMC3    C1 8327   0.128   3.936   9.873  0.7643 -0.6625  0.6842
  558TMC3    C2 8328   4.733   3.922   9.875 -0.0184 -0.0357 -0.6246
  558TMC3    C3 8329   4.667   3.995   9.776 -0.6588  0.2075  0.8591
  558TMC3    C4 8330   0.193   4.032   9.798  0.4134 -0.1014  0.0204
  558TMC3    C5 8331   0.126   4.111   9.707  0.0917 -0.4155 -0.3843
  558TMC3    C6 8332   4.733   4.088   9.696 -0.1200 -0.4032 -0.6634
  558TMC3     C 8333   0.191   3.904  10.005 -0.0650  0.7748  0.0745
  558TMC3     O 8334   0.295   3.964  10.039 -0.3075  0.2725 -0.0434
  558TMC3     H 8335   4.678   3.855   9.941  0.6863 -0.7685 -0.7793
  558TMC3    H1 8336   0.294   4.062   9.819  0.5694 -0.9916  0.5346
  558TMC3    H2 8337   4.675   4.145   9.625 -1.3540 -2.3915 -1.2660
  558TMC3    C7 8338   0.200   4.198   9.615  0.3522  0.3380  0.1469
  558TMC3    C8 8339   4.532   4.034   9.795 -0.4007  0.0382 -0.2008
  558TMC3    O1 8340   0.317   4.165   9.614  0.3801  0.0252 -0.2985
  558TMC3    O2 8341   4.476   4.098   9.710 -0.1848 -0.1156 -0.2539
  559MPD2     C 8342   0.218   0.438  10.228  0.0854  0.3352  0.5987
  559MPD2    C1 8343   0.123   0.353  10.279 -0.0821  0.1905  0.3021
  559MPD2    C2 8344   0.159   0.288  10.400 -0.5481  0.4166  0.2435
  559MPD2    C3 8345   0.277   0.312  10.466 -0.3612  0.3704 -0.9350
  559MPD2    C4 8346   0.362   0.405  10.415 -0.1071 -0.4427 -0.2939
  559MPD2    C5 8347   0.332   0.472  10.299  0.5022 -0.1314 -0.7049
  559MPD2     H 8348   0.088   0.219  10.444  1.9011 -1.2693  1.4850
  559MPD2    H1 8349   0.459   0.426  10.460  0.8306 -2.5952 -1.3271
  559MPD2    H2 8350   0.206   0.486  10.131  1.5246 -1.7932 -0.6145
  559MPD2    H3 8351   0.404   0.537  10.250 -1.2524  2.2408 -0.1539
  559MPD2     N 8352   0.308   0.236  10.579  0.3951 -0.2495 -0.5788
  559MPD2    H5 8353   0.245   0.159  10.600  0.7707 -0.3978  0.0051
  559MPD2    N1 8354   0.002   0.331  10.208  0.1510 -0.0137  0.2410
  559MPD2    H7 8355   4.733   0.387  10.123 -0.6970 -0.1276  0.2600
  560TMC3    C1 8356   0.442   0.132  10.738  0.4552 -0.3397 -0.2062
  560TMC3    C2 8357   0.406   0.008  10.694 -0.4441  0.1966  0.6183
  560TMC3    C3 8358   0.457   4.638  10.757 -0.2309 -0.1345 -0.2266
  560TMC3    C4 8359   0.533   0.151  10.838 -0.4351 -0.6517 -0.3381
  560TMC3    C5 8360   0.586   0.042  10.896  0.7861 -0.4045 -0.1176
  560TMC3    C6 8361   0.552   4.655  10.860  0.2124  0.3084 -0.4035
  560TMC3     C 8362   0.424   0.248  10.653 -0.4738  0.1584  0.5785
  560TMC3     O 8363   0.480   0.357  10.674  0.3781  0.2522 -0.3023
  560TMC3     H 8364   0.337   4.739  10.612  1.0108  0.2993 -0.6168
  560TMC3    H1 8365   0.564   0.250  10.869  1.7969 -1.8678  1.3149
  560TMC3    H2 8366   0.594   4.569  10.910  0.4235 -0.8866 -2.6025
  560TMC3    C7 8367   0.697   0.053  10.984  0.2012  0.6963 -0.4821
  560TMC3    C8 8368   0.375   4.514  10.751  0.0042  0.3488 -1.0018
  560TMC3    O1 8369   0.777   4.701  10.993  0.1559  0.5516 -0.2113
  560TMC3    O2 8370   0.294   4.515  10.657 -0.1948  0.7755  0.7548
  561TMC3    C1 8371   3.029   3.831  10.440 -0.3223 -0.5851  0.4869
  561TMC3    C2 8372   2.915   3.771  10.447 -0.7127 -0.2413  0.4414
  561TMC3    C3 8373   2.834   3.801  10.549 -0.5117  0.0639 -0.4634
  561TMC3    C4 8374   3.059   3.944  10.516 -0.1593  1.1029  0.2908
  561TMC3    C5 8375   2.970   3.980  10.610  0.5811  0.0081  0.3957
  561TMC3    C6 8376   2.859   3.909  10.631  0.1771  0.5340  0.1662
  561TMC3     C 8377   3.141   3.758  10.383 -0.6066  0.4086  0.5666
  561TMC3     O 8378   3.127   3.677  10.293  0.0605  0.0106 -0.3894
  561TMC3     H 8379   2.895   3.684  10.385 -0.5202 -0.5068  0.7493
  561TMC3    H1 8380   3.154   3.992  10.496  0.1446  1.0708  1.6820
  561TMC3    H2 8381   2.780   3.936  10.700  0.6516  0.4685  0.7401
  561TMC3    C7 8382   2.959   4.117  10.644 -0.3843 -0.4417 -0.3105
  561TMC3    C8 8383   2.732   3.706  10.571  0.0420 -0.1386  0.8338
  561TMC3    O1 8384   2.916   4.131  10.758  0.2484 -0.2078 -0.0262
  561TMC3    O2 8385   2.689   3.650  10.470  0.4675 -0.2050 -0.0777
  562TMC3    C1 8386   4.089   4.667  16.149 -0.0962 -0.3565  0.0919
  562TMC3    C2 8387   3.993   4.741  16.084  0.1778  0.3407  0.4838
  562TMC3    C3 8388   3.911   4.669  16.004  0.2988  0.1310  0.2690
  562TMC3    C4 8389   4.109   4.531  16.137  0.1277  0.8505  0.0621
  562TMC3    C5 8390   4.020   4.469  16.053 -0.5152 -0.2363 -0.4614
  562TMC3    C6 8391   3.928   4.542  15.984 -0.4135  0.0012  0.1971
  562TMC3     C 8392   4.164   4.732  16.247  0.0946  0.3637 -0.0773
  562TMC3     O 8393   4.253   4.668  16.298 -0.3302 -0.6840 -0.2678
  562TMC3     H 8394   3.994   0.108  16.090 -0.3445  0.3902 -0.4352
  562TMC3    H1 8395   4.194   4.484  16.186 -0.4336 -2.1948 -1.8396
  562TMC3    H2 8396   3.857   4.495  15.917  0.2977  1.7098 -1.7071
  562TMC3    C7 8397   4.018   4.326  16.042  0.4548 -0.1325 -0.0249
  562TMC3    C8 8398   3.827   4.739  15.906 -0.4596 -0.1948  0.2803
  562TMC3    O1 8399   3.952   4.285  15.946 -1.0780  0.3431  0.1103
  562TMC3    O2 8400   3.798   4.678  15.803  0.3636 -0.5737 -0.5685
  563MPD2     C 8401   1.195   1.342  15.680 -0.0811 -0.3258  0.6995
  563MPD2    C1 8402   1.247   1.399  15.797 -0.0428 -0.5878  0.2575
  563MPD2    C2 8403   1.365   1.352  15.845  0.1285 -0.0252 -0.6314
  563MPD2    C3 8404   1.424   1.241  15.796 -0.1088  0.5769 -0.2463
  563MPD2    C4 8405   1.372   1.179  15.682 -0.2727 -0.1980  0.5486
  563MPD2    C5 8406   1.257   1.236  15.624 -0.2116 -0.2665  0.3513
  563MPD2     H 8407   1.424   1.407  15.917 -1.7545  2.1035 -0.7071
  563MPD2    H1 8408   1.407   1.086  15.639  0.1302 -1.1140  2.8315
  563MPD2    H2 8409   1.100   1.375  15.639  0.0150 -0.8204  0.0819
  563MPD2    H3 8410   1.202   1.185  15.546 -1.5164  1.7497 -0.0633
  563MPD2     N 8411   1.540   1.203  15.859 -0.3756 -0.0795 -0.9031
  563MPD2    H5 8412   1.562   1.255  15.943 -1.1141 -0.1544 -0.6550
  563MPD2    N1 8413   1.174   1.511  15.858 -0.1744 -0.6713 -0.1727
  563MPD2    H7 8414   1.082   1.528  15.818 -0.6541  1.7297  1.9283
  564TMC3    C1 8415   1.114   1.481  16.075  0.1111  0.2499 -0.1241
  564TMC3    C2 8416   0.992   1.436  16.023  0.0967 -0.7177 -0.1813
  564TMC3    C3 8417   0.935   1.313  16.058  0.2714 -0.6263 -0.0250
  564TMC3    C4 8418   1.182   1.390  16.147  0.2671  0.1740  0.3997
  564TMC3    C5 8419   1.125   1.265  16.177  1.3093  0.2152 -0.0845
  564TMC3    C6 8420   1.006   1.233  16.144  0.0292  0.4227 -0.2854
  564TMC3     C 8421   1.202   1.549  15.986 -0.1318 -0.3843  0.7547
  564TMC3     O 8422   1.310   1.588  16.027 -0.5078 -0.0729 -0.1082
  564TMC3     H 8423   0.925   1.501  15.968  0.0223 -1.4922 -1.0144
  564TMC3    H1 8424   1.284   1.418  16.171  0.6165 -0.1222 -0.7213
  564TMC3    H2 8425   0.973   1.146  16.199 -0.8727  1.3490  0.6421
  564TMC3    C7 8426   1.222   1.152  16.175  0.6922  0.3026  0.1133
  564TMC3    C8 8427   0.866   1.236  15.960  0.2074  0.5799  0.1146
  564TMC3    O1 8428   1.334   1.164  16.224  1.0529 -0.3291  0.0271
  564TMC3    O2 8429   0.829   1.125  16.002  0.1267  0.0969 -0.0342
  565TMC3    C1 8430   2.187   3.432  10.163  0.0572 -0.2529  0.6253
  565TMC3    C2 8431   2.108   3.386  10.262 -0.7627 -0.3260  0.3216
  565TMC3    C3 8432   2.057   3.257  10.244 -0.3347  0.2067 -0.1718
  565TMC3    C4 8433   2.227   3.361  10.049 -0.0505  1.3060 -0.0218
  565TMC3    C5 8434   2.174   3.238  10.035  0.4185 -0.8044  0.7905
  565TMC3    C6 8435   2.082   3.183  10.128 -0.2225  0.1283 -0.4718
  565TMC3     C 8436   2.220   3.577  10.155 -0.5718 -0.5083 -0.0063
  565TMC3     O 8437   2.213   3.626  10.045 -1.5095 -0.2082 -0.5105
  565TMC3     H 8438   2.066   3.458  10.330 -2.2182 -0.0696 -0.8482
  565TMC3    H1 8439   2.317   3.392   9.998 -0.1050  2.4989  0.6114
  565TMC3    H2 8440   2.049   3.081  10.115  0.1361  0.0143 -0.4949
  565TMC3    C7 8441   2.223   3.166   9.921  0.2109 -0.9107  0.2106
  565TMC3    C8 8442   1.958   3.208  10.336 -0.6865 -0.7434  0.2850
  565TMC3    O1 8443   2.325   3.201   9.866 -0.1290 -0.3776  0.2445
  565TMC3    O2 8444   1.942   3.247  10.451  0.0779 -0.0495 -0.2222
  566MPD2     C 8445   3.092   4.211  14.277  0.7795 -0.9253 -0.0870
  566MPD2    C1 8446   3.114   4.261  14.152 -0.1295  0.5313  0.1557
  566MPD2    C2 8447   3.009   4.285  14.065 -1.1780 -0.5584  0.0066
  566MPD2    C3 8448   2.883   4.245  14.105 -0.0981  0.6142  0.2013
  566MPD2    C4 8449   2.858   4.192  14.233  0.3505 -0.3990 -0.3227
  566MPD2    C5 8450   2.968   4.174  14.322  0.0523 -0.3572 -0.0614
  566MPD2     H 8451   3.019   4.347  13.977  0.6357  0.0353  0.6471
  566MPD2    H1 8452   2.762   4.171  14.278  0.5875 -2.9695 -1.0098
  566MPD2    H2 8453   3.172   4.192  14.349  0.5667 -0.9672  0.1398
  566MPD2    H3 8454   2.956   4.134  14.422  1.6890 -0.5139  0.0604
  566MPD2     N 8455   2.766   4.255  14.021  0.5649 -0.8553 -0.1487
  566MPD2    H5 8456   2.683   4.281  14.073  0.8573  2.9951 -1.6054
  566MPD2    N1 8457   3.250   4.280  14.124  0.1171 -0.3171  0.0457
  566MPD2    H7 8458   3.315   4.273  14.202  1.5903 -0.4443 -1.1939
  567TMC3    C1 8459   3.441   4.352  14.000  0.2379  0.0186  0.0526
  567TMC3    C2 8460   3.479   4.388  13.873  0.9530  0.5109  0.2787
  567TMC3    C3 8461   3.612   4.394  13.847  0.3996  0.3240 -0.3857
  567TMC3    C4 8462   3.528   4.290  14.090 -0.7468 -0.0397  0.5157
  567TMC3    C5 8463   3.662   4.302  14.056  0.0215 -0.0633 -0.0527
  567TMC3    C6 8464   3.708   4.353  13.938  0.0320 -0.3168 -0.2466
  567TMC3     C 8465   3.298   4.319  14.003 -0.1134 -0.0421 -0.0563
  567TMC3     O 8466   3.239   4.318  13.896  0.0165  0.4602  0.1629
  567TMC3     H 8467   3.407   4.434  13.806  0.5301  0.7584  0.9051
  567TMC3    H1 8468   3.501   4.214  14.162  2.3943 -3.1168 -1.5426
  567TMC3    H2 8469   3.814   4.366  13.918  0.0532 -0.3496 -0.1587
  567TMC3    C7 8470   3.751   4.217  14.136  0.4820  0.1431  0.0034
  567TMC3    C8 8471   3.653   4.450  13.722  0.8240 -0.5233 -0.1058
  567TMC3    O1 8472   3.857   4.191  14.079 -0.1229 -0.0439  0.3956
  567TMC3    O2 8473   3.574   4.446  13.633  0.0377  0.8533 -0.0044
  568MPD2     C 8474   1.686   0.166  16.066  0.2683 -0.5059 -0.2522
  568MPD2    C1 8475   1.567   0.132  16.131  0.1353  0.4621 -0.4940
  568MPD2    C2 8476   1.449   0.207  16.107  0.2186 -0.1552  0.1318
  568MPD2    C3 8477   1.444   0.311  16.017 -0.2716  0.0122  0.1292
  568MPD2    C4 8478   1.562   0.350  15.960 -0.1166 -0.0144  0.0109
  568MPD2    C5 8479   1.675   0.280  15.983  0.4877  0.3387  0.6506
  568MPD2     H 8480   1.355   0.171  16.146  0.6602 -0.6337  0.7567
  568MPD2    H1 8481   1.563   0.421  15.878 -1.1795  1.2341  1.0735
  568MPD2    H2 8482   1.780   0.114  16.086  1.1750  1.3906  0.4448
  568MPD2    H3 8483   1.765   0.316  15.936  0.4309  1.8904  1.7443
  568MPD2     N 8484   1.318   0.365  15.983 -0.1148  0.2732  0.4860
  568MPD2    H5 8485   1.240   0.347  16.044  0.3356  1.0770  1.2983
  568MPD2    N1 8486   1.583   0.026  16.221 -0.1860  0.7326  0.1987
  568MPD2    H7 8487   1.674   4.723  16.227 -1.0665 -0.7021  2.7925
  569TMC3    C1 8488   1.162   0.496  15.862  0.2142 -0.7003 -0.5737
  569TMC3    C2 8489   1.074   0.491  15.975 -0.5387  0.0041  0.0004
  569TMC3    C3 8490   0.942   0.542  15.954 -0.2891 -0.2520  0.0546
  569TMC3    C4 8491   1.114   0.545  15.741 -0.4219 -0.4042  1.4357
  569TMC3    C5 8492   0.980   0.591  15.724 -0.1753  0.8358  0.3109
  569TMC3    C6 8493   0.900   0.585  15.835  0.1716  1.3346  0.1717
  569TMC3     C 8494   1.302   0.449  15.867  0.7959  1.0705 -0.4233
  569TMC3     O 8495   1.360   0.458  15.760 -0.1467 -0.0864 -0.3323
  569TMC3     H 8496   1.096   0.472  16.080  0.3994  2.4548  0.2575
  569TMC3    H1 8497   1.189   0.554  15.663  1.5437  0.3627  3.4060
  569TMC3    H2 8498   0.799   0.625  15.823  0.6495  1.7956 -2.2482
  569TMC3    C7 8499   0.962   0.694  15.627  0.0860  0.9129  0.2047
  569TMC3    C8 8500   0.863   0.590  16.062 -0.7106  0.0933 -0.4779
  569TMC3    O1 8501   1.023   0.693  15.522 -0.3215  0.2181 -0.1164
  569TMC3    O2 8502   0.746   0.591  16.034 -0.0201  0.0337 -0.2186
  570TMC3    C1 8503   0.366   3.494  16.078  0.0826 -0.5332  0.0810
  570TMC3    C2 8504   0.426   3.447  15.964  0.4117 -0.3422 -0.5933
  570TMC3    C3 8505   0.539   3.516  15.927  0.1058 -0.1588 -0.6334
  570TMC3    C4 8506   0.420   3.596  16.149 -0.4612  0.1944  0.4126
  570TMC3    C5 8507   0.530   3.651  16.108  0.7181  0.3522  0.3301
  570TMC3    C6 8508   0.588   3.622  15.992 -0.8839  0.0761  1.1321
  570TMC3     C 8509   0.248   3.425  16.124 -0.1265 -0.0802 -0.0420
  570TMC3     O 8510   0.195   3.340  16.050 -0.0434  0.2349  0.2589
  570TMC3     H 8511   0.397   3.358  15.910  1.8755 -1.6792  0.8244
  570TMC3    H1 8512   0.364   3.652  16.223 -1.0816  0.4617 -0.2551
  570TMC3    H2 8513   0.670   3.682  15.955 -1.1184 -0.5434 -0.4055
  570TMC3    C7 8514   0.576   3.760  16.179 -0.5694  0.2085 -0.0016
  570TMC3    C8 8515   0.600   3.493  15.800 -0.0541 -0.4100 -0.2136
  570TMC3    O1 8516   0.548   3.750  16.301 -0.1858 -0.0402 -0.3509
  570TMC3    O2 8517   0.723   3.512  15.788  0.2145  0.3194 -0.2949
  571MPD2     C 8518   3.463   0.373  17.438  0.1709 -0.4212  0.7996
  571MPD2    C1 8519   3.374   0.474  17.398 -0.2863  0.2882  0.0980
  571MPD2    C2 8520   3.403   0.602  17.437 -0.7146 -0.2909  0.0792
  571MPD2    C3 8521   3.521   0.622  17.517 -0.2718 -0.8337 -0.3906
  571MPD2    C4 8522   3.606   0.519  17.546  0.7587 -0.7772  0.9029
  571MPD2    C5 8523   3.576   0.393  17.507  0.8173  0.3428  0.3161
  571MPD2     H 8524   3.347   0.683  17.392 -0.4187  0.7247  1.5302
  571MPD2    H1 8525   3.697   0.517  17.606  1.5474 -3.6220 -0.4271
  571MPD2    H2 8526   3.443   0.270  17.411  0.2100 -0.2362  0.0764
  571MPD2    H3 8527   3.641   0.306  17.512  1.0197  0.3838 -1.4953
  571MPD2     N 8528   3.542   0.744  17.590 -0.0409 -0.4169 -0.6187
  571MPD2    H5 8529   3.601   0.747  17.673  2.0614 -0.5039 -2.1176
  571MPD2    N1 8530   3.256   0.438  17.324 -0.4953  0.4390 -0.3526
  571MPD2    H7 8531   3.242   0.339  17.306  1.5100  0.3172 -1.2164
  572TMC3    C1 8532   3.488   0.961  17.681 -0.2774 -0.5685  0.0421
  572TMC3    C2 8533   3.532   0.931   0.043  0.0052 -0.3410  0.2460
  572TMC3    C3 8534   3.493   1.005   0.149  0.0713 -0.2104 -0.9003
  572TMC3    C4 8535   3.414   1.076  17.667  0.2074  0.0227 -0.1829
  572TMC3    C5 8536   3.375   1.150   0.018  0.8630  0.0581  0.5804
  572TMC3    C6 8537   3.417   1.119   0.142  0.1261  0.8403  0.5230
  572TMC3     C 8538   3.471   0.858  17.573  0.4267  0.0793  0.6952
  572TMC3     O 8539   3.402   0.894  17.479 -0.5844  0.4202 -0.6151
  572TMC3     H 8540   3.565   0.829   0.060  1.7214  0.1817  0.0610
  572TMC3    H1 8541   3.401   1.116  17.567 -0.6514  1.2872  0.4270
  572TMC3    H2 8542   3.380   1.186   0.219  0.2126  0.8414  0.5639
  572TMC3    C7 8543   3.273   1.253  17.760  0.1868 -0.4885  0.5630
  572TMC3    C8 8544   3.502   0.944   0.281  0.5819  0.3721 -0.6448
  572TMC3    O1 8545   3.225   1.262  17.646  0.3187 -0.6292 -0.1382
  572TMC3    O2 8546   3.562   0.836   0.282  0.2336 -0.4324 -0.6598
  573MPD2     C 8547   4.284   1.256   0.878 -0.0922  0.9662  0.4251
  573MPD2    C1 8548   4.244   1.367   0.812  0.4347  0.2969  0.5373
  573MPD2    C2 8549   4.133   1.377   0.730 -0.5642  0.4888 -0.4810
  573MPD2    C3 8550   4.077   1.258   0.695 -0.1583 -0.3420 -0.7801
  573MPD2    C4 8551   4.120   1.140   0.748  0.5387  0.9398  0.1244
  573MPD2    C5 8552   4.216   1.137   0.843  0.4493  0.4676 -0.1543
  573MPD2     H 8553   4.099   1.469   0.685  0.4268  2.5177  2.9203
  573MPD2    H1 8554   4.077   1.045   0.719  0.3793  0.4681  1.8701
  573MPD2    H2 8555   4.361   1.261   0.955 -0.0751  0.2655  0.4507
  573MPD2    H3 8556   4.249   1.045   0.890 -1.6934  0.6026  1.6207
  573MPD2     N 8557   3.978   1.253   0.599 -0.3319 -0.4282 -0.8838
  573MPD2    H5 8558   3.961   1.166   0.548 -1.2744 -0.7224 -0.0629
  573MPD2    N1 8559   4.297   1.492   0.854  0.2591  0.2710  0.3775
  573MPD2    H7 8560   4.362   1.487   0.932 -0.0277  1.6810  0.7043
  574TMC3    C1 8561   3.853   1.344   0.427  0.1518  0.0686 -0.2171
  574TMC3    C2 8562   3.762   1.441   0.394 -0.3489  0.6910 -0.5081
  574TMC3    C3 8563   3.724   1.454   0.263 -0.3951  0.4242  0.0091
  574TMC3    C4 8564   3.902   1.264   0.335 -0.6504 -0.2278  0.5791
  574TMC3    C5 8565   3.862   1.269   0.204  0.5247  0.0911  0.0703
  574TMC3    C6 8566   3.771   1.366   0.169  0.5780 -0.7802 -0.1875
  574TMC3     C 8567   3.905   1.358   0.556  0.4802  0.4509  0.6448
  574TMC3     O 8568   3.871   1.460   0.612 -0.3121  0.3311  0.2284
  574TMC3     H 8569   3.729   1.517   0.464 -1.9856  0.4658 -1.0509
  574TMC3    H1 8570   3.980   1.191   0.352 -0.8297 -0.4929  0.2635
  574TMC3    H2 8571   3.717   1.354   0.076  0.0936 -0.0104 -0.0013
  574TMC3    C7 8572   3.881   1.153   0.115 -0.4133 -0.3500 -0.0751
  574TMC3    C8 8573   3.635   1.561   0.228  0.3587  0.3105  0.2966
  574TMC3    O1 8574   3.910   1.185   0.001  0.0914 -0.0286 -0.2419
  574TMC3    O2 8575   3.543   1.573   0.311 -0.0348 -0.2490  0.3585
  575TMC3    C1 8576   1.736   2.618  10.949  1.1132  0.1614  0.2797
  575TMC3    C2 8577   1.717   2.501  10.877  0.4166 -0.3857  0.6924
  575TMC3    C3 8578   1.695   2.519  10.741  0.0728 -0.0764  0.2356
  575TMC3    C4 8579   1.702   2.737  10.896 -0.3079 -1.2636  0.3862
  575TMC3    C5 8580   1.676   2.753  10.765  0.4627  0.4179  0.3888
  575TMC3    C6 8581   1.677   2.641  10.683 -0.5066 -0.0112 -0.1619
  575TMC3     C 8582   1.775   2.601  11.083 -0.5036 -0.2430  0.2557
  575TMC3     O 8583   1.824   2.497  11.117 -0.4020 -0.0596 -0.1255
  575TMC3     H 8584   1.745   2.406  10.922  2.2287  0.8240  2.1183
  575TMC3    H1 8585   1.725   2.831  10.945  0.3681 -0.1560 -2.0708
  575TMC3    H2 8586   1.665   2.650  10.576 -1.6267 -0.2773 -0.0522
  575TMC3    C7 8587   1.689   2.879  10.708  0.2775 -0.1698  0.1676
  575TMC3    C8 8588   1.736   2.406  10.659  0.4959 -0.0698 -0.6549
  575TMC3    O1 8589   1.776   2.959  10.742  0.3538 -0.4463 -0.3785
  575TMC3    O2 8590   1.763   2.307  10.723  0.3931  0.1998  0.4676
  576MPD2     C 8591   2.110   3.353  11.852  0.3603  0.2935  0.4641
  576MPD2    C1 8592   2.117   3.490  11.836 -0.2358 -0.6817 -0.6036
  576MPD2    C2 8593   2.055   3.574  11.920 -0.7953  0.4467  0.3376
  576MPD2    C3 8594   1.983   3.534  12.026  0.3182 -0.0322 -0.2338
  576MPD2    C4 8595   1.954   3.394  12.033  0.6830  0.0531  0.4982
  576MPD2    C5 8596   2.021   3.309  11.949 -1.1007 -0.4533 -0.3195
  576MPD2     H 8597   2.077   3.679  11.904 -0.7263  0.4042  0.1565
  576MPD2    H1 8598   1.868   3.365  12.093  0.2143  0.0941 -0.1578
  576MPD2    H2 8599   2.157   3.282  11.785 -0.0525  1.6046 -1.2252
  576MPD2    H3 8600   2.012   3.201  11.949  0.8288 -0.6072  0.4625
  576MPD2     N 8601   1.929   3.628  12.118  0.5432  0.0588  0.3008
  576MPD2    H5 8602   1.961   3.722  12.100 -1.5582  0.7722  0.2597
  576MPD2    N1 8603   2.184   3.554  11.727 -0.4722  0.3511  0.0189
  576MPD2    H7 8604   2.206   3.653  11.739 -1.7099  0.5703  0.4981
  577TMC3    C1 8605   2.305   3.562  11.523  0.0548  0.9172 -0.0843
  577TMC3    C2 8606   2.302   3.506  11.404  0.2391  0.1436  0.4996
  577TMC3    C3 8607   2.364   3.575  11.302 -1.0478  0.0969 -0.3374
  577TMC3    C4 8608   2.333   3.695  11.542  0.3004 -0.0822  0.0828
  577TMC3    C5 8609   2.372   3.770  11.433  0.4132  0.0198 -0.3371
  577TMC3    C6 8610   2.393   3.711  11.314 -0.7240 -0.0999 -0.4673
  577TMC3     C 8611   2.225   3.483  11.615  0.5596  0.3802  0.4874
  577TMC3     O 8612   2.191   3.368  11.582  0.2452  0.1696 -0.1644
  577TMC3     H 8613   2.272   3.404  11.384 -0.2578 -0.1612  2.8525
  577TMC3    H1 8614   2.331   3.734  11.643 -2.1062  2.2366 -0.8687
  577TMC3    H2 8615   2.409   3.774  11.227  1.6677 -0.8282 -0.5687
  577TMC3    C7 8616   2.380   3.907  11.443 -0.3328  0.2292  0.0589
  577TMC3    C8 8617   2.354   3.521  11.170 -0.6969  0.2022  0.0853
  577TMC3    O1 8618   2.486   3.956  11.408 -0.5262 -0.1499  0.2160
  577TMC3    O2 8619   2.240   3.472  11.139 -0.0059  0.3116 -0.1117
  578MPD2     C 8620   4.686   4.054   0.400  0.5458  0.3376 -0.8692
  578MPD2    C1 8621   4.729   3.928   0.366  0.1489  0.8512  0.0536
  578MPD2    C2 8622   0.082   3.866   0.448 -0.4854 -0.2579 -0.1229
  578MPD2    C3 8623   0.128   3.920   0.564 -0.0113 -0.4377  0.2412
  578MPD2    C4 8624   0.086   4.052   0.591 -0.9000  0.3322 -0.2077
  578MPD2    C5 8625   4.740   4.117   0.509 -0.2493  0.5170  0.3160
  578MPD2     H 8626   0.129   3.775   0.413  2.5557  1.6455 -1.0187
  578MPD2    H1 8627   0.129   4.106   0.674 -0.9930 -0.2582  0.2241
  578MPD2    H2 8628   4.613   4.101   0.335 -0.8843  0.7469  1.0597
  578MPD2    H3 8629   4.716   4.220   0.532  4.1321  2.3922 -3.4836
  578MPD2     N 8630   0.216   3.844   0.637  0.1836 -0.6297 -0.3857
  578MPD2    H5 8631   0.237   3.752   0.599  1.1615 -1.2704  1.7199
  578MPD2    N1 8632   4.691   3.881   0.238 -0.7642  0.6681  0.7742
  578MPD2    H7 8633   4.650   3.952   0.178 -0.7694 -2.0270 -2.3764
  579TMC3    C1 8634   0.404   3.814   0.776 -0.2829  0.8405 -0.4501
  579TMC3    C2 8635   0.526   3.866   0.818  0.2567  0.2881 -0.5701
  579TMC3    C3 8636   0.636   3.783   0.811 -0.8361 -0.9442  0.1698
  579TMC3    C4 8637   0.386   3.676   0.748 -0.6469  0.3558 -0.5760
  579TMC3    C5 8638   0.506   3.600   0.740 -0.4615  0.7044 -0.2085
  579TMC3    C6 8639   0.624   3.649   0.775 -0.1504  0.4275  0.0647
  579TMC3     C 8640   0.305   3.905   0.724 -0.5098 -1.2458  1.0936
  579TMC3     O 8641   0.308   4.020   0.768 -0.6663  0.0463 -0.2446
  579TMC3     H 8642   0.529   3.962   0.868  1.2389 -0.1582  0.2335
  579TMC3    H1 8643   0.289   3.632   0.729 -1.2879  0.7625  1.8164
  579TMC3    H2 8644   0.713   3.594   0.748  2.4003  3.8525  1.4552
  579TMC3    C7 8645   0.502   3.454   0.732 -0.2153  0.3128 -0.0752
  579TMC3    C8 8646   0.764   3.837   0.863  0.2206 -0.0404  0.3403
  579TMC3    O1 8647   0.590   3.386   0.790 -0.1734 -0.4873 -0.4631
  579TMC3    O2 8648   0.761   3.952   0.901  0.5734  0.3059  0.0855
  580TMC3    C1 8649   4.572   3.548  12.152 -0.1730  0.1091 -0.2357
  580TMC3    C2 8650   4.697   3.600  12.144  0.1514 -0.3280  0.4736
  580TMC3    C3 8651   0.068   3.521  12.167  0.8066 -0.1645 -0.2423
  580TMC3    C4 8652   4.552   3.419  12.195  0.2300 -0.3151  1.0183
  580TMC3    C5 8653   4.657   3.347  12.236  0.5906 -1.4310 -0.1820
  580TMC3    C6 8654   0.041   3.394  12.216  0.1710  0.3800  0.5599
  580TMC3     C 8655   4.473   3.606  12.067  0.1679  0.4351 -0.5956
  580TMC3     O 8656   4.517   3.690  11.988  0.1413 -0.5268  0.5289
  580TMC3     H 8657   4.719   3.694  12.094 -3.4101 -0.7534 -1.8531
  580TMC3    H1 8658   4.456   3.367  12.192  0.9772 -1.5324 -1.7820
  580TMC3    H2 8659   0.130   3.331  12.221  0.4688  0.5041 -3.5166
  580TMC3    C7 8660   4.671   3.206  12.206 -0.1297 -0.4799  0.0043
  580TMC3    C8 8661   0.136   3.508  12.043  0.0070  0.5228  0.0711
  580TMC3    O1 8662   4.583   3.135  12.253 -0.6847 -0.5203 -0.0421
  580TMC3    O2 8663   0.083   3.424  11.968  0.2894  0.2663 -0.3906
  581MPD2     C 8664   1.908   2.080  14.887 -0.8991 -0.0879  0.4043
  581MPD2    C1 8665   1.954   2.207  14.918  0.2963  0.1238 -0.3378
  581MPD2    C2 8666   1.909   2.312  14.853 -0.0344 -0.2825  0.0326
  581MPD2    C3 8667   1.828   2.298  14.738  1.1732  0.2707  0.2165
  581MPD2    C4 8668   1.786   2.171  14.706  0.3485  0.0400  0.3914
  581MPD2    C5 8669   1.823   2.064  14.781  0.2167  0.8449  0.5241
  581MPD2     H 8670   1.943   2.411  14.882  2.2280 -1.5051  1.5057
  581MPD2    H1 8671   1.719   2.152  14.622  1.7876 -2.1566 -0.2570
  581MPD2    H2 8672   1.946   1.995  14.941  2.8588  1.3235 -0.0531
  581MPD2    H3 8673   1.792   1.963  14.756  0.4410  0.5901  1.2491
  581MPD2     N 8674   1.770   2.405  14.659  0.4040  0.4741 -0.3877
  581MPD2    H5 8675   1.719   2.380  14.575  0.5336 -0.6250 -0.1464
  581MPD2    N1 8676   2.051   2.209  15.021 -0.4026 -0.0998 -0.9371
  581MPD2    H7 8677   2.065   2.125  15.076  2.1906  2.2326  1.9275
  582TMC3    C1 8678   2.259   2.258  15.112  0.0159 -0.0627 -0.1813
  582TMC3    C2 8679   2.326   2.339  15.204 -0.1874 -0.2018  0.4151
  582TMC3    C3 8680   2.462   2.322  15.217  0.3229 -0.1359  0.3022
  582TMC3    C4 8681   2.316   2.155  15.045  0.2511  0.1258  0.1014
  582TMC3    C5 8682   2.453   2.147  15.055  0.6259 -0.0279  0.3972
  582TMC3    C6 8683   2.528   2.215  15.145 -0.0855 -0.0997 -0.4090
  582TMC3     C 8684   2.133   2.315  15.057 -0.4321  0.5071  0.4165
  582TMC3     O 8685   2.139   2.426  15.013  0.1915  0.1604  0.1794
  582TMC3     H 8686   2.278   2.414  15.267  0.0271  0.3123 -0.0398
  582TMC3    H1 8687   2.273   2.090  14.969 -0.0740 -2.3877  2.4202
  582TMC3    H2 8688   2.635   2.209  15.160  0.1929  2.2139 -1.4394
  582TMC3    C7 8689   2.512   2.030  14.982 -0.0894 -0.3359  0.1463
  582TMC3    C8 8690   2.513   2.337  15.355  0.2585 -0.1109 -0.0905
  582TMC3    O1 8691   2.503   2.025  14.861  0.8519 -0.5302  0.5848
  582TMC3    O2 8692   2.431   2.326  15.445  0.0763 -0.2346 -0.3934
  583MPD2     C 8693   2.263   4.362  16.368  0.6298 -0.5539  0.0480
  583MPD2    C1 8694   2.364   4.363  16.463 -0.0183 -0.1398  0.1662
  583MPD2    C2 8695   2.339   4.430  16.580 -0.4595 -0.0220  0.5136
  583MPD2    C3 8696   2.219   4.513  16.596  0.2279 -0.2590 -0.1267
  583MPD2    C4 8697   2.124   4.512  16.496  0.6634  0.0486 -0.1741
  583MPD2    C5 8698   2.152   4.439  16.379 -0.1736 -0.6947 -0.4019
  583MPD2     H 8699   2.413   4.421  16.658 -0.2227 -0.0336  0.2891
  583MPD2    H1 8700   2.033   4.572  16.501 -0.0143 -0.9342 -0.8072
  583MPD2    H2 8701   2.282   4.324  16.268 -0.1533 -1.3870  0.2186
  583MPD2    H3 8702   2.073   4.441  16.304 -0.5077  0.5416 -0.0104
  583MPD2     N 8703   2.188   4.575  16.716  0.2483 -0.4541 -0.2923
  583MPD2    H5 8704   2.113   4.642  16.727  0.2753 -0.6231  0.8517
  583MPD2    N1 8705   2.490   4.296  16.448 -0.3360 -0.3742 -0.4577
  583MPD2    H7 8706   2.568   4.326  16.505  1.6279 -0.9913 -2.7984
  584TMC3    C1 8707   2.236   4.679  16.914 -0.2563  0.1240 -0.1264
  584TMC3    C2 8708   2.247   0.057  16.849 -0.4387  0.7196  0.2005
  584TMC3    C3 8709   2.250   0.167  16.933  0.9087  0.0663  0.0083
  584TMC3    C4 8710   2.232   4.662  17.050  0.2675  0.0816  0.2776
  584TMC3    C5 8711   2.224   0.034  17.130  0.6918  0.7147 -0.4141
  584TMC3    C6 8712   2.235   0.163  17.070 -1.2943  0.1389 -0.6652
  584TMC3     C 8713   2.268   4.564  16.828 -0.1126 -0.2414 -0.0444
  584TMC3     O 8714   2.320   4.461  16.873  0.3932 -0.4108  0.0402
  584TMC3     H 8715   2.266   0.072  16.743  0.7106  0.4212  0.3636
  584TMC3    H1 8716   2.224   4.567  17.101  1.6583  0.3985  1.0943
  584TMC3    H2 8717   2.228   0.255  17.126  1.9014 -0.3735  0.5953
  584TMC3    C7 8718   2.173   0.013  17.263 -0.5187 -0.4924  0.9403
  584TMC3    C8 8719   2.250   0.298  16.860  0.3168  0.0091  0.2715
  584TMC3    O1 8720   2.193   4.647  17.319  0.2566 -1.3485 -0.4338
  584TMC3    O2 8721   2.214   0.284  16.743  0.5826  0.4893  0.3237
  585MPD2     C 8722   2.068   3.076   0.371  0.0310 -0.1113 -0.3522
  585MPD2    C1 8723   2.127   3.068   0.246  0.4962  0.6520  1.3665
  585MPD2    C2 8724   2.044   3.042   0.137  0.5657  0.1162  0.5665
  585MPD2    C3 8725   1.914   3.025   0.145 -0.3903  0.4212  0.5526
  585MPD2    C4 8726   1.856   3.029   0.268 -0.4789  0.4415  0.0760
  585MPD2    C5 8727   1.934   3.053   0.378  0.4389 -0.1568  0.8905
  585MPD2     H 8728   2.096   3.041   0.042 -1.8751  0.2112 -0.7746
  585MPD2    H1 8729   1.748   3.037   0.279 -0.3787  2.3352 -0.2222
  585MPD2    H2 8730   2.128   3.112   0.453 -2.0138 -0.6959  1.4121
  585MPD2    H3 8731   1.873   3.068   0.467  2.3635  1.1897  1.9660
  585MPD2     N 8732   1.833   3.011   0.038 -0.0390  0.3189  0.4104
  585MPD2    H5 8733   1.734   3.019   0.060 -0.0196  2.0981 -0.1496
  585MPD2    N1 8734   2.265   3.100   0.247  0.5320 -0.3144  0.2594
  585MPD2    H7 8735   2.309   3.098   0.338  0.9638 -0.9138  0.0375
  586TMC3    C1 8736   1.764   3.011  17.574 -0.0798  0.1295  0.0000
  586TMC3    C2 8737   1.788   3.071  17.452 -0.6727  0.9506  0.4822
  586TMC3    C3 8738   1.697   3.050  17.352  0.1912 -0.0326 -0.1788
  586TMC3    C4 8739   1.661   2.926  17.594 -0.0807 -0.5386  0.1802
  586TMC3    C5 8740   1.576   2.905  17.490  0.3895  0.1464  0.2467
  586TMC3    C6 8741   1.584   2.977  17.368  0.5181  0.1218 -0.9179
  586TMC3     C 8742   1.873   2.996  17.669 -0.2217  0.1569 -0.1100
  586TMC3     O 8743   1.986   2.975  17.621  0.1156 -0.0842  0.2924
  586TMC3     H 8744   1.891   3.105  17.440 -0.2260 -0.4899  0.2177
  586TMC3    H1 8745   1.661   2.870  17.687 -0.4308 -1.4489 -0.3642
  586TMC3    H2 8746   1.519   2.947  17.287  0.0885 -1.9758  0.1916
  586TMC3    C7 8747   1.534   2.769  17.463 -0.4464 -0.5084  0.2903
  586TMC3    C8 8748   1.755   3.019  17.223 -0.2895  0.7832  0.4049
  586TMC3    O1 8749   1.502   2.700  17.562  0.1837 -0.1247 -0.1131
  586TMC3    O2 8750   1.706   2.923  17.166 -0.0684  0.1192 -0.6391
  587TMC3    C1 8751   3.578   1.449  15.882  0.1092 -0.2029  0.3805
  587TMC3    C2 8752   3.601   1.489  16.015 -0.3522  0.9637 -0.2908
  587TMC3    C3 8753   3.683   1.402  16.080 -0.0115 -0.1071  0.2469
  587TMC3    C4 8754   3.646   1.356  15.809  0.0478  0.7561  0.7818
  587TMC3    C5 8755   3.732   1.278  15.879  0.1016  0.6805 -0.2460
  587TMC3    C6 8756   3.754   1.300  16.016 -0.1404  0.4834 -0.4932
  587TMC3     C 8757   3.484   1.525  15.802 -0.1305  0.3471 -0.6387
  587TMC3     O 8758   3.509   1.540  15.680 -0.4987 -0.1868  0.0993
  587TMC3     H 8759   3.542   1.571  16.054 -1.9921 -0.2772 -0.1308
  587TMC3    H1 8760   3.607   1.341  15.709 -0.7493  1.0072  1.0493
  587TMC3    H2 8761   3.813   1.234  16.078  1.5043  1.6580 -0.8133
  587TMC3    C7 8762   3.751   1.142  15.825  0.0294  0.0642  0.0864
  587TMC3    C8 8763   3.673   1.393  16.223  0.5435 -0.2362 -0.0764
  587TMC3    O1 8764   3.844   1.081  15.875  0.7493  0.8378 -0.1852
  587TMC3    O2 8765   3.713   1.285  16.269 -0.4263 -0.3147  0.1782
  588TMC3    C1 8766   1.357   0.511  10.014  0.3135  0.4572  0.0620
  588TMC3    C2 8767   1.269   0.409   9.984  0.4917  0.4736 -0.0158
  588TMC3    C3 8768   1.282   0.292  10.059  0.4939  0.4233  0.2973
  588TMC3    C4 8769   1.447   0.497  10.118 -0.6302  0.8938  0.0223
  588TMC3    C5 8770   1.445   0.385  10.193  0.3962 -0.0285  0.0744
  588TMC3    C6 8771   1.359   0.279  10.167  0.0299 -0.2624 -0.4339
  588TMC3     C 8772   1.319   0.643   9.981 -0.5087 -0.0980 -0.0726
  588TMC3     O 8773   1.201   0.659   9.947 -0.4658 -0.3752 -0.1335
  588TMC3     H 8774   1.185   0.435   9.920 -0.8422  1.0754  1.9914
  588TMC3    H1 8775   1.526   0.571  10.129 -1.0090  1.3643 -0.4126
  588TMC3    H2 8776   1.373   0.189  10.225  2.0275  0.2953 -0.0551
  588TMC3    C7 8777   1.564   0.369  10.281  0.3067 -0.2418  0.4451
  588TMC3    C8 8778   1.196   0.186  10.011 -0.2957 -0.6254 -0.6768
  588TMC3    O1 8779   1.631   0.268  10.277 -0.2822 -0.5652  0.6003
  588TMC3    O2 8780   1.098   0.217   9.949  0.2034 -0.4479 -0.3623
  589TMC3    C1 8781   0.377   1.888   0.931 -0.4275  0.0689  0.5995
  589TMC3    C2 8782   0.489   1.904   1.008 -0.4326 -0.0484 -0.7239
  589TMC3    C3 8783   0.596   1.826   0.985 -0.6896  0.4488  0.9136
  589TMC3    C4 8784   0.374   1.803   0.829 -0.5992  0.5959 -0.0319
  589TMC3    C5 8785   0.491   1.736   0.799  0.6819 -0.0302  0.7327
  589TMC3    C6 8786   0.597   1.744   0.878 -0.8100 -1.0030  0.7042
  589TMC3     C 8787   0.260   1.974   0.948  0.3358 -0.4230 -0.0542
  589TMC3     O 8788   0.188   1.977   0.850 -0.0836  0.2012 -0.0719
  589TMC3     H 8789   0.494   1.969   1.094 -0.4680 -1.5848  0.4253
  589TMC3    H1 8790   0.283   1.784   0.774 -0.0783 -1.7086 -0.1043
  589TMC3    H2 8791   0.689   1.689   0.862 -0.9409 -1.5298  1.7604
  589TMC3    C7 8792   0.489   1.630   0.699  0.1117 -0.1256 -0.1090
  589TMC3    C8 8793   0.720   1.850   1.065 -0.5218 -1.1190  0.4367
  589TMC3    O1 8794   0.377   1.603   0.656 -0.4309  0.1829  0.0096
  589TMC3    O2 8795   0.714   1.919   1.163  0.3468 -0.3282  0.4463
  590MPD2     C 8796   4.490   0.103  16.086 -0.2760  0.5481  0.0700
  590MPD2    C1 8797   4.495   0.225  16.024  0.2278  0.6219 -0.9503
  590MPD2    C2 8798   4.620   0.285  16.017 -0.5417 -0.3658 -0.1680
  590MPD2    C3 8799   4.731   0.228  16.074  0.7371  0.2859 -0.3367
  590MPD2    C4 8800   4.723   0.103  16.132  0.0323 -0.2993  0.1423
  590MPD2    C5 8801   4.598   0.042  16.139 -0.1441 -0.8918  0.0099
  590MPD2     H 8802   4.629   0.380  15.967 -2.5318 -0.2423 -0.2875
  590MPD2    H1 8803   0.070   0.046  16.159 -0.5938 -0.4806  1.7855
  590MPD2    H2 8804   4.396   0.049  16.085 -0.3674  0.6922  0.7777
  590MPD2    H3 8805   4.590   4.688  16.191 -1.7900  0.4258  2.1439
  590MPD2     N 8806   0.111   0.295  16.065 -0.1992  1.1413  0.0139
  590MPD2    H5 8807   0.108   0.390  16.031 -1.2224  1.0675 -0.1045
  590MPD2    N1 8808   4.381   0.300  15.998 -0.7622  0.2390 -0.2613
  590MPD2    H7 8809   4.402   0.393  15.964 -0.1038  0.0795 -0.2820
  591TMC3    C1 8810   0.336   0.355  16.079 -0.2974 -0.1459  0.0401
  591TMC3    C2 8811   0.440   0.313  16.006  0.5128  0.0369 -0.2854
  591TMC3    C3 8812   0.481   0.399  15.914  0.4299  0.4448 -0.0324
  591TMC3    C4 8813   0.281   0.477  16.077  0.1506 -0.0040  0.2269
  591TMC3    C5 8814   0.323   0.556  15.976  0.7719  0.0339 -0.4365
  591TMC3    C6 8815   0.425   0.520  15.894 -0.1752  0.8836 -0.2993
  591TMC3     C 8816   0.234   0.253  16.107 -0.5745  0.8246 -0.3188
  591TMC3     O 8817   0.280   0.147  16.149  0.2753  0.8087 -0.5414
  591TMC3     H 8818   0.482   0.213  16.010  1.6708  0.5011 -0.6634
  591TMC3    H1 8819   0.210   0.512  16.152 -0.3231 -2.7057  1.0363
  591TMC3    H2 8820   0.457   0.594  15.821  1.2005  0.9072  0.3357
  591TMC3    C7 8821   0.212   0.629  15.921  0.3458 -0.0709  0.8458
  591TMC3    C8 8822   0.589   0.351  15.835 -0.4616  0.4776 -0.5008
  591TMC3    O1 8823   0.103   0.581  15.939 -0.0871 -0.4780  0.3021
  591TMC3    O2 8824   0.643   0.247  15.872 -0.9239 -0.5529  0.9224
  592MPD2     C 8825   0.392   2.827  11.275  0.0136 -0.1457  0.3029
  592MPD2    C1 8826   0.402   2.812  11.414 -0.1650  0.1782 -0.9454
  592MPD2    C2 8827   0.359   2.686  11.462  0.3137 -1.0397 -0.5880
  592MPD2    C3 8828   0.319   2.581  11.388 -0.3800  0.6668  0.1445
  592MPD2    C4 8829   0.320   2.596  11.253 -0.3935  0.5355  0.7409
  592MPD2    C5 8830   0.360   2.715  11.201  1.0034 -0.1869  0.4476
  592MPD2     H 8831   0.366   2.660  11.567 -0.2438 -2.5287 -0.9192
  592MPD2    H1 8832   0.282   2.523  11.182 -3.1531  2.6173  0.1204
  592MPD2    H2 8833   0.410   2.919  11.222  1.3072 -0.2325  0.5907
  592MPD2    H3 8834   0.358   2.731  11.094 -0.9875 -1.4213  0.2917
  592MPD2     N 8835   0.291   2.457  11.455  0.0125 -0.9278  0.5720
  592MPD2    H5 8836   0.283   2.457  11.556  0.7944  0.3197  0.6374
  592MPD2    N1 8837   0.455   2.912  11.500  0.0294  0.4195  0.1178
  592MPD2    H7 8838   0.495   2.994  11.456  0.4384 -1.8541 -3.8127
  593TMC3    C1 8839   0.509   3.020  11.703 -0.3156  0.5808  0.2701
  593TMC3    C2 8840   0.478   3.038  11.831 -0.2380 -0.2661  0.4159
  593TMC3    C3 8841   0.565   3.103  11.910 -0.3081  0.9789  0.4284
  593TMC3    C4 8842   0.631   3.062  11.651 -0.5135  0.7899  0.4350
  593TMC3    C5 8843   0.713   3.138  11.728 -0.1268 -0.1522 -0.5256
  593TMC3    C6 8844   0.679   3.159  11.862 -0.1506  0.8655  0.2320
  593TMC3     C 8845   0.446   2.907  11.638  0.2130 -0.0366  0.0476
  593TMC3     O 8846   0.384   2.831  11.710 -0.6733 -0.1802  0.0829
  593TMC3     H 8847   0.381   3.005  11.867  0.6095  0.1652  3.1142
  593TMC3    H1 8848   0.681   3.037  11.558 -2.0781 -1.0641  0.0862
  593TMC3    H2 8849   0.729   3.238  11.916 -0.0810 -0.0743  1.5559
  593TMC3    C7 8850   0.849   3.158  11.693  0.7623  0.1790 -0.0434
  593TMC3    C8 8851   0.514   3.165  12.030 -0.5299 -0.0134  0.1781
  593TMC3    O1 8852   0.863   3.152  11.572  0.4340 -0.2775  0.1049
  593TMC3    O2 8853   0.397   3.190  12.041 -0.3937 -0.3247  0.1949
  594MPD2     C 8854   4.185   0.747  14.562  0.5339  0.3178  1.0939
  594MPD2    C1 8855   4.092   0.806  14.486  0.5105 -0.5878 -0.0781
  594MPD2    C2 8856   4.119   0.941  14.463  0.0534 -0.7983  0.0544
  594MPD2    C3 8857   4.236   1.010  14.496 -0.6696  0.4087  0.0639
  594MPD2    C4 8858   4.335   0.939  14.566 -0.3581 -0.3414  0.3521
  594MPD2    C5 8859   4.309   0.807  14.579  0.0549  0.4162  0.7269
  594MPD2     H 8860   4.052   0.999  14.401  0.7098  0.7411  0.7851
  594MPD2    H1 8861   4.438   0.972  14.577 -0.7037  1.0391 -0.6388
  594MPD2    H2 8862   4.187   0.639  14.569 -2.8396  0.1877 -0.1118
  594MPD2    H3 8863   4.386   0.735  14.605 -1.9216 -2.2487 -0.6822
  594MPD2     N 8864   4.259   1.142  14.459  0.1139 -0.4049  0.8748
  594MPD2    H5 8865   4.184   1.187  14.406  0.9544  0.5164  0.4490
  594MPD2    N1 8866   3.969   0.747  14.454 -0.3866 -0.1654  0.3226
  594MPD2    H7 8867   3.963   0.651  14.485  1.7640  0.7465  3.4980
  595TMC3    C1 8868   4.442   1.469  14.271 -0.2974  1.2833 -0.3848
  595TMC3    C2 8869   4.391   1.357  14.324 -0.6834  0.4215 -0.1440
  595TMC3    C3 8870   4.354   1.353  14.455 -0.1462 -0.0992 -0.5976
  595TMC3    C4 8871   4.450   1.579  14.356 -0.1242  0.4023  0.1235
  595TMC3    C5 8872   4.426   1.566  14.490  0.5919  0.2329  0.2428
  595TMC3    C6 8873   4.369   1.457  14.538  0.3478 -0.0156 -0.2836
  595TMC3     C 8874   4.559   1.449  14.189  0.6745  0.3754 -0.0832
  595TMC3     O 8875   4.622   1.550  14.162 -0.3272  0.4239  0.1783
  595TMC3     H 8876   4.373   1.263  14.273  1.2528 -1.7940  3.2406
  595TMC3    H1 8877   4.492   1.667  14.308 -0.7812  0.8761  0.4068
  595TMC3    H2 8878   4.338   1.455  14.642  1.2601  1.0602  0.0096
  595TMC3    C7 8879   4.422   1.682  14.578  0.1506  0.9555  0.4689
  595TMC3    C8 8880   4.359   1.223  14.511 -0.5320  0.4154  0.9995
  595TMC3    O1 8881   4.335   1.689  14.663  0.6136 -0.0098 -0.1258
  595TMC3    O2 8882   4.469   1.190  14.557  0.5777  0.2245  0.1687
  596MPD2     C 8883   3.041   4.075  16.731 -1.0666 -0.4117 -0.2728
  596MPD2    C1 8884   3.136   4.157  16.667  0.4066  0.7082  0.0003
  596MPD2    C2 8885   3.185   4.128  16.548 -0.4332  0.0736  0.5819
  596MPD2    C3 8886   3.162   4.008  16.485  0.3654  0.4315 -0.3173
  596MPD2    C4 8887   3.056   3.929  16.532  0.4646  0.3427 -0.3256
  596MPD2    C5 8888   3.001   3.961  16.658  0.2758 -0.1710  0.1139
  596MPD2     H 8889   3.259   4.198  16.511  0.8187 -0.7380  1.5723
  596MPD2    H1 8890   3.022   3.836  16.487 -1.3967  1.3539 -1.0094
  596MPD2    H2 8891   2.989   4.090  16.825 -0.1452 -1.9352  0.5030
  596MPD2    H3 8892   2.924   3.895  16.696 -1.4557  1.1273 -1.1353
  596MPD2     N 8893   3.212   3.971  16.359 -0.0175 -0.3333  0.4567
  596MPD2    H5 8894   3.181   3.883  16.319  0.6909 -1.3917  2.2579
  596MPD2    N1 8895   3.176   4.287  16.722 -0.0433  0.5886 -0.7448
  596MPD2    H7 8896   3.245   4.335  16.666 -0.8089 -0.0061 -2.1848
  597TMC3    C1 8897   3.111   4.488  16.819 -0.7401 -0.2149 -0.3342
  597TMC3    C2 8898   3.155   4.555  16.704  0.2993  0.5675 -0.0927
  597TMC3    C3 8899   3.121   4.684  16.690 -0.5354  1.1951 -0.5739
  597TMC3    C4 8900   3.045   4.547  16.916  0.8994  0.3835 -0.3256
  597TMC3    C5 8901   3.003   4.676  16.890  0.5313 -0.1162 -0.5680
  597TMC3    C6 8902   3.048   0.003  16.782 -0.0137 -0.1963  0.3882
  597TMC3     C 8903   3.112   4.349  16.828 -0.1011  0.4824 -0.4176
  597TMC3     O 8904   3.069   4.295  16.929  0.5173  0.8985  0.1353
  597TMC3     H 8905   3.203   4.502  16.622 -0.3880 -1.3358  0.7197
  597TMC3    H1 8906   3.030   4.492  17.008  1.0381 -1.2779 -1.2990
  597TMC3    H2 8907   3.019   0.108  16.771  0.6964  0.0201  0.6140
  597TMC3    C7 8908   2.908   4.731  16.982 -0.0259  0.2724 -0.1398
  597TMC3    C8 8909   3.160   0.019  16.568  0.1500 -0.2594 -0.0725
  597TMC3    O1 8910   2.878   4.658  17.075 -0.3439 -0.3071  0.0640
  597TMC3    O2 8911   3.088   0.114  16.540 -0.8872  0.1287  0.1731
  598TMC3    C1 8912   1.189   0.258  15.086 -0.2897  0.3415  0.0837
  598TMC3    C2 8913   1.057   0.307  15.074  0.2276  0.2126  0.0712
  598TMC3    C3 8914   1.039   0.426  15.016 -0.3446 -0.6659  0.2945
  598TMC3    C4 8915   1.296   0.334  15.062 -0.0577  0.8144  0.0520
  598TMC3    C5 8916   1.268   0.456  15.016 -0.1418 -0.0357 -0.3179
  598TMC3    C6 8917   1.144   0.502  14.987  0.1282 -0.3067 -0.1352
  598TMC3     C 8918   1.197   0.116  15.112 -0.4810 -0.5211  0.3970
  598TMC3     O 8919   1.101   0.048  15.086 -0.5764 -0.2519  0.0651
  598TMC3     H 8920   0.978   0.241  15.108 -0.7237  1.6798  0.7260
  598TMC3    H1 8921   1.397   0.297  15.074 -0.9810 -2.0405 -1.1267
  598TMC3    H2 8922   1.135   0.601  14.945  2.8989 -0.6893 -1.6260
  598TMC3    C7 8923   1.374   0.513  14.935 -0.8095  0.2288  0.3574
  598TMC3    C8 8924   0.908   0.481  15.010 -0.0344 -0.1784 -0.0104
  598TMC3    O1 8925   1.456   0.430  14.897  0.1299 -0.6597  0.1141
  598TMC3    O2 8926   0.881   0.590  14.964 -0.7251 -0.3498  0.1483
  599MPD2     C 8927   1.339   3.256  15.516  0.1437  0.0283  0.4557
  599MPD2    C1 8928   1.380   3.150  15.596 -0.3997 -0.0675  0.0075
  599MPD2    C2 8929   1.363   3.172  15.732 -0.0496  0.2007 -0.5993
  599MPD2    C3 8930   1.285   3.283  15.783 -0.0699 -0.3205  0.0785
  599MPD2    C4 8931   1.236   3.378  15.698 -1.0482  0.2683  0.0639
  599MPD2    C5 8932   1.273   3.370  15.564 -0.3865 -0.5662  0.2718
  599MPD2     H 8933   1.393   3.099  15.807 -0.7285  0.1412 -0.3842
  599MPD2    H1 8934   1.180   3.461  15.741 -1.0546 -1.2185  2.9468
  599MPD2    H2 8935   1.362   3.259  15.410 -0.6918  2.1832  0.3501
  599MPD2    H3 8936   1.244   3.455  15.503  1.3184  0.1368  0.4345
  599MPD2     N 8937   1.265   3.314  15.923 -0.2439  0.6017 -0.1598
  599MPD2    H5 8938   1.235   3.409  15.942  0.3771  0.8157 -0.2475
  599MPD2    N1 8939   1.438   3.037  15.531 -0.4440 -0.0721  0.1778
  599MPD2    H7 8940   1.465   3.043  15.434  2.5016 -0.2423  0.9875
  600TMC3    C1 8941   1.255   3.270  16.158 -0.6368 -0.5502  0.5197
  600TMC3    C2 8942   1.212   3.176  16.243 -0.8886  0.4156 -0.1532
  600TMC3    C3 8943   1.247   3.191  16.377 -0.1972  0.2002 -1.0655
  600TMC3    C4 8944   1.304   3.389  16.198 -0.5097  0.1335 -0.7958
  600TMC3    C5 8945   1.341   3.407  16.329  0.5748 -0.5852  0.0802
  600TMC3    C6 8946   1.313   3.305  16.417  0.0467  0.3984 -0.5529
  600TMC3     C 8947   1.272   3.217  16.026  0.2640 -0.0500 -0.2776
  600TMC3     O 8948   1.281   3.096  16.009 -0.8517  0.1616 -0.6759
  600TMC3     H 8949   1.186   3.081  16.198 -0.6634  0.6804 -0.8491
  600TMC3    H1 8950   1.333   3.459  16.120  1.1051  0.7724  0.3748
  600TMC3    H2 8951   1.320   3.325  16.523 -0.2362 -0.9397 -0.2783
  600TMC3    C7 8952   1.361   3.542  16.383 -0.0398 -0.4649  0.1474
  600TMC3    C8 8953   1.151   3.135  16.478  0.4663 -0.0829 -0.0225
  600TMC3    O1 8954   1.297   3.630  16.329 -0.1661 -0.5990 -0.3377
  600TMC3    O2 8955   1.199   3.109  16.589  0.4510  0.5295 -0.3569
  601MPD2     C 8956   2.959   1.626   0.141  0.2391 -0.4033  0.0854
  601MPD2    C1 8957   2.978   1.566   0.016 -0.1296 -0.6157  0.0396
  601MPD2    C2 8958   3.069   1.470   0.004 -0.4673  0.0646 -0.5181
  601MPD2    C3 8959   3.155   1.440   0.114 -0.2548  1.1326  0.3582
  601MPD2    C4 8960   3.138   1.505   0.232 -0.4217  0.5645 -0.7999
  601MPD2    C5 8961   3.032   1.592   0.253 -0.0494 -0.5567  0.6446
  601MPD2     H 8962   3.078   1.420  17.670  0.4926  1.2863 -1.0621
  601MPD2    H1 8963   3.198   1.466   0.313 -0.3289 -0.6413 -1.4483
  601MPD2    H2 8964   2.888   1.707   0.152  0.8391  0.2047 -0.5194
  601MPD2    H3 8965   3.012   1.642   0.348 -2.8959 -2.3321  0.9832
  601MPD2     N 8966   3.255   1.342   0.107 -0.0242 -0.2846 -0.1352
  601MPD2    H5 8967   3.302   1.322   0.195  0.7984 -0.1555 -0.5465
  601MPD2    N1 8968   2.895   1.598  17.667  0.1878  0.1592 -0.1118
  601MPD2    H7 8969   2.909   1.535  17.588  2.7878 -1.1373  1.3889
  602TMC3    C1 8970   2.740   1.700  17.526 -0.2235 -0.1215 -0.4860
  602TMC3    C2 8971   2.693   1.815  17.485  0.0475 -0.0844 -0.5357
  602TMC3    C3 8972   2.667   1.841  17.360  0.6864  0.2106  1.0969
  602TMC3    C4 8973   2.764   1.600  17.435 -0.4117  0.2677  1.1581
  602TMC3    C5 8974   2.752   1.627  17.300  0.6782  0.4918 -0.7041
  602TMC3    C6 8975   2.705   1.749  17.261  1.0814  0.0138 -0.1820
  602TMC3     C 8976   2.790   1.684  17.664  0.4574  0.5731  1.4379
  602TMC3     O 8977   2.776   1.781  17.739 -0.3894  0.3284  0.1897
  602TMC3     H 8978   2.684   1.889  17.563 -1.5950 -1.1930  0.3144
  602TMC3    H1 8979   2.793   1.499  17.462  0.4814 -0.5441 -2.7536
  602TMC3    H2 8980   2.692   1.769  17.155  0.8514  0.5464 -0.0532
  602TMC3    C7 8981   2.805   1.537  17.201 -0.3745  0.1017 -0.2196
  602TMC3    C8 8982   2.655   1.986  17.323  0.6888 -0.1158  0.1837
  602TMC3    O1 8983   2.787   1.412  17.201 -0.1716 -0.0054 -0.5468
  602TMC3    O2 8984   2.625   2.064  17.412  0.3991 -0.1915  0.3606
  603TMC3    C1 8985   0.991   2.798  10.827  0.3479 -0.7550 -0.2621
  603TMC3    C2 8986   1.054   2.812  10.945  0.0885 -0.1488  0.4862
  603TMC3    C3 8987   1.179   2.876  10.937 -0.1570 -0.0358  0.0334
  603TMC3    C4 8988   1.039   2.848  10.707  0.5505 -0.3104 -0.1884
  603TMC3    C5 8989   1.164   2.910  10.715  0.3316  0.6691 -0.8781
  603TMC3    C6 8990   1.241   2.916  10.826 -0.2843 -0.8186  0.4407
  603TMC3     C 8991   0.863   2.738  10.812 -0.2708  0.1735  0.0729
  603TMC3     O 8992   0.802   2.750  10.710  0.3489 -1.0711  0.3289
  603TMC3     H 8993   1.006   2.792  11.040 -1.3113 -0.9296 -0.3861
  603TMC3    H1 8994   0.981   2.842  10.615 -1.6499  0.0164  1.1908
  603TMC3    H2 8995   1.337   2.966  10.830 -0.4682 -0.4164 -0.1899
  603TMC3    C7 8996   1.219   2.984  10.593 -0.7386 -0.5152 -0.1251
  603TMC3    C8 8997   1.251   2.903  11.061 -0.5351  0.5051 -0.1807
  603TMC3    O1 8998   1.307   3.064  10.613  0.0146  0.0624  0.4759
  603TMC3    O2 8999   1.329   2.995  11.067 -0.4006 -0.3170 -0.1550
  604MPD2     C 9000   2.347   0.635  16.141  0.2721  0.3276 -0.1194
  604MPD2    C1 9001   2.252   0.546  16.100  0.0918 -0.1110  0.0887
  604MPD2    C2 9002   2.282   0.467  15.989 -0.1505 -0.3488  0.7580
  604MPD2    C3 9003   2.401   0.466  15.932 -0.0794 -0.5930  0.2457
  604MPD2    C4 9004   2.493   0.561  15.975  0.0897  0.5958  0.2185
  604MPD2    C5 9005   2.469   0.647  16.077  0.5690 -0.3423 -0.0688
  604MPD2     H 9006   2.218   0.389  15.947  0.4940 -1.2666  1.4818
  604MPD2    H1 9007   2.590   0.582  15.931  1.1125  1.4630  2.8843
  604MPD2    H2 9008   2.323   0.698  16.225 -0.2713 -1.8058  1.3345
  604MPD2    H3 9009   2.543   0.720  16.108  0.3735 -0.1358 -0.0886
  604MPD2     N 9010   2.413   0.387  15.815  0.7290 -0.8591 -0.2937
  604MPD2    H5 9011   2.334   0.334  15.779  1.4113 -0.3301 -2.5523
  604MPD2    N1 9012   2.130   0.534  16.166 -0.6090  0.7288  0.2471
  604MPD2    H7 9013   2.126   0.594  16.248  1.4753 -1.6497  2.1104
  605TMC3    C1 9014   1.907   0.519  16.213  0.1272  0.2198  0.4608
  605TMC3    C2 9015   1.951   0.549  16.343 -0.5445  0.5797  0.2950
  605TMC3    C3 9016   1.914   0.662  16.406 -0.0894 -0.4280  0.4382
  605TMC3    C4 9017   1.809   0.598  16.155  0.5803  0.6892 -0.6892
  605TMC3    C5 9018   1.748   0.689  16.243  0.7152 -0.0089  0.1870
  605TMC3    C6 9019   1.812   0.738  16.357 -0.6226  0.1049 -0.0866
  605TMC3     C 9020   2.011   0.478  16.122  0.1357  0.1854 -0.1075
  605TMC3     O 9021   1.993   0.451  16.007  0.7296 -0.1819  0.2211
  605TMC3     H 9022   2.026   0.483  16.384 -1.4203 -1.8255 -1.9940
  605TMC3    H1 9023   1.757   0.562  16.067  1.4204  1.1229 -1.3550
  605TMC3    H2 9024   1.763   0.813  16.419 -0.3817  1.0863 -1.0831
  605TMC3    C7 9025   1.620   0.752  16.211 -0.1557  0.2299 -0.0042
  605TMC3    C8 9026   2.039   0.742  16.429  0.4115 -0.4393  0.1403
  605TMC3    O1 9027   1.549   0.803  16.301  0.8359 -0.0669 -0.1639
  605TMC3    O2 9028   2.142   0.681  16.399 -0.2482  0.0238 -0.1427
  606TMC3    C1 9029   3.462   0.130  16.962 -0.3069 -0.4382 -0.0430
  606TMC3    C2 9030   3.527   0.156  17.080  0.0772 -0.0872 -0.3650
  606TMC3    C3 9031   3.594   0.055  17.140 -0.3282 -0.1992 -0.3405
  606TMC3    C4 9032   3.461   0.001  16.910 -0.2905  0.7113 -0.0536
  606TMC3    C5 9033   3.531   4.641  16.968  0.7126  0.3548  0.0648
  606TMC3    C6 9034   3.601   4.668  17.083 -0.3138  0.1579 -0.6300
  606TMC3     C 9035   3.350   0.211  16.943 -0.7219  0.1978 -0.4811
  606TMC3     O 9036   3.242   0.161  16.911 -0.1915 -0.4614 -0.1719
  606TMC3     H 9037   3.512   0.237  17.151 -1.4756  0.8489 -1.7805
  606TMC3    H1 9038   3.399   4.715  16.825 -0.9238  1.5735  0.1379
  606TMC3    H2 9039   3.664   4.593  17.128 -0.1021  0.4243 -0.4796
  606TMC3    C7 9040   3.507   4.504  16.924 -0.5718  0.9486 -0.3099
  606TMC3    C8 9041   3.684   0.083  17.255 -0.3056  0.4131 -0.0965
  606TMC3    O1 9042   3.422   4.482  16.840  0.1548 -0.7115 -0.0961
  606TMC3    O2 9043   3.696   4.739  17.338  0.2096  0.2307  0.6746
  607MPD2     C 9044   0.585   2.269  11.634 -1.0972  0.4604  0.2795
  607MPD2    C1 9045   0.592   2.382  11.712  1.1178 -0.9514  0.2162
  607MPD2    C2 9046   0.578   2.372  11.853  0.6079 -0.2911 -0.2077
  607MPD2    C3 9047   0.549   2.252  11.914  0.2471 -0.6718  0.0940
  607MPD2    C4 9048   0.536   2.136  11.836 -0.4822 -0.3580  0.2331
  607MPD2    C5 9049   0.547   2.153  11.695 -0.9895  0.0319 -0.6541
  607MPD2     H 9050   0.586   2.458  11.919  0.4241 -1.0991  0.8690
  607MPD2    H1 9051   0.511   2.036  11.870  0.7025 -0.0368  2.0137
  607MPD2    H2 9052   0.600   2.274  11.527 -0.1697  2.3795  0.5098
  607MPD2    H3 9053   0.524   2.066  11.635 -0.1191 -0.3287 -0.4507
  607MPD2     N 9054   0.549   2.244  12.053  0.0205 -0.4125 -0.0839
  607MPD2    H5 9055   0.570   2.330  12.103 -0.3343 -0.4186  0.0762
  607MPD2    N1 9056   0.624   2.508  11.662  0.0541 -0.1275 -0.5759
  607MPD2    H7 9057   0.643   2.587  11.724  1.0904 -1.3197  0.6083
  608TMC3    C1 9058   0.759   2.641  11.532  0.1878  0.0762 -0.0311
  608TMC3    C2 9059   0.827   2.678  11.647  0.2878  0.2574 -0.1726
  608TMC3    C3 9060   0.905   2.789  11.650  0.4579  0.0793 -0.4913
  608TMC3    C4 9061   0.792   2.711  11.419 -0.6137  0.3258 -0.2289
  608TMC3    C5 9062   0.885   2.816  11.417 -0.9801  0.4679 -0.0030
  608TMC3    C6 9063   0.940   2.861  11.542  0.1444 -0.4667  0.4283
  608TMC3     C 9064   0.669   2.529  11.533 -0.3274  1.1230  0.4740
  608TMC3     O 9065   0.666   2.472  11.426  0.1537 -0.5818 -0.3460
  608TMC3     H 9066   0.818   2.618  11.737 -1.8267  0.5120 -0.2226
  608TMC3    H1 9067   0.739   2.693  11.326 -1.8711  1.4428  0.2744
  608TMC3    H2 9068   1.003   2.947  11.561 -0.8298  0.3292  0.0685
  608TMC3    C7 9069   0.879   2.905  11.303 -0.7799  0.4005  0.3081
  608TMC3    C8 9070   0.969   2.814  11.773  0.2948 -0.5328 -0.8009
  608TMC3    O1 9071   0.788   2.908  11.219  0.2789 -0.0867 -0.4886
  608TMC3    O2 9072   1.084   2.852  11.775  1.2246 -0.5065  0.7797
  609TMC3    C1 9073   4.289   1.823   8.992  0.7803  0.1580 -0.6665
  609TMC3    C2 9074   4.267   1.846   8.856  0.0561 -0.0859  0.4360
  609TMC3    C3 9075   4.336   1.773   8.762  0.0387  0.1554  0.7438
  609TMC3    C4 9076   4.393   1.732   9.026  0.1572 -0.3686 -0.2183
  609TMC3    C5 9077   4.456   1.663   8.923 -0.7123 -0.1686  0.2340
  609TMC3    C6 9078   4.427   1.675   8.793 -0.2487 -0.6469  0.0505
  609TMC3     C 9079   4.175   1.832   9.082  0.3731  0.0376  0.5759
  609TMC3     O 9080   4.165   1.737   9.157  0.0829  0.3289  0.0196
  609TMC3     H 9081   4.185   1.912   8.828 -0.7286 -1.9690 -1.7103
  609TMC3    H1 9082   4.433   1.731   9.126 -0.3308  1.0690 -0.0094
  609TMC3    H2 9083   4.485   1.620   8.720 -0.8645 -0.6014 -0.4714
  609TMC3    C7 9084   4.550   1.561   8.974  0.1859 -0.2719 -0.2933
  609TMC3    C8 9085   4.283   1.791   8.624 -0.2772  0.0548  0.1418
  609TMC3    O1 9086   4.604   1.581   9.081  0.9115 -0.0821 -0.4728
  609TMC3    O2 9087   4.219   1.893   8.594  0.1552  0.0549  0.7780
  610TMC3    C1 9088   1.160   2.206  12.621  0.2812  0.3562 -0.7203
  610TMC3    C2 9089   1.204   2.322  12.563 -0.3611  0.1450  0.0530
  610TMC3    C3 9090   1.285   2.311  12.450 -0.3252 -0.1604  0.3723
  610TMC3    C4 9091   1.201   2.081  12.571 -0.6976 -0.5848  0.6747
  610TMC3    C5 9092   1.289   2.079  12.469  0.1512 -0.0634 -1.1343
  610TMC3    C6 9093   1.342   2.194  12.405 -0.0841 -0.5408  0.3022
  610TMC3     C 9094   1.041   2.222  12.696 -0.1537 -0.6185 -0.1999
  610TMC3     O 9095   0.958   2.133  12.688 -0.0839  0.1928 -0.0221
  610TMC3     H 9096   1.172   2.422  12.592  1.4411  1.3929 -2.1709
  610TMC3    H1 9097   1.137   1.994  12.584 -1.4246  0.3385  3.3867
  610TMC3    H2 9098   1.418   2.181  12.329  0.6889  2.0687  0.6449
  610TMC3    C7 9099   1.390   1.983  12.494  0.3764  0.1161  0.2184
  610TMC3    C8 9100   1.344   2.434  12.419 -0.2267  0.2395 -0.8535
  610TMC3    O1 9101   1.506   2.012  12.465 -0.5624 -0.3592 -0.6858
  610TMC3    O2 9102   1.352   2.517  12.508  0.1513  0.8892  0.0946
  611MPD2     C 9103   0.653   2.181  10.329 -0.0816  0.1466  0.0677
  611MPD2    C1 9104   0.548   2.207  10.240  0.4823 -0.0946 -0.1135
  611MPD2    C2 9105   0.555   2.316  10.157 -0.2382 -0.2056 -0.2676
  611MPD2    C3 9106   0.668   2.399  10.159  0.3190 -0.1200 -0.0239
  611MPD2    C4 9107   0.769   2.362  10.242 -0.6312  0.2307  0.0954
  611MPD2    C5 9108   0.767   2.254  10.321  0.4424 -0.3675 -1.0370
  611MPD2     H 9109   0.473   2.345  10.093 -0.9237  3.7290  2.3914
  611MPD2    H1 9110   0.854   2.428  10.261 -0.2271 -0.2145 -0.1530
  611MPD2    H2 9111   0.639   2.094  10.393 -0.0191  0.6853  0.8214
  611MPD2    H3 9112   0.851   2.235  10.387 -1.0957 -0.0807  0.9976
  611MPD2     N 9113   0.676   2.523  10.092  0.1997  0.0482 -0.2550
  611MPD2    H5 9114   0.756   2.582  10.112 -0.2809  1.2892 -1.9754
  611MPD2    N1 9115   0.429   2.141  10.271  0.1913 -0.3279 -0.5661
  611MPD2    H7 9116   0.424   2.083  10.355  0.9504 -2.7567 -2.2002
  612TMC3    C1 9117   0.611   2.719   9.974  0.1930 -0.2801 -0.6433
  612TMC3    C2 9118   0.741   2.769   9.980  0.0581 -0.8348 -0.1934
  612TMC3    C3 9119   0.758   2.889   9.916 -1.0557 -0.0646 -0.4739
  612TMC3    C4 9120   0.517   2.782   9.891  0.6196  1.2552 -0.2719
  612TMC3    C5 9121   0.546   2.893   9.821  0.3013  0.1561 -0.4503
  612TMC3    C6 9122   0.672   2.951   9.833  0.5255 -0.2935 -0.1721
  612TMC3     C 9123   0.577   2.583  10.016  0.1840  0.1759  0.5780
  612TMC3     O 9124   0.476   2.537   9.969 -0.6580  0.2889 -0.0134
  612TMC3     H 9125   0.827   2.723  10.026  1.3549  0.8788 -0.9122
  612TMC3    H1 9126   0.417   2.740   9.882  1.8087 -1.4037 -0.8593
  612TMC3    H2 9127   0.694   3.042   9.779 -0.8518  0.1172 -0.0308
  612TMC3    C7 9128   0.456   2.933   9.718  0.0944 -0.8038  0.4383
  612TMC3    C8 9129   0.866   2.975   9.956  0.0494  1.0284  0.5125
  612TMC3    O1 9130   0.371   2.851   9.693 -0.2478 -0.1651 -0.3050
  612TMC3    O2 9131   0.880   3.073   9.889 -0.0600 -0.3546 -0.2074
  613MPD2     C 9132   0.085   4.444  16.277  0.3849  0.4235 -0.6174
  613MPD2    C1 9133   4.712   4.380  16.244 -0.2573 -0.0300 -0.0685
  613MPD2    C2 9134   4.678   4.273  16.317  0.1128 -0.3695 -0.9646
  613MPD2    C3 9135   0.010   4.236  16.431 -0.0388 -0.1420 -0.4700
  613MPD2    C4 9136   0.121   4.309  16.475  0.1161 -0.5688 -1.2269
  613MPD2    C5 9137   0.158   4.414  16.391  0.2658  0.0811 -0.0316
  613MPD2     H 9138   4.593   4.220  16.277 -0.1254 -0.0821 -0.8340
  613MPD2    H1 9139   0.184   4.277  16.557  0.3247  0.3715 -1.0206
  613MPD2    H2 9140   0.118   4.520  16.207 -1.4078  2.2589  0.5197
  613MPD2    H3 9141   0.250   4.467  16.414  0.5720 -0.4981  0.0834
  613MPD2     N 9142   4.718   4.106  16.488  0.0528 -0.5599 -0.4429
  613MPD2    H5 9143   0.047   4.068  16.550 -0.1960  1.5549  1.1608
  613MPD2    N1 9144   4.648   4.405  16.125 -0.3483  0.1885  0.1158
  613MPD2    H7 9145   4.698   4.460  16.056  0.4358  0.0164  0.5417
  614TMC3    C1 9146   4.499   4.357  15.959 -0.3659 -0.3171 -0.2774
  614TMC3    C2 9147   4.580   4.280  15.888 -0.0999 -0.1070  0.5629
  614TMC3    C3 9148   4.528   4.200  15.789  0.0264 -0.3244 -0.5527
  614TMC3    C4 9149   4.363   4.373  15.922  0.1272  0.2899 -0.2917
  614TMC3    C5 9150   4.317   4.303  15.814 -0.3267  0.3928 -0.0799
  614TMC3    C6 9151   4.399   4.220  15.748  0.1017 -0.3924 -0.8125
  614TMC3     C 9152   4.528   4.356  16.096 -0.0647 -0.6108  0.4874
  614TMC3     O 9153   4.432   4.321  16.168  0.2966  0.3654 -0.0266
  614TMC3     H 9154   4.672   4.245  15.933  1.3698  1.5254 -1.2216
  614TMC3    H1 9155   4.299   4.430  15.988 -0.3676  0.0176 -0.5401
  614TMC3    H2 9156   4.363   4.171  15.659  2.2684 -1.1090 -1.3105
  614TMC3    C7 9157   4.206   4.368  15.751 -0.1977  0.6380 -0.3026
  614TMC3    C8 9158   4.574   4.060  15.810  0.4316 -0.4331  0.3218
  614TMC3    O1 9159   4.181   4.483  15.790  0.1854 -0.1129  0.2805
  614TMC3    O2 9160   4.689   4.045  15.844  0.2164  0.3609 -0.5953
  615MPD2     C 9161   3.930   0.860  15.385 -0.8072 -0.0519 -0.0357
  615MPD2    C1 9162   3.840   0.947  15.326 -0.0472 -0.0545 -0.6214
  615MPD2    C2 9163   3.741   0.887  15.242  0.5665 -0.1065 -0.9791
  615MPD2    C3 9164   3.748   0.756  15.205  0.2024 -0.0164 -0.1690
  615MPD2    C4 9165   3.842   0.674  15.263 -0.2211 -0.0805  0.3972
  615MPD2    C5 9166   3.925   0.724  15.357 -0.0924 -0.8423 -0.7838
  615MPD2     H 9167   3.668   0.951  15.193  1.6352 -0.6921 -3.3369
  615MPD2    H1 9168   3.831   0.567  15.248 -1.8874  0.0406  0.7552
  615MPD2    H2 9169   4.009   0.907  15.443 -2.7273  2.2369  0.7541
  615MPD2    H3 9170   3.999   0.662  15.408 -0.1006  1.7382  2.3565
  615MPD2     N 9171   3.665   0.682  15.122  0.2999 -0.2296 -0.5505
  615MPD2    H5 9172   3.685   0.585  15.099  2.9262 -0.2621  1.8286
  615MPD2    N1 9173   3.835   1.089  15.343  0.3138 -0.2955 -0.5583
  615MPD2    H7 9174   3.756   1.138  15.304  0.5097  1.3725  1.1606
  616TMC3    C1 9175   3.873   1.296  15.437  0.7391 -0.3781  0.2061
  616TMC3    C2 9176   3.935   1.365  15.533 -0.8331  0.0708  0.0806
  616TMC3    C3 9177   3.883   1.487  15.570 -0.5031 -0.2679 -0.0886
  616TMC3    C4 9178   3.760   1.339  15.365  0.3432  0.3640 -0.5386
  616TMC3    C5 9179   3.712   1.464  15.398  0.2121 -0.4974 -0.2488
  616TMC3    C6 9180   3.773   1.532  15.501 -0.2675 -0.2334  0.1417
  616TMC3     C 9181   3.909   1.157  15.433 -0.5352  0.1375 -0.0722
  616TMC3     O 9182   3.991   1.119  15.514 -0.2014 -0.2967  0.0521
  616TMC3     H 9183   4.023   1.333  15.587 -1.6299 -2.1184  0.0767
  616TMC3    H1 9184   3.723   1.289  15.276  2.0409 -3.7947  1.0808
  616TMC3    H2 9185   3.740   1.634  15.514  0.2135 -0.1831  0.9683
  616TMC3    C7 9186   3.611   1.532  15.317 -0.0474 -0.4144  0.4104
  616TMC3    C8 9187   3.956   1.581  15.657 -0.0888 -0.6665 -0.2176
  616TMC3    O1 9188   3.572   1.637  15.360 -0.0775 -0.1116  0.0239
  616TMC3    O2 9189   3.891   1.672  15.705 -0.4239 -0.1432  0.1280
  617MPD2     C 9190   1.952   3.955  13.631  0.2700  0.2516 -0.5181
  617MPD2    C1 9191   1.950   3.942  13.769  0.0711 -0.1114  0.0221
  617MPD2    C2 9192   1.829   3.888  13.822  0.2439 -0.2899  0.2053
  617MPD2    C3 9193   1.717   3.850  13.745  0.1900 -0.0134 -0.2766
  617MPD2    C4 9194   1.729   3.864  13.608  0.2031 -0.8176  0.2546
  617MPD2    C5 9195   1.845   3.918  13.555 -0.4341  1.4898  0.4526
  617MPD2     H 9196   1.822   3.877  13.929 -0.4998 -1.7221  0.0136
  617MPD2    H1 9197   1.655   3.829  13.537 -0.5563  2.9271 -0.8113
  617MPD2    H2 9198   2.042   3.997  13.587 -0.3600  1.3052 -0.8075
  617MPD2    H3 9199   1.851   3.925  13.447 -1.6518 -0.9613  0.2181
  617MPD2     N 9200   1.600   3.791  13.798  0.2932 -0.4454 -0.0221
  617MPD2    H5 9201   1.528   3.766  13.731  0.0663 -0.5877  0.2740
  617MPD2    N1 9202   2.053   3.997  13.847  0.4765 -0.1372 -0.6021
  617MPD2    H7 9203   2.134   4.036  13.800  1.0711  0.8152  1.1964
  618TMC3    C1 9204   2.163   4.095  14.015  0.2305 -0.2943 -0.1543
  618TMC3    C2 9205   2.268   4.044  14.082  0.0684 -0.4964  0.1362
  618TMC3    C3 9206   2.390   4.048  14.024 -0.7394  0.0082 -0.3732
  618TMC3    C4 9207   2.187   4.175  13.905  0.0645  0.5281 -0.6486
  618TMC3    C5 9208   2.309   4.181  13.853 -0.6391 -0.3312  0.9016
  618TMC3    C6 9209   2.422   4.117  13.910 -0.3191 -0.0679  0.1792
  618TMC3     C 9210   2.063   3.996  13.988 -0.5521 -0.0709  0.4851
  618TMC3     O 9211   2.002   3.945  14.077  0.3620  0.1594  0.4670
  618TMC3     H 9212   2.260   3.976  14.167 -0.9478 -1.0838 -0.4316
  618TMC3    H1 9213   2.108   4.238  13.866 -0.0513 -0.5325 -2.1591
  618TMC3    H2 9214   2.516   4.107  13.857 -0.5037  0.7004 -0.2891
  618TMC3    C7 9215   2.308   4.216  13.713 -0.4974 -0.3288  0.0448
  618TMC3    C8 9216   2.499   3.984  14.095  0.4161  0.3834  0.1088
  618TMC3    O1 9217   2.201   4.199  13.656  0.7645  0.3376 -0.1650
  618TMC3    O2 9218   2.527   4.034  14.202  0.1831 -0.4449 -0.2363
  619MPD2     C 9219   3.235   4.710  13.424 -0.8866  0.3203 -0.1136
  619MPD2    C1 9220   3.173   0.038  13.325 -0.2483 -0.5188  1.0772
  619MPD2    C2 9221   3.036   0.027  13.302  0.5986 -0.0835  0.4463
  619MPD2    C3 9222   2.957   4.693  13.381  1.0460 -0.4806  0.2490
  619MPD2    C4 9223   3.019   4.613  13.476  0.9887 -0.3167  0.5793
  619MPD2    C5 9224   3.152   4.626  13.496  0.6894  0.1815  0.2838
  619MPD2     H 9225   2.985   0.092  13.232  2.3758  1.7546  0.8609
  619MPD2    H1 9226   2.961   4.554  13.545  0.3246  0.1473  0.4156
  619MPD2    H2 9227   3.342   4.717  13.438 -0.8158  1.0422 -1.0652
  619MPD2    H3 9228   3.208   4.569  13.570  1.5174  0.3078 -0.2386
  619MPD2     N 9229   2.819   4.711  13.355 -0.9074  0.3153 -0.3016
  619MPD2    H5 9230   2.798   0.033  13.278 -2.7267  0.0379 -0.0555
  619MPD2    N1 9231   3.236   0.138  13.241 -0.7498  0.1741 -0.0087
  619MPD2    H7 9232   3.190   0.196  13.172 -0.2476 -1.1977 -1.4974
  620TMC3    C1 9233   3.406   0.244  13.128  0.7719 -0.0506  0.4093
  620TMC3    C2 9234   3.360   0.202  13.006 -0.0553  0.3323 -0.3844
  620TMC3    C3 9235   3.347   0.302  12.911  0.4465 -0.0938  0.0982
  620TMC3    C4 9236   3.461   0.367  13.155 -0.6438 -0.1912  0.4176
  620TMC3    C5 9237   3.457   0.460  13.057 -0.1278  0.2962 -0.5021
  620TMC3    C6 9238   3.409   0.424  12.931  0.4355  0.0975  0.3749
  620TMC3     C 9239   3.369   0.164  13.244  0.2820 -0.0937 -0.0770
  620TMC3     O 9240   3.457   0.122  13.314  0.0563  0.0074  0.0521
  620TMC3     H 9241   3.328   0.100  12.986  2.0690 -0.3609 -0.2140
  620TMC3    H1 9242   3.479   0.400  13.257 -0.4559 -0.5839  0.5082
  620TMC3    H2 9243   3.384   0.499  12.857  2.3899 -1.0210 -1.4398
  620TMC3    C7 9244   3.418   0.595  13.091  0.0148 -0.4862 -0.3303
  620TMC3    C8 9245   3.295   0.272  12.778 -0.8086  0.5769  0.3165
  620TMC3    O1 9246   3.356   0.654  13.007  0.0467  0.0306 -0.1383
  620TMC3    O2 9247   3.359   0.309  12.681  0.1955 -0.9458  0.5554
  621MPD2     C 9248   3.903   0.841   9.622  0.5881  0.2183  1.0776
  621MPD2    C1 9249   3.980   0.836   9.507  0.3314  0.4125  0.0286
  621MPD2    C2 9250   4.057   0.944   9.474  0.0853 -0.8112  0.2475
  621MPD2    C3 9251   4.066   1.059   9.546  0.5383 -0.1138  0.3255
  621MPD2    C4 9252   3.980   1.068   9.656  0.2744 -0.1032  0.1689
  621MPD2    C5 9253   3.903   0.959   9.691  0.1761 -0.1986 -0.2939
  621MPD2     H 9254   4.128   0.924   9.395 -0.3751 -1.2713 -0.0525
  621MPD2    H1 9255   3.970   1.159   9.714  0.3701 -0.1738  0.2958
  621MPD2    H2 9256   3.844   0.762   9.666  1.3469  0.0098  1.7206
  621MPD2    H3 9257   3.843   0.964   9.782  0.6373  0.8240 -0.0400
  621MPD2     N 9258   4.142   1.169   9.503 -0.2606  0.7321  0.1865
  621MPD2    H5 9259   4.180   1.165   9.409  0.1360  2.3773  0.2707
  621MPD2    N1 9260   3.992   0.720   9.429 -0.3461 -1.0830  0.2400
  621MPD2    H7 9261   4.052   0.735   9.348 -2.4978 -1.2303 -1.3560
  622TMC3    C1 9262   3.900   0.518   9.335  0.4825  0.7508 -0.0639
  622TMC3    C2 9263   3.810   0.415   9.352 -0.2752  0.6764  0.3035
  622TMC3    C3 9264   3.727   0.369   9.249 -0.1694  0.2839 -0.4507
  622TMC3    C4 9265   3.910   0.577   9.213  0.0392  0.7193  0.3030
  622TMC3    C5 9266   3.833   0.518   9.110 -0.4616 -0.5439  0.0663
  622TMC3    C6 9267   3.737   0.422   9.126  1.1390 -0.0141 -1.1530
  622TMC3     C 9268   3.914   0.604   9.450  0.1142 -0.2528 -1.2429
  622TMC3     O 9269   3.829   0.584   9.536  0.5267 -0.2908  0.3751
  622TMC3     H 9270   3.810   0.360   9.445  1.4821  0.4818  0.1981
  622TMC3    H1 9271   3.982   0.657   9.201  0.5621 -0.0132 -1.4576
  622TMC3    H2 9272   3.681   0.391   9.038 -0.9288  1.2961 -0.3291
  622TMC3    C7 9273   3.808   0.598   8.990 -0.6661  0.1303  0.1492
  622TMC3    C8 9274   3.585   0.369   9.290 -0.9724 -0.3711 -0.0547
  622TMC3    O1 9275   3.793   0.539   8.887 -0.8501  1.0144  0.3897
  622TMC3    O2 9276   3.499   0.361   9.201  0.0965 -0.4377 -0.2172
  623MPD2     C 9277   2.265   0.996  15.707  0.3141 -0.2323  0.4869
  623MPD2    C1 9278   2.225   0.959  15.834  0.2221  0.8829 -0.3217
  623MPD2    C2 9279   2.321   0.933  15.931 -0.1838  0.2846 -0.0367
  623MPD2    C3 9280   2.452   0.971  15.899  0.2962 -0.1714  0.1169
  623MPD2    C4 9281   2.487   0.999  15.769  0.5285  0.6659 -0.5444
  623MPD2    C5 9282   2.396   1.015  15.678  0.1794 -0.1190 -0.3372
  623MPD2     H 9283   2.293   0.922  16.036 -0.6212  2.9844  0.1352
  623MPD2    H1 9284   2.591   1.007  15.737  0.7768 -0.8835 -0.1346
  623MPD2    H2 9285   2.193   1.004  15.626  0.6724 -0.2962  0.1647
  623MPD2    H3 9286   2.426   1.039  15.576 -2.3569 -0.2960 -1.1195
  623MPD2     N 9287   2.550   0.966  15.997 -0.6734  0.0389  0.2440
  623MPD2    H5 9288   2.518   0.975  16.092  1.2528  0.3548  0.8667
  623MPD2    N1 9289   2.085   0.956  15.858  0.1537  0.3079  0.1673
  623MPD2    H7 9290   2.017   0.994  15.793 -0.3163  1.4824  1.3368
  624TMC3    C1 9291   2.837   0.846  16.252 -0.0041 -0.4544 -0.1096
  624TMC3    C2 9292   2.743   0.857  16.349  0.3127  0.0654  0.5838
  624TMC3    C3 9293   2.640   0.948  16.327  0.5147  0.1257  0.2102
  624TMC3    C4 9294   2.836   0.929  16.146  0.0211  0.2028  0.1693
  624TMC3    C5 9295   2.734   1.011  16.121 -0.1079  0.4014  0.2243
  624TMC3    C6 9296   2.642   1.039  16.222  0.0135  0.2734  0.2907
  624TMC3     C 9297   2.962   0.818  16.303 -0.2754 -0.2659  0.1685
  624TMC3     O 9298   3.049   0.899  16.283  0.0124  0.0925 -0.7572
  624TMC3     H 9299   2.734   0.800  16.441 -1.2278 -1.4660 -0.5356
  624TMC3    H1 9300   2.922   0.918  16.081  0.4832 -0.7690  0.9468
  624TMC3    H2 9301   2.558   1.106  16.204 -0.5207 -0.2062  0.9782
  624TMC3    C7 9302   2.682   0.995  15.989  0.0962 -0.0053 -0.2064
  624TMC3    C8 9303   2.522   0.937  16.409 -0.6466 -0.1140  0.4038
  624TMC3    O1 9304   2.759   1.021  15.897  0.3736  0.1914  0.4598
  624TMC3    O2 9305   2.505   0.827  16.454  0.0675 -0.0131  0.2104
  625MPD2     C 9306   3.217   2.389   1.008  0.4217  0.4826 -0.6084
  625MPD2    C1 9307   3.241   2.442   0.878 -0.0780 -0.1346  0.4669
  625MPD2    C2 9308   3.372   2.455   0.833  0.0354  0.2071 -0.3711
  625MPD2    C3 9309   3.478   2.428   0.920  0.0538 -0.5820  0.3119
  625MPD2    C4 9310   3.449   2.385   1.052  0.2636  0.1551  0.0677
  625MPD2    C5 9311   3.321   2.369   1.097 -0.4421 -0.6990 -0.6648
  625MPD2     H 9312   3.391   2.495   0.735  0.3294  0.4592 -0.2128
  625MPD2    H1 9313   3.526   2.389   1.128 -0.7882 -1.2038  1.1925
  625MPD2    H2 9314   3.124   2.368   1.060  0.7731  0.0244 -0.1672
  625MPD2    H3 9315   3.298   2.331   1.196 -1.1739 -3.1466 -1.7583
  625MPD2     N 9316   3.603   2.452   0.867 -0.0779  0.3133 -0.0542
  625MPD2    H5 9317   3.615   2.472   0.769 -0.0234  0.0200 -0.1055
  625MPD2    N1 9318   3.127   2.468   0.790 -0.6893 -0.5690  0.4719
  625MPD2    H7 9319   3.035   2.450   0.828 -0.4978 -1.5034  0.4769
  626TMC3    C1 9320   2.994   2.524   0.596  0.0657  0.5117 -0.8858
  626TMC3    C2 9321   2.972   2.628   0.507  0.1582 -0.8494  0.1103
  626TMC3    C3 9322   2.852   2.639   0.455  0.2797 -0.2519  0.0572
  626TMC3    C4 9323   2.894   2.434   0.634  0.0470 -0.2324  0.2968
  626TMC3    C5 9324   2.778   2.454   0.568  0.5676  0.1086 -0.3153
  626TMC3    C6 9325   2.753   2.545   0.478 -0.3970 -0.6081  0.3860
  626TMC3     C 9326   3.127   2.527   0.668 -0.2303  0.5018 -0.1862
  626TMC3     O 9327   3.221   2.580   0.607 -0.3977 -0.6388 -0.2595
  626TMC3     H 9328   3.049   2.704   0.500  0.2431 -0.9516 -0.0559
  626TMC3    H1 9329   2.913   2.358   0.709 -0.3433 -1.9266 -1.3285
  626TMC3    H2 9330   2.664   2.542   0.416 -0.9546 -1.5598  1.2248
  626TMC3    C7 9331   2.673   2.379   0.630  0.4089 -0.1395  0.2487
  626TMC3    C8 9332   2.830   2.744   0.351  0.0280  0.5593 -0.2722
  626TMC3    O1 9333   2.706   2.297   0.715 -0.2238  0.1092  0.3310
  626TMC3    O2 9334   2.935   2.799   0.312  0.4538  0.0885  0.2524
  627MPD2     C 9335   1.217   2.467  14.234 -0.3797 -0.0426  0.2277
  627MPD2    C1 9336   1.271   2.432  14.356  0.0243  0.3249 -0.2762
  627MPD2    C2 9337   1.221   2.320  14.431  0.1581 -0.8156  0.3043
  627MPD2    C3 9338   1.121   2.243  14.378 -0.2337  0.2093  0.7480
  627MPD2    C4 9339   1.072   2.272  14.256 -0.8569  0.5181  0.1545
  627MPD2    C5 9340   1.110   2.387  14.189 -0.2022 -0.7080 -0.1750
  627MPD2     H 9341   1.274   2.297  14.523 -0.4677  1.3661  1.2210
  627MPD2    H1 9342   0.994   2.216  14.206 -0.4753  1.9478 -2.0350
  627MPD2    H2 9343   1.257   2.550  14.175 -0.2363 -0.5154 -0.3393
  627MPD2    H3 9344   1.063   2.422  14.098  0.3569  1.5937  0.4293
  627MPD2     N 9345   1.077   2.126  14.446  0.1886 -0.2316  0.1912
  627MPD2    H5 9346   1.119   2.110  14.537 -0.4269 -0.4334  0.4381
  627MPD2    N1 9347   1.379   2.508  14.416 -0.3505  0.7509  0.3837
  627MPD2    H7 9348   1.407   2.475  14.508 -0.5963  0.7615  0.4620
  628TMC3    C1 9349   1.570   2.652  14.420 -0.1907  0.1643  0.6771
  628TMC3    C2 9350   1.615   2.584  14.531 -0.6918  0.2575  0.4761
  628TMC3    C3 9351   1.722   2.631  14.599 -0.2044 -0.0281  0.2826
  628TMC3    C4 9352   1.633   2.770  14.377 -0.6243  0.6990  0.0878
  628TMC3    C5 9353   1.737   2.810  14.448 -0.8276 -0.4056  0.5220
  628TMC3    C6 9354   1.788   2.744  14.562  0.2448 -0.5359  0.0220
  628TMC3     C 9355   1.448   2.611  14.349  0.3974  0.1478 -0.9310
  628TMC3     O 9356   1.436   2.660  14.237  0.2772 -0.2389 -0.3964
  628TMC3     H 9357   1.567   2.491  14.559 -0.3198 -0.2605 -0.5759
  628TMC3    H1 9358   1.601   2.813  14.282 -0.3066 -1.2845 -0.9235
  628TMC3    H2 9359   1.884   2.766  14.608  1.0745 -3.8696 -0.1226
  628TMC3    C7 9360   1.805   2.925  14.414  0.6590 -0.5365  0.1053
  628TMC3    C8 9361   1.799   2.540  14.680 -0.3480 -0.5055 -0.2243
  628TMC3    O1 9362   1.923   2.944  14.437  0.2424 -0.7090  0.1495
  628TMC3    O2 9363   1.887   2.594  14.745 -0.1587  0.1702 -0.1811
  629MPD2     C 9364   4.376   1.776  15.894  0.5382  0.1688 -0.1448
  629MPD2    C1 9365   4.401   1.643  15.862  0.3425 -0.5129 -0.1816
  629MPD2    C2 9366   4.300   1.567  15.808 -0.7401 -0.5251 -0.2981
  629MPD2    C3 9367   4.179   1.624  15.776  0.5790  0.0473  0.7548
  629MPD2    C4 9368   4.156   1.757  15.805 -0.1446  0.0883  0.4032
  629MPD2    C5 9369   4.250   1.823  15.876  0.0551  0.2850  0.6887
  629MPD2     H 9370   4.304   1.462  15.783  0.1256 -0.3115 -1.0558
  629MPD2    H1 9371   4.062   1.810  15.792 -1.7538 -2.6794  0.7442
  629MPD2    H2 9372   4.442   1.838  15.954 -2.5943  1.5748  1.8370
  629MPD2    H3 9373   4.246   1.930  15.894 -0.5474  0.3284  0.3005
  629MPD2     N 9374   4.083   1.541  15.707 -0.1361  0.0400 -0.2908
  629MPD2    H5 9375   4.111   1.446  15.686 -0.1726  0.0760 -0.5096
  629MPD2    N1 9376   4.533   1.590  15.875  0.1609  0.4298  0.3496
  629MPD2    H7 9377   4.603   1.659  15.901 -0.3550  0.9547  0.3437
  630TMC3    C1 9378   4.720   1.453  15.868 -0.3727 -0.1440 -0.7611
  630TMC3    C2 9379   0.053   1.562  15.839  0.0887  0.5014 -0.0890
  630TMC3    C3 9380   0.179   1.550  15.882 -0.4758 -0.2476  0.5763
  630TMC3    C4 9381   0.023   1.339  15.922  0.2237  0.3286  0.5826
  630TMC3    C5 9382   0.145   1.337  15.976  0.5695 -0.6413 -0.6849
  630TMC3    C6 9383   0.225   1.446  15.963  0.3500  0.2872 -0.6630
  630TMC3     C 9384   4.576   1.459  15.863 -0.3591 -0.1065 -0.0788
  630TMC3     O 9385   4.507   1.360  15.847  0.0332  0.3321  0.3867
  630TMC3     H 9386   0.011   1.651  15.793 -1.1385  0.6413  1.2875
  630TMC3    H1 9387   4.689   1.279  15.973  0.9745 -0.2038  1.0567
  630TMC3    H2 9388   0.320   1.454  16.014 -0.1773 -3.7517  1.0236
  630TMC3    C7 9389   0.147   1.292  16.111  0.3814  0.3422  0.0273
  630TMC3    C8 9390   0.269   1.664  15.866  0.4243 -0.0259  0.7889
  630TMC3    O1 9391   0.152   1.384  16.187  0.5963 -0.1673  0.0634
  630TMC3    O2 9392   0.340   1.692  15.963 -0.7279 -0.1106  0.0471
  631MPD2     C 9393   2.745   0.872  15.095  0.8413  0.9076  0.5748
  631MPD2    C1 9394   2.827   0.970  15.051 -0.4758 -0.4353  0.7280
  631MPD2    C2 9395   2.945   0.937  14.992 -0.6124 -0.5898 -0.1495
  631MPD2    C3 9396   2.989   0.806  14.984  0.7941  0.4525  0.5927
  631MPD2    C4 9397   2.902   0.710  15.030 -0.0922 -0.4837 -0.5778
  631MPD2    C5 9398   2.786   0.741  15.087  0.6667  0.0770  0.3526
  631MPD2     H 9399   3.006   1.008  14.938 -0.7696 -0.4557 -0.1508
  631MPD2    H1 9400   2.925   0.605  15.015 -1.2735 -1.1981  2.5538
  631MPD2    H2 9401   2.660   0.901  15.157 -0.3952 -1.0628 -0.1912
  631MPD2    H3 9402   2.730   0.662  15.135 -2.0797  2.1939  0.6423
  631MPD2     N 9403   3.109   0.760  14.923 -0.0010  0.1557 -0.0903
  631MPD2    H5 9404   3.160   0.839  14.883 -0.8896  1.4307  1.3066
  631MPD2    N1 9405   2.781   1.106  15.060 -0.1990 -0.3772 -0.8259
  631MPD2    H7 9406   2.719   1.133  15.135  0.6017  0.7188 -0.5661
  632TMC3    C1 9407   2.766   1.335  15.017  0.0589 -0.4200 -0.2315
  632TMC3    C2 9408   2.648   1.354  15.074  0.1265 -0.3293  0.4531
  632TMC3    C3 9409   2.595   1.481  15.079 -0.1940  1.1957 -0.7163
  632TMC3    C4 9410   2.839   1.439  14.966  0.5083 -0.0505 -0.6241
  632TMC3    C5 9411   2.781   1.562  14.966  0.3024 -0.4424  0.0902
  632TMC3    C6 9412   2.654   1.581  15.007  0.4789 -0.1468  0.3521
  632TMC3     C 9413   2.815   1.203  14.980  0.0427  0.1090  0.6310
  632TMC3     O 9414   2.903   1.204  14.894  0.0230  0.1898 -0.3380
  632TMC3     H 9415   2.599   1.272  15.126 -0.6606 -0.4962 -0.5322
  632TMC3    H1 9416   2.938   1.425  14.924 -0.0992  0.4788 -2.2447
  632TMC3    H2 9417   2.602   1.675  14.989 -0.4050 -0.6331  0.3710
  632TMC3    C7 9418   2.842   1.677  14.906  0.0130  0.4095 -0.2905
  632TMC3    C8 9419   2.462   1.493  15.127 -0.6078 -0.7509 -0.2311
  632TMC3    O1 9420   2.806   1.787  14.934 -0.3394 -0.4446  0.2487
  632TMC3    O2 9421   2.432   1.433  15.226  0.2092 -0.6238  0.3972
  633MPD2     C 9422   2.821   4.302  17.506 -0.5420 -0.2610  0.5645
  633MPD2    C1 9423   2.851   4.207  17.411  0.1877 -0.3520  0.4876
  633MPD2    C2 9424   2.949   4.117  17.445  1.2857 -1.1505 -0.2179
  633MPD2    C3 9425   3.027   4.131  17.561 -0.0160 -0.3175  0.7911
  633MPD2    C4 9426   2.993   4.233  17.649 -0.2708  0.0972  0.2702
  633MPD2    C5 9427   2.884   4.308  17.627  0.3918 -0.6376  0.1415
  633MPD2     H 9428   2.977   4.051  17.364 -2.9139 -1.0555 -1.7277
  633MPD2    H1 9429   3.048   4.247  17.742  0.3418  1.2586 -0.2685
  633MPD2    H2 9430   2.749   4.377  17.477  0.8866  0.4219 -1.1939
  633MPD2    H3 9431   2.864   4.390  17.695  0.5169 -1.9652  1.7751
  633MPD2     N 9432   3.134   4.042  17.574  0.6930 -0.1550  0.2772
  633MPD2    H5 9433   3.155   3.989  17.491 -0.3774  0.4667 -0.3869
  633MPD2    N1 9434   2.799   4.193  17.280  0.3281  0.5723  0.2422
  633MPD2    H7 9435   2.818   4.108  17.228 -0.8996 -0.4060  1.3895
  634TMC3    C1 9436   2.686   4.259  17.082 -0.1402 -0.2742  0.3671
  634TMC3    C2 9437   2.691   4.123  17.047 -0.5324  0.1461 -0.2629
  634TMC3    C3 9438   2.692   4.094  16.914 -0.0327 -0.4822 -0.3590
  634TMC3    C4 9439   2.686   4.359  16.986 -0.4395  0.3873  0.3908
  634TMC3    C5 9440   2.702   4.327  16.852  0.4944 -0.4034  0.1439
  634TMC3    C6 9441   2.700   4.193  16.812  0.1799  0.0697  0.1335
  634TMC3     C 9442   2.736   4.299  17.214 -0.2980 -0.4268 -0.3313
  634TMC3     O 9443   2.729   4.415  17.253 -0.0975 -0.1031  0.5539
  634TMC3     H 9444   2.696   4.037  17.113 -1.4240 -0.5548 -1.1075
  634TMC3    H1 9445   2.726   4.453  17.021 -1.2623  0.1695  1.9298
  634TMC3    H2 9446   2.736   4.179  16.711  1.5516 -3.2059  1.0968
  634TMC3    C7 9447   2.697   4.423  16.736  0.1137  0.4152 -1.1540
  634TMC3    C8 9448   2.711   3.957  16.862  0.2154  0.3320  0.0907
  634TMC3    O1 9449   2.703   4.374  16.623  0.6199  0.4836  0.2931
  634TMC3    O2 9450   2.792   3.889  16.917 -0.2801  0.1999 -0.1475
  635TMC3    C1 9451   3.025   0.428  17.277  0.5861 -0.3863  0.2336
  635TMC3    C2 9452   3.074   0.310  17.216 -0.0419 -0.2133  0.2995
  635TMC3    C3 9453   3.039   0.192  17.269 -0.1032 -0.0468  0.1274
  635TMC3    C4 9454   2.934   0.421  17.373  0.1940 -0.3220  0.3171
  635TMC3    C5 9455   2.906   0.302  17.435 -0.2275  0.3872  0.3984
  635TMC3    C6 9456   2.961   0.181  17.388  0.1511 -0.7704  0.3333
  635TMC3     C 9457   3.139   0.513  17.317  0.9063 -0.7543 -0.6313
  635TMC3     O 9458   3.109   0.622  17.367 -0.3793  0.2125  0.1767
  635TMC3     H 9459   3.144   0.306  17.134 -0.2262  1.2858  0.0649
  635TMC3    H1 9460   2.891   0.512  17.414 -0.0282 -1.0120  1.6335
  635TMC3    H2 9461   2.927   0.083  17.419 -0.3769 -1.0537 -1.1355
  635TMC3    C7 9462   2.829   0.304  17.559  0.2230 -0.7111 -0.5460
  635TMC3    C8 9463   3.144   0.097  17.250  0.4403 -0.1625 -0.1738
  635TMC3    O1 9464   2.808   0.408  17.616 -0.3216 -0.4355  0.0641
  635TMC3    O2 9465   3.257   0.139  17.249  0.4927  0.1971 -1.0309
  636MPD2     C 9466   4.079   4.041  16.010 -0.0084  0.7438 -0.2615
  636MPD2    C1 9467   4.141   4.121  16.111 -0.8381  0.0995  0.5422
  636MPD2    C2 9468   4.219   4.063  16.207  0.0824  0.7961  0.0170
  636MPD2    C3 9469   4.242   3.924  16.214  0.4955  0.0957 -0.6922
  636MPD2    C4 9470   4.189   3.848  16.116 -0.3304  0.3709  0.2872
  636MPD2    C5 9471   4.103   3.905  16.025 -0.3026  0.0935 -0.6179
  636MPD2     H 9472   4.261   4.122  16.287  0.0939 -0.0057  0.6023
  636MPD2    H1 9473   4.219   3.743  16.116  0.4101  0.5793  0.5536
  636MPD2    H2 9474   4.003   4.072  15.939  1.4604  2.7904 -0.9430
  636MPD2    H3 9475   4.061   3.842  15.948 -2.5123  0.1386  0.5620
  636MPD2     N 9476   4.316   3.878  16.327  0.3308  0.2559 -0.4986
  636MPD2    H5 9477   4.381   3.946  16.365 -1.6950  1.6045  0.5907
  636MPD2    N1 9478   4.117   4.264  16.117 -0.3808  0.3903 -0.1759
  636MPD2    H7 9479   4.169   4.317  16.185  1.1848 -0.8945 -0.3704
  637TMC3    C1 9480   4.445   3.727  16.452  0.3201  0.2912 -0.8693
  637TMC3    C2 9481   4.474   3.848  16.511 -0.1866  0.0483 -1.4619
  637TMC3    C3 9482   4.601   3.901  16.493 -0.6570 -0.3493 -0.3421
  637TMC3    C4 9483   4.540   3.656  16.384 -0.1746 -0.1666  0.3523
  637TMC3    C5 9484   4.661   3.712  16.360 -0.4482  0.3685 -0.7563
  637TMC3    C6 9485   4.698   3.829  16.430 -0.3687 -0.7658 -0.4989
  637TMC3     C 9486   4.334   3.747  16.368 -0.3863 -0.2994  0.1479
  637TMC3     O 9487   4.288   3.650  16.315  0.7944  0.5375  0.5931
  637TMC3     H 9488   4.397   3.911  16.555 -0.9871 -1.3981 -0.8167
  637TMC3    H1 9489   4.506   3.563  16.340 -0.3831  0.6806 -1.2757
  637TMC3    H2 9490   0.047   3.881  16.400 -0.3669  0.3058  1.3728
  637TMC3    C7 9491   4.690   3.718  16.214 -0.1773  0.4549 -0.2898
  637TMC3    C8 9492   4.599   4.045  16.469  0.0796 -0.3422 -0.0558
  637TMC3    O1 9493   0.016   3.811  16.184 -0.3253 -0.0801 -0.3269
  637TMC3    O2 9494   4.494   4.088  16.426 -0.7791  0.4347  0.0680
  638MPD2     C 9495   4.171   3.203  14.809 -0.6699 -0.4004 -0.2141
  638MPD2    C1 9496   4.075   3.146  14.725  0.6796 -0.0690 -0.1626
  638MPD2    C2 9497   3.990   3.054  14.773 -0.2035  0.1164 -0.3756
  638MPD2    C3 9498   3.999   3.010  14.906  0.6156 -0.4856 -0.3952
  638MPD2    C4 9499   4.089   3.077  14.991 -0.8908 -0.3612 -0.1202
  638MPD2    C5 9500   4.177   3.165  14.939  0.1412  0.0725  0.3128
  638MPD2     H 9501   3.919   3.010  14.705 -0.4459  0.6579 -0.4724
  638MPD2    H1 9502   4.109   3.043  15.092  0.9111  0.1904 -0.3042
  638MPD2    H2 9503   4.251   3.267  14.774 -0.8306 -0.7812 -1.2601
  638MPD2    H3 9504   4.254   3.204  15.004  1.6444  0.5677 -1.7572
  638MPD2     N 9505   3.913   2.906  14.948  0.2586  0.1388 -0.4073
  638MPD2    H5 9506   3.841   2.874  14.884 -0.2334 -0.5347  0.4646
  638MPD2    N1 9507   4.077   3.191  14.589  0.4274  0.5403 -0.3963
  638MPD2    H7 9508   4.161   3.244  14.566  0.6914  0.0458 -0.5562
  639TMC3    C1 9509   3.844   2.724  15.074  0.2038  0.3688 -0.0675
  639TMC3    C2 9510   3.781   2.674  14.965 -0.4240  0.1208  0.7775
  639TMC3    C3 9511   3.712   2.557  14.984 -0.1220  0.4746 -0.1046
  639TMC3    C4 9512   3.850   2.655  15.195  0.0522 -1.1368  0.1102
  639TMC3    C5 9513   3.791   2.533  15.208 -0.5831 -0.0320 -0.2472
  639TMC3    C6 9514   3.716   2.479  15.103 -0.1502 -0.0168 -0.3269
  639TMC3     C 9515   3.915   2.849  15.069 -0.6140 -0.1710  0.5560
  639TMC3     O 9516   3.979   2.875  15.168 -0.0330  0.3031 -0.1941
  639TMC3     H 9517   3.783   2.713  14.864  1.8299  0.4133  0.9439
  639TMC3    H1 9518   3.927   2.689  15.264  0.5595  0.7054 -1.3633
  639TMC3    H2 9519   3.647   2.397  15.120  1.2188 -1.1370 -0.1485
  639TMC3    C7 9520   3.876   2.434  15.265  1.0009 -0.1889  0.7995
  639TMC3    C8 9521   3.652   2.490  14.874 -0.2481 -0.5396 -1.0948
  639TMC3    O1 9522   3.817   2.345  15.326  0.2885 -0.2417 -0.3237
  639TMC3    O2 9523   3.715   2.494  14.770  0.1039  0.2917 -0.2585
  640MPD2     C 9524   0.091   2.412   9.872  0.5113 -0.2868 -0.9988
  640MPD2    C1 9525   0.096   2.454   9.740  0.1596 -0.1571 -0.5579
  640MPD2    C2 9526   4.729   2.521   9.692 -0.5922  0.5910  0.0726
  640MPD2    C3 9527   4.626   2.548   9.776 -0.6240 -0.1096 -0.2173
  640MPD2    C4 9528   4.639   2.520   9.909  0.0616 -0.0187  0.0151
  640MPD2    C5 9529   4.739   2.448   9.961 -0.7651 -0.2737  0.3326
  640MPD2     H 9530   4.716   2.558   9.591  0.5845  3.1459  0.8781
  640MPD2    H1 9531   4.554   2.539   9.973 -0.2526 -0.5831 -0.2291
  640MPD2    H2 9532   0.161   2.339   9.911  0.4614  0.3538  0.2833
  640MPD2    H3 9533   0.001   2.412  10.063  0.7825  0.2454  0.4644
  640MPD2     N 9534   4.515   2.626   9.734  0.1572 -0.5481  0.0692
  640MPD2    H5 9535   4.453   2.648   9.811  0.1608  0.1868 -0.1377
  640MPD2    N1 9536   0.208   2.409   9.665 -0.0716  0.0663  0.1530
  640MPD2    H7 9537   0.277   2.358   9.721 -0.4492  0.1751  0.7166
  641TMC3    C1 9538   0.350   2.363   9.478  0.1393 -0.2622 -0.4524
  641TMC3    C2 9539   0.398   2.266   9.549  0.8518  0.1348  0.4575
  641TMC3    C3 9540   0.521   2.218   9.511 -0.2223 -0.0172 -0.0012
  641TMC3    C4 9541   0.404   2.403   9.356  0.0675  0.2252  0.3296
  641TMC3    C5 9542   0.532   2.364   9.326 -0.0109 -0.6296 -0.0220
  641TMC3    C6 9543   0.588   2.267   9.400  0.8113 -0.3267  0.0610
  641TMC3     C 9544   0.233   2.433   9.531 -0.7052  0.0856 -0.4658
  641TMC3     O 9545   0.174   2.514   9.463 -0.5238  0.6298 -0.1728
  641TMC3     H 9546   0.336   2.231   9.631  0.4895 -0.0719  0.0972
  641TMC3    H1 9547   0.351   2.486   9.312 -0.1042 -1.9242 -3.5123
  641TMC3    H2 9548   0.682   2.221   9.373  1.5467  1.3783 -0.2579
  641TMC3    C7 9549   0.612   2.447   9.240  0.7983  0.1326  0.5570
  641TMC3    C8 9550   0.568   2.090   9.561  1.4302  0.2810  0.1458
  641TMC3    O1 9551   0.732   2.433   9.254 -0.2748  0.3220  0.0377
  641TMC3    O2 9552   0.653   2.027   9.497 -0.1376  0.5309 -0.1018
  642TMC3    C1 9553   0.350   2.974  12.394 -0.3292 -0.1794 -0.5058
  642TMC3    C2 9554   0.486   2.980  12.406 -0.5762 -0.2522 -0.6728
  642TMC3    C3 9555   0.567   2.931  12.303 -0.0487  0.1476 -0.6750
  642TMC3    C4 9556   0.290   2.915  12.285 -0.0395  0.3176 -0.7143
  642TMC3    C5 9557   0.368   2.862  12.190  0.5831  0.1826 -0.4722
  642TMC3    C6 9558   0.508   2.882  12.191 -0.3568 -0.4856 -0.1228
  642TMC3     C 9559   0.268   3.053  12.483 -0.4731 -0.6998  0.2629
  642TMC3     O 9560   0.332   3.115  12.566  0.1303 -0.3929  0.7810
  642TMC3     H 9561   0.533   3.028  12.491 -0.4202 -0.5853 -0.5703
  642TMC3    H1 9562   0.183   2.907  12.269  0.6146 -4.7751 -2.4007
  642TMC3    H2 9563   0.567   2.831  12.116 -0.7332 -0.7583 -0.2350
  642TMC3    C7 9564   0.321   2.748  12.121 -0.3024  0.6822 -0.0317
  642TMC3    C8 9565   0.702   2.906  12.329 -0.1120 -0.0780 -0.0939
  642TMC3    O1 9566   0.371   2.728  12.010 -0.5787  0.0309 -0.5971
  642TMC3    O2 9567   0.779   2.900  12.229 -0.0498  0.3139  0.4092
  643TMC3    C1 9568   4.586   2.153   0.203 -0.4117 -0.0149  0.3572
  643TMC3    C2 9569   4.462   2.128   0.158  0.5455  0.4987 -0.7916
  643TMC3    C3 9570   4.439   2.059   0.044 -0.2217 -1.1723 -0.5060
  643TMC3    C4 9571   4.695   2.122   0.134 -0.0843  0.4418 -0.3143
  643TMC3    C5 9572   4.680   2.051   0.015  0.8313  0.2363  0.4707
  643TMC3    C6 9573   4.549   2.016  17.734 -1.0346  0.5735  0.2502
  643TMC3     C 9574   4.599   2.275   0.286 -0.0687 -0.3533  0.1202
  643TMC3     O 9575   4.524   2.369   0.262  0.1178 -0.9996 -0.0914
  643TMC3     H 9576   4.375   2.164   0.212 -0.0102  0.0055 -1.3599
  643TMC3    H1 9577   0.043   2.177   0.160  0.4891  0.0958 -1.5308
  643TMC3    H2 9578   4.535   1.995  17.629 -1.4353 -0.7101  0.5615
  643TMC3    C7 9579   0.022   2.111  17.672  0.1470 -0.1992 -0.0679
  643TMC3    C8 9580   4.351   2.129  17.725 -0.6393  0.6344 -0.1251
  643TMC3    O1 9581   0.075   2.216  17.708 -0.0976  0.0667 -0.1814
  643TMC3    O2 9582   4.298   2.070  17.632  0.5921 -0.1917  0.0878
  644MPD2     C 9583   0.284   2.958   9.136 -0.2727  0.5208  0.1839
  644MPD2    C1 9584   0.336   2.861   9.222  0.2734  0.1464  0.6282
  644MPD2    C2 9585   0.264   2.741   9.233 -0.3592  0.3763 -0.0078
  644MPD2    C3 9586   0.139   2.721   9.168 -0.1095  0.6324 -0.1487
  644MPD2    C4 9587   0.094   2.821   9.078 -0.3402 -0.4888 -0.4012
  644MPD2    C5 9588   0.171   2.934   9.061  0.5348 -0.4003 -0.2472
  644MPD2     H 9589   0.302   2.665   9.301  0.5351 -0.3782 -1.3388
  644MPD2    H1 9590   4.733   2.826   9.040 -0.2357 -2.6769 -0.9527
  644MPD2    H2 9591   0.345   3.045   9.114 -1.2582  1.1443 -0.0726
  644MPD2    H3 9592   0.142   3.017   8.999  1.7473 -0.3104 -0.7015
  644MPD2     N 9593   0.077   2.598   9.177 -0.0827  0.4170  0.3001
  644MPD2    H5 9594   0.122   2.528   9.236  2.3830  2.0430  0.3343
  644MPD2    N1 9595   0.452   2.890   9.289  0.2671 -0.0503 -0.2833
  644MPD2    H7 9596   0.485   2.984   9.268  2.0449 -0.6776 -0.3348
  645TMC3    C1 9597   4.671   2.418   9.128  0.6123  0.0110  0.0540
  645TMC3    C2 9598   4.663   2.354   9.005  0.9575  0.5609  0.2404
  645TMC3    C3 9599   4.696   2.220   9.002  0.1120 -0.6410 -0.4813
  645TMC3    C4 9600   4.720   2.355   9.237 -0.1472  0.0524  0.7449
  645TMC3    C5 9601   0.011   2.223   9.228  0.7325 -0.1398  0.7378
  645TMC3    C6 9602   0.004   2.155   9.112  0.3647 -0.5126  0.6768
  645TMC3     C 9603   4.700   2.565   9.114 -0.0587  0.7264  0.4971
  645TMC3     O 9604   4.617   2.626   9.057 -0.5300 -0.3674  0.3285
  645TMC3     H 9605   4.619   2.404   8.920  1.5450  0.3672 -0.1742
  645TMC3    H1 9606   4.734   2.414   9.327 -0.5475  1.8501 -0.3766
  645TMC3    H2 9607   0.033   2.051   9.103 -0.3123 -0.2683 -4.1522
  645TMC3    C7 9608   0.079   2.163   9.337  0.1769  0.2217  0.4432
  645TMC3    C8 9609   4.632   2.138   8.900 -0.3709  0.1338 -0.8081
  645TMC3    O1 9610   0.182   2.104   9.319  0.6042  0.3347 -0.1115
  645TMC3    O2 9611   4.522   2.173   8.855 -0.6887  0.0211  0.4911
  646MPD2     C 9612   4.112   1.897  14.437 -0.1941  0.5329  0.3689
  646MPD2    C1 9613   3.999   1.878  14.517 -0.8142 -0.1518 -0.4345
  646MPD2    C2 9614   3.879   1.918  14.460  0.1225  0.1077  0.1827
  646MPD2    C3 9615   3.874   1.962  14.328 -0.3817  0.1836 -0.1534
  646MPD2    C4 9616   3.990   1.996  14.259 -0.2759  0.0861  0.0412
  646MPD2    C5 9617   4.107   1.957  14.318  0.1833  0.5865 -0.0442
  646MPD2     H 9618   3.784   1.906  14.509  0.7133 -0.0793  1.2817
  646MPD2    H1 9619   3.995   2.029  14.155 -0.1756  1.8034  0.5960
  646MPD2    H2 9620   4.206   1.871  14.485 -1.2854 -1.5918  1.3574
  646MPD2    H3 9621   4.196   1.970  14.257 -0.6360  0.0686 -1.3421
  646MPD2     N 9622   3.748   2.000  14.274  0.0407  0.7330 -0.1537
  646MPD2    H5 9623   3.667   1.979  14.331  0.5880 -1.4286 -0.1744
  646MPD2    N1 9624   4.005   1.809  14.636 -0.0973 -0.7309 -0.0002
  646MPD2    H7 9625   4.093   1.768  14.664  0.3222  0.5286  0.5240
  647TMC3    C1 9626   3.942   1.707  14.839 -0.1228 -0.4648  0.2897
  647TMC3    C2 9627   3.854   1.618  14.889  0.1717  0.2850  0.4406
  647TMC3    C3 9628   3.894   1.529  14.984 -0.3214  0.1084  0.1970
  647TMC3    C4 9629   4.073   1.686  14.862  0.0583  0.0936  0.3741
  647TMC3    C5 9630   4.113   1.600  14.961 -0.1450 -0.3148  1.1523
  647TMC3    C6 9631   4.025   1.531  15.029  0.2955 -0.1694 -0.4742
  647TMC3     C 9632   3.898   1.784  14.722 -0.3461 -0.7330 -0.2006
  647TMC3     O 9633   3.776   1.784  14.702  0.6703 -0.0709 -0.0248
  647TMC3     H 9634   3.753   1.624  14.851  0.1595 -0.2274  0.3952
  647TMC3    H1 9635   4.145   1.756  14.821 -0.7476  1.6882  1.6708
  647TMC3    H2 9636   4.044   1.463  15.111  0.6336  1.6670  0.9638
  647TMC3    C7 9637   4.227   1.523  14.934 -0.6252 -0.6617  0.0361
  647TMC3    C8 9638   3.868   1.384  14.964 -0.5026  0.0259 -0.2720
  647TMC3    O1 9639   4.303   1.536  15.026  0.1660  0.3387  0.2166
  647TMC3    O2 9640   3.875   1.313  15.063 -0.0867  0.2306 -0.3252
  648TMC3    C1 9641   3.300   3.991  16.143  0.9231 -0.0231 -0.0345
  648TMC3    C2 9642   3.319   3.855  16.119 -0.4698 -0.3061 -0.1700
  648TMC3    C3 9643   3.347   3.824  15.991  0.4537  0.2863  0.0184
  648TMC3    C4 9644   3.309   4.089  16.049  0.0267  0.2595  0.7217
  648TMC3    C5 9645   3.324   4.050  15.919  0.6231  0.9895 -0.1492
  648TMC3    C6 9646   3.353   3.917  15.890 -0.2728  0.0209  0.4796
  648TMC3     C 9647   3.300   4.043  16.282  0.2905  0.4970 -0.0618
  648TMC3     O 9648   3.346   4.157  16.305 -0.0706 -0.7264 -0.1544
  648TMC3     H 9649   3.319   3.782  16.199  1.9720  0.4181  0.5017
  648TMC3    H1 9650   3.302   4.193  16.080 -1.2291  0.7198 -1.1412
  648TMC3    H2 9651   3.352   3.886  15.786 -0.8893  0.9805  0.2012
  648TMC3    C7 9652   3.273   4.133  15.810  0.6450 -0.2713 -0.4745
  648TMC3    C8 9653   3.362   3.688  15.950  0.4069  0.7659  0.6865
  648TMC3    O1 9654   3.281   4.091  15.695  0.5634 -0.0195  0.2959
  648TMC3    O2 9655   3.324   3.602  16.027 -0.4446  0.2369  0.1365
  649TMC3    C1 9656   2.436   0.715  12.484 -0.2382 -0.2456 -0.0958
  649TMC3    C2 9657   2.561   0.720  12.545  0.9493 -0.1231  0.0086
  649TMC3    C3 9658   2.574   0.652  12.663  0.2736  0.7380 -0.1640
  649TMC3    C4 9659   2.329   0.651  12.541  0.9802  0.4820  0.2878
  649TMC3    C5 9660   2.348   0.586  12.660 -0.2556 -0.6656  0.2130
  649TMC3    C6 9661   2.464   0.594  12.727 -0.0802 -0.2940  0.0552
  649TMC3     C 9662   2.410   0.770  12.352 -0.4603  0.1757  0.5599
  649TMC3     O 9663   2.310   0.730  12.296 -0.4113 -0.4306 -0.0104
  649TMC3     H 9664   2.644   0.768  12.493  0.9851  0.2234  0.3854
  649TMC3    H1 9665   2.227   0.658  12.504  0.8940  0.9028  0.6017
  649TMC3    H2 9666   2.473   0.552  12.827  1.4086 -1.5579 -0.6021
  649TMC3    C7 9667   2.232   0.515  12.716  0.1013  0.0297  0.6839
  649TMC3    C8 9668   2.694   0.654  12.742 -0.8615  0.4918  0.4098
  649TMC3    O1 9669   2.121   0.536  12.661 -1.0844 -0.8506 -0.0061
  649TMC3    O2 9670   2.687   0.590  12.846 -0.8384  1.1051 -0.2591
  650TMC3    C1 9671   4.562   2.257  12.046 -0.9630  0.2356  0.2674
  650TMC3    C2 9672   4.534   2.272  12.186 -0.3830  0.1891 -0.1152
  650TMC3    C3 9673   4.539   2.389  12.239  0.2680 -0.2701 -0.4262
  650TMC3    C4 9674   4.601   2.364  11.972 -0.0853  0.0544  0.7092
  650TMC3    C5 9675   4.626   2.484  12.038 -0.6668 -0.3713  0.1795
  650TMC3    C6 9676   4.588   2.502  12.169  0.2411 -0.5796 -0.0671
  650TMC3     C 9677   4.583   2.128  11.983  0.6962 -0.3051 -0.3775
  650TMC3     O 9678   4.604   2.123  11.864  1.0020  0.5546  0.0726
  650TMC3     H 9679   4.509   2.198  12.262  0.8753  1.2459  1.3279
  650TMC3    H1 9680   4.636   2.351  11.870 -1.0662  0.0646  0.3629
  650TMC3    H2 9681   4.590   2.599  12.217 -1.0535  0.5929 -2.3459
  650TMC3    C7 9682   4.684   2.595  11.960  0.1444  0.5675  0.0011
  650TMC3    C8 9683   4.491   2.419  12.379  0.0775  0.7760  0.3105
  650TMC3    O1 9684   4.724   2.569  11.847 -0.3479  0.5668 -0.1232
  650TMC3    O2 9685   4.552   2.500  12.444 -0.0226 -0.5476  0.0158
  651MPD2     C 9686   3.823   4.540   9.968 -0.0563  0.6359  0.8087
  651MPD2    C1 9687   3.787   4.672   9.988 -0.4594 -0.5379  0.4316
  651MPD2    C2 9688   3.885   0.025   9.998 -0.6723  0.0527  0.7032
  651MPD2    C3 9689   4.015   4.732   9.987  0.3108 -0.7120  0.2316
  651MPD2    C4 9690   4.055   4.606   9.968  0.1420 -0.1345  0.3378
  651MPD2    C5 9691   3.958   4.511   9.960 -0.8500  0.2680  1.0023
  651MPD2     H 9692   3.859   0.129  10.011  4.4715  1.3346  0.5060
  651MPD2    H1 9693   4.150   4.569   9.934 -0.1919 -1.3367  0.7061
  651MPD2    H2 9694   3.759   4.454   9.958 -0.3843  1.0520 -0.6372
  651MPD2    H3 9695   3.976   4.406   9.944 -0.8539  0.2753  0.9515
  651MPD2     N 9696   4.111   0.087  10.012  0.1680 -0.3069  0.1811
  651MPD2    H5 9697   4.072   0.180  10.028  1.6387  0.4170 -0.4279
  651MPD2    N1 9698   3.657   4.716   9.992 -0.0705 -0.0115 -0.2027
  651MPD2    H7 9699   3.636   0.074  10.006 -2.2077 -0.2245 -1.8304
  652TMC3    C1 9700   4.524   0.267  10.146  0.7773  0.0695  0.6453
  652TMC3    C2 9701   4.438   0.163  10.136  0.0671  0.1218  1.4033
  652TMC3    C3 9702   4.312   0.185  10.078 -0.3670 -0.4052 -0.9719
  652TMC3    C4 9703   4.483   0.400  10.108 -0.4029 -0.8197 -0.1328
  652TMC3    C5 9704   4.360   0.416  10.047 -0.3130 -0.0360  0.0354
  652TMC3    C6 9705   4.274   0.311  10.030  0.0088  1.1559  0.2486
  652TMC3     C 9706   4.637   0.248  10.236 -0.5638 -0.7442  0.2938
  652TMC3     O 9707   4.621   0.172  10.330 -0.2074 -0.3151 -0.1109
  652TMC3     H 9708   4.467   0.069  10.182  1.2244 -0.2692 -0.1218
  652TMC3    H1 9709   4.553   0.483  10.118  1.5386 -2.2875 -1.5101
  652TMC3    H2 9710   4.190   0.325   9.963 -0.3621  0.7975  0.6300
  652TMC3    C7 9711   4.331   0.542   9.978 -1.0571 -0.3125 -0.2919
  652TMC3    C8 9712   4.237   0.062  10.055 -0.3616  0.3186  0.0154
  652TMC3    O1 9713   4.269   0.531   9.874  0.2312 -0.2144  0.2574
  652TMC3    O2 9714   4.290   4.698  10.087 -0.7080 -0.0049  0.0175
  653MPD2     C 9715   2.520   4.219  17.591 -0.3200  0.5582  0.3404
  653MPD2    C1 9716   2.453   4.296  17.499  0.6581  0.3482  0.5122
  653MPD2    C2 9717   2.432   4.238  17.369  0.3029  0.0270  0.4736
  653MPD2    C3 9718   2.466   4.104  17.346  0.0582  0.2870 -0.4744
  653MPD2    C4 9719   2.522   4.031  17.451  0.0508  0.1214  0.0483
  653MPD2    C5 9720   2.548   4.093  17.568  0.4080 -0.0551  0.2018
  653MPD2     H 9721   2.382   4.307  17.302  0.4447  0.3858  0.7303
  653MPD2    H1 9722   2.546   3.926  17.448 -4.7800 -0.9695 -1.1747
  653MPD2    H2 9723   2.545   4.254  17.691  0.7544  2.4820 -0.6176
  653MPD2    H3 9724   2.595   4.037  17.648  2.1489  1.4792  0.2577
  653MPD2     N 9725   2.432   4.045  17.218  0.1116 -0.1204 -0.1203
  653MPD2    H5 9726   2.394   4.111  17.150  0.6198  1.8375  1.5326
  653MPD2    N1 9727   2.422   4.431  17.518  0.3903 -0.0399  0.4650
  653MPD2    H7 9728   2.382   4.486  17.442  0.6000  2.4137  2.1288
  654TMC3    C1 9729   2.393   3.870  17.056 -0.6310 -0.7396 -0.3868
  654TMC3    C2 9730   2.294   3.941  16.997  0.5222 -0.3066 -0.5045
  654TMC3    C3 9731   2.239   3.889  16.885  0.4720 -0.1223  0.2480
  654TMC3    C4 9732   2.443   3.753  17.004 -0.3200 -0.2264  0.1831
  654TMC3    C5 9733   2.374   3.696  16.898 -0.3306  0.0882 -0.3720
  654TMC3    C6 9734   2.274   3.762  16.835 -0.1027  0.2529  0.4976
  654TMC3     C 9735   2.450   3.909  17.187 -0.5812  0.3917 -0.5364
  654TMC3     O 9736   2.495   3.822  17.252  0.3415  0.2825  0.3611
  654TMC3     H 9737   2.251   4.030  17.042  0.2091 -0.2370 -0.9460
  654TMC3    H1 9738   2.534   3.705  17.039 -1.5452 -3.1621 -0.6133
  654TMC3    H2 9739   2.225   3.718  16.749  1.7329 -1.3874  0.3017
  654TMC3    C7 9740   2.404   3.559  16.853  0.1140  0.0452 -0.1739
  654TMC3    C8 9741   2.154   3.979  16.812  0.4907 -0.1910  0.6866
  654TMC3    O1 9742   2.348   3.530  16.748 -0.5337 -0.0347 -0.3739
  654TMC3    O2 9743   2.099   4.069  16.871  0.0330  0.5456 -0.0185
  655MPD2     C 9744   3.839   4.081  15.466 -0.5375 -0.5851  0.0857
  655MPD2    C1 9745   3.704   4.108  15.446 -0.2171 -0.0962 -0.4549
  655MPD2    C2 9746   3.649   4.059  15.331 -0.9173  0.0393  0.1934
  655MPD2    C3 9747   3.712   3.976  15.245 -0.7769  0.1057 -0.1205
  655MPD2    C4 9748   3.844   3.949  15.270  0.6713 -0.2313  0.1239
  655MPD2    C5 9749   3.910   4.014  15.373 -0.8189 -0.2784  0.8095
  655MPD2     H 9750   3.544   4.083  15.319 -0.4702  1.3909 -1.0448
  655MPD2    H1 9751   3.904   3.890  15.201 -1.7655 -2.7393  0.1392
  655MPD2    H2 9752   3.894   4.126  15.548 -0.1504 -1.6084  0.3920
  655MPD2    H3 9753   4.017   4.002  15.379 -1.0951 -2.8790  0.1475
  655MPD2     N 9754   3.655   3.924  15.126 -0.0389 -0.7659 -0.3319
  655MPD2    H5 9755   3.714   3.888  15.052  2.3154 -0.2601  1.3062
  655MPD2    N1 9756   3.628   4.209  15.518  0.1587 -0.5303 -0.3743
  655MPD2    H7 9757   3.552   4.245  15.461 -0.2091 -1.7671 -0.6546
  656TMC3    C1 9758   3.581   4.378  15.666  0.4162  0.1274 -0.1011
  656TMC3    C2 9759   3.551   4.412  15.800 -0.0976  0.5824  0.3381
  656TMC3    C3 9760   3.465   4.517  15.820  0.1552  0.2543  0.1192
  656TMC3    C4 9761   3.530   4.451  15.556 -0.1040 -0.2850 -0.1656
  656TMC3    C5 9762   3.435   4.546  15.583  0.5876  0.1938  0.5528
  656TMC3    C6 9763   3.401   4.576  15.712 -0.2050  0.0449 -0.4599
  656TMC3     C 9764   3.670   4.268  15.633  0.0094  0.9094  0.2279
  656TMC3     O 9765   3.738   4.212  15.722  0.5382 -0.1508 -0.6869
  656TMC3     H 9766   3.585   4.360  15.888 -1.7182 -0.1221  0.5500
  656TMC3    H1 9767   3.557   4.443  15.452  2.3594  2.9585  0.2080
  656TMC3    H2 9768   3.326   4.651  15.734 -0.3812 -0.0669 -0.6847
  656TMC3    C7 9769   3.375   4.613  15.467  0.2647 -0.2679 -0.3573
  656TMC3    C8 9770   3.395   4.515  15.951  0.2469 -0.4948  0.0949
  656TMC3    O1 9771   3.426   4.599  15.359 -0.3193  0.6695 -0.1665
  656TMC3    O2 9772   3.421   4.418  16.026 -0.0204  0.5932 -0.4807
  657TMC3    C1 9773   2.730   3.299  14.703 -0.3840 -0.9562  0.3780
  657TMC3    C2 9774   2.741   3.265  14.835  0.1233 -0.2375 -0.8646
  657TMC3    C3 9775   2.629   3.295  14.913  0.2058 -0.9798  1.4088
  657TMC3    C4 9776   2.619   3.353  14.649  0.2954  0.2132  0.2683
  657TMC3    C5 9777   2.511   3.384  14.728  0.4327  0.2805  0.3158
  657TMC3    C6 9778   2.518   3.350  14.863  0.0248 -0.5218 -0.2461
  657TMC3     C 9779   2.824   3.233  14.621 -0.1930 -0.2090  1.2502
  657TMC3     O 9780   2.788   3.168  14.526  0.1850 -0.5781 -0.0682
  657TMC3     H 9781   2.822   3.203  14.869 -0.4079 -0.5363 -0.1511
  657TMC3    H1 9782   2.614   3.371  14.542  2.3723  0.7951  0.2560
  657TMC3    H2 9783   2.430   3.361  14.926  1.5997  1.8137  1.5645
  657TMC3    C7 9784   2.402   3.465  14.682  0.0280 -1.1777 -0.7330
  657TMC3    C8 9785   2.636   3.271  15.062  0.5675  0.0043 -0.1108
  657TMC3    O1 9786   2.300   3.455  14.754  0.8668 -0.0261  0.0114
  657TMC3    O2 9787   2.531   3.260  15.125 -0.3417 -0.5951  0.3626
  658MPD2     C 9788   3.893   3.908  14.506 -0.6580 -0.1703 -0.0577
  658MPD2    C1 9789   3.763   3.941  14.526 -0.1103  0.2445  0.2787
  658MPD2    C2 9790   3.699   4.029  14.436 -0.0507  1.0285 -0.4287
  658MPD2    C3 9791   3.773   4.083  14.336 -0.1977  0.3336 -0.8878
  658MPD2    C4 9792   3.908   4.065  14.331  0.1637  0.0362  0.1963
  658MPD2    C5 9793   3.968   3.977  14.415  1.0776 -0.1822  0.3696
  658MPD2     H 9794   3.594   4.054  14.450  0.0638  1.3066 -0.0642
  658MPD2    H1 9795   3.972   4.125  14.267 -1.0151  0.6100 -0.4443
  658MPD2    H2 9796   3.938   3.829  14.564 -1.6700 -2.0872 -1.8564
  658MPD2    H3 9797   4.072   3.949  14.411  1.1573  0.1846 -0.0816
  658MPD2     N 9798   3.701   4.176  14.258  0.2378 -0.9448 -0.6200
  658MPD2    H5 9799   3.609   4.202  14.292 -0.5180 -1.8651 -1.9649
  658MPD2    N1 9800   3.693   3.883  14.633 -0.0787  1.0294  0.1670
  658MPD2    H7 9801   3.745   3.822  14.695  0.4073  1.0611 -0.2120
  659TMC3    C1 9802   3.518   3.807  14.763  0.2090  0.2854 -0.0887
  659TMC3    C2 9803   3.565   3.852  14.883  0.6741  0.4403 -0.8544
  659TMC3    C3 9804   3.486   3.831  14.994 -0.3772  0.3229 -0.1725
  659TMC3    C4 9805   3.390   3.759  14.749 -0.2652 -0.3771 -0.1744
  659TMC3    C5 9806   3.310   3.745  14.868  0.7094 -0.2408  0.9729
  659TMC3    C6 9807   3.359   3.771  14.990  0.3074  0.0662  0.0686
  659TMC3     C 9808   3.556   3.894  14.649  0.4568 -0.2635  0.8178
  659TMC3     O 9809   3.467   3.943  14.580  0.2105 -0.0762 -0.3458
  659TMC3     H 9810   3.637   3.932  14.889  1.6964 -0.6071  0.8554
  659TMC3    H1 9811   3.349   3.734  14.652 -1.7107 -0.8470  0.5452
  659TMC3    H2 9812   3.310   3.749  15.084  1.3050 -0.2405  0.5213
  659TMC3    C7 9813   3.168   3.697  14.875 -0.3368  0.2313  0.3778
  659TMC3    C8 9814   3.519   3.896  15.116  0.2252  0.2393 -0.0206
  659TMC3    O1 9815   3.130   3.648  14.981 -0.1160 -0.3140 -0.0806
  659TMC3    O2 9816   3.424   3.922  15.184 -0.5025  0.2832  0.8621
  660MPD2     C 9817   1.533   3.143  12.800  0.3354  0.4847 -0.1019
  660MPD2    C1 9818   1.416   3.210  12.812 -0.0606 -0.3089 -0.3317
  660MPD2    C2 9819   1.335   3.182  12.926  0.0371 -0.0291 -0.3812
  660MPD2    C3 9820   1.379   3.091  13.024  0.6466 -0.4792  0.0130
  660MPD2    C4 9821   1.504   3.034  13.010  0.3462  1.1108  0.0736
  660MPD2    C5 9822   1.585   3.059  12.900 -0.1120  0.6860  0.0586
  660MPD2     H 9823   1.230   3.208  12.929 -0.6091 -2.7302  0.7970
  660MPD2    H1 9824   1.543   2.975  13.092 -1.5200 -0.0800  0.1037
  660MPD2    H2 9825   1.599   3.157  12.716 -0.9106  1.3069 -0.9516
  660MPD2    H3 9826   1.688   3.027  12.890 -0.6323 -0.3904 -1.7761
  660MPD2     N 9827   1.302   3.051  13.133  0.1599  0.0130  0.0564
  660MPD2    H5 9828   1.330   2.966  13.180 -0.6104 -0.1639  0.1832
  660MPD2    N1 9829   1.377   3.291  12.700  0.0964  0.8401 -0.8581
  660MPD2    H7 9830   1.434   3.287  12.616  0.3661  2.6495 -0.7660
  661TMC3    C1 9831   1.225   3.451  12.598  0.2867  0.3728 -0.2949
  661TMC3    C2 9832   1.288   3.437  12.480 -0.2661 -0.3106 -0.3304
  661TMC3    C3 9833   1.237   3.503  12.371 -0.3220 -0.8432 -0.2922
  661TMC3    C4 9834   1.106   3.507  12.616 -0.0905 -0.0017 -0.0307
  661TMC3    C5 9835   1.045   3.556  12.506  0.2564  0.2337  0.4933
  661TMC3    C6 9836   1.109   3.555  12.383 -0.4294  0.2888 -0.0194
  661TMC3     C 9837   1.270   3.386  12.715  0.5421  0.0410 -0.0204
  661TMC3     O 9838   1.221   3.417  12.823  0.2242  0.0094  0.2026
  661TMC3     H 9839   1.389   3.399  12.470  0.3035  1.4982 -1.4243
  661TMC3    H1 9840   1.060   3.513  12.714 -0.7949  0.8035 -0.4116
  661TMC3    H2 9841   1.060   3.604  12.301  2.5507  2.0095 -0.7841
  661TMC3    C7 9842   0.899   3.534  12.511  0.1282  0.4547  0.4653
  661TMC3    C8 9843   1.323   3.534  12.256  0.7309 -0.5187 -0.3400
  661TMC3    O1 9844   0.841   3.569  12.616  0.3254 -0.4891 -0.3093
  661TMC3    O2 9845   1.423   3.463  12.249  0.0181  0.0649  0.4300
  662MPD2     C 9846   2.105   3.120  16.856  0.1014 -0.3087 -0.3392
  662MPD2    C1 9847   2.018   3.010  16.866 -0.3046 -0.2561 -0.2773
  662MPD2    C2 9848   1.931   3.009  16.976 -0.2718 -0.4918  0.2248
  662MPD2    C3 9849   1.931   3.113  17.076 -0.5656 -0.2159  0.2668
  662MPD2    C4 9850   2.022   3.217  17.066 -0.5469  0.3345  0.6030
  662MPD2    C5 9851   2.105   3.215  16.958  0.1102  0.4074 -0.8433
  662MPD2     H 9852   1.870   2.921  16.995 -3.3934  1.4123 -0.9788
  662MPD2    H1 9853   2.032   3.287  17.148  1.1239  0.4885  0.2714
  662MPD2    H2 9854   2.166   3.125  16.767 -0.1889 -2.1055 -0.6504
  662MPD2    H3 9855   2.173   3.299  16.948 -0.6971  1.0230 -1.0993
  662MPD2     N 9856   1.850   3.112  17.190 -0.5830 -0.0217 -0.2951
  662MPD2    H5 9857   1.862   3.195  17.247  0.4506  0.7145 -1.5782
  662MPD2    N1 9858   2.029   2.902  16.777 -0.2723  0.2594 -0.0780
  662MPD2    H7 9859   2.113   2.908  16.721 -1.7250 -1.6071 -2.4661
  663TMC3    C1 9860   1.982   2.671  16.697  0.2266  0.2248  0.0787
  663TMC3    C2 9861   2.089   2.607  16.750 -0.4902 -0.1709  0.4364
  663TMC3    C3 9862   2.068   2.487  16.819  0.3320  0.1487  0.1819
  663TMC3    C4 9863   1.868   2.606  16.676  0.6974 -0.1780 -0.6374
  663TMC3    C5 9864   1.856   2.475  16.714 -0.2000  0.1017  0.6800
  663TMC3    C6 9865   1.948   2.418  16.791 -0.8666 -0.1033  0.0247
  663TMC3     C 9866   1.943   2.791  16.773 -0.0111  0.4984  0.0293
  663TMC3     O 9867   1.829   2.790  16.815  0.0442 -0.4651 -0.5319
  663TMC3     H 9868   2.167   2.675  16.784 -0.3202 -1.3911  2.5217
  663TMC3    H1 9869   1.775   2.654  16.648  0.5894  0.5094  0.8813
  663TMC3    H2 9870   1.958   2.310  16.802  0.2786  0.1977  2.0189
  663TMC3    C7 9871   1.724   2.418  16.700 -0.3791  0.1679 -0.6015
  663TMC3    C8 9872   2.098   2.506  16.961 -0.2273 -0.1802  0.0332
  663TMC3    O1 9873   1.642   2.472  16.622 -0.2470  0.3636 -0.0682
  663TMC3    O2 9874   2.187   2.584  16.985 -0.1086 -0.3143 -0.4837
  664MPD2     C 9875   4.281   1.101  17.026 -0.1585 -0.1962  0.4199
  664MPD2    C1 9876   4.366   1.193  17.084 -0.4330 -0.6633  0.2384
  664MPD2    C2 9877   4.393   1.195  17.221 -0.7996  0.3567  0.2053
  664MPD2    C3 9878   4.324   1.113  17.304 -0.2406  0.1892 -0.9872
  664MPD2    C4 9879   4.228   1.030  17.248 -0.3637 -0.4502  0.2410
  664MPD2    C5 9880   4.207   1.024  17.111  0.4325 -0.2079 -0.0062
  664MPD2     H 9881   4.469   1.258  17.266  0.7224 -1.5401  0.3106
  664MPD2    H1 9882   4.181   0.955  17.310  1.9704 -0.4812  1.9644
  664MPD2    H2 9883   4.266   1.084  16.920  0.4628  0.2511  0.2642
  664MPD2    H3 9884   4.131   0.959  17.070  0.3229  0.5988 -1.0772
  664MPD2     N 9885   4.350   1.115  17.442 -0.3434 -0.2620 -0.3855
  664MPD2    H5 9886   4.421   1.177  17.479  1.2780 -0.6865 -2.7803
  664MPD2    N1 9887   4.445   1.267  16.992 -0.0778  1.0101 -0.3731
  664MPD2    H7 9888   4.440   1.242  16.894 -2.2926 -0.4719  0.1096
  665TMC3    C1 9889   4.361   1.056  17.671 -0.3295  0.2077  0.2903
  665TMC3    C2 9890   4.309   0.984   0.017  0.3497 -0.2994 -0.5085
  665TMC3    C3 9891   4.340   1.032   0.143  0.3834 -0.1677 -0.2082
  665TMC3    C4 9892   4.449   1.165  17.694  0.3559 -0.5907 -0.6665
  665TMC3    C5 9893   4.473   1.201   0.064 -0.5672 -0.6208 -0.5827
  665TMC3    C6 9894   4.423   1.139   0.169  0.2613  0.3144  0.4971
  665TMC3     C 9895   4.295   1.036  17.540  0.0259  0.0619 -0.2166
  665TMC3     O 9896   4.203   0.957  17.534  0.0766 -0.2354 -0.5033
  665TMC3     H 9897   4.227   0.918  17.752  1.4736 -2.1159  0.5376
  665TMC3    H1 9898   4.503   1.216  17.616  1.2282  1.1249  1.0728
  665TMC3    H2 9899   4.439   1.167   0.273  0.2146 -1.1328  0.8961
  665TMC3    C7 9900   4.592   1.287   0.082 -0.4808  0.5398  0.4664
  665TMC3    C8 9901   4.250   0.981   0.249  1.0531 -0.0359  0.3023
  665TMC3    O1 9902   4.659   1.315  17.741  0.1548  0.5194  0.3071
  665TMC3    O2 9903   4.198   1.072   0.313 -0.0542  0.5602 -0.4295
  666TMC3    C1 9904   4.241   1.382   9.487 -0.4268  0.4445 -0.0101
  666TMC3    C2 9905   4.355   1.339   9.422  0.3044 -0.8116  0.0400
  666TMC3    C3 9906   4.442   1.438   9.375 -0.4069 -0.4744 -0.8651
  666TMC3    C4 9907   4.215   1.518   9.517 -0.5003  0.3906  0.6556
  666TMC3    C5 9908   4.294   1.611   9.445  0.5400 -1.2378  0.0624
  666TMC3    C6 9909   4.401   1.564   9.370  0.5558 -0.0538 -0.0645
  666TMC3     C 9910   4.162   1.291   9.571  0.7645 -0.5904 -0.8695
  666TMC3     O 9911   4.114   1.333   9.675 -0.3134  0.0481  0.4508
  666TMC3     H 9912   4.385   1.235   9.420  3.1127 -0.0179  1.6300
  666TMC3    H1 9913   4.133   1.553   9.578 -2.6323  0.3604 -2.1640
  666TMC3    H2 9914   4.459   1.639   9.318  0.3141  0.1396 -0.0529
  666TMC3    C7 9915   4.266   1.749   9.476  0.4058  0.0156  0.4570
  666TMC3    C8 9916   4.580   1.433   9.417  0.0359 -0.4509  0.1546
  666TMC3    O1 9917   4.210   1.767   9.586  0.4401 -0.3828  0.3711
  666TMC3    O2 9918   4.637   1.538   9.448  0.0489  0.6212  0.2104
  667MPD2     C 9919   1.138   0.489  14.648  0.0169  0.3534 -0.1355
  667MPD2    C1 9920   1.022   0.558  14.659 -0.2229 -0.2179 -0.3208
  667MPD2    C2 9921   0.897   0.488  14.657 -0.1796 -0.3194  0.6979
  667MPD2    C3 9922   0.887   0.352  14.639  0.1280 -0.6938 -0.3066
  667MPD2    C4 9923   1.007   0.279  14.631 -0.2573 -0.2442  0.1378
  667MPD2    C5 9924   1.129   0.345  14.625 -0.4541  0.0344 -0.3324
  667MPD2     H 9925   0.811   0.550  14.678 -0.5450  0.2368 -2.5212
  667MPD2    H1 9926   0.998   0.174  14.606 -1.6337 -0.0582 -0.1132
  667MPD2    H2 9927   1.237   0.530  14.633 -0.3270  1.0541 -0.4693
  667MPD2    H3 9928   1.216   0.287  14.594 -0.6227  0.5649 -1.8067
  667MPD2     N 9929   0.765   0.274  14.653  0.0977  0.4609  0.1388
  667MPD2    H5 9930   0.772   0.173  14.663 -1.3064  0.3047 -0.4639
  667MPD2    N1 9931   1.017   0.696  14.682  0.1996 -0.0439  0.3615
  667MPD2    H7 9932   0.926   0.742  14.688 -0.7894 -1.7680 -1.6132
  668TMC3    C1 9933   1.084   0.899  14.773 -0.2711 -0.9657  0.1791
  668TMC3    C2 9934   1.174   1.003  14.754  1.5036 -0.1287  0.1516
  668TMC3    C3 9935   1.160   1.104  14.849 -0.5983 -0.6705 -0.5704
  668TMC3    C4 9936   0.990   0.886  14.874  0.3750 -0.1743 -0.9272
  668TMC3    C5 9937   0.987   0.995  14.959 -0.3075  1.2853  0.6390
  668TMC3    C6 9938   1.065   1.101  14.947  0.4919 -0.2192 -0.0763
  668TMC3     C 9939   1.122   0.784  14.685  0.0503 -0.1206  0.0452
  668TMC3     O 9940   1.233   0.772  14.633  0.2273 -0.0592 -0.2470
  668TMC3     H 9941   1.232   0.999  14.662  2.4092  3.2005  0.5999
  668TMC3    H1 9942   0.924   0.801  14.880  1.9297 -1.2318  1.5141
  668TMC3    H2 9943   1.059   1.184  15.016 -0.4275 -0.1694 -0.2199
  668TMC3    C7 9944   0.910   0.988  15.084 -0.4134 -0.1990  0.7929
  668TMC3    C8 9945   1.221   1.229  14.817  0.3341  0.5435 -0.1760
  668TMC3    O1 9946   0.937   1.077  15.166  0.2711  0.6273 -0.3361
  668TMC3    O2 9947   1.185   1.324  14.891  0.4548  0.1894  0.0955
  669TMC3    C1 9948   3.597   0.580  14.485  0.2074  0.5980  0.5293
  669TMC3    C2 9949   3.498   0.603  14.392  0.1588  0.0002 -0.2294
  669TMC3    C3 9950   3.532   0.684  14.288  0.5109  0.0836 -0.5536
  669TMC3    C4 9951   3.723   0.638  14.477  0.0381  0.8067  0.1022
  669TMC3    C5 9952   3.751   0.719  14.371 -0.4961 -0.5161  0.1130
  669TMC3    C6 9953   3.653   0.749  14.279  0.7081  0.7862 -0.0180
  669TMC3     C 9954   3.570   0.465  14.570  0.2146 -0.0544  0.4951
  669TMC3     O 9955   3.453   0.434  14.598  0.4721 -0.1177 -0.1255
  669TMC3     H 9956   3.396   0.566  14.401  0.7932 -1.7327 -0.1409
  669TMC3    H1 9957   3.785   0.637  14.567  0.0441  1.6055  0.1086
  669TMC3    H2 9958   3.687   0.802  14.191 -1.7990 -0.5790 -1.8112
  669TMC3    C7 9959   3.873   0.802  14.375 -0.0503 -0.1381  0.5191
  669TMC3    C8 9960   3.438   0.699  14.177  0.3785  0.2161 -0.3857
  669TMC3    O1 9961   3.876   0.909  14.314 -0.5732 -0.5481 -0.0366
  669TMC3    O2 9962   3.371   0.600  14.157 -0.3718 -0.0966  0.0832
  670MPD2     C 9963   1.657   3.674  13.293  0.3679 -0.1239 -0.5581
  670MPD2    C1 9964   1.783   3.618  13.317 -0.3816 -0.2080  0.3172
  670MPD2    C2 9965   1.802   3.533  13.419  0.6973  1.0670  0.2384
  670MPD2    C3 9966   1.700   3.500  13.506 -0.9226 -0.1146  0.1452
  670MPD2    C4 9967   1.578   3.554  13.489  0.5957 -0.1675 -0.3083
  670MPD2    C5 9968   1.555   3.639  13.380 -0.0142  0.6224 -0.5493
  670MPD2     H 9969   1.901   3.490  13.431 -0.1984 -1.0219  0.2109
  670MPD2    H1 9970   1.499   3.531  13.559 -0.1271  0.0874 -1.0459
  670MPD2    H2 9971   1.639   3.739  13.208 -0.1187  1.1350  0.5066
  670MPD2    H3 9972   1.460   3.690  13.369 -0.9514 -1.2485 -1.0758
  670MPD2     N 9973   1.726   3.402  13.607 -0.2935 -0.2731  0.5448
  670MPD2    H5 9974   1.808   3.344  13.593 -0.3097  0.8158 -3.9863
  670MPD2    N1 9975   1.895   3.635  13.244 -0.0638  0.5716 -0.5070
  670MPD2    H7 9976   1.977   3.586  13.277 -0.9057  0.4334  1.3252
  671TMC3    C1 9977   1.686   3.268  13.803  0.3928  0.3777  0.1033
  671TMC3    C2 9978   1.813   3.215  13.797  0.8272 -0.0838 -0.0592
  671TMC3    C3 9979   1.831   3.102  13.865  0.4026  0.0331 -0.0963
  671TMC3    C4 9980   1.589   3.220  13.885  0.0825  0.4035 -0.3995
  671TMC3    C5 9981   1.626   3.113  13.964  0.7152 -0.4173  0.2668
  671TMC3    C6 9982   1.741   3.049  13.948 -0.5610 -0.2787 -1.2412
  671TMC3     C 9983   1.642   3.366  13.711  0.2879  0.1451 -0.0007
  671TMC3     O 9984   1.551   3.428  13.759  0.2754  0.0047  0.2764
  671TMC3     H 9985   1.875   3.231  13.710 -0.1075  2.2594 -0.3023
  671TMC3    H1 9986   1.491   3.266  13.893  0.0855  0.0110  2.0414
  671TMC3    H2 9987   1.774   2.964  14.006 -1.9482 -0.6513 -1.0095
  671TMC3    C7 9988   1.520   3.017  13.996  0.3877  0.5651 -0.0016
  671TMC3    C8 9989   1.963   3.059  13.887  0.0900  0.0294  0.0584
  671TMC3    O1 9990   1.542   2.899  13.968  1.0945 -0.1986  0.3927
  671TMC3    O2 9991   1.976   2.940  13.904  0.4342  0.2017  0.2013
  672MPD2     C 9992   1.877   3.916   1.014  0.3168 -0.1138 -0.4634
  672MPD2    C1 9993   2.000   3.850   1.010 -0.1194  0.5004  0.2730
  672MPD2    C2 9994   2.108   3.902   1.078 -0.2558 -0.0784  0.4005
  672MPD2    C3 9995   2.109   4.029   1.129 -0.6945  0.9252  0.2741
  672MPD2    C4 9996   1.994   4.101   1.112  0.4603 -0.3669 -0.2053
  672MPD2    C5 9997   1.876   4.040   1.073 -0.1515 -0.2356 -0.2456
  672MPD2     H 9998   2.202   3.847   1.071 -0.3822 -0.0519 -1.5102
  672MPD2    H1 9999   1.983   4.204   1.145  1.7246 -0.0614 -0.7126
  672MPD2    H210000   1.784   3.877   0.974  1.4464 -2.4312 -0.8095
  672MPD2    H310001   1.777   4.084   1.077 -0.7478 -1.8376  2.4993
  672MPD2     N10002   2.228   4.088   1.189 -0.5900  0.1276 -0.8341
  672MPD2    H510003   2.225   4.186   1.214  1.5693 -0.1153  0.3961
  672MPD2    N110004   2.018   3.729   0.944  0.0286  0.0286  0.4346
  672MPD2    H710005   2.110   3.685   0.945 -0.6858 -1.4998 -1.2175
  673TMC3    C110006   1.975   3.587   0.759  0.6009 -0.3007 -0.2473
  673TMC3    C210007   2.044   3.481   0.804  0.0874  0.7255  0.6855
  673TMC3    C310008   2.093   3.393   0.717 -0.6903 -0.9189 -0.3830
  673TMC3    C410009   1.961   3.612   0.625  0.1790  0.3783 -0.7965
  673TMC3    C510010   2.015   3.526   0.536 -0.6741 -0.0387 -0.3595
  673TMC3    C610011   2.070   3.410   0.582  0.3923 -0.6243 -0.2957
  673TMC3     C10012   1.932   3.692   0.843 -0.4360  0.4478 -0.4939
  673TMC3     O10013   1.827   3.739   0.804  0.5550  0.0526 -0.6697
  673TMC3     H10014   2.053   3.469   0.911 -2.7458  0.2341  0.8828
  673TMC3    H110015   1.910   3.704   0.598 -0.8979 -0.5343 -1.8196
  673TMC3    H210016   2.108   3.339   0.509 -0.1535 -0.8437 -0.3643
  673TMC3    C710017   2.063   3.570   0.406  0.0961  0.4396 -0.1969
  673TMC3    C810018   2.178   3.279   0.766 -0.2372 -1.0759 -0.0370
  673TMC3    O110019   2.136   3.493   0.342  0.2385  0.1970 -0.3972
  673TMC3    O210020   2.201   3.187   0.691 -0.0733 -0.4694 -0.8455
  674MPD2     C10021   2.375   2.876  17.052 -0.2194  0.0530 -0.1974
  674MPD2    C110022   2.368   2.808  17.180 -0.0855  0.4592 -0.3539
  674MPD2    C210023   2.359   2.880  17.299 -0.0040  0.1080  0.7605
  674MPD2    C310024   2.352   3.017  17.295 -0.1200 -0.0746 -0.1421
  674MPD2    C410025   2.359   3.081  17.171 -0.6909 -0.7850  0.2376
  674MPD2    C510026   2.377   3.011  17.057 -0.3384 -0.7952  1.0456
  674MPD2     H10027   2.354   2.835  17.397 -1.5642 -1.8838 -0.2496
  674MPD2    H110028   2.353   3.189  17.161  0.6823 -0.8423 -1.3632
  674MPD2    H210029   2.393   2.816  16.964 -2.4782  1.2496 -1.4595
  674MPD2    H310030   2.385   3.072  16.967  1.0128  0.3083  1.9122
  674MPD2     N10031   2.340   3.095  17.413  0.1915 -0.1725  0.5523
  674MPD2    H510032   2.323   3.031  17.491  0.9972 -1.3979 -0.2724
  674MPD2    N110033   2.375   2.670  17.189 -0.1629  0.4344  0.0951
  674MPD2    H710034   2.361   2.624  17.100  2.5360  0.1804 -0.2055
  675TMC3    C110035   2.354   2.460  17.265  0.2035 -0.8873 -0.3341
  675TMC3    C210036   2.269   2.388  17.337 -0.0717  0.2883 -0.3396
  675TMC3    C310037   2.229   2.273  17.283 -0.1460 -0.1161  0.3394
  675TMC3    C410038   2.412   2.423  17.141  0.5198  0.0591 -0.6038
  675TMC3    C510039   2.355   2.310  17.081 -0.3590 -0.8511  0.1805
  675TMC3    C610040   2.273   2.231  17.159 -0.4072 -0.0019  0.4823
  675TMC3     C10041   2.384   2.594  17.302  0.0836  0.0746  0.1057
  675TMC3     O10042   2.383   2.619  17.421 -0.3885 -0.0655 -0.6598
  675TMC3     H10043   2.219   2.432  17.423 -0.0986  2.0090 -1.2369
  675TMC3    H110044   2.482   2.489  17.092 -0.4814  1.3435 -0.3041
  675TMC3    H210045   2.231   2.137  17.126  0.2725 -0.1750  0.1179
  675TMC3    C710046   2.362   2.282  16.938  0.1250 -0.7081 -0.0100
  675TMC3    C810047   2.155   2.168  17.353  0.3478 -0.1474 -0.0438
  675TMC3    O110048   2.281   2.201  16.894 -0.2720 -0.3729  0.0228
  675TMC3    O210049   2.144   2.055  17.304 -0.5380 -0.1587 -0.1907
  676MPD2     C10050   0.226   2.063  11.015 -0.4399 -0.0002  0.1428
  676MPD2    C110051   0.109   2.032  11.078  0.5750  0.3301 -0.4128
  676MPD2    C210052   0.096   1.906  11.134 -0.1564 -0.2623  0.0560
  676MPD2    C310053   0.201   1.807  11.128  0.0093  0.0532  0.1024
  676MPD2    C410054   0.320   1.847  11.062 -0.1697 -0.2364  0.9193
  676MPD2    C510055   0.330   1.968  11.007 -0.7790  0.2638 -0.1826
  676MPD2     H10056   4.740   1.879  11.173 -0.8856  1.5638 -0.4876
  676MPD2    H110057   0.405   1.780  11.054 -0.0890 -0.0157 -0.0497
  676MPD2    H210058   0.249   2.158  10.967 -1.1336 -0.0392 -0.2745
  676MPD2    H310059   0.422   1.995  10.957 -0.8382 -2.0909 -1.5958
  676MPD2     N10060   0.196   1.679  11.184  0.2249 -0.1020  0.4984
  676MPD2    H510061   0.276   1.617  11.175 -1.3757 -2.2493  0.7828
  676MPD2    N110062   4.736   2.113  11.082  0.6420  0.3733  0.4721
  676MPD2    H710063   4.652   2.065  11.113  0.3481  1.6418  1.6400
  677TMC3    C110064   4.614   2.324  11.096  0.4801 -0.2432  0.2638
  677TMC3    C210065   4.494   2.252  11.096  0.0615  0.0855 -0.3526
  677TMC3    C310066   4.395   2.283  11.188 -0.8847 -0.3208  0.5613
  677TMC3    C410067   4.626   2.429  11.183  0.3856 -0.3739  0.8018
  677TMC3    C510068   4.519   2.460  11.259  0.0384  0.2121 -0.1481
  677TMC3    C610069   4.404   2.383  11.271 -0.0534 -0.6048  1.0235
  677TMC3     C10070   4.738   2.249  11.053  0.4470  0.4392  0.1828
  677TMC3     O10071   0.092   2.323  11.026  0.3598  0.3255  1.0385
  677TMC3     H10072   4.470   2.173  11.025  1.7764 -0.6610 -0.1149
  677TMC3    H110073   4.723   2.475  11.193 -0.3033  1.4916 -1.0658
  677TMC3    H210074   4.325   2.419  11.336 -0.9282 -0.5007 -0.1086
  677TMC3    C710075   4.541   2.561  11.362  0.0706 -0.7705 -0.7374
  677TMC3    C810076   4.266   2.207  11.174 -0.0954  0.2696  0.7621
  677TMC3    O110077   4.453   2.562  11.449  0.9245  0.3950 -0.0933
  677TMC3    O210078   4.215   2.195  11.064  0.3224 -0.0345 -0.9385
  678MPD2     C10079   1.222   1.821   1.175 -0.0922 -0.4761  0.2794
  678MPD2    C110080   1.211   1.790   1.038 -0.7478  0.6495 -0.2408
  678MPD2    C210081   1.079   1.789   0.989  0.7976  0.2949  0.1720
  678MPD2    C310082   0.972   1.823   1.069  0.2893 -1.0499 -0.1839
  678MPD2    C410083   0.985   1.864   1.199  0.4102 -0.1576 -0.6188
  678MPD2    C510084   1.116   1.873   1.249  0.6349 -0.3936  0.6933
  678MPD2     H10085   1.064   1.757   0.887 -0.4716 -0.9403  0.7536
  678MPD2    H110086   0.902   1.890   1.263 -0.3721 -0.4094 -1.5482
  678MPD2    H210087   1.318   1.833   1.224 -0.6089 -2.7477  1.8346
  678MPD2    H310088   1.135   1.903   1.352 -0.6659  2.2516  0.1582
  678MPD2     N10089   0.839   1.801   1.012 -0.1591 -0.0374  0.1207
  678MPD2    H510090   0.833   1.764   0.918 -2.6743 -0.2959  0.3871
  678MPD2    N110091   1.322   1.746   0.968 -0.5926  0.1032  0.0520
  678MPD2    H710092   1.404   1.762   1.026 -1.1987 -0.5554  1.0832
  679TMC3    C110093   1.596   1.481   0.780 -0.2920 -0.3371 -0.1525
  679TMC3    C210094   1.516   1.567   0.852 -0.3391 -0.6185  0.0343
  679TMC3    C310095   1.454   1.665   0.781 -0.7744  1.0604  0.0053
  679TMC3    C410096   1.616   1.490   0.646  0.0342  0.2264 -0.1189
  679TMC3    C510097   1.550   1.586   0.581  0.3876  0.1371 -0.3463
  679TMC3    C610098   1.462   1.679   0.645 -0.2696  0.1186 -0.3469
  679TMC3     C10099   1.691   1.396   0.854 -0.3074 -0.1870 -0.1502
  679TMC3     O10100   1.746   1.307   0.792  0.3250 -0.3131  0.0638
  679TMC3     H10101   1.491   1.560   0.957 -0.3206  0.0301  0.0846
  679TMC3    H110102   1.693   1.423   0.610 -0.7629 -1.4144  1.1628
  679TMC3    H210103   1.391   1.739   0.590 -1.4938 -3.1448 -2.2948
  679TMC3    C710104   1.551   1.611   0.436 -0.4413 -0.3676 -0.0314
  679TMC3    C810105   1.323   1.704   0.836  0.5067 -0.5107  0.3027
  679TMC3    O110106   1.461   1.669   0.382  0.1078 -0.1645  0.1594
  679TMC3    O210107   1.224   1.700   0.756  0.4886 -0.7957 -0.1345
  680MPD2     C10108   1.576   0.815  13.030  0.2212  0.1667 -0.1913
  680MPD2    C110109   1.647   0.724  13.108  0.0058 -1.0869  0.5002
  680MPD2    C210110   1.761   0.767  13.168  0.4190  0.0790 -0.4646
  680MPD2    C310111   1.803   0.898  13.157  0.1498 -0.5329  0.5274
  680MPD2    C410112   1.734   0.989  13.077  0.3594  0.0857  0.0752
  680MPD2    C510113   1.613   0.950  13.020 -0.4551  0.3697 -0.2163
  680MPD2     H10114   1.814   0.696  13.232  0.2037  0.6596  0.3627
  680MPD2    H110115   1.763   1.094  13.069  1.9277 -0.3463  0.1740
  680MPD2    H210116   1.484   0.784  12.981  0.4132 -0.2496 -0.2811
  680MPD2    H310117   1.550   1.020  12.966  1.1812  1.5749 -0.5527
  680MPD2     N10118   1.911   0.950  13.230 -0.2689  0.2207  0.6081
  680MPD2    H510119   1.947   1.041  13.203  1.1284  0.1534  2.2018
  680MPD2    N110120   1.606   0.592  13.118  0.9646  0.1289 -0.2437
  680MPD2    H710121   1.678   0.529  13.153  0.5076  1.0573  2.4123
  681TMC3    C110122   1.506   0.385  13.095  0.2393  0.1269  0.2316
  681TMC3    C210123   1.390   0.320  13.105 -0.2786 -0.1638  0.0399
  681TMC3    C310124   1.386   0.187  13.067  0.4691  0.1724 -0.7270
  681TMC3    C410125   1.616   0.325  13.041 -0.3005  0.2383 -0.0955
  681TMC3    C510126   1.607   0.194  12.991 -0.2638  0.2975  0.2191
  681TMC3    C610127   1.495   0.124  13.005 -1.3123 -0.4226  0.6643
  681TMC3     C10128   1.490   0.529  13.101 -0.0397 -0.2926 -0.1261
  681TMC3     O10129   1.375   0.574  13.088  0.0609  0.0415 -0.1188
  681TMC3     H10130   1.313   0.368  13.164  0.2456 -1.3260  1.7023
  681TMC3    H110131   1.685   0.390  12.990 -1.5352 -0.3598 -2.5120
  681TMC3    H210132   1.502   0.018  12.984  0.9440  0.3845 -2.6851
  681TMC3    C710133   1.734   0.138  12.959  0.3378  0.1053 -0.3676
  681TMC3    C810134   1.306   0.103  13.156 -0.6044  0.2245  0.6181
  681TMC3    O110135   1.761   0.033  13.012  0.5253 -0.2724  0.3298
  681TMC3    O210136   1.250   0.002  13.108 -0.2545 -0.5083  0.3248
  682MPD2     C10137   3.999   2.846  10.134  1.2294 -0.1568  0.3497
  682MPD2    C110138   3.917   2.734  10.151 -0.6943  0.4287 -0.4142
  682MPD2    C210139   3.852   2.707  10.265 -0.4577  0.5129  0.5458
  682MPD2    C310140   3.831   2.812  10.352 -0.4392 -0.6371  0.2742
  682MPD2    C410141   3.895   2.934  10.331  0.1272  0.1296 -0.1502
  682MPD2    C510142   3.985   2.948  10.229 -0.1966 -0.1670 -0.0454
  682MPD2     H10143   3.796   2.615  10.276  1.4795 -0.5441  1.5996
  682MPD2    H110144   3.895   3.015  10.402  1.9959  0.6996 -0.8045
  682MPD2    H210145   4.063   2.859  10.048 -0.2059 -0.2433 -0.7306
  682MPD2    H310146   4.037   3.042  10.212 -0.0360 -0.2840 -0.2102
  682MPD2     N10147   3.754   2.785  10.461  0.0399 -0.4408  0.2746
  682MPD2    H510148   3.713   2.692  10.472  0.5639 -1.1991 -4.2150
  682MPD2    N110149   3.910   2.626  10.055  0.0644 -0.3455 -0.1034
  682MPD2    H710150   3.847   2.549  10.077  1.6516 -1.0078  2.1240
  683TMC3    C110151   3.654   2.656  10.856 -0.1369 -0.4861  0.4791
  683TMC3    C210152   3.595   2.549  10.789  0.0964 -1.0103 -0.0682
  683TMC3    C310153   3.538   2.569  10.662 -0.5618 -0.3572 -0.0176
  683TMC3    C410154   3.667   2.783  10.793  0.5020  0.1471  0.5020
  683TMC3    C510155   3.633   2.791  10.664 -0.2183 -0.4663  0.4418
  683TMC3    C610156   3.553   2.694  10.601 -0.2552 -0.1452  0.2256
  683TMC3     C10157   3.682   2.647  11.001  0.5655 -1.1052  0.5054
  683TMC3     O10158   3.767   2.719  11.046  0.2744  0.6525 -0.2030
  683TMC3     H10159   3.605   2.455  10.844  1.5638 -0.3168  0.8527
  683TMC3    H110160   3.727   2.858  10.843  1.0696 -0.6343  1.0135
  683TMC3    H210161   3.516   2.706  10.500  0.4840  1.1466  0.0986
  683TMC3    C710162   3.720   2.862  10.571 -0.4111  0.1206 -0.3280
  683TMC3    C810163   3.500   2.454  10.580  0.2506 -0.0593  1.0011
  683TMC3    O110164   3.762   2.975  10.603  0.4362  0.3959  0.0367
  683TMC3    O210165   3.516   2.472  10.459 -0.2841  0.4167  0.7050
  684MPD2     C10166   1.836   1.319  16.506  0.2963  0.7672  0.1801
  684MPD2    C110167   1.840   1.347  16.370  0.0660  0.1519 -0.6244
  684MPD2    C210168   1.891   1.463  16.325 -0.5779  0.2673  0.1299
  684MPD2    C310169   1.935   1.558  16.410  0.2889 -0.8444 -0.1505
  684MPD2    C410170   1.924   1.536  16.545  0.2982  0.4576 -0.1993
  684MPD2    C510171   1.868   1.421  16.594  0.3209  0.0829 -0.3771
  684MPD2     H10172   1.897   1.476  16.217 -0.7415 -2.1027 -0.1772
  684MPD2    H110173   1.944   1.614  16.618 -0.9021 -0.9052  1.5890
  684MPD2    H210174   1.786   1.231  16.544  1.1920  0.8245  1.4672
  684MPD2    H310175   1.860   1.408  16.701  3.6789  0.1053 -0.1211
  684MPD2     N10176   1.974   1.684  16.373  0.6196 -0.3512 -0.1742
  684MPD2    H510177   2.017   1.733  16.451  0.4314 -1.3588  0.5676
  684MPD2    N110178   1.795   1.258  16.265 -0.5610 -0.5116  0.1510
  684MPD2    H710179   1.795   1.300  16.172 -0.7213 -2.6181 -0.7820
  685TMC3    C110180   1.765   1.055  16.155 -0.1309  0.5755 -0.6827
  685TMC3    C210181   1.678   1.095  16.061  0.2068  0.5926 -0.1432
  685TMC3    C310182   1.706   1.063  15.929  0.0043 -0.2026  0.3210
  685TMC3    C410183   1.870   0.974  16.126 -0.0678  0.2098 -0.5027
  685TMC3    C510184   1.889   0.938  15.996  0.0498 -0.7860  0.0185
  685TMC3    C610185   1.807   0.980  15.896  0.0715  0.3627  0.0087
  685TMC3     C10186   1.773   1.120  16.281  0.0286 -0.1076  0.1759
  685TMC3     O10187   1.763   1.047  16.379 -0.6874  0.3033  0.4640
  685TMC3     H10188   1.590   1.148  16.096  0.6477  0.3548  1.3516
  685TMC3    H110189   1.957   0.978  16.190 -0.4968 -2.9668  0.2851
  685TMC3    H210190   1.806   0.948  15.792 -0.7167 -0.0104  0.1272
  685TMC3    C710191   2.025   0.898  15.971 -0.8990  0.5571  0.6703
  685TMC3    C810192   1.602   1.086  15.829  0.8681  0.3405 -0.1253
  685TMC3    O110193   2.077   0.828  16.054 -0.5814  0.0297  0.3644
  685TMC3    O210194   1.611   1.020  15.727 -0.0668  0.2578  0.2921
  686MPD2     C10195   3.193   1.303  14.981  0.0561 -0.2554 -0.7038
  686MPD2    C110196   3.223   1.201  15.068 -0.2682  0.1570  0.1153
  686MPD2    C210197   3.292   1.090  15.021  0.1381  0.4693  0.3674
  686MPD2    C310198   3.331   1.079  14.889 -0.3745 -0.9052 -0.0101
  686MPD2    C410199   3.305   1.184  14.798 -0.4320  0.0696  0.0996
  686MPD2    C510200   3.230   1.290  14.847  0.1525 -0.8608 -0.7560
  686MPD2     H10201   3.304   1.002  15.082 -0.3268 -0.5839 -1.0803
  686MPD2    H110202   3.325   1.171  14.693 -2.5336  2.8356 -0.6363
  686MPD2    H210203   3.129   1.383  15.016 -0.4232 -0.8815 -0.1403
  686MPD2    H310204   3.189   1.370  14.785  0.5759  0.2403  0.3832
  686MPD2     N10205   3.386   0.957  14.857 -0.1243  0.3686 -0.1639
  686MPD2    H510206   3.409   0.896  14.935 -0.8747 -1.4894 -1.3865
  686MPD2    N110207   3.156   1.200  15.194 -0.1146  0.3755 -0.5256
  686MPD2    H710208   3.087   1.272  15.211  0.0539  0.4096  0.0010
  687TMC3    C110209   3.425   0.768  14.752 -0.3118  0.9481 -0.3022
  687TMC3    C210210   3.314   0.691  14.771 -0.0860  0.4200  0.5451
  687TMC3    C310211   3.303   0.623  14.883  0.1639  0.1253 -0.1572
  687TMC3    C410212   3.528   0.746  14.843 -0.0027  0.3996  0.1049
  687TMC3    C510213   3.519   0.664  14.950  0.0950 -0.2905  0.2390
  687TMC3    C610214   3.408   0.598  14.970  0.5862  0.6637 -0.4271
  687TMC3     C10215   3.397   0.905  14.732 -0.4054 -0.0285 -0.5368
  687TMC3     O10216   3.353   0.944  14.625  0.1737 -0.3122 -0.0903
  687TMC3     H10217   3.226   0.716  14.712 -1.4248 -2.6914  1.2232
  687TMC3    H110218   3.614   0.811  14.848  1.5270 -1.5350 -1.2996
  687TMC3    H210219   3.390   0.541  15.060  1.2231 -0.0437 -0.7486
  687TMC3    C710220   3.547   0.728  15.069  0.2911 -0.2309 -0.7807
  687TMC3    C810221   3.174   0.643  14.952 -0.0277 -0.0545 -0.7295
  687TMC3    O110222   3.485   0.828  15.102 -0.0660 -0.0009  0.5583
  687TMC3    O210223   3.148   0.566  15.046  0.3561  0.0384  0.0674
  688MPD2     C10224   2.621   0.348  17.214 -0.1294  0.4774  0.2063
  688MPD2    C110225   2.637   0.214  17.245 -0.4120  0.0352  0.2210
  688MPD2    C210226   2.721   0.135  17.168  0.4687  0.1112 -0.1318
  688MPD2    C310227   2.790   0.192  17.057 -0.2095  0.5693  0.0337
  688MPD2    C410228   2.767   0.324  17.022  0.6746 -0.2819 -0.0282
  688MPD2    C510229   2.687   0.398  17.103 -0.5371 -0.0115  0.0785
  688MPD2     H10230   2.741   0.033  17.198  0.3342 -0.2436 -1.2596
  688MPD2    H110231   2.805   0.375  16.934 -1.5585  2.6386  0.7140
  688MPD2    H210232   2.556   0.415  17.271 -1.2369 -0.4027 -0.0325
  688MPD2    H310233   2.665   0.499  17.072 -0.4310 -0.1190 -0.3603
  688MPD2     N10234   2.883   0.124  16.968  0.4073 -0.2904  0.3834
  688MPD2    H510235   2.921   0.170  16.886  0.6438 -0.3623  0.4513
  688MPD2    N110236   2.569   0.143  17.345  0.3273 -0.5000  0.3183
  688MPD2    H710237   2.607   0.050  17.361  1.0260  0.0119  1.6486
  689TMC3    C110238   2.416   0.106  17.525 -0.6827  0.2270 -0.9022
  689TMC3    C210239   2.364   0.164  17.641  0.0732 -0.6252 -0.0195
  689TMC3    C310240   2.338   0.083  17.749 -0.1992 -0.7524 -0.2200
  689TMC3    C410241   2.440   4.712  17.512  0.5812  0.2622  0.3416
  689TMC3    C510242   2.415   4.641  17.626 -0.2193 -0.2457  0.2902
  689TMC3    C610243   2.365   4.694  17.744 -0.2891 -0.3497 -0.0363
  689TMC3     C10244   2.463   0.197  17.421  0.4798  0.0349  0.3156
  689TMC3     O10245   2.409   0.308  17.412 -0.8890  0.3934  1.1907
  689TMC3     H10246   2.354   0.271  17.641 -0.9581 -0.7186 -1.3585
  689TMC3    H110247   2.471   4.660  17.422 -0.2661 -1.2383  0.9052
  689TMC3    H210248   2.345   4.645   0.076 -1.0144  2.8171  1.4469
  689TMC3    C710249   2.432   4.495  17.638 -0.9973  0.6591  0.6057
  689TMC3    C810250   2.295   0.148   0.118  0.1649 -0.1987 -0.4725
  689TMC3    O110251   2.443   4.440  17.747 -0.2648  0.0015 -0.7386
  689TMC3    O210252   2.284   0.074   0.219 -0.1519  0.1740  0.3788
  690MPD2     C10253   4.674   2.084  15.697 -0.2909  0.0051  0.5966
  690MPD2    C110254   4.716   1.987  15.610  0.1280 -0.2763  0.7433
  690MPD2    C210255   0.096   2.012  15.543 -0.2003  0.2066  0.1350
  690MPD2    C310256   0.164   2.129  15.558 -0.5536 -0.2045  0.0442
  690MPD2    C410257   0.129   2.219  15.658  0.0196 -0.1325  0.4529
  690MPD2    C510258   0.005   2.198  15.715  0.4996 -0.0582 -0.0250
  690MPD2     H10259   0.121   1.949  15.458  1.0546  4.8785 -2.9799
  690MPD2    H110260   0.187   2.305  15.691 -1.1089  0.7918  0.0386
  690MPD2    H210261   4.580   2.077  15.751  0.7235  1.5976  2.5755
  690MPD2    H310262   4.714   2.272  15.788 -1.5220 -0.6675 -0.3127
  690MPD2     N10263   0.288   2.145  15.490  0.4597  0.4863  0.1068
  690MPD2    H510264   0.306   2.076  15.418  0.4352  1.3437 -0.7145
  690MPD2    N110265   4.635   1.884  15.586 -0.1586 -0.5057 -0.0577
  690MPD2    H710266   4.536   1.887  15.606 -0.2962  1.6037 -1.0482
  691TMC3    C110267   4.568   1.662  15.526 -0.2114  0.4549 -0.5672
  691TMC3    C210268   4.441   1.717  15.503 -0.4655  0.6755 -0.1325
  691TMC3    C310269   4.343   1.620  15.485 -0.3815  0.1679  0.2526
  691TMC3    C410270   4.605   1.531  15.512 -0.2608  0.4699 -0.2093
  691TMC3    C510271   4.499   1.444  15.485  0.3110  0.4178 -0.0216
  691TMC3    C610272   4.371   1.489  15.470 -0.2648  0.7261  0.0765
  691TMC3     C10273   4.674   1.756  15.547 -0.6140  0.0082 -0.4794
  691TMC3     O10274   0.048   1.707  15.556 -0.5770 -0.4635 -0.3290
  691TMC3     H10275   4.428   1.824  15.492 -0.4138  0.7135  0.1760
  691TMC3    H110276   4.706   1.495  15.526 -0.4562  0.2055  0.5130
  691TMC3    H210277   4.279   1.434  15.457  0.0495  0.1093  0.4747
  691TMC3    C710278   4.533   1.305  15.477  0.8689 -0.0783 -1.2647
  691TMC3    C810279   4.231   1.661  15.410  1.3197 -0.0843 -0.5918
  691TMC3    O110280   4.637   1.270  15.534  0.1478  0.2231  0.4489
  691TMC3    O210281   4.185   1.577  15.334  0.0660 -0.5749  0.2711
  692TMC3    C110282   1.523   2.818  15.519 -0.2436  0.0643  0.7991
  692TMC3    C210283   1.643   2.867  15.458  0.1366  0.0315  0.3896
  692TMC3    C310284   1.750   2.784  15.435  0.4517 -1.0796  0.5900
  692TMC3    C410285   1.514   2.689  15.564  0.1606  0.0267 -0.0864
  692TMC3    C510286   1.624   2.610  15.538  0.4703 -0.3084 -0.2765
  692TMC3    C610287   1.734   2.650  15.467  0.1459 -0.2637 -0.0302
  692TMC3     C10288   1.437   2.910  15.585  0.8706  0.9881 -0.6818
  692TMC3     O10289   1.380   2.878  15.687 -0.0070  0.3250  0.0084
  692TMC3     H10290   1.647   2.972  15.431  0.1477  0.4359  1.9965
  692TMC3    H110291   1.433   2.650  15.624 -0.3785 -0.0259 -0.8510
  692TMC3    H210292   1.809   2.571  15.469 -0.4528 -0.8368  0.1565
  692TMC3    C710293   1.590   2.472  15.555  0.2535  0.2128 -0.0717
  692TMC3    C810294   1.882   2.833  15.444  0.6042 -0.2697 -0.4265
  692TMC3    O110295   1.473   2.444  15.533  0.2364  0.2147 -0.4019
  692TMC3    O210296   1.905   2.941  15.391  0.0908 -0.4859  0.3946
  693MPD2     C10297   1.296   1.369  10.752  0.2173 -0.4307  0.3306
  693MPD2    C110298   1.298   1.251  10.827 -0.3293  0.1738  0.4909
  693MPD2    C210299   1.415   1.206  10.889 -0.0157 -0.4914  0.4408
  693MPD2    C310300   1.534   1.283  10.887  0.6889 -0.0544  0.3445
  693MPD2    C410301   1.532   1.401  10.810  0.1825 -0.1816  0.0868
  693MPD2    C510302   1.416   1.443  10.757  0.2322  0.0509 -0.3634
  693MPD2     H10303   1.414   1.119  10.953  1.6424 -0.4246  0.5634
  693MPD2    H110304   1.619   1.464  10.799  0.2818 -0.1833  0.8731
  693MPD2    H210305   1.209   1.405  10.699 -0.7596 -2.9599  0.2198
  693MPD2    H310306   1.420   1.534  10.697 -0.8369  0.2722 -0.0915
  693MPD2     N10307   1.651   1.253  10.956 -0.2356  0.4074  0.2995
  693MPD2    H510308   1.727   1.318  10.940  0.3032 -0.3315 -0.1301
  693MPD2    N110309   1.172   1.183  10.840  0.0158  0.0901  0.1299
  693MPD2    H710310   1.096   1.209  10.778  0.6132  3.3521  0.7464
  694TMC3    C110311   1.001   1.045  10.934 -0.2980 -0.8425  0.0595
  694TMC3    C210312   0.940   1.041  10.812 -0.4103  0.0339 -0.2128
  694TMC3    C310313   0.827   0.961  10.810 -0.0928 -0.7429 -0.0217
  694TMC3    C410314   0.952   0.971  11.031  0.1329 -0.1093 -0.0103
  694TMC3    C510315   0.844   0.895  11.025 -0.5182  0.6004 -0.0575
  694TMC3    C610316   0.774   0.884  10.912 -0.5366 -0.1280  0.1523
  694TMC3     C10317   1.140   1.091  10.943 -0.5059 -0.3585  0.8012
  694TMC3     O10318   1.192   1.076  11.053  0.3190  0.2374 -0.1151
  694TMC3     H10319   0.972   1.099  10.727 -2.3004  1.5264  0.0986
  694TMC3    H110320   0.993   0.995  11.129 -0.5857  2.5085 -0.3575
  694TMC3    H210321   0.685   0.824  10.901 -1.2294  0.9230  0.0112
  694TMC3    C710322   0.776   0.867  11.147  0.3420 -0.3686  0.4689
  694TMC3    C810323   0.743   0.970  10.693  1.4263  0.2669  0.1241
  694TMC3    O110324   0.785   0.950  11.237 -0.0150  0.4434 -0.4299
  694TMC3    O210325   0.679   0.870  10.659 -0.0330 -0.4350  0.1219
  695MPD2     C10326   2.119   2.262  13.830 -0.0401  0.0488  0.2801
  695MPD2    C110327   2.128   2.396  13.805 -0.5857 -0.0718 -0.2121
  695MPD2    C210328   2.011   2.466  13.785  0.5488  0.1149 -0.2651
  695MPD2    C310329   1.885   2.402  13.786  0.3585 -0.0578  0.5644
  695MPD2    C410330   1.879   2.263  13.801  0.8056 -0.9897 -0.1309
  695MPD2    C510331   1.999   2.197  13.823 -0.6466  0.7601 -0.4347
  695MPD2     H10332   2.024   2.569  13.755  1.6513  0.5431  1.6610
  695MPD2    H110333   1.789   2.202  13.797  0.3844 -0.4349  0.9009
  695MPD2    H210334   2.204   2.197  13.852 -0.8657 -0.9688  0.4630
  695MPD2    H310335   1.996   2.089  13.836 -0.8827  0.5167 -2.4966
  695MPD2     N10336   1.771   2.487  13.772  0.0884  0.2907 -0.3435
  695MPD2    H510337   1.788   2.587  13.771 -1.2157  0.5153  1.5379
  695MPD2    N110338   2.248   2.467  13.804  0.2492  0.2120  0.1952
  695MPD2    H710339   2.250   2.568  13.791  1.7586  0.5358  3.1643
  696TMC3    C110340   1.551   2.559  13.790 -0.3368  0.2035  0.5477
  696TMC3    C210341   1.439   2.538  13.873  1.0490  0.0099 -0.2296
  696TMC3    C310342   1.339   2.626  13.860 -0.0698 -0.2128  0.2581
  696TMC3    C410343   1.550   2.653  13.689 -0.0525  0.5238  1.0724
  696TMC3    C510344   1.442   2.738  13.686  0.1239 -0.1581 -0.2955
  696TMC3    C610345   1.329   2.717  13.762 -0.2860 -0.3971 -0.3406
  696TMC3     C10346   1.640   2.448  13.779 -0.2444 -0.1171 -0.3013
  696TMC3     O10347   1.596   2.337  13.793 -0.1933 -0.0880 -0.6081
  696TMC3     H10348   1.431   2.459  13.947  2.4132  2.6624  2.7507
  696TMC3    H110349   1.637   2.661  13.625  0.4498 -0.2395  1.6567
  696TMC3    H210350   1.236   2.772  13.756  0.6763  1.0461 -2.0247
  696TMC3    C710351   1.448   2.860  13.612  0.5292  0.6133  0.5978
  696TMC3    C810352   1.213   2.577  13.917  0.4325 -0.0534 -0.1974
  696TMC3    O110353   1.515   2.864  13.508  0.0942  0.8539  0.4069
  696TMC3    O210354   1.193   2.454  13.907  1.0161  0.8404  0.6539
  697MPD2     C10355   1.533   4.047  15.252 -0.4308 -0.2624  0.2506
  697MPD2    C110356   1.431   4.050  15.156 -0.5625 -0.1195 -0.4597
  697MPD2    C210357   1.444   4.136  15.051 -0.2322  0.2335 -0.2269
  697MPD2    C310358   1.557   4.217  15.033 -0.0264  0.1010  1.1213
  697MPD2    C410359   1.660   4.210  15.123 -0.2974  0.4671  0.8261
  697MPD2    C510360   1.645   4.131  15.236 -0.2351  0.1665 -0.2589
  697MPD2     H10361   1.362   4.156  14.984 -0.6618  2.1595  0.8393
  697MPD2    H110362   1.755   4.262  15.118 -0.4709  0.8426  1.4294
  697MPD2    H210363   1.531   3.991  15.345 -1.0986 -1.4241 -0.4538
  697MPD2    H310364   1.715   4.128  15.318 -1.1369 -0.6832  0.4754
  697MPD2     N10365   1.557   4.322  14.931 -0.8714  0.8624 -0.3549
  697MPD2    H510366   1.469   4.339  14.884 -0.4269 -2.7223 -2.4932
  697MPD2    N110367   1.325   3.961  15.162  0.1948  0.1702 -0.5748
  697MPD2    H710368   1.264   3.960  15.081  3.7817  1.4382 -3.3137
  698TMC3    C110369   1.625   4.526  14.817  0.1116  0.2119  0.0685
  698TMC3    C210370   1.683   4.645  14.834  0.9308  0.3271 -0.0310
  698TMC3    C310371   1.698   4.741  14.736  0.0469 -0.6727 -0.2313
  698TMC3    C410372   1.573   4.497  14.693 -0.1395 -0.8890 -0.5070
  698TMC3    C510373   1.582   4.594  14.590 -0.9165  0.7672 -0.3596
  698TMC3    C610374   1.642   4.713  14.616 -0.0102 -0.0912 -0.0513
  698TMC3     C10375   1.656   4.421  14.911  0.4306 -0.2527 -0.2267
  698TMC3     O10376   1.771   4.426  14.956  0.0693  0.1307 -0.0687
  698TMC3     H10377   1.737   4.666  14.926  1.7432  0.8275 -0.6183
  698TMC3    H110378   1.542   4.395  14.676  1.3597 -0.9543 -2.7976
  698TMC3    H210379   1.643   0.049  14.540  0.6554  0.8621  0.9219
  698TMC3    C710380   1.548   4.550  14.454 -0.0391  0.1778  0.8539
  698TMC3    C810381   1.759   0.125  14.779  0.0463 -0.4675 -0.0762
  698TMC3    O110382   1.483   4.449  14.438 -0.0252  0.7812 -0.2810
  698TMC3    O210383   1.747   0.157  14.897 -0.1193 -0.4643 -0.3205
  699TMC3    C110384   1.103   3.036  13.265  0.1067 -0.1329  0.6337
  699TMC3    C210385   1.140   2.912  13.307 -0.5343 -0.4293  0.6480
  699TMC3    C310386   1.095   2.864  13.424  0.1118 -0.0541  0.7429
  699TMC3    C410387   1.016   3.109  13.352  0.0919 -0.1816  0.0069
  699TMC3    C510388   0.970   3.052  13.464  0.0016 -0.3336  0.2670
  699TMC3    C610389   1.006   2.934  13.506 -0.3499  0.0245 -0.4666
  699TMC3     C10390   1.183   3.118  13.175 -0.1347 -0.5156  0.6501
  699TMC3     O10391   1.137   3.224  13.135  0.0235 -0.5227  0.1195
  699TMC3     H10392   1.204   2.848  13.248 -2.0662  0.1873 -1.6919
  699TMC3    H110393   1.008   3.214  13.327 -0.6553  0.2277  1.9951
  699TMC3    H210394   0.952   2.907  13.595 -0.5338 -1.3098 -0.9908
  699TMC3    C710395   0.856   3.115  13.527 -0.1858 -0.8648 -0.8847
  699TMC3    C810396   1.126   2.730  13.466  0.7042 -0.1828  0.6794
  699TMC3    O110397   0.840   3.098  13.646 -0.2727 -0.2220  0.2134
  699TMC3    O210398   1.073   2.702  13.573  0.2489  0.3968 -0.5826
  700TMC3    C110399   0.685   0.329  16.905  0.0815  0.0575  0.0635
  700TMC3    C210400   0.778   0.232  16.891 -0.5373  0.2530  0.4388
  700TMC3    C310401   0.860   0.188  16.998  0.0204 -0.0464  0.1405
  700TMC3    C410402   0.660   0.398  17.020  0.1308  0.5493 -0.3409
  700TMC3    C510403   0.728   0.352  17.127 -0.0279 -0.1955  0.9759
  700TMC3    C610404   0.822   0.248  17.117 -0.5149 -0.0721  0.3798
  700TMC3     C10405   0.606   0.376  16.792  0.3684 -0.1028 -0.4861
  700TMC3     O10406   0.564   0.294  16.714 -0.2322 -0.2330  0.0072
  700TMC3     H10407   0.807   0.210  16.789 -0.3430 -1.1466  0.7892
  700TMC3    H110408   0.582   0.473  17.027 -0.6332 -0.2914  0.2454
  700TMC3    H210409   0.871   0.207  17.205 -1.3038  0.7401  1.1910
  700TMC3    C710410   0.704   0.419  17.248  0.3413 -0.0538 -0.1761
  700TMC3    C810411   0.989   0.135  16.959  0.6681  0.4340  0.4245
  700TMC3    O110412   0.608   0.495  17.245  0.2181 -0.6771  0.2965
  700TMC3    O210413   0.989   0.097  16.847  0.4122 -0.5186 -0.2162
  701TMC3    C110414   0.745   3.931  15.614  0.2236  0.2731 -0.0800
  701TMC3    C210415   0.712   3.937  15.481 -0.5386  0.3146 -0.6414
  701TMC3    C310416   0.801   3.998  15.398  0.9916 -0.3509  0.1204
  701TMC3    C410417   0.856   3.987  15.669  0.1468  0.2839  0.7077
  701TMC3    C510418   0.948   4.041  15.579 -0.0994 -0.1675  0.4987
  701TMC3    C610419   0.923   4.046  15.443  0.3596 -0.2974 -0.0911
  701TMC3     C10420   0.650   3.891  15.717  0.2862  0.4567  0.1189
  701TMC3     O10421   0.684   3.896  15.833  0.1439 -0.1129 -0.2611
  701TMC3     H10422   0.617   3.895  15.449  0.4351 -2.2505 -0.1686
  701TMC3    H110423   0.869   3.998  15.776 -0.9304  2.6429  0.6186
  701TMC3    H210424   0.996   4.086  15.373 -2.1011  0.4275 -2.2542
  701TMC3    C710425   1.058   4.122  15.625  0.2890  0.0565 -0.2254
  701TMC3    C810426   0.777   4.002  15.249 -0.0607 -0.3736  0.2381
  701TMC3    O110427   1.121   4.182  15.541 -0.3887 -0.7090 -0.2231
  701TMC3    O210428   0.845   4.071  15.179  0.1502  0.1744  0.0043
  702MPD2     C10429   0.491   1.593  10.832  0.6337  0.7189 -0.2113
  702MPD2    C110430   0.355   1.570  10.822  0.3570  0.7347 -0.3249
  702MPD2    C210431   0.281   1.635  10.729  0.5412 -0.2123 -0.3230
  702MPD2    C310432   0.336   1.750  10.664  0.4892  0.0780  0.0814
  702MPD2    C410433   0.467   1.780  10.683  0.0262  0.0643 -0.2553
  702MPD2    C510434   0.545   1.702  10.765  0.3914  0.0062 -0.2495
  702MPD2     H10435   0.178   1.602  10.724  0.1522  0.7139  1.6530
  702MPD2    H110436   0.507   1.871  10.640  1.7903  0.4815  2.2461
  702MPD2    H210437   0.560   1.531  10.888 -2.1047 -1.0966  1.1633
  702MPD2    H310438   0.650   1.728  10.769 -0.0000  1.7344 -1.1587
  702MPD2     N10439   0.270   1.830  10.566  0.6015  0.3895 -0.0898
  702MPD2    H510440   0.311   1.919  10.538 -1.9564  1.1075 -1.6555
  702MPD2    N110441   0.299   1.468  10.901  0.6614  0.3323 -0.0510
  702MPD2    H710442   0.213   1.427  10.866 -1.1980  2.3238  2.1537
  703TMC3    C110443   0.121   1.910  10.409  0.0623  0.2684  0.5386
  703TMC3    C210444   4.730   1.940  10.379  0.2851  0.2404 -0.4858
  703TMC3    C310445   4.716   2.044  10.284 -0.2040 -0.2684  0.0761
  703TMC3    C410446   0.235   1.959  10.344  0.1271 -0.3540 -0.7616
  703TMC3    C510447   0.206   2.060  10.254 -0.5535  0.0638 -0.0613
  703TMC3    C610448   0.081   2.102  10.215  0.1112 -0.5015  0.0987
  703TMC3     C10449   0.150   1.804  10.507  0.4500  0.4562 -0.2587
  703TMC3     O10450   0.065   1.714  10.527  0.3020 -0.3097 -0.4155
  703TMC3     H10451   4.650   1.884  10.425 -0.7348 -1.0318 -3.7927
  703TMC3    H110452   0.332   1.915  10.362  0.3211  0.9657  1.3327
  703TMC3    H210453   0.070   2.182  10.143 -2.6405 -0.4196  0.6260
  703TMC3    C710454   0.316   2.137  10.185 -0.4602  0.2633 -0.2076
  703TMC3    C810455   4.605   2.140  10.289 -0.3015 -0.4524  0.7715
  703TMC3    O110456   0.288   2.188  10.074  0.0598  0.1327 -0.4350
  703TMC3    O210457   4.625   2.257  10.260 -0.1927 -0.1139 -0.1051
  704TMC3    C110458   2.313   4.587  11.900 -0.6109  0.1496  0.0229
  704TMC3    C210459   2.426   4.590  11.822 -0.2548  0.2844 -0.5649
  704TMC3    C310460   2.521   4.492  11.842  0.5421  0.2703 -0.2784
  704TMC3    C410461   2.297   4.493  11.994  0.2924  0.5919  0.1678
  704TMC3    C510462   2.397   4.404  12.027 -0.2035  0.2960 -0.1857
  704TMC3    C610463   2.510   4.398  11.948  0.1321  0.1301  0.2916
  704TMC3     C10464   2.219   4.695  11.894 -1.0088 -0.3511  0.3780
  704TMC3     O10465   2.104   4.685  11.941 -0.2911  0.0346  0.8466
  704TMC3     H10466   2.436   4.655  11.736 -1.8307  1.0704 -0.1569
  704TMC3    H110467   2.203   4.490  12.047  0.1584 -0.8758 -0.1471
  704TMC3    H210468   2.583   4.319  11.963 -0.2461 -0.5756 -1.6036
  704TMC3    C710469   2.368   4.281  12.104 -0.0012  0.3321  0.5169
  704TMC3    C810470   2.602   4.445  11.731  0.1429 -0.5491 -0.8800
  704TMC3    O110471   2.442   4.186  12.081 -0.4305  0.1755 -0.3609
  704TMC3    O210472   2.655   4.337  11.746  0.1399  0.0618  0.1503
  705MPD2     C10473   2.063   2.304  16.305  0.6512 -0.2941 -0.2271
  705MPD2    C110474   2.087   2.434  16.266  0.0743 -0.4401  1.2440
  705MPD2    C210475   1.981   2.525  16.269 -0.3592  0.0153  0.0078
  705MPD2    C310476   1.864   2.485  16.327 -0.1920 -0.4430  0.8938
  705MPD2    C410477   1.843   2.350  16.362 -0.1161  0.2611 -0.2301
  705MPD2    C510478   1.939   2.260  16.339 -0.5385 -0.1221  0.8349
  705MPD2     H10479   1.997   2.631  16.250 -0.5794  0.0533  0.0351
  705MPD2    H110480   1.744   2.318  16.393 -0.2299  0.4335 -0.4104
  705MPD2    H210481   2.147   2.236  16.307 -0.5569 -1.8313 -1.1799
  705MPD2    H310482   1.934   2.156  16.370  2.9616 -0.1963  1.2078
  705MPD2     N10483   1.754   2.574  16.349  0.6118  0.7280  0.2972
  705MPD2    H510484   1.671   2.541  16.399 -0.3613  1.1205 -1.0477
  705MPD2    N110485   2.216   2.482  16.225 -0.7201 -0.3848 -0.0029
  705MPD2    H710486   2.210   2.580  16.198  2.4423 -0.0134  0.6803
  706TMC3    C110487   2.649   2.484  16.062 -0.3963  0.5644  0.6585
  706TMC3    C210488   2.675   2.612  16.089 -0.6218  1.2325  0.0648
  706TMC3    C310489   2.564   2.683  16.145  0.8498 -0.7130  0.4492
  706TMC3    C410490   2.540   2.418  16.104 -0.0189  0.2777 -0.0237
  706TMC3    C510491   2.449   2.483  16.171 -0.0708 -0.0666  0.8617
  706TMC3    C610492   2.450   2.623  16.182 -0.0108  0.4597  0.3349
  706TMC3     C10493   2.749   2.424  15.973  0.1327 -0.4288  0.1065
  706TMC3     O10494   2.865   2.447  15.996  0.1207  0.0982 -0.1851
  706TMC3     H10495   2.756   2.667  16.042 -1.5642  1.1583 -1.6343
  706TMC3    H110496   2.521   2.317  16.068  1.8145 -0.1799  0.2632
  706TMC3    H210497   2.365   2.677  16.222 -1.0365 -0.3003 -0.8114
  706TMC3    C710498   2.332   2.410  16.198  0.5044  0.1044  0.9280
  706TMC3    C810499   2.558   2.813  16.092  0.6270 -0.9468  0.0492
  706TMC3    O110500   2.333   2.287  16.188 -0.0680 -0.4530 -0.3950
  706TMC3    O210501   2.578   2.818  15.970 -0.0357  0.0432  0.1508
  707TMC3    C110502   3.610   1.997   0.236  1.0373 -0.2500 -0.5344
  707TMC3    C210503   3.560   1.936   0.350  0.1976 -0.3979  0.5896
  707TMC3    C310504   3.421   1.908   0.353  0.0023 -0.5900 -0.0990
  707TMC3    C410505   3.534   2.047   0.134  0.2730  1.1499  0.0232
  707TMC3    C510506   3.403   2.034   0.151  0.2441 -0.3839  0.2631
  707TMC3    C610507   3.338   1.965   0.249  0.4444 -0.2673 -0.1104
  707TMC3     C10508   3.747   1.973   0.196  0.1645  0.2761  0.0881
  707TMC3     O10509   3.768   1.951   0.080  0.2473  0.5507 -0.0496
  707TMC3     H10510   3.625   1.904   0.430  1.0146  0.7498  0.3852
  707TMC3    H110511   3.574   2.094   0.045  1.3518 -1.0200 -0.6342
  707TMC3    H210512   3.232   1.943   0.253 -0.2274  3.1216  0.5475
  707TMC3    C710513   3.316   2.135   0.084  0.6472  0.7259 -0.1512
  707TMC3    C810514   3.353   1.852   0.468 -0.7178  0.4301 -0.0680
  707TMC3    O110515   3.199   2.110   0.113 -0.3168  0.0005 -0.5514
  707TMC3    O210516   3.253   1.907   0.506  0.1806  0.4548  0.3526
  708MPD2     C10517   0.658   0.722  13.815  0.1431 -0.0107  0.7923
  708MPD2    C110518   0.534   0.764  13.804  0.0068  0.1074  0.1327
  708MPD2    C210519   0.450   0.769  13.914 -0.3036  0.3004 -0.3725
  708MPD2    C310520   0.480   0.692  14.026 -0.0863  0.5965 -0.3394
  708MPD2    C410521   0.605   0.641  14.039 -0.0689  0.0782  0.3372
  708MPD2    C510522   0.696   0.658  13.934  0.0587 -0.4689  0.7022
  708MPD2     H10523   0.351   0.811  13.904 -1.6728 -2.5264  1.2933
  708MPD2    H110524   0.643   0.587  14.126 -1.9962  0.7438  1.5798
  708MPD2    H210525   0.718   0.716  13.725 -0.7941  0.3459  0.1536
  708MPD2    H310526   0.797   0.619  13.940 -0.5449 -1.8942  1.4206
  708MPD2     N10527   0.397   0.678  14.134  0.5401 -0.1776 -0.0494
  708MPD2    H510528   0.436   0.629  14.214  0.8447  1.2979  0.6937
  708MPD2    N110529   0.475   0.818  13.688 -0.5449 -0.1085 -0.0644
  708MPD2    H710530   0.376   0.840  13.699 -0.3408  1.1865 -0.8801
  709TMC3    C110531   0.438   0.922  13.488  0.2953 -0.2948 -0.1587
  709TMC3    C210532   0.472   1.033  13.426 -0.7759 -0.3890 -0.3321
  709TMC3    C310533   0.386   1.097  13.351 -0.3751  0.8568  0.1106
  709TMC3    C410534   0.308   0.883  13.484  0.3476 -0.5394 -0.4015
  709TMC3    C510535   0.209   0.959  13.422  0.2416  0.0654  0.0399
  709TMC3    C610536   0.248   1.067  13.364 -0.4291  0.1639 -0.0159
  709TMC3     C10537   0.534   0.866  13.578 -0.2361 -0.4111 -0.3626
  709TMC3     O10538   0.649   0.859  13.539 -0.2778 -0.5587  0.2408
  709TMC3     H10539   0.572   1.073  13.440 -0.2934 -1.6333 -0.1964
  709TMC3    H110540   0.290   0.791  13.539  0.3429  0.0232  0.5565
  709TMC3    H210541   0.176   1.131  13.314  0.4469  1.6268  0.6079
  709TMC3    C710542   0.080   0.965  13.484  0.6377 -1.0198 -0.0893
  709TMC3    C810543   0.416   1.236  13.330  0.3443 -0.0764  0.1369
  709TMC3    O110544   4.728   1.015  13.416 -0.4707 -0.7155 -0.4432
  709TMC3    O210545   0.492   1.286  13.408  0.5883  0.4614 -0.0225
  710TMC3    C110546   1.440   2.262  17.671 -0.1458  0.0240  0.2844
  710TMC3    C210547   1.521   2.280  17.559 -0.5815  0.1201  0.7822
  710TMC3    C310548   1.630   2.208  17.542 -0.7862  0.0002  0.4335
  710TMC3    C410549   1.478   2.167   0.000  0.4230 -0.3229  0.5513
  710TMC3    C510550   1.595   2.090  17.741  0.3026 -0.0233  0.0919
  710TMC3    C610551   1.675   2.111  17.628 -0.3726  0.2899 -0.4412
  710TMC3     C10552   1.318   2.335  17.685  0.3833 -0.9180 -0.4336
  710TMC3     O10553   1.270   2.388  17.585 -0.4366  1.0846 -0.4728
  710TMC3     H10554   1.505   2.351  17.479 -0.2837 -0.8004 -0.0945
  710TMC3    H110555   1.401   2.141   0.071 -1.6889  1.1771 -1.1910
  710TMC3    H210556   1.763   2.054  17.603  0.0953  0.5956  0.5102
  710TMC3    C710557   1.595   1.960   0.047  0.4753  0.7470 -0.2235
  710TMC3    C810558   1.708   2.262  17.442  0.1341  0.0215  0.7488
  710TMC3    O110559   1.514   1.943   0.136 -0.6992  0.2426  0.8534
  710TMC3    O210560   1.740   2.195  17.344 -0.4526  0.8333 -0.3630
  711TMC3    C110561   1.634   2.899  14.846  0.2221 -0.0806 -0.7043
  711TMC3    C210562   1.659   3.022  14.899  0.4721  0.8025 -0.2342
  711TMC3    C310563   1.745   3.022  15.005 -0.1703  0.2379  0.3494
  711TMC3    C410564   1.681   2.785  14.897  0.0720  0.0356 -0.2127
  711TMC3    C510565   1.777   2.793  14.998 -0.7035 -0.6069 -0.1099
  711TMC3    C610566   1.810   2.911  15.055 -0.2527 -0.1460  0.0760
  711TMC3     C10567   1.534   2.876  14.754 -0.6668  0.2878 -0.4176
  711TMC3     O10568   1.488   2.762  14.762  0.0528  0.7769 -0.6028
  711TMC3     H10569   1.618   3.115  14.861  1.2680 -0.4884 -4.1883
  711TMC3    H110570   1.652   2.686  14.863  1.7583  0.3825 -2.6688
  711TMC3    H210571   1.895   2.925  15.121  0.6489 -0.8404 -0.9259
  711TMC3    C710572   1.819   2.667  15.069  0.4488 -0.2866 -0.4203
  711TMC3    C810573   1.749   3.146  15.075 -0.3212 -0.5050 -0.2219
  711TMC3    O110574   1.902   2.685  15.158 -0.4170  0.7826 -0.0347
  711TMC3    O210575   1.645   3.209  15.084 -0.1524 -0.0662  0.7322
  712MPD2     C10576   2.166   4.268  12.819  0.7098  0.2990 -0.5109
  712MPD2    C110577   2.091   4.346  12.903 -0.1653  0.1273  0.0206
  712MPD2    C210578   2.152   4.426  13.000  0.3252  0.6443 -0.7611
  712MPD2    C310579   2.295   4.429  13.013 -0.4607 -0.2842  0.5901
  712MPD2    C410580   2.364   4.357  12.927  0.6003 -0.2357 -0.0954
  712MPD2    C510581   2.309   4.276  12.829  0.0999  0.4494  0.1831
  712MPD2     H10582   2.083   4.459  13.077  3.0944  1.8219  1.2471
  712MPD2    H110583   2.472   4.350  12.937  0.5256 -0.2327  0.7581
  712MPD2    H210584   2.125   4.182  12.769  1.4860 -0.0140 -0.6177
  712MPD2    H310585   2.371   4.214  12.766  0.7010  1.3340 -0.0974
  712MPD2     N10586   2.353   4.492  13.130 -0.6484 -0.5402  0.1881
  712MPD2    H510587   2.454   4.488  13.134 -0.5897 -1.5017 -2.1281
  712MPD2    N110588   1.955   4.354  12.904  0.0705  0.5001  0.0496
  712MPD2    H710589   1.907   4.410  12.974 -1.4205 -2.3556  1.3182
  713TMC3    C110590   2.376   4.676  13.264  0.0136  0.2062  0.2259
  713TMC3    C210591   2.484   4.618  13.323  0.7282  0.2382  0.0227
  713TMC3    C310592   2.587   4.707  13.356  0.1670  0.4504 -0.3315
  713TMC3    C410593   2.353   0.073  13.262  0.0860  0.0438  0.0405
  713TMC3    C510594   2.450   0.154  13.301  0.4294  0.2951 -0.5421
  713TMC3    C610595   2.563   0.104  13.360  0.6401  0.2491  0.7722
  713TMC3     C10596   2.283   4.584  13.208  0.1286 -0.6332  0.0887
  713TMC3     O10597   2.170   4.630  13.192 -0.1166 -0.6444  0.2609
  713TMC3     H10598   2.488   4.509  13.328 -1.2692  0.1821  0.4793
  713TMC3    H110599   2.262   0.112  13.219  1.7544  2.8355 -0.9565
  713TMC3    H210600   2.642   0.174  13.384  0.9590 -0.0851  0.7016
  713TMC3    C710601   2.475   0.269  13.215 -0.1053  0.2648 -0.5597
  713TMC3    C810602   2.707   4.652  13.412  0.8783  0.5658  0.0199
  713TMC3    O110603   2.590   0.289  13.182 -0.4929  0.1289  0.1292
  713TMC3    O210604   2.696   4.569  13.499  0.1538 -0.6080 -0.3434
  714MPD2     C10605   0.127   3.759   0.997 -0.1215 -0.6228  0.2618
  714MPD2    C110606   0.096   3.636   0.946 -0.1250  0.2978  0.6094
  714MPD2    C210607   4.732   3.618   0.860  0.1760 -1.3080 -0.6746
  714MPD2    C310608   4.663   3.732   0.817  0.7623 -0.3487 -0.4501
  714MPD2    C410609   4.702   3.856   0.855  0.3727  0.0071 -0.9079
  714MPD2    C510610   0.058   3.867   0.956  0.4743 -0.3120  0.3009
  714MPD2     H10611   4.704   3.515   0.839 -1.1346 -1.1808  0.4312
  714MPD2    H110612   4.652   3.946   0.822 -0.8464 -1.2089 -2.3764
  714MPD2    H210613   0.212   3.770   1.064  0.1017  0.4726 -0.2161
  714MPD2    H310614   0.102   3.960   0.989 -0.0730 -0.3424  1.1124
  714MPD2     N10615   4.575   3.709   0.707  0.1340 -0.4263  0.4559
  714MPD2    H510616   4.576   3.620   0.659  1.0437 -0.9652  1.4529
  714MPD2    N110617   0.184   3.541   0.997  0.1842 -0.2770 -0.0071
  714MPD2    H710618   0.250   3.568   1.069 -1.2817  0.9505  0.8672
  715TMC3    C110619   0.294   3.336   1.022  0.2330 -0.3389  0.4044
  715TMC3    C210620   0.272   3.202   1.052 -0.9093 -0.3548 -0.2426
  715TMC3    C310621   0.385   3.137   1.110  0.5634  0.1159  0.1466
  715TMC3    C410622   0.411   3.407   1.048  0.2417  0.5591  0.0368
  715TMC3    C510623   0.515   3.336   1.100 -0.0074  0.6385  0.1670
  715TMC3    C610624   0.507   3.199   1.121 -0.5686 -0.0483 -0.7591
  715TMC3     C10625   0.181   3.408   0.963 -0.1878 -0.7234 -0.1785
  715TMC3     O10626   0.105   3.337   0.896  0.1291 -0.2291  0.0022
  715TMC3     H10627   0.175   3.157   1.037 -1.5207  0.7895  0.2478
  715TMC3    H110628   0.426   3.508   1.012 -0.5767  1.3341  1.8914
  715TMC3    H210629   0.596   3.147   1.153 -0.4605  0.8662  0.4412
  715TMC3    C710630   0.633   3.421   1.121 -0.3347 -0.3127 -0.0771
  715TMC3    C810631   0.385   2.995   1.121 -0.0375  0.2526  0.1682
  715TMC3    O110632   0.749   3.374   1.117  0.7853  0.3988 -0.1498
  715TMC3    O210633   0.306   2.922   1.060 -0.1795 -0.6365 -0.2557
  716MPD2     C10634   0.484   1.934   9.884  0.0710 -0.0620  0.1810
  716MPD2    C110635   0.496   1.947   9.751  0.2206  0.2310 -0.0571
  716MPD2    C210636   0.501   1.830   9.672  0.3650 -0.1779  0.1791
  716MPD2    C310637   0.459   1.712   9.726 -0.1245  0.6555  0.1107
  716MPD2    C410638   0.445   1.697   9.862 -0.8273  0.5261  0.0651
  716MPD2    C510639   0.459   1.808   9.942 -0.7032  0.1252 -0.3053
  716MPD2     H10640   0.517   1.837   9.565 -0.1290  3.1933  0.3338
  716MPD2    H110641   0.412   1.602   9.902 -1.7236  0.3932 -0.9891
  716MPD2    H210642   0.489   2.021   9.948  0.2780 -0.3816  0.5966
  716MPD2    H310643   0.440   1.803  10.048 -3.9884  2.7064 -0.7706
  716MPD2     N10644   0.447   1.608   9.632  0.2096  0.0505 -0.1750
  716MPD2    H510645   0.454   1.633   9.534  0.7023 -1.8421 -0.6194
  716MPD2    N110646   0.520   2.073   9.689 -0.8327 -0.4015  0.4548
  716MPD2    H710647   0.503   2.152   9.751  0.4645  1.1942 -1.2085
  717TMC3    C110648   0.439   1.399   9.543 -0.2965  0.5492  0.1401
  717TMC3    C210649   0.343   1.421   9.440  0.2924  0.8082  0.1758
  717TMC3    C310650   0.334   1.337   9.342  0.2558 -0.7760 -0.1749
  717TMC3    C410651   0.510   1.289   9.546 -0.4021 -0.1658 -0.0386
  717TMC3    C510652   0.488   1.193   9.451  0.6048 -0.1656  0.0464
  717TMC3    C610653   0.413   1.215   9.333 -0.0688  0.3170  0.3287
  717TMC3     C10654   0.448   1.477   9.664 -0.9693 -0.0708  0.3107
  717TMC3     O10655   0.450   1.421   9.770 -0.3457 -0.3134  0.3304
  717TMC3     H10656   0.280   1.508   9.449 -1.3814 -0.2987 -0.9008
  717TMC3    H110657   0.574   1.272   9.632  1.0024  0.1993 -1.0203
  717TMC3    H210658   0.416   1.146   9.249 -0.5390  0.7120 -0.0113
  717TMC3    C710659   0.571   1.075   9.465  0.1946 -0.5863 -0.1697
  717TMC3    C810660   0.222   1.359   9.244  0.6612  0.0735  0.6335
  717TMC3    O110661   0.672   1.085   9.537  0.5327  0.2055  0.1285
  717TMC3    O210662   0.177   1.473   9.247 -0.7462 -0.1233  0.0685
  718MPD2     C10663   3.839   4.323  12.963  0.2556  0.1072 -0.3393
  718MPD2    C110664   3.796   4.374  12.838 -0.3211 -0.5090  0.3728
  718MPD2    C210665   3.673   4.355  12.795 -0.1794 -0.6149 -0.2554
  718MPD2    C310666   3.583   4.282  12.871 -1.1495  0.3596  0.5387
  718MPD2    C410667   3.628   4.222  12.987  0.0355  0.3201  0.1269
  718MPD2    C510668   3.754   4.240  13.035  0.4142 -0.3933  0.0381
  718MPD2     H10669   3.639   4.394  12.700  2.8239 -0.7058 -1.3721
  718MPD2    H110670   3.552   4.180  13.051 -2.1969  0.5802 -2.3205
  718MPD2    H210671   3.942   4.322  12.996  1.2285  0.2721 -3.3474
  718MPD2    H310672   3.802   4.191  13.119 -1.3234 -0.3224  1.0884
  718MPD2     N10673   3.450   4.268  12.817 -0.2105 -0.2346 -0.4177
  718MPD2    H510674   3.435   4.322  12.732 -3.7317  1.3900  1.2575
  718MPD2    N110675   3.892   4.435  12.757 -0.8873 -0.1930  0.2277
  718MPD2    H710676   3.987   4.414  12.786 -0.8079 -0.3243 -0.1250
  719TMC3    C110677   3.961   4.508  12.538  0.8152 -0.3214  0.0743
  719TMC3    C210678   3.999   4.385  12.499 -0.3304  0.0593  0.0995
  719TMC3    C310679   3.991   4.353  12.365 -0.3015  0.0626 -0.4526
  719TMC3    C410680   3.922   4.600  12.451  1.1659  0.7461  0.4042
  719TMC3    C510681   3.929   4.569  12.318  0.1096 -0.9213 -0.4193
  719TMC3    C610682   3.965   4.444  12.267 -0.0411  0.3592 -0.1493
  719TMC3     C10683   3.863   4.507  12.643  0.2683 -0.2358 -0.3143
  719TMC3     O10684   3.762   4.575  12.625 -0.0970  0.0358 -0.3896
  719TMC3     H10685   4.009   4.307  12.573 -2.4551 -0.3688 -0.0663
  719TMC3    H110686   3.903   4.700  12.489  1.4452  1.0369 -0.2345
  719TMC3    H210687   3.969   4.430  12.159  0.5451 -2.5909  0.2523
  719TMC3    C710688   3.994   4.671  12.236  0.1116 -0.5480  0.2367
  719TMC3    C810689   3.910   4.230  12.353  0.0785 -0.1275 -0.8739
  719TMC3    O110690   4.101   4.648  12.183 -0.2909 -0.4945  0.0439
  719TMC3    O210691   3.886   4.160  12.453 -0.2542 -0.3414  0.5252
  720MPD2     C10692   2.482   1.440  13.708 -0.6872 -0.2598  0.0424
  720MPD2    C110693   2.584   1.488  13.629 -0.4114  0.1267  0.1821
  720MPD2    C210694   2.706   1.516  13.679 -0.3450  0.1574 -0.1947
  720MPD2    C310695   2.742   1.499  13.811 -0.2045  0.0804  0.1237
  720MPD2    C410696   2.640   1.452  13.890  0.2509  0.4581  0.3585
  720MPD2    C510697   2.513   1.432  13.840 -0.1082  0.2606  0.1253
  720MPD2     H10698   2.789   1.549  13.619 -2.0736  0.0436 -2.6299
  720MPD2    H110699   2.665   1.413  13.988  1.1892 -3.6506 -1.4829
  720MPD2    H210700   2.381   1.415  13.681 -1.6611  0.9129  2.5572
  720MPD2    H310701   2.442   1.387  13.908 -0.8235  1.2287  0.0172
  720MPD2     N10702   2.873   1.526  13.860  0.3443  0.4758 -0.5461
  720MPD2    H510703   2.934   1.538  13.780  0.5302  1.7952 -0.2085
  720MPD2    N110704   2.565   1.512  13.491 -0.1156  0.6780  0.1220
  720MPD2    H710705   2.656   1.527  13.448 -0.2262 -1.1343 -0.7158
  721TMC3    C110706   3.046   1.603  14.008 -0.2479  0.1474  0.2291
  721TMC3    C210707   3.072   1.647  14.133  0.1538  0.0505 -1.0158
  721TMC3    C310708   3.192   1.717  14.154 -0.2510  0.6415  0.9314
  721TMC3    C410709   3.127   1.622  13.902  0.1022  0.5362 -0.0188
  721TMC3    C510710   3.245   1.693  13.931  0.0660 -0.4087 -0.1728
  721TMC3    C610711   3.275   1.744  14.054 -0.1603 -1.0720 -0.0748
  721TMC3     C10712   2.921   1.525  13.989  0.0382  0.3578 -0.0672
  721TMC3     O10713   2.854   1.504  14.085 -0.8138 -0.2936 -0.1336
  721TMC3     H10714   2.994   1.648  14.208  0.0869  1.2760 -1.1018
  721TMC3    H110715   3.110   1.576  13.806  1.1449  0.6314 -0.2441
  721TMC3    H210716   3.362   1.809  14.057 -2.1125  1.4602  2.0682
  721TMC3    C710717   3.354   1.665  13.835 -0.7409 -0.2530  0.1643
  721TMC3    C810718   3.221   1.776  14.283  0.3092  0.0711  0.3663
  721TMC3    O110719   3.472   1.671  13.870  0.6737 -0.0775 -0.4115
  721TMC3    O210720   3.316   1.855  14.295 -0.2676  0.3610  0.1759
  722MPD2     C10721   1.490   0.375  12.721 -0.8888 -0.1305  0.8801
  722MPD2    C110722   1.469   0.515  12.710  0.1100 -0.3455  0.1053
  722MPD2    C210723   1.344   0.563  12.702 -0.2728 -0.0885 -0.0280
  722MPD2    C310724   1.232   0.480  12.711 -0.0373 -0.7834 -0.0870
  722MPD2    C410725   1.253   0.350  12.731 -0.8339  0.3286 -0.4322
  722MPD2    C510726   1.376   0.299  12.732  0.7343  0.0146  1.0126
  722MPD2     H10727   1.334   0.671  12.700 -2.4331 -0.2856  0.4122
  722MPD2    H110728   1.167   0.285  12.739 -0.0933 -0.7984 -1.5395
  722MPD2    H210729   1.589   0.331  12.709 -1.2661 -0.6331 -0.3839
  722MPD2    H310730   1.379   0.192  12.749 -1.1268 -0.2618 -0.3861
  722MPD2     N10731   1.099   0.528  12.706  0.0113 -0.6209  0.7582
  722MPD2    H510732   1.090   0.627  12.727 -2.5009 -0.6544 -0.1872
  722MPD2    N110733   1.575   0.609  12.695  0.5868 -0.2659 -0.1457
  722MPD2    H710734   1.546   0.704  12.678 -1.2532 -0.7861  0.0425
  723TMC3    C110735   0.874   0.556  12.724  0.2353  0.0556  0.6218
  723TMC3    C210736   0.754   0.519  12.665  0.3172  0.5137  0.0826
  723TMC3    C310737   0.647   0.608  12.680 -0.0587 -0.0364  0.4697
  723TMC3    C410738   0.896   0.676  12.782 -0.0078  0.3266  0.7293
  723TMC3    C510739   0.782   0.756  12.804  1.0196  0.4324 -0.3463
  723TMC3    C610740   0.665   0.729  12.739  0.3703  0.1230  0.1084
  723TMC3     C10741   0.985   0.464  12.700 -0.2675  0.1656  0.1763
  723TMC3     O10742   0.958   0.347  12.684  0.5708 -0.2078  0.2631
  723TMC3     H10743   0.753   0.428  12.607  0.2743 -0.5089  1.6730
  723TMC3    H110744   0.987   0.695  12.838  1.5778 -0.2778 -1.6318
  723TMC3    H210745   0.581   0.796  12.735 -0.1001 -0.4961 -0.5589
  723TMC3    C710746   0.792   0.885  12.871  0.3435 -0.0313  0.0862
  723TMC3    C810747   0.516   0.567  12.625  0.2085 -0.2587 -0.2789
  723TMC3    O110748   0.730   0.975  12.814 -0.2961 -0.1891  0.1387
  723TMC3    O210749   0.429   0.655  12.640  0.5156 -0.1918 -0.7153
  724TMC3    C110750   1.938   4.144  10.389  0.4018 -0.4099 -0.8259
  724TMC3    C210751   1.878   4.178  10.269  0.8184  0.2216 -0.6166
  724TMC3    C310752   1.861   4.311  10.232 -0.4770 -0.4815  0.1764
  724TMC3    C410753   1.964   4.239  10.490 -0.1897 -0.8696 -0.0629
  724TMC3    C510754   1.924   4.365  10.459 -0.3407  0.0920 -0.2107
  724TMC3    C610755   1.871   4.402  10.335 -0.2451 -0.1987 -0.4347
  724TMC3     C10756   1.930   4.006  10.425 -0.4517 -0.6124  0.0404
  724TMC3     O10757   1.923   3.924  10.332  0.2095  0.2292  0.0166
  724TMC3     H10758   1.882   4.105  10.189 -1.3670 -0.5562 -0.0036
  724TMC3    H110759   2.007   4.219  10.588  2.0379 -1.5398 -1.1685
  724TMC3    H210760   1.874   4.507  10.310 -0.2706  0.0387  0.5689
  724TMC3    C710761   1.930   4.464  10.564 -0.4320 -0.2219 -0.1921
  724TMC3    C810762   1.896   4.346  10.096 -0.2155 -0.1041 -0.2222
  724TMC3    O110763   2.021   4.439  10.649 -0.0689  0.1915  0.2792
  724TMC3    O210764   1.939   4.260  10.017  0.4370 -0.1845  0.1847
  725TMC3    C110765   3.446   2.404  12.508 -0.0553  0.1914 -0.5051
  725TMC3    C210766   3.361   2.495  12.454  0.1504 -0.0169  0.5997
  725TMC3    C310767   3.269   2.456  12.361 -0.0108 -0.2101  0.2860
  725TMC3    C410768   3.442   2.276  12.477  0.1192 -0.5519  0.6306
  725TMC3    C510769   3.354   2.242  12.380  0.3001  0.0303  0.1479
  725TMC3    C610770   3.258   2.325  12.326  0.3541 -0.1169 -0.4376
  725TMC3     C10771   3.529   2.450  12.622  0.0123  0.0811  0.5281
  725TMC3     O10772   3.507   2.558  12.673  0.4714  0.0130 -0.0759
  725TMC3     H10773   3.362   2.601  12.478 -1.2850  0.5864 -1.9925
  725TMC3    H110774   3.512   2.207  12.524  0.1937 -0.4674  0.6426
  725TMC3    H210775   3.183   2.295  12.254  0.5106 -2.2790  0.3007
  725TMC3    C710776   3.342   2.107  12.336  0.2435  0.0599 -0.2384
  725TMC3    C810777   3.165   2.529  12.307  0.2002 -0.6051  0.1389
  725TMC3    O110778   3.231   2.064  12.318  0.2581  0.5805  0.1359
  725TMC3    O210779   3.097   2.597  12.383 -0.3770  0.0291  0.0735
  726MPD2     C10780   0.560   4.438   9.937 -0.2765 -0.1099  0.7412
  726MPD2    C110781   0.647   4.419  10.045 -0.1206  0.3650  0.3682
  726MPD2    C210782   0.644   4.298  10.112  0.4269 -0.4266  0.0507
  726MPD2    C310783   0.548   4.201  10.070 -0.6055 -0.6540 -0.9397
  726MPD2    C410784   0.448   4.243   9.983 -0.9789  0.6359  0.3208
  726MPD2    C510785   0.462   4.352   9.911  0.3311  0.5610 -0.0377
  726MPD2     H10786   0.696   4.284  10.206  0.6747  0.1601  0.0009
  726MPD2    H110787   0.369   4.176   9.952  0.1630 -0.4368 -0.2389
  726MPD2    H210788   0.543   4.536   9.896  1.2625  0.1776  0.7793
  726MPD2    H310789   0.388   4.381   9.837  0.1300  0.8031  0.2562
  726MPD2     N10790   0.546   4.067  10.125  0.4577 -0.3074 -0.0148
  726MPD2    H510791   0.473   4.002  10.098  1.5220 -1.7356  0.4967
  726MPD2    N110792   0.732   4.527  10.078 -0.0132 -0.4275 -0.3113
  726MPD2    H710793   0.718   4.613  10.027 -1.5762 -0.6482 -0.2651
  727TMC3    C110794   0.861   4.679  10.193  0.0829 -0.5093 -0.3568
  727TMC3    C210795   0.973   4.705  10.266 -0.9738 -0.4143  0.2169
  727TMC3    C310796   1.001   0.094  10.300 -0.1556 -0.2212  0.2042
  727TMC3    C410797   0.786   0.034  10.135 -0.2297  0.4682 -0.2709
  727TMC3    C510798   0.831   0.160  10.150 -0.0904 -0.0088  0.1324
  727TMC3    C610799   0.920   0.191  10.252 -0.0961  0.3783 -0.2221
  727TMC3     C10800   0.828   4.537  10.177  0.3781  0.1634  0.6433
  727TMC3     O10801   0.875   4.444  10.244 -0.2090  0.2196 -0.4357
  727TMC3     H10802   1.037   4.630  10.311 -1.9852 -1.6036 -0.3453
  727TMC3    H110803   0.683   0.012  10.108  1.1244 -1.7141 -3.6398
  727TMC3    H210804   0.939   0.293  10.283  2.2018  0.0592 -0.5929
  727TMC3    C710805   0.743   0.275  10.109 -0.4632  0.3661  0.0650
  727TMC3    C810806   1.122   0.133  10.379  0.2952  0.1399  0.3561
  727TMC3    O110807   0.763   0.380  10.169 -0.6243  0.1071 -0.3165
  727TMC3    O210808   1.190   0.036  10.414 -0.4588 -0.3248  0.3665
  728TMC3    C110809   0.496   2.247  15.420  0.6532  0.4289  0.0263
  728TMC3    C210810   0.619   2.297  15.460  0.0318  0.5316  0.4461
  728TMC3    C310811   0.728   2.261  15.379 -0.6553 -1.0383  0.4351
  728TMC3    C410812   0.483   2.176  15.306 -0.3009  0.3693 -0.5056
  728TMC3    C510813   0.593   2.161  15.224 -0.5351 -0.3632 -0.2911
  728TMC3    C610814   0.721   2.201  15.258  0.4050 -0.5061  0.2113
  728TMC3     C10815   0.383   2.242  15.515 -0.3172  0.4245  0.1338
  728TMC3     O10816   0.394   2.319  15.611 -0.2020  0.3224 -0.4698
  728TMC3     H10817   0.626   2.375  15.535 -1.3208  1.9097 -0.8730
  728TMC3    H110818   0.384   2.144  15.277  0.8777 -1.6573 -2.2266
  728TMC3    H210819   0.809   2.177  15.200  1.9165  0.6520  2.0535
  728TMC3    C710820   0.564   2.114  15.089  0.0894 -0.0537  0.0837
  728TMC3    C810821   0.851   2.332  15.390 -0.1155  0.5907  0.4869
  728TMC3    O110822   0.454   2.056  15.076 -1.0664 -0.1846  0.2579
  728TMC3    O210823   0.914   2.362  15.288  0.4969  0.0845 -0.3605
  729MPD2     C10824   3.199   3.206  17.312  0.6816  0.1190  0.1826
  729MPD2    C110825   3.231   3.319  17.242 -0.2470 -0.6147 -0.2060
  729MPD2    C210826   3.284   3.425  17.303  0.5057  0.8046  0.1917
  729MPD2    C310827   3.308   3.424  17.442  0.1302  0.3202  0.3939
  729MPD2    C410828   3.271   3.314  17.514 -0.0562 -0.1288  0.1931
  729MPD2    C510829   3.209   3.208  17.448  0.4329 -0.1564  0.3356
  729MPD2     H10830   3.315   3.507  17.240 -2.1868  0.3733 -1.7037
  729MPD2    H110831   3.273   3.316  17.622  2.0708  0.4301  0.1363
  729MPD2    H210832   3.150   3.120  17.267  1.9577 -1.5217  1.9384
  729MPD2    H310833   3.168   3.128  17.508  0.1754  0.3328  0.8179
  729MPD2     N10834   3.368   3.537  17.497  0.3378 -0.0147 -0.0132
  729MPD2    H510835   3.378   3.605  17.423 -0.1677 -2.2306 -2.1023
  729MPD2    N110836   3.216   3.304  17.098  0.2925 -0.4924 -0.0936
  729MPD2    H710837   3.151   3.238  17.057  1.5170 -1.6189 -0.2295
  730TMC3    C110838   3.406   3.716  17.625 -0.1200 -0.2431  0.0695
  730TMC3    C210839   3.484   3.754  17.520 -0.0566 -0.3109  0.3002
  730TMC3    C310840   3.474   3.887  17.473  0.2986  0.3603  0.2112
  730TMC3    C410841   3.325   3.803  17.693  0.3118 -0.7147 -0.3963
  730TMC3    C510842   3.322   3.931  17.644 -0.0018  0.1630  0.5566
  730TMC3    C610843   3.396   3.977  17.543  0.0467 -0.1837 -0.3771
  730TMC3     C10844   3.377   3.574  17.625  0.0386 -0.0599  0.0211
  730TMC3     O10845   3.325   3.530  17.726 -0.0890 -0.5509  0.6921
  730TMC3     H10846   3.558   3.684  17.484 -2.6208 -1.6490 -2.3090
  730TMC3    H110847   3.244   3.763  17.752 -1.0147  0.9011 -1.1339
  730TMC3    H210848   3.387   4.080  17.509  2.0233 -0.1429 -0.7948
  730TMC3    C710849   3.211   4.016  17.687  0.6486  0.4560  0.3677
  730TMC3    C810850   3.496   3.896  17.327  0.4930 -0.1292  0.5206
  730TMC3    O110851   3.200   4.044   0.045  0.3932 -0.4892  0.2988
  730TMC3    O210852   3.489   3.790  17.268 -0.3503  1.0380 -0.3610
  731MPD2     C10853   2.844   2.334  12.000  0.3955  0.1762  0.2920
  731MPD2    C110854   2.898   2.218  11.945  0.3802  0.0358 -0.1972
  731MPD2    C210855   2.864   2.099  12.005  0.8290  0.0535  0.1601
  731MPD2    C310856   2.780   2.098  12.115  0.6046  0.5251 -0.0092
  731MPD2    C410857   2.736   2.214  12.173  0.6801 -0.4273 -0.2530
  731MPD2    C510858   2.773   2.331  12.119  0.9554 -0.7918  0.1114
  731MPD2     H10859   2.894   2.008  11.954  0.5711  0.4049 -0.6299
  731MPD2    H110860   2.667   2.220  12.257  0.3596  2.0477 -0.6958
  731MPD2    H210861   2.861   2.433  11.958  1.1729  0.0089  0.2094
  731MPD2    H310862   2.740   2.420  12.171  4.1523  0.3353  0.1777
  731MPD2     N10863   2.727   1.971  12.161  0.0134  0.0993  0.1000
  731MPD2    H510864   2.764   1.887  12.117  0.0414 -0.6894  1.6416
  731MPD2    N110865   2.988   2.231  11.840 -0.0207 -0.2513  0.0892
  731MPD2    H710866   3.005   2.325  11.807 -0.3450 -0.2716 -0.1298
  732TMC3    C110867   3.113   2.185  11.658 -0.2096 -0.2095  0.3618
  732TMC3    C210868   3.039   2.275  11.581  0.4006 -0.0863  0.4541
  732TMC3    C310869   3.073   2.284  11.447  0.0803 -0.4548  1.1134
  732TMC3    C410870   3.222   2.119  11.606 -0.3359 -0.0329  1.6911
  732TMC3    C510871   3.248   2.137  11.468  0.3862 -0.6674  0.0373
  732TMC3    C610872   3.177   2.227  11.387 -0.3532 -0.5821  0.0176
  732TMC3     C10873   3.062   2.132  11.783 -0.2725 -0.5268  0.4593
  732TMC3     O10874   3.089   2.016  11.817  0.0921 -0.3789 -0.4088
  732TMC3     H10875   2.955   2.330  11.622  0.6907  0.1898  0.6777
  732TMC3    H110876   3.289   2.056  11.664  0.7949 -0.0046  0.4269
  732TMC3    H210877   3.188   2.234  11.279  4.4175 -0.6541  0.5037
  732TMC3    C710878   3.353   2.071  11.395  0.4434  0.7617  0.4734
  732TMC3    C810879   2.966   2.309  11.353 -0.7989 -0.3300 -0.1457
  732TMC3    O110880   3.323   2.035  11.282 -0.0993 -0.0359 -0.4652
  732TMC3    O210881   2.990   2.379  11.258  0.2489 -0.3261  0.1483
  733TMC3    C110882   3.046   4.108  12.684 -0.1177  0.3210 -0.4777
  733TMC3    C210883   3.128   4.142  12.780  0.3381 -0.7559  0.0248
  733TMC3    C310884   3.258   4.171  12.748  0.3626 -1.1948  0.2007
  733TMC3    C410885   3.094   4.073  12.559  0.1530 -0.5797 -0.5405
  733TMC3    C510886   3.229   4.069  12.542 -0.2111 -0.0561  0.0770
  733TMC3    C610887   3.313   4.128  12.631  0.6396  0.4577  0.0749
  733TMC3     C10888   2.920   4.168  12.700 -0.4625 -0.6472 -0.5736
  733TMC3     O10889   2.910   4.262  12.780 -0.3289  0.0969  0.2571
  733TMC3     H10890   3.091   4.164  12.880 -0.3630 -2.6495  0.1808
  733TMC3    H110891   3.021   4.049  12.482 -0.8973  0.2226  0.2063
  733TMC3    H210892   3.421   4.115  12.631  0.4468 -1.1878 -0.7591
  733TMC3    C710893   3.283   4.072  12.403  0.8469 -0.5610  0.0409
  733TMC3    C810894   3.353   4.185  12.855  0.0938 -0.1702  1.0685
  733TMC3    O110895   3.196   4.067  12.320  0.5668  0.5642  0.4937
  733TMC3    O210896   3.357   4.093  12.935  0.1960  0.2375  0.3423
  734MPD2     C10897   1.031   2.531  12.193 -0.4422  0.0537  0.1217
  734MPD2    C110898   0.900   2.553  12.178 -0.1538  0.5504 -0.1189
  734MPD2    C210899   0.858   2.637  12.076 -0.1966 -0.2845 -0.3173
  734MPD2    C310900   0.949   2.701  11.992  0.1000  0.6897 -0.4440
  734MPD2    C410901   1.088   2.678  12.012  0.5394 -0.1338  0.0876
  734MPD2    C510902   1.121   2.600  12.118  0.0482 -0.3039  0.3676
  734MPD2     H10903   0.752   2.650  12.058 -0.3739 -0.4179  0.6201
  734MPD2    H110904   1.166   2.718  11.949 -0.7972 -0.8062 -1.9969
  734MPD2    H210905   1.066   2.464  12.270 -0.3877  0.6281  0.5979
  734MPD2    H310906   1.224   2.571  12.134  0.6923  0.5689 -2.2592
  734MPD2     N10907   0.892   2.769  11.879  0.8631  0.6547 -1.1904
  734MPD2    H510908   0.793   2.765  11.857  0.0563  2.0959  2.2402
  734MPD2    N110909   0.817   2.485  12.266 -0.7374 -0.3854  0.4744
  734MPD2    H710910   0.857   2.430  12.341  1.5675  1.0249  0.2982
  735TMC3    C110911   0.627   2.369  12.358  0.4307  0.7807  0.1955
  735TMC3    C210912   0.530   2.299  12.291  0.2786 -0.3620  0.2480
  735TMC3    C310913   0.559   2.166  12.265 -0.4370 -0.4928 -0.6174
  735TMC3    C410914   0.727   2.301  12.427  0.2496 -0.5237 -0.0360
  735TMC3    C510915   0.754   2.171  12.403  0.7098  0.3935 -0.7637
  735TMC3    C610916   0.669   2.106  12.321 -0.0262  0.3263 -0.1480
  735TMC3     C10917   0.680   2.481  12.264 -0.9208 -0.8347  0.6356
  735TMC3     O10918   0.603   2.531  12.178  0.4236 -0.5828 -0.5150
  735TMC3     H10919   0.444   2.344  12.241  0.1329  0.3955  1.1911
  735TMC3    H110920   0.801   2.353  12.486 -1.0342 -0.0622  1.1819
  735TMC3    H210921   0.689   2.001  12.299 -1.9635 -0.2549  0.8384
  735TMC3    C710922   0.893   2.151  12.376 -0.1162  0.2209 -0.4907
  735TMC3    C810923   0.545   2.132  12.127  0.9587 -0.2833  0.5767
  735TMC3    O110924   0.961   2.255  12.379  0.4034  0.0114 -0.7820
  735TMC3    O210925   0.559   2.015  12.094 -0.2003 -0.1334  0.0715
  736MPD2     C10926   1.078   1.848  12.267  0.0260  0.3708  0.0617
  736MPD2    C110927   1.050   1.980  12.273 -0.2887  0.0076 -0.1490
  736MPD2    C210928   1.125   2.069  12.195 -0.0697  0.1656 -0.1348
  736MPD2    C310929   1.234   2.021  12.118 -0.3024 -0.1443 -0.3849
  736MPD2    C410930   1.254   1.887  12.105  0.6569  0.2900  0.6322
  736MPD2    C510931   1.173   1.802  12.176 -0.0632  0.2398 -0.1311
  736MPD2     H10932   1.105   2.176  12.195 -0.2768  0.1279 -1.6311
  736MPD2    H110933   1.326   1.846  12.035 -1.4728 -0.2689 -1.2313
  736MPD2    H210934   1.019   1.776  12.322 -0.2345  0.6415  0.1349
  736MPD2    H310935   1.182   1.694  12.176 -3.2310 -0.0122 -2.3095
  736MPD2     N10936   1.311   2.095  12.034  0.6679  0.0093  0.5393
  736MPD2    H510937   1.365   2.043  11.966 -0.7668 -0.4540 -0.2485
  736MPD2    N110938   0.928   2.021  12.342  0.0951  0.3547  0.1681
  736MPD2    H710939   0.863   1.950  12.373  0.2516 -1.1093 -2.8284
  737TMC3    C110940   1.381   2.265  11.900  0.4683  0.0982 -0.7736
  737TMC3    C210941   1.335   2.385  11.852  0.1826  0.1882 -0.2328
  737TMC3    C310942   1.377   2.416  11.726 -0.0678  0.3631  0.1382
  737TMC3    C410943   1.456   2.173  11.835  0.1697  0.4497  0.4556
  737TMC3    C510944   1.498   2.216  11.713 -0.4758  0.7745  0.1624
  737TMC3    C610945   1.463   2.337  11.656 -1.3065  0.4170  0.1239
  737TMC3     C10946   1.312   2.228  12.018 -0.9036 -0.5239  0.5552
  737TMC3     O10947   1.264   2.309  12.101  0.6612  0.0316 -0.5048
  737TMC3     H10948   1.276   2.451  11.915 -1.2618 -0.0972 -1.2874
  737TMC3    H110949   1.499   2.084  11.880  0.4629  0.2417 -0.2411
  737TMC3    H210950   1.490   2.360  11.553  0.5545 -0.8707  0.3127
  737TMC3    C710951   1.579   2.126  11.639 -0.1456  0.2858  0.2469
  737TMC3    C810952   1.354   2.550  11.687  0.1434 -0.3541 -0.2529
  737TMC3    O110953   1.581   2.010  11.677  0.1526 -0.5448 -0.0939
  737TMC3    O210954   1.348   2.641  11.774 -0.2479 -0.6038  0.2896
  738MPD2     C10955   1.890   0.382  14.806 -0.6508  0.1989 -0.5853
  738MPD2    C110956   1.904   0.302  14.692 -0.1959 -0.9831 -0.7492
  738MPD2    C210957   2.002   0.339  14.596 -0.1536 -0.3185  0.5901
  738MPD2    C310958   2.087   0.448  14.615  0.0598  0.4602  0.0672
  738MPD2    C410959   2.061   0.529  14.725 -0.1615  0.7559 -0.3184
  738MPD2    C510960   1.962   0.500  14.812 -0.5675  0.4208 -0.3707
  738MPD2     H10961   2.015   0.264  14.519  2.0473 -0.4233  1.0613
  738MPD2    H110962   2.115   0.621  14.744  2.6325 -0.5286 -1.9708
  738MPD2    H210963   1.823   0.358  14.887  1.1285 -2.0027  0.2418
  738MPD2    H310964   1.947   0.561  14.901 -0.4692 -0.4440  0.2479
  738MPD2     N10965   2.202   0.472  14.535  0.0762  0.2283 -0.3205
  738MPD2    H510966   2.276   0.532  14.570 -0.1755 -0.5001  1.4682
  738MPD2    N110967   1.836   0.172  14.674  0.4862  1.0163  0.3141
  738MPD2    H710968   1.837   0.119  14.587 -0.2864  2.6913 -0.7072
  739TMC3    C110969   2.350   0.446  14.363 -0.4622 -0.0969 -0.4467
  739TMC3    C210970   2.341   0.525  14.247 -0.2492 -0.4750  1.1931
  739TMC3    C310971   2.455   0.599  14.212 -0.3828  0.2892 -0.7632
  739TMC3    C410972   2.457   0.447  14.443  0.0456 -0.1733 -0.0124
  739TMC3    C510973   2.571   0.518  14.403  0.4551  0.7665 -0.7380
  739TMC3    C610974   2.568   0.591  14.287  0.0338 -0.0653 -0.6878
  739TMC3     C10975   2.224   0.424  14.411 -0.0937 -0.6164 -0.9281
  739TMC3     O10976   2.132   0.375  14.346 -0.0695  0.5815 -0.2296
  739TMC3     H10977   2.251   0.528  14.186 -0.3636  2.1177  1.4987
  739TMC3    H110978   2.452   0.380  14.528  1.8345  2.1087  1.9191
  739TMC3    H210979   2.660   0.638  14.253  0.5229  0.7332  1.7260
  739TMC3    C710980   2.693   0.511  14.490  0.4045  0.6643  0.1094
  739TMC3    C810981   2.438   0.691  14.101 -0.5011 -0.1792  0.0835
  739TMC3    O110982   2.779   0.588  14.458  0.0628  0.1542 -0.2032
  739TMC3    O210983   2.328   0.690  14.042  0.1163 -0.2891 -0.3266
  740TMC3    C110984   2.286   2.020  14.246  0.2462 -0.7448 -0.0013
  740TMC3    C210985   2.328   2.146  14.274 -0.2431 -0.7529  0.0383
  740TMC3    C310986   2.429   2.200  14.197  0.4813 -0.2064  0.3884
  740TMC3    C410987   2.334   1.949  14.133  0.5039  0.1328 -0.1299
  740TMC3    C510988   2.429   2.012  14.064  0.8062  0.5791 -0.6349
  740TMC3    C610989   2.474   2.134  14.088 -0.1016 -0.1978  0.1572
  740TMC3     C10990   2.140   2.013  14.261  0.9835 -0.7013  0.3011
  740TMC3     O10991   2.083   2.111  14.216 -0.0278 -0.1389  0.7625
  740TMC3     H10992   2.296   2.200  14.362 -0.1137 -0.6309  0.0098
  740TMC3    H110993   2.285   1.859  14.097 -1.5379  0.9697  0.5699
  740TMC3    H210994   2.544   2.190  14.027  0.1432 -0.0055  0.6146
  740TMC3    C710995   2.470   1.934  13.946  0.4238 -0.2605  0.6657
  740TMC3    C810996   2.399   2.339  14.167 -0.3039  0.1978 -0.0243
  740TMC3    O110997   2.482   1.812  13.964  0.2293  0.0311  0.0664
  740TMC3    O210998   2.495   2.394  14.111  0.1440  0.1036 -0.8363
  741TMC3    C110999   2.137   1.041  14.122 -0.5800  0.3566  0.4837
  741TMC3    C211000   2.011   0.990  14.144 -0.5625 -0.7527 -0.5695
  741TMC3    C311001   1.994   0.895  14.240  0.5402 -0.9249 -0.4623
  741TMC3    C411002   2.245   1.014  14.197  0.3554 -0.6766  0.1446
  741TMC3    C511003   2.218   0.917  14.293  0.7724 -0.4613 -0.6372
  741TMC3    C611004   2.101   0.857  14.317  0.6001 -0.3907  0.3454
  741TMC3     C11005   2.168   1.112  13.998  0.1679  0.5420  0.4631
  741TMC3     O11006   2.242   1.204  14.018  0.3577 -0.1263 -0.2832
  741TMC3     H11007   1.926   1.025  14.086  0.3486  0.6304 -1.0573
  741TMC3    H111008   2.346   1.039  14.165 -0.6113  1.2992 -1.4039
  741TMC3    H211009   2.097   0.791  14.403 -1.9054  1.1066  1.3539
  741TMC3    C711010   2.326   0.896  14.386  0.2114 -0.0550  0.8456
  741TMC3    C811011   1.861   0.837  14.251  0.0812  0.5932  0.2262
  741TMC3    O111012   2.340   0.783  14.432 -0.1941 -0.9042 -0.4529
  741TMC3    O211013   1.774   0.879  14.172  0.4598  0.2343 -0.1022
  742TMC3    C111014   2.289   0.121  14.791  0.0976  0.1551 -0.1704
  742TMC3    C211015   2.273   0.081  14.660 -0.2569 -0.2730 -0.5283
  742TMC3    C311016   2.223   4.696  14.644 -0.1219 -0.1590 -0.0105
  742TMC3    C411017   2.264   0.042  14.904 -0.3503  0.1111 -0.2732
  742TMC3    C511018   2.205   4.661  14.878 -0.7691  0.6236  0.1717
  742TMC3    C611019   2.181   4.622  14.750  0.0748  0.0576  0.5704
  742TMC3     C11020   2.344   0.248  14.806  0.0420 -0.2598  0.4127
  742TMC3     O11021   2.418   0.301  14.720 -0.7061  0.5881 -0.0916
  742TMC3     H11022   2.277   0.161  14.586  0.4799 -1.9605 -2.3422
  742TMC3    H111023   2.275   0.073  15.007 -1.5781 -0.7737  0.1125
  742TMC3    H211024   2.144   4.522  14.730  0.0110  0.2361 -0.2294
  742TMC3    C711025   2.254   4.557  14.966  0.1236  0.0421  0.7450
  742TMC3    C811026   2.170   4.671  14.512 -0.0217 -0.2019  0.4281
  742TMC3    O111027   2.198   4.451  14.956 -0.0525 -0.2995  0.2525
  742TMC3    O211028   2.072   4.599  14.512 -0.7061  0.6283 -0.0896
  743MPD2     C11029   3.904   1.323   1.270 -0.4630 -0.1391  0.8002
  743MPD2    C111030   3.938   1.213   1.190 -0.3512  0.6962 -0.3616
  743MPD2    C211031   4.059   1.153   1.211  0.0519 -0.1708 -0.0482
  743MPD2    C311032   4.151   1.202   1.304  0.7570 -0.1217  0.6914
  743MPD2    C411033   4.118   1.309   1.384 -0.3789  0.2202  0.1506
  743MPD2    C511034   3.999   1.369   1.351 -0.1687 -0.3835 -0.0304
  743MPD2     H11035   4.092   1.075   1.144 -1.1712  0.1096 -0.9881
  743MPD2    H111036   4.187   1.363   1.448  0.7479 -0.7355 -0.2635
  743MPD2    H211037   3.817   1.386   1.260 -0.3588 -0.1802 -0.4778
  743MPD2    H311038   3.981   1.465   1.399  1.1405 -1.8497  3.3845
  743MPD2     N11039   4.280   1.148   1.306  0.3972  0.2030 -0.2091
  743MPD2    H511040   4.305   1.087   1.228  0.4599  1.4198 -1.1353
  743MPD2    N111041   3.850   1.178   1.085  0.3805  0.3778  0.4252
  743MPD2    H711042   3.762   1.226   1.069  0.9504  1.2561 -0.0642
  744TMC3    C111043   3.761   1.060   0.900 -0.4769 -0.0524 -0.4195
  744TMC3    C211044   3.683   1.168   0.862 -0.1074 -0.5554 -0.7408
  744TMC3    C311045   3.618   1.156   0.745 -0.2652  0.1340  0.1161
  744TMC3    C411046   3.795   0.964   0.806 -0.4802  0.6261 -0.2381
  744TMC3    C511047   3.736   0.972   0.684 -0.1465 -0.7873  0.6229
  744TMC3    C611048   3.656   1.067   0.652 -0.0764  0.6200 -0.4363
  744TMC3     C11049   3.854   1.056   1.013 -0.9085 -0.5226 -0.2361
  744TMC3     O11050   3.933   0.965   1.013  0.1807  0.4666  0.3314
  744TMC3     H11051   3.645   1.237   0.936  0.6186 -1.7686  0.7512
  744TMC3    H111052   3.851   0.875   0.834 -1.4627  0.3710  0.9209
  744TMC3    H211053   3.622   1.074   0.550 -1.3803 -0.3910 -0.0768
  744TMC3    C711054   3.822   0.927   0.577 -0.4024  0.1360  0.3816
  744TMC3    C811055   3.566   1.272   0.692 -0.0955  0.1951 -0.5467
  744TMC3    O111056   3.832   0.998   0.480 -0.2484 -0.2487 -0.2652
  744TMC3    O211057   3.586   1.285   0.574 -0.0367  0.5380  0.0706
  745TMC3    C111058   1.737   4.337  12.839  0.3959  0.2943  0.0474
  745TMC3    C211059   1.691   4.347  12.968 -0.5448  0.3946  0.1826
  745TMC3    C311060   1.575   4.418  12.989 -0.7323 -0.0456 -0.2586
  745TMC3    C411061   1.675   4.389  12.731 -0.1356  0.3278  0.4378
  745TMC3    C511062   1.571   4.471  12.756  0.1004  0.4321  0.5791
  745TMC3    C611063   1.515   4.485  12.881  0.1815 -0.0716  0.1390
  745TMC3     C11064   1.872   4.306  12.804 -0.3975  0.5821 -0.8079
  745TMC3     O11065   1.901   4.262  12.693 -0.5202  0.1015  0.1611
  745TMC3     H11066   1.746   4.306  13.052  1.7078  1.0347 -0.9738
  745TMC3    H111067   1.709   4.366  12.630 -0.1383  1.0344  0.2705
  745TMC3    H211068   1.446   4.564  12.906 -0.1013 -0.6065  1.0462
  745TMC3    C711069   1.573   4.592  12.673 -0.2443 -0.1902 -0.0923
  745TMC3    C811070   1.537   4.464  13.126  0.0108 -0.4944  0.1765
  745TMC3    O111071   1.475   4.667  12.677  0.2090 -0.2390 -0.0804
  745TMC3    O211072   1.425   4.513  13.132  0.0678  0.4316 -0.0243
  746TMC3    C111073   0.086   1.475  11.233 -0.6116 -0.1014 -0.3112
  746TMC3    C211074   0.213   1.423  11.213  0.0125  0.0950  0.1147
  746TMC3    C311075   0.241   1.352  11.096 -0.3762  0.0936  0.4768
  746TMC3    C411076   4.725   1.430  11.151 -0.0486 -0.1868 -0.3708
  746TMC3    C511077   0.018   1.363  11.041  0.3023 -0.3750 -0.1465
  746TMC3    C611078   0.144   1.316  11.007  0.0764 -0.0362 -0.0039
  746TMC3     C11079   0.077   1.619  11.231 -0.5000  0.7200 -1.5078
  746TMC3     O11080   4.701   1.658  11.239 -0.1539 -0.4010  0.0291
  746TMC3     H11081   0.299   1.442  11.276 -1.3905 -0.9045  2.3187
  746TMC3    H111082   4.622   1.460  11.164 -0.0687 -1.2754  1.8991
  746TMC3    H211083   0.158   1.260  10.915 -1.1277 -1.6653  0.7978
  746TMC3    C711084   4.697   1.411  10.920 -0.3372 -0.0576  0.5620
  746TMC3    C811085   0.346   1.422  11.025 -0.4009 -0.0694 -0.2522
  746TMC3    O111086   4.727   1.360  10.816  0.2108  0.6871  1.0854
  746TMC3    O211087   0.433   1.474  11.090 -0.3554 -0.0847  0.3238
  747TMC3    C111088   2.111   2.402  10.767  0.8259 -0.2879  0.4916
  747TMC3    C211089   2.064   2.297  10.842 -0.3218 -0.6355 -0.3779
  747TMC3    C311090   2.057   2.319  10.978  0.0434 -0.5793  0.2922
  747TMC3    C411091   2.142   2.522  10.820  0.5536  0.5853 -0.1557
  747TMC3    C511092   2.143   2.529  10.958  0.5727  0.0901 -0.1321
  747TMC3    C611093   2.097   2.429  11.042 -0.3993 -0.2191  0.1431
  747TMC3     C11094   2.105   2.391  10.623  0.4434 -0.2161  0.7502
  747TMC3     O11095   2.085   2.499  10.568  0.0908  0.3567  0.3115
  747TMC3     H11096   2.035   2.204  10.795 -2.1130 -0.8795  1.2504
  747TMC3    H111097   2.169   2.602  10.752  2.8729 -1.5531 -1.7514
  747TMC3    H211098   2.098   2.433  11.150  2.3032 -1.5289  0.1874
  747TMC3    C711099   2.237   2.620  11.022  0.8978  0.0243  0.6433
  747TMC3    C811100   2.008   2.208  11.050  0.3574 -0.3200  0.4653
  747TMC3    O111101   2.210   2.647  11.139  0.2415  0.1540  0.3634
  747TMC3    O211102   1.999   2.099  11.002 -0.0055  0.1331  0.3328
  748MPD2     C11103   3.648   2.728   1.356 -0.1427 -0.1001 -0.2623
  748MPD2    C111104   3.708   2.738   1.236 -0.2493 -0.3015 -0.2045
  748MPD2    C211105   3.842   2.719   1.212  0.2064 -0.1487  0.4947
  748MPD2    C311106   3.919   2.681   1.323  0.1229  0.0422 -0.3063
  748MPD2    C411107   3.859   2.672   1.453 -0.1453 -0.2773 -0.1734
  748MPD2    C511108   3.725   2.701   1.468  0.0189  0.2156 -0.3718
  748MPD2     H11109   3.896   2.724   1.118 -0.3042  2.0059  0.3243
  748MPD2    H111110   3.914   2.643   1.542 -1.1427  0.8476  0.8053
  748MPD2    H211111   3.544   2.757   1.370  0.2436  1.5145 -0.7168
  748MPD2    H311112   3.679   2.681   1.564  0.2541 -0.6863 -0.4466
  748MPD2     N11113   4.058   2.658   1.303 -0.3014  0.0104 -0.2890
  748MPD2    H511114   4.093   2.658   1.208 -1.4982  2.6774 -0.7335
  748MPD2    N111115   3.628   2.775   1.121  0.3613 -0.1694 -0.0596
  748MPD2    H711116   3.539   2.815   1.151 -1.4656 -3.5872 -1.0186
  749TMC3    C111117   4.272   2.558   1.344 -0.3966 -0.1752 -0.0861
  749TMC3    C211118   4.356   2.471   1.416 -0.1716 -0.0024 -0.3402
  749TMC3    C311119   4.444   2.399   1.342  0.3864  0.6634  0.2811
  749TMC3    C411120   4.292   2.591   1.211  0.1986 -0.1944  0.4237
  749TMC3    C511121   4.379   2.508   1.143  0.3429  0.1018  0.3809
  749TMC3    C611122   4.456   2.409   1.208 -0.3834 -0.2195 -0.6009
  749TMC3     C11123   4.140   2.607   1.400 -0.2218  0.2807  0.3159
  749TMC3     O11124   4.128   2.603   1.521  0.7765  0.1621  0.2527
  749TMC3     H11125   4.324   2.428   1.511  1.1896 -0.5098 -0.1184
  749TMC3    H111126   4.252   2.681   1.166 -1.8182 -0.7455  1.1151
  749TMC3    H211127   4.529   2.345   1.161 -0.6391 -1.0367  0.1082
  749TMC3    C711128   4.429   2.553   1.016 -0.1534 -0.0726 -0.1782
  749TMC3    C811129   4.516   2.307   1.415 -0.1806 -0.2003  0.1561
  749TMC3    O111130   4.426   2.678   1.007 -0.3724 -0.2970 -0.3155
  749TMC3    O211131   4.542   2.329   1.532 -0.4071  0.0942 -0.5194
  750MPD2     C11132   4.709   3.458  11.053  1.0441 -0.2126 -0.1596
  750MPD2    C111133   4.600   3.431  11.129 -0.1365 -0.9866  0.5531
  750MPD2    C211134   4.563   3.297  11.146 -0.1753  0.7954 -0.0272
  750MPD2    C311135   4.629   3.196  11.083 -0.2496 -0.2657  0.0446
  750MPD2    C411136   4.736   3.232  11.010 -0.4974 -0.1965  0.7387
  750MPD2    C511137   0.035   3.360  10.998 -0.6651 -0.4522 -0.3653
  750MPD2     H11138   4.472   3.268  11.197 -1.7420  2.1024 -2.1140
  750MPD2    H111139   0.057   3.164  10.954 -0.0489 -0.4528  1.5429
  750MPD2    H211140   4.724   3.555  11.008  2.7812 -1.3752 -2.0858
  750MPD2    H311141   0.112   3.382  10.925 -1.2554  2.1114 -0.1865
  750MPD2     N11142   4.588   3.060  11.080  0.1286  0.1735  0.0948
  750MPD2    H511143   4.640   3.000  11.016 -1.6204  0.5634 -1.6857
  750MPD2    N111144   4.519   3.531  11.171 -0.2147 -0.1545  0.2812
  750MPD2    H711145   4.547   3.623  11.137 -1.3170  0.6890  1.6279
  751TMC3    C111146   4.445   2.876  11.118  0.4096  1.6336  0.5666
  751TMC3    C211147   4.335   2.826  11.179  0.2087 -0.1067 -0.5100
  751TMC3    C311148   4.282   2.712  11.127  0.2705  0.6246 -0.1564
  751TMC3    C411149   4.486   2.826  11.000 -0.4441  0.5404 -0.2896
  751TMC3    C511150   4.414   2.736  10.933 -0.1055  0.7764 -0.2205
  751TMC3    C611151   4.307   2.675  10.995 -0.6026  1.1182 -0.1518
  751TMC3     C11152   4.493   3.005  11.163  0.7825 -0.3221  0.1646
  751TMC3     O11153   4.434   3.051  11.259 -0.2183 -0.0005  0.4449
  751TMC3     H11154   4.314   2.854  11.282 -0.6172  0.0841 -0.7318
  751TMC3    H111155   4.571   2.872  10.951  1.0853 -0.9558  0.9662
  751TMC3    H211156   4.275   2.576  10.966  1.5125  0.3552  0.0786
  751TMC3    C711157   4.438   2.733  10.788 -0.3746 -0.2461  0.1969
  751TMC3    C811158   4.176   2.656  11.208  0.1841  0.5316  0.6513
  751TMC3    O111159   4.550   2.760  10.751  0.6245 -0.1147  0.1815
  751TMC3    O211160   4.170   2.680  11.325 -0.0255  0.2511  0.5896
  752TMC3    C111161   3.778   4.178  16.729  0.1446 -0.0684 -0.3690
  752TMC3    C211162   3.837   4.085  16.811  0.6753  0.0312 -0.6259
  752TMC3    C311163   3.888   4.126  16.930  0.1547  0.2196 -0.3451
  752TMC3    C411164   3.799   4.314  16.746  0.6751  1.0047  0.3833
  752TMC3    C511165   3.868   4.350  16.860  0.6728 -0.4356 -0.6963
  752TMC3    C611166   3.892   4.259  16.963  0.0250  0.2286 -0.4652
  752TMC3     C11167   3.684   4.135  16.622  0.2555  0.7615 -0.6223
  752TMC3     O11168   3.640   4.214  16.538  0.3242  0.1532 -0.7227
  752TMC3     H11169   3.831   3.979  16.788 -1.4845 -0.2949  1.3882
  752TMC3    H111170   3.778   4.380  16.662  3.0157 -0.4896 -1.3627
  752TMC3    H211171   3.934   4.280  17.061  2.2606  1.2630 -1.6604
  752TMC3    C711172   3.867   4.491  16.884 -0.9886 -0.0106  0.1566
  752TMC3    C811173   3.954   4.033  17.017 -0.2402  0.5085  0.4621
  752TMC3    O111174   3.810   4.567  16.806 -0.9651 -0.1805  0.5104
  752TMC3    O211175   4.012   4.077  17.117 -0.3888 -0.1270 -0.4767
  753TMC3    C111176   0.309   4.127  13.002 -0.1938 -0.4874 -0.5301
  753TMC3    C211177   0.405   4.100  13.100  0.1314  0.9097  0.2286
  753TMC3    C311178   0.425   3.970  13.131 -0.2848  0.2772 -0.1877
  753TMC3    C411179   0.224   4.027  12.961  0.0238 -0.5561  0.4101
  753TMC3    C511180   0.240   3.898  13.011 -0.1235 -0.7539  0.0088
  753TMC3    C611181   0.341   3.871  13.092  0.1700 -0.2239  0.4349
  753TMC3     C11182   0.304   4.254  12.923  0.5398 -0.5305  0.3420
  753TMC3     O11183   0.262   4.354  12.979 -0.1294  0.4294  0.1950
  753TMC3     H11184   0.484   4.174  13.108  2.0205 -1.3476  2.3118
  753TMC3    H111185   0.144   4.052  12.892  0.1815 -1.0680  0.0412
  753TMC3    H211186   0.360   3.771  13.129  0.1016 -0.3630  0.0970
  753TMC3    C711187   0.131   3.801  12.983  0.1377 -0.7222  0.8496
  753TMC3    C811188   0.560   3.932  13.175 -0.0349  0.0107  0.2600
  753TMC3    O111189   0.048   3.837  12.899 -0.0661  0.1850  0.1139
  753TMC3    O211190   0.585   3.811  13.175  0.1532  0.4066  0.6216
  754MPD2     C11191   4.386   3.410  13.491 -0.5328  0.3978  0.3741
  754MPD2    C111192   4.431   3.285  13.468  0.3120 -0.0252  0.5955
  754MPD2    C211193   4.366   3.227  13.358 -0.4235 -0.4779  0.2656
  754MPD2    C311194   4.260   3.283  13.286 -0.2383  0.3032 -1.2576
  754MPD2    C411195   4.214   3.408  13.318  0.0139 -0.0838 -0.0065
  754MPD2    C511196   4.283   3.470  13.421  0.3850  0.2689 -0.1412
  754MPD2     H11197   4.399   3.131  13.318  0.7553  0.8503 -1.9532
  754MPD2    H111198   4.124   3.445  13.270 -0.5199  1.1060  1.9027
  754MPD2    H211199   4.429   3.464  13.575 -0.1879  0.0326  0.4293
  754MPD2    H311200   4.244   3.564  13.458  0.7970  0.7314 -0.8824
  754MPD2     N11201   4.166   3.211  13.212 -0.8386 -0.5777 -0.2502
  754MPD2    H511202   4.100   3.269  13.162 -0.2835  2.2947  2.3426
  754MPD2    N111203   4.524   3.219  13.552  1.2347 -0.0231  0.3322
  754MPD2    H711204   4.572   3.278  13.619  0.3965  1.0291  0.0147
  755MPD2     C11205   3.279   3.057  13.496  0.6686  0.0823  0.3993
  755MPD2    C111206   3.340   3.161  13.427  0.2887 -0.6885 -0.1316
  755MPD2    C211207   3.456   3.135  13.356 -0.0873 -0.5276 -0.6709
  755MPD2    C311208   3.502   3.007  13.354  0.1024 -0.4902 -0.0774
  755MPD2    C411209   3.446   2.909  13.428  0.4695 -1.2276  0.3603
  755MPD2    C511210   3.332   2.929  13.488  0.4189 -0.0994  1.2949
  755MPD2     H11211   3.501   3.219  13.305 -0.4489  0.0895  0.0174
  755MPD2    H111212   3.490   2.810  13.421  0.9868 -1.0613  1.1557
  755MPD2    H211213   3.195   3.071  13.562 -1.3332 -0.3691 -2.0286
  755MPD2    H311214   3.284   2.853  13.548 -1.0355 -1.3562 -1.4528
  755MPD2     N11215   3.619   2.970  13.285 -0.1723  0.1120  0.0923
  755MPD2    H511216   3.665   2.885  13.316 -0.9889 -0.4326 -0.1861
  755MPD2    N111217   3.297   3.300  13.443 -0.5176 -0.5150  0.5929
  755MPD2    H711218   3.354   3.372  13.400 -0.4212 -0.7117  0.3944
  756MPD2     C11219   0.320   4.402   9.439  0.1460 -0.6360  0.4533
  756MPD2    C111220   0.188   4.378   9.443 -0.6098  0.5383  0.3464
  756MPD2    C211221   0.108   4.455   9.368  0.5182  0.4391 -1.1368
  756MPD2    C311222   0.157   4.551   9.281 -0.3477  0.6465 -0.0679
  756MPD2    C411223   0.293   4.567   9.266 -0.4356 -0.7625  0.7784
  756MPD2    C511224   0.373   4.491   9.343 -0.2225 -0.5353 -0.0588
  756MPD2     H11225   0.002   4.447   9.388  0.5689  0.0784 -1.0105
  756MPD2    H111226   0.337   4.643   9.203 -0.3705  0.9445  2.8935
  756MPD2    H211227   0.390   4.355   9.507  0.7783 -0.1670  0.1167
  756MPD2    H311228   0.481   4.502   9.335 -0.1410 -0.1229  1.5956
  756MPD2     N11229   0.062   4.636   9.218  0.4146 -0.2394 -0.1853
  756MPD2    H511230   4.707   4.604   9.214 -0.0721  1.1473  0.3438
  756MPD2    N111231   0.129   4.287   9.541 -0.2495  0.3825 -0.1615
  756MPD2    H711232   0.028   4.280   9.545 -0.2999  0.8104 -0.6947
  757MPD2     C11233   4.064   4.371   8.935  0.7657 -0.1403  0.2931
  757MPD2    C111234   4.168   4.329   9.015  0.4006 -0.6121 -0.5241
  757MPD2    C211235   4.262   4.424   9.048 -0.1875 -0.0482 -0.1059
  757MPD2    C311236   4.260   4.552   9.004 -0.6268  1.4928 -0.4972
  757MPD2    C411237   4.156   4.590   8.925 -0.7000 -0.0866  0.4335
  757MPD2    C511238   4.062   4.497   8.889  0.1453 -0.2971 -0.6080
  757MPD2     H11239   4.350   4.405   9.110 -2.8065 -1.6386  3.1618
  757MPD2    H111240   4.135   4.693   8.899 -0.4506 -0.5789 -1.6798
  757MPD2    H211241   3.990   4.301   8.900 -1.6584  2.9869 -0.7730
  757MPD2    H311242   3.983   4.535   8.825 -0.2148 -0.8001 -0.4677
  757MPD2     N11243   4.368   4.636   9.025 -0.0918 -0.1918 -0.2754
  757MPD2    H511244   4.446   4.601   9.079  2.4699  1.7689 -2.6808
  757MPD2    N111245   4.176   4.194   9.047 -0.0874 -0.0057  0.2614
  757MPD2    H711246   4.093   4.148   9.011  0.6888 -1.6422  0.5449
  758MPD2     C11247   4.371   2.556  15.790  0.3336 -0.9125 -0.4989
  758MPD2    C111248   4.482   2.604  15.859 -0.0431  0.3873  0.2575
  758MPD2    C211249   4.469   2.626  15.997 -0.3258 -0.0567 -0.5832
  758MPD2    C311250   4.345   2.592  16.060 -0.4737  0.4699  0.6124
  758MPD2    C411251   4.233   2.548  15.987 -0.8494  0.7380 -0.6389
  758MPD2    C511252   4.251   2.526  15.852 -0.1497  0.0179 -0.2809
  758MPD2     H11253   4.550   2.673  16.052 -1.3082  1.0879 -0.0953
  758MPD2    H111254   4.134   2.536  16.030 -0.7904  2.0177 -0.1446
  758MPD2    H211255   4.375   2.547  15.682  3.4537 -2.9360 -0.2118
  758MPD2    H311256   4.163   2.499  15.795 -1.0770  0.9711  0.6922
  758MPD2     N11257   4.330   2.614  16.197  0.1018 -0.6324  0.7147
  758MPD2    H511258   4.241   2.597  16.243 -0.4017 -0.6255 -0.2383
  758MPD2    N111259   4.595   2.639  15.784  0.5130 -0.2550 -0.1562
  758MPD2    H711260   4.603   2.594  15.694 -1.7514 -0.9206 -0.0296
  759MPD2     C11261   3.879   1.122  10.008 -0.1196  0.6698  0.7553
  759MPD2    C111262   3.742   1.150   9.986  0.7082 -0.1893 -0.5332
  759MPD2    C211263   3.700   1.277   9.946 -0.9437 -0.4600  0.0562
  759MPD2    C311264   3.797   1.376   9.941 -0.3151  0.2098 -0.4530
  759MPD2    C411265   3.932   1.349   9.947 -0.1032 -0.1057 -0.3574
  759MPD2    C511266   3.967   1.222   9.989 -0.5385 -0.3045 -0.0982
  759MPD2     H11267   3.595   1.305   9.944 -0.3000  1.9142  0.1871
  759MPD2    H111268   4.016   1.417   9.943 -0.3171 -0.0322 -3.1809
  759MPD2    H211269   3.920   1.041  10.067 -1.6819  0.4039  1.4989
  759MPD2    H311270   4.070   1.201  10.015 -0.0308  1.8101 -0.3870
  759MPD2     N11271   3.756   1.504   9.906 -0.2997 -0.5722  0.0008
  759MPD2    H511272   3.663   1.532   9.936  0.3522  2.2658 -0.5889
  759MPD2    N111273   3.637   1.062  10.026  0.6626 -0.3581 -0.2427
  759MPD2    H711274   3.540   1.089  10.021  1.0921  1.3516  0.5970
  760MPD2     C11275   3.005   3.128  10.791 -0.1234 -0.1129 -1.0634
  760MPD2    C111276   3.097   3.165  10.887  0.2278 -0.0635 -0.9918
  760MPD2    C211277   3.127   3.078  10.991  0.2620  0.6394 -0.4722
  760MPD2    C311278   3.070   2.951  10.994 -0.7597 -0.6281  0.1346
  760MPD2    C411279   2.988   2.911  10.890  0.2252 -0.1950  0.4536
  760MPD2    C511280   2.956   2.999  10.787 -0.5197 -0.3987 -0.3374
  760MPD2     H11281   3.196   3.114  11.067  0.4385  1.2135 -0.9033
  760MPD2    H111282   2.951   2.809  10.889  3.1152 -1.2059 -3.2441
  760MPD2    H211283   2.984   3.182  10.699 -0.3414  2.4446  0.4699
  760MPD2    H311284   2.893   2.972  10.703 -1.0841 -1.6882  0.5068
  760MPD2     N11285   3.093   2.881  11.116  0.3585  0.2016 -0.8397
  760MPD2    H511286   3.130   2.919  11.202 -0.0893  1.8839 -1.3746
  760MPD2    N111287   3.164   3.289  10.897  0.2899  0.4626 -0.1049
  760MPD2    H711288   3.233   3.298  10.972  0.4058 -0.6406 -0.0732
  761MPD2     C11289   3.843   2.255  11.212  0.8546  0.4857 -0.3139
  761MPD2    C111290   3.856   2.300  11.081  0.4310 -0.0032  0.1088
  761MPD2    C211291   3.930   2.418  11.054  0.3568 -0.6033  0.2688
  761MPD2    C311292   3.998   2.480  11.157 -0.3708 -0.3361 -0.0428
  761MPD2    C411293   3.985   2.446  11.287  0.2934  0.8162  0.0449
  761MPD2    C511294   3.914   2.328  11.310  0.3550 -0.3009  0.3783
  761MPD2     H11295   3.948   2.447  10.951  0.9857  2.0370  1.1347
  761MPD2    H111296   4.038   2.491  11.370  1.6508 -2.3039  0.8712
  761MPD2    H211297   3.791   2.164  11.237  4.1269 -1.2346  0.2184
  761MPD2    H311298   3.906   2.295  11.413  0.4744 -0.3908  0.3580
  761MPD2     N11299   4.089   2.585  11.123 -0.3324  0.0556 -0.2515
  761MPD2    H511300   4.099   2.611  11.026 -0.7184 -1.8203 -0.7946
  761MPD2    N111301   3.813   2.211  10.977 -0.0125 -0.0669  0.3284
  761MPD2    H711302   3.759   2.128  11.002 -0.1599  0.5902  2.2122
  762MPD2     C11303   4.121   2.307  10.327  0.2198  0.2537  0.8723
  762MPD2    C111304   4.128   2.181  10.374  0.1261 -0.7257 -0.1516
  762MPD2    C211305   4.240   2.106  10.377  0.7792 -0.0684  0.3938
  762MPD2    C311306   4.355   2.166  10.334  0.3620 -0.2505 -0.8352
  762MPD2    C411307   4.345   2.291  10.266  0.5611 -0.7176 -0.3761
  762MPD2    C511308   4.228   2.354  10.266 -0.5540  0.3368 -0.0174
  762MPD2     H11309   4.248   2.005  10.417  0.5411 -0.4362 -0.4840
  762MPD2    H111310   4.420   2.345  10.209 -1.0619  1.4836 -0.4504
  762MPD2    H211311   4.026   2.358  10.322  1.1026  1.8750  0.5969
  762MPD2    H311312   4.231   2.446  10.207  2.0611 -0.5348 -1.2441
  762MPD2     N11313   4.479   2.096  10.331  0.3753  0.1799 -0.2076
  762MPD2    H511314   4.469   1.998  10.356  1.1453 -0.2231 -1.5001
  762MPD2    N111315   4.008   2.133  10.432 -0.6798  0.4312  0.4978
  762MPD2    H711316   3.935   2.203  10.442 -0.9525  0.1954  0.1682
  763MPD2     C11317   1.235   2.463  15.981 -0.0222  0.4210 -0.2821
  763MPD2    C111318   1.322   2.460  15.884 -0.7600  0.2918  0.2115
  763MPD2    C211319   1.435   2.548  15.894 -0.3828 -0.0056 -0.6536
  763MPD2    C311320   1.446   2.640  15.990 -0.4621  0.1796  0.5325
  763MPD2    C411321   1.348   2.640  16.091 -0.0747 -0.9536 -0.1862
  763MPD2    C511322   1.246   2.550  16.088 -0.4522  0.2645 -0.3481
  763MPD2     H11323   1.515   2.545  15.821 -0.0567  0.2879 -0.3060
  763MPD2    H111324   1.362   2.707  16.175  0.4595 -1.3962  0.0752
  763MPD2    H211325   1.143   2.405  15.981  0.1025  0.2258 -2.5928
  763MPD2    H311326   1.166   2.539  16.161 -1.3753  1.7994 -1.1187
  763MPD2     N11327   1.553   2.735  16.019 -0.6023 -0.1313  0.0503
  763MPD2    H511328   1.545   2.795  16.100 -1.1816 -2.8955  2.0281
  763MPD2    N111329   1.319   2.372  15.772 -1.2817 -0.0498  0.5546
  763MPD2    H711330   1.375   2.394  15.690 -1.0580 -0.8445  0.4960
  764MPD2     C11331   4.669   0.072  17.048 -0.0809 -1.2734 -0.6800
  764MPD2    C111332   4.569   4.717  17.060 -0.6297  0.4877  0.2685
  764MPD2    C211333   4.538   4.675  17.188 -0.5225 -0.2673  0.3811
  764MPD2    C311334   4.581   0.003  17.305  0.0464  0.7337  0.3990
  764MPD2    C411335   4.668   0.106  17.289 -0.1473 -0.0736 -0.2410
  764MPD2    C511336   4.713   0.136  17.156 -1.1082  0.1713 -0.4650
  764MPD2     H11337   4.460   4.601  17.200  0.6955 -1.7686 -0.9440
  764MPD2    H111338   4.715   0.159  17.371 -0.0672  0.9234 -0.9338
  764MPD2    H211339   4.695   0.105  16.948  0.7121  2.3708  0.6986
  764MPD2    H311340   0.048   0.212  17.141 -1.5626  1.2810  2.9169
  764MPD2     N11341   4.526   4.707  17.428 -0.1742 -0.2391  0.2694
  764MPD2    H511342   4.458   4.632  17.428  0.7111 -1.0422  0.0079
  764MPD2    N111343   4.500   4.675  16.946 -0.2774  0.7376 -0.0232
  764MPD2    H711344   4.510   4.725  16.859 -0.4731  0.4169 -0.2314
  765MPD2     C11345   3.796   1.927  15.365  0.0546  0.1675  0.6996
  765MPD2    C111346   3.872   1.974  15.472 -0.7408  0.2289  0.0287
  765MPD2    C211347   3.993   1.921  15.503 -1.3460  0.9040  0.0499
  765MPD2    C311348   4.044   1.818  15.427  0.2219 -0.6900  0.0025
  765MPD2    C411349   3.974   1.775  15.312 -0.3264 -0.2715  0.8513
  765MPD2    C511350   3.845   1.821  15.290  0.3445 -0.1007 -0.7968
  765MPD2     H11351   4.046   1.942  15.595  0.2338  1.1644 -0.9136
  765MPD2    H111352   4.014   1.701  15.244 -0.1600 -0.6923  1.4097
  765MPD2    H211353   3.695   1.962  15.345  0.1828  1.3390  2.0536
  765MPD2    H311354   3.779   1.788  15.211 -0.8284  2.1607 -0.7616
  765MPD2     N11355   4.168   1.770  15.460 -0.7842  0.4426 -0.7325
  765MPD2    H511356   4.215   1.831  15.526  2.2602  0.2650 -2.7378
  765MPD2    N111357   3.809   2.067  15.561 -0.2930 -0.2099  0.5227
  765MPD2    H711358   3.716   2.089  15.528  0.3462 -0.0175 -1.1222
  766MPD2     C11359   3.371   2.219  15.284  0.1059 -0.4918  0.2137
  766MPD2    C111360   3.498   2.218  15.304  0.3528 -0.1114  0.5785
  766MPD2    C211361   3.586   2.174  15.212 -0.2477 -0.2724  0.5024
  766MPD2    C311362   3.533   2.138  15.083  0.4569 -0.2937 -0.2684
  766MPD2    C411363   3.395   2.130  15.067 -0.1203 -0.2046 -0.5905
  766MPD2    C511364   3.315   2.181  15.164  0.0338  0.6777 -0.6594
  766MPD2     H11365   3.693   2.185  15.215 -0.4512  1.2057  2.6735
  766MPD2    H111366   3.341   2.087  14.984 -1.3400  1.2728 -0.5555
  766MPD2    H211367   3.302   2.242  15.365 -0.2193 -1.2645  0.1560
  766MPD2    H311368   3.207   2.174  15.150 -0.4648  2.3916  2.1811
  766MPD2     N11369   3.609   2.098  14.972  0.4162 -0.0108  0.3552
  766MPD2    H511370   3.556   2.103  14.886 -1.8079  0.0185  1.7245
  766MPD2    N111371   3.563   2.263  15.422  0.6767 -0.2122 -0.6143
  766MPD2    H711372   3.664   2.260  15.424  0.6203 -1.2015  0.7878
  767MPD2     C11373   3.298   2.362  14.869  0.0170  0.5442  0.3784
  767MPD2    C111374   3.429   2.388  14.824  0.4859  0.2898 -0.0157
  767MPD2    C211375   3.457   2.362  14.690  0.3605 -0.6869 -0.5377
  767MPD2    C311376   3.359   2.322  14.598 -0.1291 -0.1756  0.1515
  767MPD2    C411377   3.236   2.284  14.649  0.3466  0.2265  0.7218
  767MPD2    C511378   3.205   2.303  14.786  0.0345 -0.7004  0.1600
  767MPD2     H11379   3.549   2.396  14.644 -1.3748  4.3782 -0.2596
  767MPD2    H111380   3.155   2.247  14.588  0.9131  0.9744 -0.4957
  767MPD2    H211381   3.268   2.391  14.969 -2.6144 -1.6438  0.2314
  767MPD2    H311382   3.105   2.282  14.823  0.0729 -0.3795  0.4540
  767MPD2     N11383   3.393   2.280  14.470  0.7191  0.1139  0.2626
  767MPD2    H511384   3.494   2.279  14.457  0.3667 -0.5653 -2.2687
  767MPD2    N111385   3.521   2.451  14.909  0.3323 -0.4315  0.0702
  767MPD2    H711386   3.483   2.483  14.997 -0.5970 -0.3728 -0.3511
  768MPD2     C11387   4.173   0.989  10.328  0.5301  1.1000 -0.2079
  768MPD2    C111388   4.264   1.078  10.383 -0.0484 -0.3863 -0.1301
  768MPD2    C211389   4.370   1.017  10.456 -0.6628 -0.8225 -0.2522
  768MPD2    C311390   4.379   0.880  10.478  0.6047 -0.0117  0.8182
  768MPD2    C411391   4.291   0.794  10.417  0.0468  0.5419  0.3330
  768MPD2    C511392   4.194   0.854  10.333 -0.2111  0.7557  0.4119
  768MPD2     H11393   4.444   1.079  10.505 -0.2516 -1.1373 -0.4758
  768MPD2    H111394   4.277   0.689  10.439 -0.0861  0.7066  1.0331
  768MPD2    H211395   4.098   1.026  10.259  0.2741 -1.9086 -1.5378
  768MPD2    H311396   4.134   0.789  10.271 -0.1832 -0.1361  1.3006
  768MPD2     N11397   4.457   0.829  10.581 -0.1973  0.1282  0.0966
  768MPD2    H511398   4.416   0.752  10.633  1.0422 -0.7292 -0.1933
  768MPD2    N111399   4.267   1.220  10.361 -0.5603  0.0742  0.0713
  768MPD2    H711400   4.353   1.267  10.387 -0.8017 -0.9695  2.7583
  769MPD2     C11401   0.466   3.951  14.853 -0.4058 -0.2135  0.0641
  769MPD2    C111402   0.444   3.844  14.938 -0.3913 -0.5228 -0.5002
  769MPD2    C211403   0.515   3.835  15.054  0.0680 -0.0343  0.3643
  769MPD2    C311404   0.605   3.932  15.086  0.1132  0.1029  0.5532
  769MPD2    C411405   0.627   4.039  15.001  0.3100  0.6954  0.1725
  769MPD2    C511406   0.551   4.051  14.887  0.2720 -0.2212  0.0216
  769MPD2     H11407   0.498   3.750  15.120 -0.6819 -1.2098 -1.3241
  769MPD2    H111408   0.689   4.126  15.023  1.0694 -0.0764  1.0761
  769MPD2    H211409   0.416   3.959  14.757  2.7221 -2.6989 -1.7987
  769MPD2    H311410   0.563   4.139  14.825  2.8541 -0.1939  0.5517
  769MPD2     N11411   0.674   3.926  15.212  0.5028  0.4378  0.6289
  769MPD2    H511412   0.648   3.846  15.270  2.5684 -0.6341  0.0657
  769MPD2    N111413   0.359   3.739  14.896  0.6485 -0.5637  0.2712
  769MPD2    H711414   0.320   3.750  14.803 -1.6093  0.0677  1.2954
  770MPD2     C11415   4.506   2.823  14.999  0.6546 -0.6429 -0.8243
  770MPD2    C111416   4.609   2.798  14.902  0.6224  0.3882 -0.5023
  770MPD2    C211417   4.694   2.903  14.870  0.4666 -0.1211 -1.0373
  770MPD2    C311418   4.693   3.023  14.938  0.0267  0.0662  0.7389
  770MPD2    C411419   4.597   3.043  15.032 -0.2867  0.0528  0.5803
  770MPD2    C511420   4.499   2.946  15.063 -0.4333  0.6467 -0.4245
  770MPD2     H11421   0.034   2.882  14.801  0.1412 -0.7845 -1.2129
  770MPD2    H111422   4.589   3.133  15.091 -0.1326  0.8059 -0.5485
  770MPD2    H211423   4.440   2.741  15.023  0.5250 -0.8720 -1.9328
  770MPD2    H311424   4.420   2.971  15.133  0.7565  2.1680  0.3710
  770MPD2     N11425   0.039   3.121  14.893 -0.3539  0.1272 -0.0732
  770MPD2    H511426   0.103   3.089  14.821  0.8333 -0.8120  1.3757
  770MPD2    N111427   4.599   2.668  14.849 -0.4523  0.6235  0.5693
  770MPD2    H711428   4.534   2.605  14.895  0.2591 -0.9018 -0.4923
  771MPD2     C11429   1.302   1.549  14.190 -0.3688 -0.2611 -0.0236
  771MPD2    C111430   1.208   1.587  14.094  0.0926 -0.0872 -0.5325
  771MPD2    C211431   1.141   1.493  14.024  0.4380  0.4660  0.5034
  771MPD2    C311432   1.170   1.360  14.046 -0.4616  0.1707 -0.6874
  771MPD2    C411433   1.264   1.326  14.142  0.2479 -0.0355  0.1473
  771MPD2    C511434   1.329   1.418  14.216 -0.9913 -0.5711  0.6008
  771MPD2     H11435   1.089   1.528  13.935  1.2647  2.0650  0.6495
  771MPD2    H111436   1.297   1.223  14.150 -0.4132 -0.1570  1.3288
  771MPD2    H211437   1.355   1.616  14.256 -2.4128  2.2728 -0.9354
  771MPD2    H311438   1.411   1.385  14.279 -0.2677  0.1172  0.0283
  771MPD2     N11439   1.106   1.266  13.965  0.4933  0.1073  0.1369
  771MPD2    H511440   1.029   1.289  13.903 -0.6428 -1.1520  1.0859
  771MPD2    N111441   1.174   1.723  14.070  0.3541  0.9872  0.4247
  771MPD2    H711442   1.097   1.740  14.007 -0.6199 -0.3676  1.2478
  772MPD2     C11443   0.575   2.074  13.967 -1.0754 -0.3737 -0.2459
  772MPD2    C111444   0.657   1.965  13.937  0.4508  0.4260  0.0713
  772MPD2    C211445   0.601   1.843  13.931  0.1830 -0.2654  1.1491
  772MPD2    C311446   0.463   1.824  13.954  0.6212 -0.3781 -0.6823
  772MPD2    C411447   0.385   1.932  13.985 -0.0417  0.6948 -0.0932
  772MPD2    C511448   0.442   2.060  13.981 -0.8789 -0.6793  0.4220
  772MPD2     H11449   0.660   1.754  13.918 -0.3867 -0.6856  1.4193
  772MPD2    H111450   0.278   1.923  14.000  0.3184 -1.4479  1.2420
  772MPD2    H211451   0.620   2.168  13.996 -1.5852 -0.3245  0.3881
  772MPD2    H311452   0.383   2.144  14.015 -1.5246 -1.9120  2.3196
  772MPD2     N11453   0.398   1.703  13.950 -0.2261 -0.5044  0.1444
  772MPD2    H511454   0.302   1.698  13.983 -0.2587 -0.2683  0.0886
  772MPD2    N111455   0.800   1.970  13.943  0.5853 -0.2055  0.0327
  772MPD2    H711456   0.856   1.888  13.924 -0.3032 -0.7712 -0.1107
  773MPD2     C11457   0.220   2.933   0.333  0.0476  0.8170  0.3284
  773MPD2    C111458   0.139   2.848   0.257  0.7584 -0.5392 -0.2675
  773MPD2    C211459   0.172   2.712   0.248  0.2282  0.2575 -0.3738
  773MPD2    C311460   0.274   2.660   0.331 -0.2351  0.1032  0.6003
  773MPD2    C411461   0.337   2.748   0.423  0.3323  0.1732 -0.1138
  773MPD2    C511462   0.311   2.881   0.411 -0.3581  0.1127 -0.3844
  773MPD2     H11463   0.122   2.649   0.175  1.5473 -0.9323 -0.2437
  773MPD2    H111464   0.409   2.714   0.497 -1.0469 -1.8158  0.3372
  773MPD2    H211465   0.201   3.039   0.348 -1.9131  0.3501  1.0627
  773MPD2    H311466   0.373   2.948   0.471  2.0932 -1.2835 -1.3450
  773MPD2     N11467   0.312   2.523   0.320  0.8538 -0.0570 -0.4824
  773MPD2    H511468   0.265   2.467   0.250 -2.6058  1.8223  0.3207
  773MPD2    N111469   0.022   2.883   0.176 -0.4382 -0.0510  0.4102
  773MPD2    H711470   4.715   2.805   0.132 -0.4335 -0.9706  2.0466
  774MPD2     C11471   4.442   2.168  13.176 -0.1112  0.1246  0.2837
  774MPD2    C111472   4.335   2.195  13.260  0.2855  0.0601 -0.1856
  774MPD2    C211473   4.304   2.329  13.302  0.7039  0.0721 -0.0880
  774MPD2    C311474   4.387   2.434  13.269 -0.8359  0.3573  0.4629
  774MPD2    C411475   4.492   2.404  13.187  0.4162 -0.4265  0.0381
  774MPD2    C511476   4.508   2.278  13.127 -0.1944 -0.7713 -0.0153
  774MPD2     H11477   4.219   2.345  13.367  0.6382 -0.5689 -0.0158
  774MPD2    H111478   4.563   2.477  13.151 -1.4605  2.4774  2.2104
  774MPD2    H211479   4.464   2.073  13.129  0.6386  0.8037 -0.7270
  774MPD2    H311480   4.595   2.266  13.064 -1.8183 -1.1586 -2.1953
  774MPD2     N11481   4.365   2.564  13.326 -0.1899  0.4232  0.2620
  774MPD2    H511482   4.289   2.572  13.392  1.3247  1.5479  1.8591
  774MPD2    N111483   4.270   2.081  13.318  0.1839  0.2530 -0.3162
  774MPD2    H711484   4.306   1.992  13.285  1.2244  1.7976 -3.3652
  775MPD2     C11485   0.456   3.420  15.467  0.0352 -0.4795  0.4373
  775MPD2    C111486   0.546   3.473  15.556  0.1958 -0.6185  0.0245
  775MPD2    C211487   0.663   3.519  15.495  0.0204  0.2243  0.2536
  775MPD2    C311488   0.693   3.505  15.359 -0.1879 -0.2371 -0.8929
  775MPD2    C411489   0.598   3.448  15.267  0.3102  0.2843 -0.0635
  775MPD2    C511490   0.482   3.407  15.332 -0.1626 -1.2314  0.6603
  775MPD2     H11491   0.736   3.554  15.567  1.7184 -1.5802 -0.5886
  775MPD2    H111492   0.609   3.436  15.160 -0.4301 -1.4820  0.0741
  775MPD2    H211493   0.361   3.383  15.504 -1.4621  1.5886 -1.4051
  775MPD2    H311494   0.402   3.366  15.273 -0.6235  3.1662 -1.7274
  775MPD2     N11495   0.817   3.543  15.300  0.1431 -0.8816  0.1882
  775MPD2    H511496   0.840   3.506  15.208 -2.4450  0.0538 -0.8169
  775MPD2    N111497   0.517   3.452  15.693 -0.4384  0.7187  0.1143
  775MPD2    H711498   0.425   3.426  15.727 -0.3379 -2.7907 -2.3752
  776MPD2     C11499   4.133   4.253  11.067  0.0678  0.7331  0.1131
  776MPD2    C111500   4.242   4.195  11.112  0.6221  0.4901  0.7967
  776MPD2    C211501   4.364   4.271  11.104 -0.2892  0.2767  0.0227
  776MPD2    C311502   4.366   4.401  11.063  0.0415  0.1485  0.1469
  776MPD2    C411503   4.250   4.453  11.011 -0.0443 -0.3085  0.7097
  776MPD2    C511504   4.133   4.381  11.012 -0.0314  0.0615 -0.9192
  776MPD2     H11505   4.457   4.229  11.139 -0.8980  0.5652  2.0132
  776MPD2    H111506   4.228   4.554  10.980 -1.5654 -0.2149  2.1469
  776MPD2    H211507   4.034   4.210  11.082  0.6105  0.0206  1.6548
  776MPD2    H311508   4.037   4.430  10.998  0.2203  1.0830  0.8864
  776MPD2     N11509   4.482   4.481  11.067 -0.0228 -0.1152 -0.1375
  776MPD2    H511510   4.485   4.559  11.002  0.4771  0.3170  0.4051
  776MPD2    N111511   4.240   4.066  11.160  0.1956  0.2269  0.9014
  776MPD2    H711512   4.151   4.020  11.176 -0.3196  1.3192  1.1598
  777MPD2     C11513   0.196   1.530   0.381 -0.5081 -0.1612  0.5678
  777MPD2    C111514   0.097   1.490   0.464 -1.1504  0.0644 -0.2837
  777MPD2    C211515   4.735   1.412   0.411 -0.2612 -0.0024 -0.6250
  777MPD2    C311516   4.728   1.384   0.272 -0.8638 -0.1971  0.5298
  777MPD2    C411517   0.092   1.424   0.191 -0.4462 -0.4392 -0.0175
  777MPD2    C511518   0.190   1.502   0.251  0.2423  0.2890  0.1522
  777MPD2     H11519   4.652   1.373   0.469  0.0097 -0.3209 -0.4552
  777MPD2    H111520   0.092   1.414   0.083 -2.5708 -1.0067  0.0213
  777MPD2    H211521   0.292   1.568   0.414 -0.5869 -1.2770  2.0773
  777MPD2    H311522   0.277   1.518   0.188  0.8665  0.1405  0.9744
  777MPD2     N11523   4.622   1.305   0.216 -0.5861 -0.4664 -0.2792
  777MPD2    H511524   4.554   1.269   0.282 -0.9301 -0.0794 -0.4226
  777MPD2    N111525   0.113   1.527   0.603 -0.2785 -0.1038 -0.2963
  777MPD2    H711526   0.210   1.542   0.627 -0.4630 -1.1903  1.1801
  778MPD2     C11527   1.353   1.476  14.699 -0.7235 -1.2383  0.4996
  778MPD2    C111528   1.391   1.340  14.678  0.8610 -0.3850  0.2323
  778MPD2    C211529   1.504   1.323  14.597 -0.0732 -0.6173  0.0949
  778MPD2    C311530   1.572   1.425  14.526  0.5424  0.0721 -0.3391
  778MPD2    C411531   1.521   1.551  14.538  1.3102  0.5737  0.6021
  778MPD2    C511532   1.423   1.576  14.633 -0.2905 -0.2236 -0.8607
  778MPD2     H11533   1.547   1.224  14.581 -2.4696 -1.2102 -2.5029
  778MPD2    H111534   1.566   1.638  14.494  1.4729  0.2307  0.0903
  778MPD2    H211535   1.263   1.507  14.751 -0.9784 -0.3486 -0.4619
  778MPD2    H311536   1.389   1.679  14.636  0.7923  0.1038  0.0901
  778MPD2     N11537   1.682   1.386  14.448  0.0077  0.1221  0.1312
  778MPD2    H511538   1.722   1.293  14.454  0.5664  0.2119 -2.0657
  778MPD2    N111539   1.324   1.224  14.724  0.5386 -0.2621 -0.6011
  778MPD2    H711540   1.359   1.134  14.691  0.7064 -0.0486 -1.0127
  779MPD2     C11541   0.733   0.058  14.194  0.0285  0.6396  0.0807
  779MPD2    C111542   0.844   0.073  14.128  0.1481 -0.8509  0.2173
  779MPD2    C211543   0.928   0.181  14.163 -0.6155  0.0745 -0.3659
  779MPD2    C311544   0.880   0.283  14.249  0.6872 -0.0817 -0.6742
  779MPD2    C411545   0.763   0.254  14.318 -0.2834  0.3320 -0.0298
  779MPD2    C511546   0.694   0.141  14.289  0.4820 -0.3067  0.0309
  779MPD2     H11547   1.022   0.192  14.110 -0.5728  2.6508  0.2570
  779MPD2    H111548   0.723   0.320  14.394 -0.7915  0.6380 -0.5674
  779MPD2    H211549   0.666   4.717  14.171 -0.5118  0.7199  1.3330
  779MPD2    H311550   0.596   0.136  14.335 -0.2621  1.6972 -1.3005
  779MPD2     N11551   0.954   0.404  14.266  0.5166 -0.5632  0.2503
  779MPD2    H511552   1.051   0.415  14.235  0.4270 -0.0815  0.1470
  779MPD2    N111553   0.886   4.718  14.024  0.3383  0.3248  0.2690
  779MPD2    H711554   0.977   4.732  13.981 -0.0447 -3.3518 -1.7505
  780MPD2     C11555   0.459   0.433   0.626  0.1514 -0.1383 -0.4443
  780MPD2    C111556   0.466   0.352   0.515 -0.1085  0.1482  0.2044
  780MPD2    C211557   0.584   0.356   0.443 -0.0173 -0.6477 -0.1721
  780MPD2    C311558   0.698   0.417   0.483 -0.3901 -0.4699  0.1480
  780MPD2    C411559   0.692   0.495   0.597  0.1225  0.1208  0.2948
  780MPD2    C511560   0.568   0.507   0.658 -0.3597  0.5078 -0.9453
  780MPD2     H11561   0.591   0.303   0.348 -0.3341 -0.4574 -0.3021
  780MPD2    H111562   0.774   0.551   0.639  1.1674  0.1136 -1.7102
  780MPD2    H211563   0.368   0.449   0.683  0.8799 -2.8428  1.4153
  780MPD2    H311564   0.573   0.568   0.747 -0.1885  0.3274 -0.8291
  780MPD2     N11565   0.801   0.410   0.386  0.1538 -0.1595 -0.3921
  780MPD2    H511566   0.790   0.357   0.300  0.5338  0.7861 -1.0298
  780MPD2    N111567   0.355   0.271   0.478 -0.6045  0.1002 -0.5871
  780MPD2    H711568   0.274   0.265   0.539 -0.4179  2.4508 -0.1268
  781MPD2     C11569   1.998   2.946  11.878  0.2273  0.2254 -0.1173
  781MPD2    C111570   2.106   2.888  11.947 -0.3512  0.6676 -0.3100
  781MPD2    C211571   2.227   2.887  11.881  0.4034  0.0824 -0.2617
  781MPD2    C311572   2.248   2.961  11.765  0.3957 -1.0726 -0.4089
  781MPD2    C411573   2.149   3.030  11.707  0.2261  0.3452 -0.6814
  781MPD2    C511574   2.026   3.015  11.754 -0.7654  0.6052 -0.2553
  781MPD2     H11575   2.305   2.818  11.910 -0.2643 -1.8165 -3.0632
  781MPD2    H111576   2.164   3.091  11.619  0.7951  1.5386  0.2384
  781MPD2    H211577   1.897   2.957  11.917 -0.5118 -0.9434 -1.7170
  781MPD2    H311578   1.944   3.068  11.707 -0.3903  2.6698  1.4206
  781MPD2     N11579   2.373   2.966  11.695 -0.2825 -0.3447  0.6501
  781MPD2    H511580   2.367   2.995  11.598 -0.5100 -3.6280 -0.3363
  781MPD2    N111581   2.081   2.806  12.060 -0.2238  0.1947  0.6618
  781MPD2    H711582   1.987   2.777  12.086  0.0335 -0.5406  0.7613
  782MPD2     C11583   0.164   3.307   9.776 -0.5683  0.2464 -0.5477
  782MPD2    C111584   0.184   3.252   9.897  0.3043 -0.1816  0.2321
  782MPD2    C211585   0.253   3.319   9.992 -0.5683  0.2111 -0.2639
  782MPD2    C311586   0.325   3.429   9.967  0.4056  0.9043  0.0621
  782MPD2    C411587   0.311   3.488   9.841  0.2584 -0.0974 -0.5478
  782MPD2    C511588   0.221   3.432   9.754 -0.8879  0.9146  0.3269
  782MPD2     H11589   0.276   3.277  10.089  0.5930  1.4593 -0.0018
  782MPD2    H111590   0.360   3.578   9.807  2.5608 -0.4336  1.8434
  782MPD2    H211591   0.120   3.248   9.695  2.7474 -1.6952 -0.9297
  782MPD2    H311592   0.197   3.479   9.660  1.5603  2.2649  0.3690
  782MPD2     N11593   0.392   3.492  10.073  0.2684  0.1334  0.3673
  782MPD2    H511594   0.367   3.452  10.163  1.0984  1.7029  1.3039
  782MPD2    N111595   0.143   3.120   9.924 -0.2282 -0.1541  0.2175
  782MPD2    H711596   0.166   3.075  10.013 -1.4076 -1.1264  0.0195
  783MPD2     C11597   4.216   2.626  10.520  0.2924  0.3688  0.5953
  783MPD2    C111598   4.331   2.680  10.573  0.1575  0.2797  0.6577
  783MPD2    C211599   4.433   2.727  10.491  0.5853 -0.5407  0.1606
  783MPD2    C311600   4.416   2.729  10.349 -0.4401  0.0360  0.5245
  783MPD2    C411601   4.288   2.703  10.306 -0.1173 -0.3002 -0.4084
  783MPD2    C511602   4.196   2.640  10.387  0.3450 -0.0562  1.2584
  783MPD2     H11603   4.523   2.774  10.528 -0.2018  1.6596 -0.6780
  783MPD2    H111604   4.261   2.727  10.204 -3.4189  1.3784  0.8408
  783MPD2    H211605   4.137   2.581  10.578 -0.6977  0.5571 -0.5999
  783MPD2    H311606   4.099   2.616  10.343  1.2180 -0.2126 -0.5884
  783MPD2     N11607   4.525   2.770  10.266  0.0506  0.2206 -0.1376
  783MPD2    H511608   4.617   2.791  10.303  0.5129  0.3089 -1.3111
  783MPD2    N111609   4.333   2.690  10.715 -0.2523  0.6341  0.1866
  783MPD2    H711610   4.244   2.665  10.756 -0.8077 -0.6802 -1.7981
  784MPD2     C11611   2.444   3.016   1.108 -0.1937  0.1081 -0.1511
  784MPD2    C111612   2.465   3.148   1.133  0.3126 -1.4132  0.0081
  784MPD2    C211613   2.396   3.243   1.062  0.0819 -0.0499 -0.2836
  784MPD2    C311614   2.320   3.204   0.950  0.0787  0.4931  0.0035
  784MPD2    C411615   2.309   3.071   0.926 -0.4071 -0.3051  0.1499
  784MPD2    C511616   2.365   2.980   1.005 -0.1935  0.0673 -0.0971
  784MPD2     H11617   2.389   3.347   1.092  0.7511 -0.7301  2.1912
  784MPD2    H111618   2.250   3.029   0.845  0.3725  0.8857 -1.0309
  784MPD2    H211619   2.485   2.931   1.161 -0.8782 -0.4918 -0.5923
  784MPD2    H311620   2.349   2.873   0.992  1.2806 -0.3152  1.1786
  784MPD2     N11621   2.241   3.301   0.886  0.1680 -0.0503 -0.7505
  784MPD2    H511622   2.235   3.393   0.928 -0.6295  0.4337 -1.9331
  784MPD2    N111623   2.550   3.192   1.231 -0.5516 -0.5196 -0.1451
  784MPD2    H711624   2.567   3.292   1.238 -0.1398 -0.6864  1.3193
  785MPD2     C11625   3.303   2.804  10.782  0.0579  0.9725  0.0225
  785MPD2    C111626   3.256   2.865  10.665  0.1884  0.2024  0.8735
  785MPD2    C211627   3.180   2.784  10.578  0.6032  0.3930 -0.9217
  785MPD2    C311628   3.174   2.648  10.595 -0.0931 -0.0091  0.6132
  785MPD2    C411629   3.206   2.595  10.719 -0.3189 -0.5273 -0.2545
  785MPD2    C511630   3.267   2.675  10.806  0.5505  1.2372  0.1699
  785MPD2     H11631   3.145   2.828  10.486  0.9489  1.8845 -0.3276
  785MPD2    H111632   3.180   2.491  10.740  1.4396 -1.2490 -1.6439
  785MPD2    H211633   3.355   2.863  10.857 -3.2193  2.8438  0.8313
  785MPD2    H311634   3.295   2.630  10.900 -1.3086 -2.6757 -1.1280
  785MPD2     N11635   3.109   2.575  10.495  0.4084  0.0228  0.0698
  785MPD2    H511636   3.067   2.623  10.416  0.4160  1.1933  0.7837
  785MPD2    N111637   3.283   3.003  10.638 -0.3689  0.1032  0.4172
  785MPD2    H711638   3.348   3.050  10.699 -0.3807  1.8611 -0.9514
  786MPD2     C11639   2.137   4.725  14.012 -0.6599 -0.3377 -0.1103
  786MPD2    C111640   2.099   4.617  14.092  0.0545 -0.8184  0.2631
  786MPD2    C211641   2.131   4.624  14.224  0.9716 -0.5646  0.1159
  786MPD2    C311642   2.195   4.736  14.276 -0.2771 -0.2855 -0.3779
  786MPD2    C411643   2.245   0.099  14.195  0.8006 -0.0034  0.1329
  786MPD2    C511644   2.202   0.092  14.061 -0.2622  0.4759 -0.3801
  786MPD2     H11645   2.088   4.549  14.290  2.8012  0.9002  2.9483
  786MPD2    H111646   2.291   0.191  14.230 -1.1693  0.4595  1.4746
  786MPD2    H211647   2.105   4.735  13.909  2.2486  3.5592 -0.6298
  786MPD2    H311648   2.229   0.170  13.991 -0.7098  2.4818  1.6887
  786MPD2     N11649   2.225   0.007  14.413 -0.4046  0.1352 -0.2781
  786MPD2    H511650   2.301   0.066  14.445 -0.3199  0.7010 -1.5132
  786MPD2    N111651   2.012   4.521  14.040 -0.3920  0.1318  0.4980
  786MPD2    H711652   1.964   4.459  14.105  0.3548  2.3032  3.1334
  787MPD2     C11653   1.685   4.170  14.395 -0.2806 -0.1896 -0.2422
  787MPD2    C111654   1.692   4.108  14.275 -0.7981  0.3724  0.3225
  787MPD2    C211655   1.692   3.968  14.276  0.8663  0.4419 -0.0213
  787MPD2    C311656   1.708   3.901  14.391  0.0849 -1.0884 -0.1112
  787MPD2    C411657   1.708   3.965  14.512  0.5979  0.1150  0.1067
  787MPD2    C511658   1.694   4.098  14.514  0.6115 -0.2887  0.3750
  787MPD2     H11659   1.706   3.906  14.187  3.2160  0.7471  0.1332
  787MPD2    H111660   1.715   3.920  14.610  0.5482 -1.0476 -0.4237
  787MPD2    H211661   1.676   4.277  14.409 -0.4582 -0.2173 -0.1412
  787MPD2    H311662   1.701   4.150  14.609 -1.7914 -0.8668  0.8590
  787MPD2     N11663   1.725   3.757  14.386  0.3301  0.2134 -0.0956
  787MPD2    H511664   1.743   3.703  14.302  1.2806  0.1814  0.1318
  787MPD2    N111665   1.696   4.192  14.162 -0.2196 -0.3201  0.3761
  787MPD2    H711666   1.717   4.289  14.180  0.7934 -0.7170  1.3468
  788MPD2     C11667   4.244   2.944   0.856  0.4247 -0.4794 -0.4890
  788MPD2    C111668   4.132   2.909   0.781  0.8491  0.0007  0.1460
  788MPD2    C211669   4.081   3.004   0.693  0.0570  0.5397 -0.8635
  788MPD2    C311670   4.121   3.135   0.689  0.1046  0.3502  0.4875
  788MPD2    C411671   4.230   3.164   0.763 -0.2713  0.6359 -0.1069
  788MPD2    C511672   4.297   3.066   0.836  0.2972 -0.5127 -0.5324
  788MPD2     H11673   4.007   2.968   0.623 -0.8337 -1.2834  1.0259
  788MPD2    H111674   4.279   3.260   0.759 -0.7819  0.8508 -1.0340
  788MPD2    H211675   4.291   2.883   0.933 -3.0278 -1.3663  0.9052
  788MPD2    H311676   4.384   3.100   0.892  0.6301 -0.5454 -1.0385
  788MPD2     N11677   4.062   3.233   0.602 -0.9314 -0.2114  0.3934
  788MPD2    H511678   4.110   3.318   0.574  1.1104 -1.0095  1.4532
  788MPD2    N111679   4.087   2.774   0.773 -0.5821  0.0398  0.3208
  788MPD2    H711680   4.031   2.757   0.690 -1.1475  2.7614  0.1469
  789MPD2     C11681   3.638   1.442  16.513  0.4931 -0.1855  0.1027
  789MPD2    C111682   3.615   1.538  16.415  0.1590 -0.2127  0.4628
  789MPD2    C211683   3.593   1.664  16.457  0.4342  0.1380  0.1231
  789MPD2    C311684   3.585   1.697  16.590 -0.8104 -0.5373 -0.0491
  789MPD2    C411685   3.597   1.600  16.689  0.6244  0.0255 -0.1445
  789MPD2    C511686   3.629   1.474  16.644 -0.0135 -0.2649  0.6658
  789MPD2     H11687   3.581   1.736  16.377 -0.2315  0.5544  0.5996
  789MPD2    H111688   3.593   1.624  16.795 -1.8043 -0.4782 -0.1225
  789MPD2    H211689   3.674   1.344  16.486  0.2663  0.1759 -1.4994
  789MPD2    H311690   3.645   1.403  16.724  1.6879 -1.1564 -0.4845
  789MPD2     N11691   3.561   1.831  16.634  0.3770 -0.1105  0.3130
  789MPD2    H511692   3.559   1.839  16.735  0.2691  1.5872  0.1626
  789MPD2    N111693   3.626   1.511  16.282  0.2536  0.5199 -0.1968
  789MPD2    H711694   3.618   1.589  16.218 -0.6472 -0.7691 -1.6784
  790MPD2     C11695   4.718   3.724  13.634 -0.2083 -0.4061 -0.3256
  790MPD2    C111696   0.049   3.752  13.527 -0.6468  0.0078  0.9532
  790MPD2    C211697   4.723   3.762  13.403  1.0177  0.3371  0.0230
  790MPD2    C311698   4.588   3.741  13.391 -0.3917 -0.2083  0.3331
  790MPD2    C411699   4.519   3.724  13.514  0.2372 -1.4071  0.0730
  790MPD2    C511700   4.587   3.708  13.627  0.3246 -0.5763 -0.2919
  790MPD2     H11701   0.035   3.770  13.308 -1.0215 -0.6710 -1.1922
  790MPD2    H111702   4.412   3.706  13.506  0.2000 -1.2004  0.1051
  790MPD2    H211703   0.018   3.731  13.734 -0.0518  0.0552 -0.4210
  790MPD2    H311704   4.528   3.707  13.718 -0.4833  0.8958 -0.8002
  790MPD2     N11705   4.527   3.751  13.263  0.1648 -0.3311  0.5366
  790MPD2    H511706   4.591   3.753  13.185  0.1793 -3.5284  0.4498
  790MPD2    N111707   0.190   3.761  13.537 -0.6866  0.1727  0.0186
  790MPD2    H711708   0.225   3.774  13.631 -0.0925 -0.9388 -0.0435
  791MPD2     C11709   4.031   3.584  12.501  0.0572 -1.0213 -0.4715
  791MPD2    C111710   4.016   3.573  12.639  0.3201 -0.2229 -0.4650
  791MPD2    C211711   3.888   3.555  12.700  0.0807  0.0635 -0.3675
  791MPD2    C311712   3.776   3.539  12.623 -0.6600  0.1208  0.0331
  791MPD2    C411713   3.795   3.561  12.486 -0.0707  0.6070  0.0487
  791MPD2    C511714   3.916   3.579  12.426 -0.3187 -0.1291  0.4131
  791MPD2     H11715   3.881   3.529  12.805 -3.0428  1.0133 -0.3308
  791MPD2    H111716   3.711   3.536  12.422 -0.1732 -0.9564  0.7932
  791MPD2    H211717   4.124   3.600  12.447  0.5601 -2.1619  0.0446
  791MPD2    H311718   3.920   3.580  12.318 -2.0615  1.0284  0.3465
  791MPD2     N11719   3.652   3.496  12.677  0.5055 -0.6475  0.5099
  791MPD2    H511720   3.649   3.484  12.777 -1.5084  1.0737  0.6569
  791MPD2    N111721   4.131   3.583  12.713  0.1088 -0.0166  0.4213
  791MPD2    H711722   4.215   3.586  12.656 -0.8667  0.4220 -0.9915
  792MPD2     C11723   0.350   4.268  11.017  0.6443 -0.9928 -0.1158
  792MPD2    C111724   0.299   4.343  10.915  0.1009  0.2592  0.3244
  792MPD2    C211725   0.172   4.320  10.861 -0.4849  0.3523  0.1676
  792MPD2    C311726   0.089   4.229  10.922 -0.3616  0.2799  0.0277
  792MPD2    C411727   0.145   4.156  11.023  0.3066  0.0514  0.2530
  792MPD2    C511728   0.266   4.176  11.073  1.0102 -0.5475 -0.6158
  792MPD2     H11729   0.135   4.373  10.774 -0.7419  2.0443  1.3063
  792MPD2    H111730   0.078   4.093  11.080 -3.2511  1.5615 -2.2913
  792MPD2    H211731   0.444   4.288  11.067  0.5260  0.6500 -0.5540
  792MPD2    H311732   0.308   4.123  11.158 -1.0548  1.4665  1.6564
  792MPD2     N11733   4.699   4.192  10.875  0.2687  0.3195  0.4196
  792MPD2    H511734   4.663   4.102  10.906 -0.5491  0.4930 -0.0420
  792MPD2    N111735   0.394   4.436  10.863 -0.2737  0.4915  0.0854
  792MPD2    H711736   0.485   4.439  10.908 -1.0400 -1.1369  1.7121
  793MPD2     C11737   4.284   4.142   9.917 -0.4225 -0.1953 -0.4244
  793MPD2    C111738   4.395   4.094   9.988 -0.0634  0.2613  0.7596
  793MPD2    C211739   4.394   4.113  10.126 -0.6481  0.4407 -0.1705
  793MPD2    C311740   4.289   4.184  10.193  0.2973 -0.0676 -0.1914
  793MPD2    C411741   4.184   4.225  10.114 -0.2073  0.4970 -0.1899
  793MPD2    C511742   4.182   4.208   9.974  0.4613  0.3435 -0.6621
  793MPD2     H11743   4.472   4.072  10.189  1.5118  1.1155 -2.4139
  793MPD2    H111744   4.104   4.287  10.154 -1.6382  0.1017 -2.4683
  793MPD2    H211745   4.261   4.125   9.812 -0.5798 -0.9831 -0.2614
  793MPD2    H311746   4.095   4.233   9.915 -0.2260  0.1260  0.2594
  793MPD2     N11747   4.267   4.211  10.331  0.2088 -0.5348  0.6368
  793MPD2    H511748   4.178   4.250  10.359  1.1260 -0.3545  3.2813
  793MPD2    N111749   4.504   4.037   9.928 -0.4981  0.2600  0.2974
  793MPD2    H711750   4.565   3.991   9.995 -0.9345 -0.1832  0.3897
  794MPD2     C11751   4.518   3.533  17.405 -0.4512 -0.6609 -0.0136
  794MPD2    C111752   4.479   3.403  17.370 -0.6907 -0.2894  0.0551
  794MPD2    C211753   4.432   3.385  17.243 -0.0863  0.0323 -0.5334
  794MPD2    C311754   4.444   3.487  17.146  0.0764  0.0809  0.6050
  794MPD2    C411755   4.499   3.610  17.182  0.2191  0.4226 -0.8410
  794MPD2    C511756   4.519   3.638  17.318  0.1925  0.1743  0.0903
  794MPD2     H11757   4.405   3.285  17.210  0.4265 -0.5243  0.7503
  794MPD2    H111758   4.484   3.699  17.120 -0.3539  0.0996 -1.1730
  794MPD2    H211759   4.558   3.559  17.502  1.3424  0.6877 -1.1162
  794MPD2    H311760   4.539   3.742  17.340 -0.3373  0.9356 -2.9235
  794MPD2     N11761   4.388   3.484  17.017  0.1113  0.7637 -0.6602
  794MPD2    H511762   4.409   3.563  16.957  3.3223  0.3085 -0.0939
  794MPD2    N111763   4.475   3.297  17.459  0.4154  0.2631 -0.5142
  794MPD2    H711764   4.447   3.206  17.423  1.3202 -0.9295  1.7533
  795MPD2     C11765   2.340   0.723  13.023 -0.0439  0.3680  0.1188
  795MPD2    C111766   2.233   0.650  13.053  0.1728  0.8730  0.1549
  795MPD2    C211767   2.242   0.535  13.122  0.0733  0.3758 -0.3734
  795MPD2    C311768   2.363   0.475  13.148  0.1241 -0.3332  0.0784
  795MPD2    C411769   2.482   0.547  13.113 -0.4891 -0.2987 -0.0445
  795MPD2    C511770   2.460   0.668  13.055  0.4204  0.4027 -0.6799
  795MPD2     H11771   2.151   0.479  13.138 -0.8405  1.4023 -1.9430
  795MPD2    H111772   2.580   0.510  13.139 -0.6230 -1.3399 -1.0105
  795MPD2    H211773   2.334   0.820  12.974 -3.5830  0.2138  0.2516
  795MPD2    H311774   2.548   0.730  13.040 -0.7827  2.5217  1.0914
  795MPD2     N11775   2.363   0.341  13.190  0.1286  0.0714 -0.0910
  795MPD2    H511776   2.273   0.315  13.229 -0.1559 -0.6752 -1.2277
  795MPD2    N111777   2.105   0.693  13.009  0.1555 -0.4950  0.2740
  795MPD2    H711778   2.034   0.621  13.019 -2.9938  2.7590  1.5273
  796MPD2     C11779   1.691   2.007  15.724 -0.2861  0.6042 -0.1352
  796MPD2    C111780   1.779   2.092  15.788 -0.0386  0.0695 -0.3980
  796MPD2    C211781   1.777   2.227  15.754 -0.0630  0.3419 -0.0812
  796MPD2    C311782   1.681   2.272  15.667 -0.2740 -0.7076 -0.4192
  796MPD2    C411783   1.591   2.188  15.606  0.1701 -0.1000 -0.1885
  796MPD2    C511784   1.587   2.055  15.647 -0.8589 -0.0972 -0.5497
  796MPD2     H11785   1.852   2.288  15.803  0.0143  0.2829 -0.1257
  796MPD2    H111786   1.521   2.214  15.527 -0.1465 -0.9127 -0.1819
  796MPD2    H211787   1.676   1.902  15.747  2.2808  0.4284  0.6360
  796MPD2    H311788   1.523   1.988  15.590 -3.1203  0.0596  1.8359
  796MPD2     N11789   1.681   2.406  15.638 -0.3162  0.0634  0.4034
  796MPD2    H511790   1.762   2.460  15.665 -0.4296 -0.1006  1.0629
  796MPD2    N111791   1.867   2.035  15.882  0.0426 -0.1638 -0.0715
  796MPD2    H711792   1.851   1.935  15.891  1.6242 -0.6185 -2.3910
  797MPD2     C11793   2.900   1.446  16.916 -0.6827  0.4303  0.7121
  797MPD2    C111794   2.920   1.566  16.982 -0.7042  0.1541  0.2445
  797MPD2    C211795   2.987   1.659  16.911  0.5882 -0.1390 -0.0300
  797MPD2    C311796   3.046   1.634  16.793  0.0915  0.0559 -0.6567
  797MPD2    C411797   3.025   1.511  16.727  0.3032  0.0260 -0.0368
  797MPD2    C511798   2.953   1.416  16.792 -0.0979  0.2255 -0.1001
  797MPD2     H11799   3.002   1.757  16.953 -1.5757  0.6726 -1.1478
  797MPD2    H111800   3.048   1.502  16.622 -1.8173  0.5799 -0.5497
  797MPD2    H211801   2.833   1.374  16.963 -0.3401  0.1026  0.6979
  797MPD2    H311802   2.942   1.322  16.740 -1.4887 -0.5679  1.6167
  797MPD2     N11803   3.102   1.749  16.726 -0.0600 -0.1580  0.9459
  797MPD2    H511804   3.068   1.834  16.770 -1.8881 -0.0685 -0.6108
  797MPD2    N111805   2.864   1.610  17.104  0.1796 -0.2300  0.0094
  797MPD2    H711806   2.897   1.701  17.136  1.1060 -0.9718  1.1558
  798MPD2     C11807   2.839   2.344  16.999  0.4351 -0.2813 -0.0992
  798MPD2    C111808   2.865   2.215  16.949 -0.6355  0.4393 -0.2265
  798MPD2    C211809   2.814   2.103  17.016  0.2417  0.3082  0.2990
  798MPD2    C311810   2.746   2.121  17.131  0.4271 -0.0990 -0.0139
  798MPD2    C411811   2.715   2.249  17.178  0.2243 -0.5477 -0.3950
  798MPD2    C511812   2.764   2.355  17.112  0.1346  0.0162 -0.1063
  798MPD2     H11813   2.841   2.001  16.993  0.3242  0.3154  0.3605
  798MPD2    H111814   2.664   2.260  17.273 -0.8285 -2.6303 -0.7107
  798MPD2    H211815   2.887   2.430  16.953  0.5530 -0.1512  0.2673
  798MPD2    H311816   2.743   2.457  17.139 -1.9638 -0.3062 -0.5340
  798MPD2     N11817   2.709   2.001  17.199 -0.4248 -0.1947  0.6272
  798MPD2    H511818   2.747   1.915  17.160  1.6642  1.4570 -1.0152
  798MPD2    N111819   2.947   2.208  16.834  0.2192 -0.4133  0.3028
  798MPD2    H711820   2.971   2.289  16.779  2.2473 -0.7801  0.6741
  799MPD2     C11821   1.880   3.159  14.257 -0.0194  0.5823  0.1459
  799MPD2    C111822   1.748   3.123  14.283 -0.3518  1.1879  0.6979
  799MPD2    C211823   1.654   3.220  14.263  0.3443  0.1358 -0.6451
  799MPD2    C311824   1.679   3.333  14.185 -0.0105 -0.2029  0.0708
  799MPD2    C411825   1.807   3.357  14.148  0.2532  0.0739 -0.3507
  799MPD2    C511826   1.904   3.261  14.174 -0.3797 -1.1773  0.3274
  799MPD2     H11827   1.551   3.208  14.296  0.7976  0.4608  0.8638
  799MPD2    H111828   1.839   3.451  14.104 -0.3538 -0.3388 -1.6667
  799MPD2    H211829   1.970   3.100  14.273 -1.7234 -1.7864  1.0778
  799MPD2    H311830   2.004   3.287  14.140 -1.5886  0.4623 -1.9387
  799MPD2     N11831   1.584   3.431  14.154 -0.2397 -0.1480 -0.0028
  799MPD2    H511832   1.616   3.522  14.123  3.0365 -0.2431  3.1173
  799MPD2    N111833   1.712   3.007  14.354 -0.4979  0.3445  0.0550
  799MPD2    H711834   1.612   2.991  14.363 -0.4181  0.3985  1.0928
  800MPD2     C11835   1.683   4.653  13.584 -0.7282 -0.0023 -0.2126
  800MPD2    C111836   1.790   4.620  13.509  0.4756 -0.6721 -0.1215
  800MPD2    C211837   1.779   4.543  13.397  0.7115 -0.2894 -0.2857
  800MPD2    C311838   1.651   4.525  13.339 -0.1840  0.4137 -0.3800
  800MPD2    C411839   1.540   4.580  13.405  0.7268 -0.2619 -0.5219
  800MPD2    C511840   1.558   4.640  13.529 -0.3979  0.3370  0.0515
  800MPD2     H11841   1.868   4.500  13.354  0.8124  0.4509 -0.8254
  800MPD2    H111842   1.437   4.565  13.376  0.5985 -2.3866  1.0470
  800MPD2    H211843   1.697   4.719  13.669 -0.6487 -0.3960  0.0826
  800MPD2    H311844   1.471   4.686  13.573 -0.0548  2.2536 -1.3102
  800MPD2     N11845   1.644   4.456  13.214  0.0514 -0.2783  0.8967
  800MPD2    H511846   1.735   4.439  13.173 -0.7536  1.3028 -1.5506
  800MPD2    N111847   1.923   4.663  13.547 -0.3065  0.4036 -0.0636
  800MPD2    H711848   1.929   4.735  13.618  1.5796 -0.7893  1.0177
  801MPD2     C11849   2.087   0.509  13.914 -0.4508  0.0306  0.4493
  801MPD2    C111850   2.044   0.390  13.858  0.0816 -0.0646  0.2510
  801MPD2    C211851   1.930   0.329  13.909 -0.1932  0.6687  0.5462
  801MPD2    C311852   1.852   0.400  13.998  0.0178  0.1189 -0.3799
  801MPD2    C411853   1.891   0.526  14.036 -0.2444  0.0625 -0.2926
  801MPD2    C511854   2.009   0.586  13.996  0.3204 -0.6581  0.4929
  801MPD2     H11855   1.915   0.226  13.879  1.1902  1.1140 -1.6300
  801MPD2    H111856   1.826   0.585  14.100 -1.6898 -1.5481 -0.2659
  801MPD2    H211857   2.184   0.545  13.881 -0.0532 -2.4081 -0.9777
  801MPD2    H311858   2.055   0.678  14.032  0.0374 -0.1550 -0.4142
  801MPD2     N11859   1.723   0.354  14.039 -0.5074 -0.0611  0.1694
  801MPD2    H511860   1.677   0.410  14.110  3.2644  2.0303  0.9561
  801MPD2    N111861   2.134   0.327  13.765 -0.6934  0.4880 -0.2269
  801MPD2    H711862   2.229   0.361  13.750 -1.6373  2.0329 -2.5399
  802MPD2     C11863   1.037   0.447  16.801  0.4518 -0.3163 -0.0979
  802MPD2    C111864   1.116   0.468  16.917  0.2977  0.2148  0.4616
  802MPD2    C211865   1.251   0.428  16.910  0.0942  0.3494 -0.1895
  802MPD2    C311866   1.309   0.384  16.793  0.4236  0.5008  0.1175
  802MPD2    C411867   1.221   0.341  16.696 -0.5535  0.6445 -0.5763
  802MPD2    C511868   1.087   0.376  16.694  0.4746 -0.6765 -0.2508
  802MPD2     H11869   1.306   0.439  17.003 -0.7298 -1.3468  0.4951
  802MPD2    H111870   1.255   0.284  16.611 -1.7733  1.0606 -1.3449
  802MPD2    H211871   0.930   0.459  16.789  0.5167  1.2306  0.9757
  802MPD2    H311872   1.029   0.359  16.605 -0.5966 -0.0135  0.3171
  802MPD2     N11873   1.444   0.344  16.792  0.0353  0.1258  0.5218
  802MPD2    H511874   1.497   0.384  16.868 -0.9607  2.6702 -0.1317
  802MPD2    N111875   1.064   0.542  17.027  0.1441 -0.7124  0.1987
  802MPD2    H711876   1.126   0.558  17.105  2.4231 -2.0344 -1.3658
  803MPD2     C11877   2.609   3.412  11.489 -0.5612  0.7112  0.4733
  803MPD2    C111878   2.637   3.539  11.538 -0.6178 -0.1203 -0.1118
  803MPD2    C211879   2.590   3.560  11.666  0.3606  0.4485 -0.1792
  803MPD2    C311880   2.525   3.460  11.739 -0.3916 -0.3879  0.1014
  803MPD2    C411881   2.517   3.334  11.695  0.0345 -0.3889  0.0393
  803MPD2    C511882   2.557   3.314  11.571  0.2434  0.8221  0.5522
  803MPD2     H11883   2.607   3.653  11.719 -1.1740  0.9179 -0.5098
  803MPD2    H111884   2.476   3.256  11.757 -0.9226 -1.2916 -1.7459
  803MPD2    H211885   2.633   3.378  11.389 -2.0544 -0.8478  0.6376
  803MPD2    H311886   2.547   3.210  11.544  0.6623  0.8602  0.2608
  803MPD2     N11887   2.496   3.471  11.877  0.1008 -0.0765 -0.8466
  803MPD2    H511888   2.480   3.383  11.925 -3.1063  1.0159  0.1158
  803MPD2    N111889   2.688   3.643  11.479  0.2617  0.0496  0.2741
  803MPD2    H711890   2.716   3.716  11.544  0.7701  0.9073 -0.9318
  804MPD2     C11891   2.279   0.584  16.773  0.1385  0.0162 -0.3849
  804MPD2    C111892   2.336   0.531  16.890 -0.4956 -0.3875 -0.3397
  804MPD2    C211893   2.402   0.615  16.981 -0.7850 -0.3802  0.5428
  804MPD2    C311894   2.389   0.751  16.969 -0.1014  0.6426 -0.2997
  804MPD2    C411895   2.317   0.806  16.863 -0.3453 -0.6599  0.3462
  804MPD2    C511896   2.273   0.722  16.760 -0.3669 -0.0269  0.7179
  804MPD2     H11897   2.459   0.575  17.064  1.0504  0.6540 -0.2288
  804MPD2    H111898   2.313   0.913  16.846 -1.2702 -0.4945  1.6277
  804MPD2    H211899   2.223   0.525  16.701  1.9608 -0.8832 -1.0642
  804MPD2    H311900   2.237   0.755  16.663 -0.2436 -0.9745  0.3491
  804MPD2     N11901   2.468   0.825  17.053  0.5557  0.0680 -0.0585
  804MPD2    H511902   2.523   0.769  17.117  0.1480  0.7441  0.8932
  804MPD2    N111903   2.314   0.397  16.931 -0.5178 -0.1216  0.2675
  804MPD2    H711904   2.342   0.384  17.028 -0.4712  0.3316  0.3154
  805MPD2     C11905   1.806   3.382  15.242 -0.1337 -0.2203  0.3206
  805MPD2    C111906   1.902   3.286  15.203 -0.9436 -0.2717  0.5882
  805MPD2    C211907   2.020   3.279  15.263  0.6063  0.5951 -0.9565
  805MPD2    C311908   2.053   3.376  15.353 -0.0826  0.3361 -0.2903
  805MPD2    C411909   1.959   3.478  15.390 -0.3748  0.2529  0.2424
  805MPD2    C511910   1.841   3.484  15.327 -0.2814  0.1902 -0.1507
  805MPD2     H11911   2.087   3.196  15.245 -0.8183 -0.9014  0.6580
  805MPD2    H111912   1.991   3.549  15.466 -1.1766  0.4617  0.3812
  805MPD2    H211913   1.708   3.396  15.196 -0.8010  0.9321  2.0925
  805MPD2    H311914   1.772   3.567  15.329 -0.9379 -0.3563 -0.0571
  805MPD2     N11915   2.184   3.372  15.404 -0.4980  0.0052 -0.0045
  805MPD2    H511916   2.243   3.290  15.399 -1.1569 -0.4228 -0.8365
  805MPD2    N111917   1.874   3.175  15.116 -0.2940 -0.0273  0.2116
  805MPD2    H711918   1.947   3.104  15.111 -2.5619 -2.2263 -1.5304
  806MPD2     C11919   1.983   2.036   0.058  0.7639  0.6800  0.0459
  806MPD2    C111920   1.972   2.169   0.044  0.5579 -0.3602 -0.3753
  806MPD2    C211921   2.009   2.232  17.687  0.3508  0.6010 -0.0774
  806MPD2    C311922   2.061   2.155  17.580 -0.0064  0.5272  0.0523
  806MPD2    C411923   2.079   2.018  17.602 -0.0507  0.5016 -0.1142
  806MPD2    C511924   2.041   1.961  17.726  0.2038 -0.0644  0.3016
  806MPD2     H11925   1.984   2.336  17.675 -0.5570  0.7021  2.5537
  806MPD2    H111926   2.116   1.957  17.521 -0.3435 -0.3942  0.4274
  806MPD2    H211927   1.935   1.994   0.146  0.8010  0.4077 -0.0629
  806MPD2    H311928   2.050   1.853  17.734 -0.4952 -0.3222 -2.1737
  806MPD2     N11929   2.092   2.222  17.463 -0.0256 -0.3134 -0.5067
  806MPD2    H511930   2.062   2.319  17.456  0.8412 -0.1354 -1.7429
  806MPD2    N111931   1.896   2.243   0.139  0.2205 -0.1873 -0.4700
  806MPD2    H711932   1.830   2.194   0.197 -0.0785 -2.9817 -3.1914
  807MPD2     C11933   1.223   2.262   0.453 -1.3241 -0.2018 -0.5575
  807MPD2    C111934   1.310   2.317   0.542  0.1174 -0.1498  0.3678
  807MPD2    C211935   1.264   2.364   0.669  0.2498 -0.0802 -0.1476
  807MPD2    C311936   1.127   2.375   0.692  0.2829  0.5017  0.7167
  807MPD2    C411937   1.044   2.328   0.587  0.0608  0.0473  0.5011
  807MPD2    C511938   1.090   2.269   0.472  0.2046  0.5513 -0.0441
  807MPD2     H11939   1.331   2.400   0.747 -0.2763 -3.6144  1.9281
  807MPD2    H111940   0.940   2.315   0.613 -0.3374 -0.1496 -1.2314
  807MPD2    H211941   1.252   2.223   0.356 -1.7134  0.6373 -1.0090
  807MPD2    H311942   1.026   2.237   0.391 -1.0771  0.1172  1.1447
  807MPD2     N11943   1.070   2.424   0.815  0.0719 -0.2724  0.0549
  807MPD2    H511944   1.131   2.445   0.893 -0.5635  1.5777  0.0564
  807MPD2    N111945   1.451   2.325   0.519  0.1706 -0.0942 -0.1913
  807MPD2    H711946   1.504   2.350   0.601  1.3133 -1.1163 -0.6186
  808MPD2     C11947   2.462   0.664   9.694  0.8019  0.2113 -0.1378
  808MPD2    C111948   2.367   0.739   9.770  0.2764  0.3028 -0.1692
  808MPD2    C211949   2.382   0.880   9.784 -0.9698 -0.3762 -0.1468
  808MPD2    C311950   2.490   0.936   9.728 -0.2769 -0.1104  0.3860
  808MPD2    C411951   2.580   0.860   9.661  0.2938  0.0262 -0.4059
  808MPD2    C511952   2.565   0.732   9.636 -0.2703  0.2533 -0.6498
  808MPD2     H11953   2.302   0.932   9.836  1.1435 -0.3691  3.1019
  808MPD2    H111954   2.669   0.899   9.612 -0.6558  1.8347 -0.6677
  808MPD2    H211955   2.465   0.556   9.677  1.6283  0.4850 -1.7545
  808MPD2    H311956   2.631   0.674   9.572 -2.0633 -0.2860 -1.9838
  808MPD2     N11957   2.524   1.071   9.748  0.3671  0.8485  0.0092
  808MPD2    H511958   2.593   1.114   9.688 -0.8107  1.5031 -0.8718
  808MPD2    N111959   2.256   0.685   9.835 -0.6611 -0.0609 -0.4095
  808MPD2    H711960   2.202   0.756   9.883  1.7930  1.0379  0.7484
  809MPD2     C11961   2.901   1.448   9.136  0.1296  0.0861 -0.9106
  809MPD2    C111962   2.976   1.470   9.242 -0.2553  0.9427 -0.5225
  809MPD2    C211963   2.916   1.486   9.361 -0.3875  0.7611 -0.2954
  809MPD2    C311964   2.778   1.460   9.376  0.1274 -0.0532  0.0897
  809MPD2    C411965   2.698   1.441   9.267  0.0933  0.6738  0.9447
  809MPD2    C511966   2.762   1.440   9.148  0.2652  0.3894  0.5318
  809MPD2     H11967   2.991   1.486   9.440 -0.2124 -0.5129 -0.4624
  809MPD2    H111968   2.590   1.432   9.271  0.0072  1.2374 -0.0880
  809MPD2    H211969   2.949   1.449   9.039  2.0759 -0.3086  0.0321
  809MPD2    H311970   2.706   1.422   9.057  0.2764  0.0787  0.5859
  809MPD2     N11971   2.722   1.451   9.502  0.2322 -0.1697 -0.2202
  809MPD2    H511972   2.623   1.430   9.505  0.4042 -0.7392  1.2163
  809MPD2    N111973   3.117   1.468   9.248 -0.2539  0.3466 -0.6669
  809MPD2    H711974   3.169   1.484   9.334  0.2158 -1.9897 -0.5032
  810MPD2     C11975   1.592   3.976  10.844  0.1043  0.4695 -1.0035
  810MPD2    C111976   1.604   4.071  10.743 -0.4709 -0.7701 -0.0575
  810MPD2    C211977   1.621   4.203  10.783  0.0311  0.1877 -0.5373
  810MPD2    C311978   1.614   4.234  10.921 -0.2989 -0.2283  0.3913
  810MPD2    C411979   1.605   4.141  11.017  0.0557 -0.1910 -0.2733
  810MPD2    C511980   1.602   4.008  10.977  0.9374  0.6101  0.1509
  810MPD2     H11981   1.643   4.283  10.713 -0.9712 -1.3077 -2.5791
  810MPD2    H111982   1.598   4.168  11.122 -0.5164 -0.5685 -0.2174
  810MPD2    H211983   1.578   3.872  10.816  0.5342  0.6062 -1.7273
  810MPD2    H311984   1.586   3.930  11.050 -1.3723  0.6976 -0.2532
  810MPD2     N11985   1.623   4.374  10.957 -0.2712 -0.4583  0.7313
  810MPD2    H511986   1.637   4.399  11.054  1.4059  1.6917 -0.0855
  810MPD2    N111987   1.585   4.032  10.609 -0.3286 -0.8478 -0.1491
  810MPD2    H711988   1.574   3.932  10.592 -1.1898 -0.2863 -2.8934
  811MPD2     C11989   1.104   4.420   9.955 -0.0313 -0.1537  0.4198
  811MPD2    C111990   1.214   4.429  10.038  0.4693  0.1655 -0.6140
  811MPD2    C211991   1.260   4.563  10.062 -0.7620  0.3716 -0.0397
  811MPD2    C311992   1.188   4.675  10.025 -0.4469  1.2628 -0.1194
  811MPD2    C411993   1.067   4.659   9.953 -0.1925 -0.3383 -0.4961
  811MPD2    C511994   1.039   4.533   9.912  0.3025  0.4338 -0.0515
  811MPD2     H11995   1.352   4.585  10.116  1.6318 -1.2050 -3.4773
  811MPD2    H111996   0.998   4.739   9.927  0.3121  0.1628 -0.2865
  811MPD2    H211997   1.059   4.324   9.933 -1.5722  0.6153  0.2117
  811MPD2    H311998   0.951   4.515   9.851 -0.3620 -1.8900  1.5746
  811MPD2     N11999   1.244   0.065  10.056  0.0637  0.0654 -0.0588
  811MPD2    H512000   1.338   0.061  10.095 -0.2438  3.1472  0.9936
  811MPD2    N112001   1.267   4.314  10.093  0.0603  0.4436 -0.8188
  811MPD2    H712002   1.225   4.232  10.051  0.7262  1.1174 -2.7941
  812MPD2     C12003   4.593   3.983  12.241 -0.5016  0.6402  0.8010
  812MPD2    C112004   4.724   4.023  12.230  0.9203  0.9889 -0.0043
  812MPD2    C212005   0.072   3.957  12.315 -0.2043 -0.6767  0.5468
  812MPD2    C312006   0.031   3.870  12.420  0.4541  0.0481 -0.4991
  812MPD2    C412007   4.636   3.828  12.418  0.9936 -0.8708  0.1617
  812MPD2    C512008   4.552   3.887  12.330  0.1227  0.3311 -0.2005
  812MPD2     H12009   0.177   3.986  12.313 -0.4261 -0.0040 -0.7720
  812MPD2    H112010   4.602   3.751  12.487  0.2355 -1.4720 -0.8881
  812MPD2    H212011   4.514   4.041  12.195 -0.6357  0.3425  0.6525
  812MPD2    H312012   4.448   3.857  12.327 -0.2568  1.2712  3.0014
  812MPD2     N12013   0.137   3.816  12.490 -0.3693  0.5250  0.0468
  812MPD2    H512014   0.226   3.865  12.492  0.1143 -0.3919  0.9349
  812MPD2    N112015   0.020   4.116  12.133  0.0749 -0.0808 -0.4072
  812MPD2    H712016   4.687   4.144  12.070 -1.8339 -2.0794  0.9220
  813MPD2     C12017   4.307   1.093  12.473  0.4951  0.3855 -0.3156
  813MPD2    C112018   4.308   1.170  12.585 -0.7654  0.0339  0.7038
  813MPD2    C212019   4.215   1.166  12.678  0.0197  0.3251  0.3206
  813MPD2    C312020   4.126   1.063  12.680 -0.1443  0.2212 -0.0138
  813MPD2    C412021   4.119   0.984  12.573  0.3547  0.9501  0.2709
  813MPD2    C512022   4.205   0.999  12.472 -0.4621  0.1330  0.5915
  813MPD2     H12023   4.221   1.237  12.760 -0.3529 -1.5452  1.9848
  813MPD2    H112024   4.042   0.908  12.573  0.9418  0.3459  0.3610
  813MPD2    H212025   4.365   1.121  12.386  0.0518 -0.2059 -0.8039
  813MPD2    H312026   4.198   0.934  12.385  3.4825  1.2273 -0.5672
  813MPD2     N12027   4.041   1.048  12.799  0.0806  0.5448 -0.1421
  813MPD2    H512028   4.034   1.129  12.860 -0.2311 -0.5055  1.2158
  813MPD2    N112029   4.407   1.269  12.594 -0.5646 -0.3860 -0.1679
  813MPD2    H712030   4.396   1.328  12.676  0.0329  0.6870 -0.8721
  814MPD2     C12031   0.193   2.252  12.147 -0.5481 -0.4738 -0.3022
  814MPD2    C112032   0.214   2.334  12.038  0.2430 -0.2875 -0.1574
  814MPD2    C212033   0.243   2.469  12.062  0.6277 -0.0898 -0.0200
  814MPD2    C312034   0.219   2.532  12.182  0.6579  0.7451  0.4102
  814MPD2    C412035   0.164   2.454  12.284 -0.0335 -0.6425  0.5595
  814MPD2    C512036   0.156   2.320  12.261 -0.3725 -0.7730  0.2816
  814MPD2     H12037   0.285   2.525  11.980  3.3223 -3.7455 -1.1236
  814MPD2    H112038   0.124   2.495  12.376  3.3347  3.7085  0.0901
  814MPD2    H212039   0.185   2.144  12.142  4.0894 -0.8458  0.4581
  814MPD2    H312040   0.118   2.268  12.349  0.2798 -2.1617 -0.2533
  814MPD2     N12041   0.254   2.665  12.210 -0.3515  0.1311 -0.0363
  814MPD2    H512042   0.228   2.695  12.304 -0.6608  1.8773 -0.6712
  814MPD2    N112043   0.227   2.295  11.898 -0.1605 -0.0492  0.6163
  814MPD2    H712044   0.218   2.371  11.831  2.0329 -0.9392 -0.7077
  815MPD2     C12045   0.428   0.136  11.959  0.3772 -0.1327 -0.4470
  815MPD2    C112046   0.421   0.223  11.854  0.3278  0.2755  0.4425
  815MPD2    C212047   0.298   0.272  11.818  0.4586 -0.3412 -0.1657
  815MPD2    C312048   0.185   0.224  11.883 -0.7561  0.3212  0.1093
  815MPD2    C412049   0.198   0.131  11.985  0.3086  0.8126 -0.2474
  815MPD2    C512050   0.323   0.085  12.021  0.7717 -0.4433 -0.0252
  815MPD2     H12051   0.283   0.342  11.737 -1.9012 -2.5191 -1.6244
  815MPD2    H112052   0.115   0.087  12.038  1.4064 -0.7691  0.1723
  815MPD2    H212053   0.526   0.097  11.985  0.6354 -0.0987 -1.3575
  815MPD2    H312054   0.334   0.009  12.098  1.5294  0.5599  0.8448
  815MPD2     N12055   0.059   0.273  11.836 -0.7620 -0.2434  0.2587
  815MPD2    H512056   0.064   0.338  11.759  0.2772  0.8384  1.2453
  815MPD2    N112057   0.548   0.274  11.817  0.6646 -0.1320  0.0529
  815MPD2    H712058   0.627   0.237  11.868  0.9388  1.8218  1.0769
  816MPD2     C12059   1.280   0.015  17.157  0.2587  0.4017 -0.0536
  816MPD2    C112060   1.205   0.044  17.044 -0.2079 -0.0662  0.0874
  816MPD2    C212061   1.260   0.002  16.927  0.3090 -1.0845  0.0373
  816MPD2    C312062   1.386   4.676  16.914 -0.5938  0.7144  0.1035
  816MPD2    C412063   1.460   4.650  17.030 -0.5471  0.3287 -0.3590
  816MPD2    C512064   1.401   4.685  17.149 -0.6183  0.1569  0.5014
  816MPD2     H12065   1.201   0.020  16.838 -0.1346  1.9062  0.9406
  816MPD2    H112066   1.562   4.614  17.035 -0.6515 -0.0400 -0.8731
  816MPD2    H212067   1.236   0.045  17.251  0.2990 -1.2547  0.4868
  816MPD2    H312068   1.454   4.664  17.241 -1.9921 -0.7093  1.0973
  816MPD2     N12069   1.434   4.643  16.788 -0.0415 -0.2948 -0.1306
  816MPD2    H512070   1.374   4.678  16.713 -0.0575  2.0358  0.9684
  816MPD2    N112071   1.083   0.112  17.055  0.4571 -0.2298 -0.2958
  816MPD2    H712072   1.046   0.147  17.143 -0.3619 -0.4577 -0.5455
  817MPD2     C12073   1.108   2.504   9.976 -0.1346 -0.0541 -0.0925
  817MPD2    C112074   0.998   2.453   9.909 -0.5740 -0.0410 -0.2107
  817MPD2    C212075   0.937   2.535   9.816 -0.0670 -0.2803 -0.8250
  817MPD2    C312076   0.996   2.649   9.777 -0.1172  0.1025 -0.1403
  817MPD2    C412077   1.112   2.692   9.831 -0.3058  0.0963 -0.4313
  817MPD2    C512078   1.166   2.619   9.931 -0.7388 -0.5831 -0.5198
  817MPD2     H12079   0.854   2.495   9.759 -0.7917  0.4919 -0.3210
  817MPD2    H112080   1.168   2.775   9.789 -0.4829 -0.3681 -1.5774
  817MPD2    H212081   1.162   2.454  10.057 -0.0655 -1.3693 -0.9485
  817MPD2    H312082   1.267   2.646   9.960  0.1762 -1.8312 -2.5564
  817MPD2     N12083   0.927   2.709   9.670 -0.4086  0.0844  0.2266
  817MPD2    H512084   0.838   2.667   9.644 -0.2566 -0.3456  0.3945
  817MPD2    N112085   0.937   2.327   9.932 -0.2361 -0.2332 -0.1541
  817MPD2    H712086   0.855   2.303   9.878  0.2633  0.3049 -1.1466
  818MPD2     C12087   4.263   2.256   9.358 -0.0131 -0.1071 -0.3560
  818MPD2    C112088   4.202   2.184   9.462 -0.2337 -0.5554  0.3695
  818MPD2    C212089   4.234   2.049   9.478  0.1278 -0.1197  0.3071
  818MPD2    C312090   4.310   1.978   9.392 -0.0936  0.5822 -0.4898
  818MPD2    C412091   4.372   2.055   9.294 -0.0640  0.0755 -0.1959
  818MPD2    C512092   4.352   2.186   9.278 -0.1715 -0.3949 -1.0362
  818MPD2     H12093   4.188   1.993   9.559  1.8255 -0.4423  1.0562
  818MPD2    H112094   4.451   2.022   9.228  1.3158  0.1152  1.4388
  818MPD2    H212095   4.239   2.361   9.345 -1.7917 -0.3639  0.7143
  818MPD2    H312096   4.407   2.244   9.205  0.8125 -1.8048 -1.4195
  818MPD2     N12097   4.330   1.836   9.394  0.7576  0.4556  0.4893
  818MPD2    H512098   4.381   1.805   9.312  1.3239  1.6967  0.3745
  818MPD2    N112099   4.103   2.242   9.541 -0.3478  0.9948 -0.1008
  818MPD2    H712100   4.054   2.177   9.602  1.4947  0.3403  0.6967
  819MPD2     C12101   2.431   2.656  15.489  0.4130 -0.0647 -1.3372
  819MPD2    C112102   2.419   2.636  15.624  0.3249  0.7693 -0.3228
  819MPD2    C212103   2.522   2.665  15.702 -0.3117  0.1225  0.0966
  819MPD2    C312104   2.641   2.714  15.652  0.2321  0.2675 -0.1548
  819MPD2    C412105   2.654   2.719  15.516 -0.1399  0.1532 -0.3605
  819MPD2    C512106   2.548   2.700  15.431  0.2308  0.8623 -0.4192
  819MPD2     H12107   2.516   2.654  15.810 -0.3344  1.5164  0.2318
  819MPD2    H112108   2.744   2.756  15.468  0.5269  0.8740  1.4758
  819MPD2    H212109   2.350   2.635  15.421  0.6710 -1.4219 -1.2208
  819MPD2    H312110   2.556   2.710  15.324 -1.6416  1.3989 -0.5187
  819MPD2     N12111   2.742   2.753  15.738  0.1676  0.0579  0.1116
  819MPD2    H512112   2.717   2.761  15.837 -1.0137  1.1602 -0.2747
  819MPD2    N112113   2.309   2.556  15.660  0.3680  0.1514 -0.0095
  819MPD2    H712114   2.238   2.549  15.588  1.5787  0.1953 -1.2084
  820MPD2     C12115   1.650   2.343  15.086  0.4310 -0.6627 -0.5590
  820MPD2    C112116   1.744   2.438  15.122 -0.0509  0.2768  0.0312
  820MPD2    C212117   1.841   2.401  15.215 -0.7909 -0.3867  0.0684
  820MPD2    C312118   1.839   2.271  15.273 -0.0157 -0.0340 -0.7325
  820MPD2    C412119   1.743   2.187  15.240  0.4171 -0.3641 -0.2386
  820MPD2    C512120   1.646   2.231  15.156 -0.1931 -0.5797  0.0763
  820MPD2     H12121   1.912   2.472  15.255 -0.7237  0.0423 -0.8383
  820MPD2    H112122   1.730   2.091  15.289 -0.3885 -0.2410 -0.2117
  820MPD2    H212123   1.564   2.372  15.026 -0.4969  0.7033  1.4341
  820MPD2    H312124   1.559   2.166  15.142 -1.6182  0.8384  2.3311
  820MPD2     N12125   1.920   2.240  15.382  0.3096  0.1722  0.0216
  820MPD2    H512126   1.906   2.148  15.422 -1.8055 -0.1075 -1.3924
  820MPD2    N112127   1.734   2.562  15.055 -0.3393 -0.6232  0.5685
  820MPD2    H712128   1.654   2.574  14.993  0.7135  0.1011 -0.6339
  821MPD2     C12129   1.668   0.107  12.530  0.3279 -0.3052 -0.1564
  821MPD2    C112130   1.748   0.004  12.581 -0.1917  0.6308  0.7284
  821MPD2    C212131   1.878   0.010  12.580  0.0014  0.0392  0.0853
  821MPD2    C312132   1.944   0.130  12.540 -0.2263  0.5810  0.6656
  821MPD2    C412133   1.868   0.239  12.487  0.3128 -0.0791  0.1827
  821MPD2    C512134   1.732   0.223  12.486  0.0264 -0.4219 -0.2255
  821MPD2     H12135   1.934   4.662  12.606 -1.4732 -0.9234 -0.0123
  821MPD2    H112136   1.911   0.329  12.445 -0.9229  0.6170  0.4009
  821MPD2    H212137   1.560   0.103  12.534  0.3455  0.2791  0.8346
  821MPD2    H312138   1.672   0.306  12.449 -2.0614 -1.0733  1.6748
  821MPD2     N12139   2.087   0.140  12.553  0.3118  0.2832  0.0765
  821MPD2    H512140   2.129   0.232  12.553  2.1298 -0.5426  0.1922
  821MPD2    N112141   1.697   4.625  12.629 -0.5074 -0.5122 -1.0076
  821MPD2    H712142   1.767   4.554  12.651  0.5880  0.8074 -0.2264
  822MPD2     C12143   3.142   4.345  15.647  0.1044 -0.6000  0.3500
  822MPD2    C112144   3.118   4.319  15.781 -0.5614 -0.3958  0.8698
  822MPD2    C212145   3.024   4.391  15.844 -0.1987  0.3537 -0.4212
  822MPD2    C312146   2.949   4.489  15.777 -0.2322 -0.1168  0.3521
  822MPD2    C412147   2.952   4.498  15.641  0.0277  0.1051 -0.3733
  822MPD2    C512148   3.055   4.434  15.584 -0.0224  0.2462 -0.0007
  822MPD2     H12149   2.990   4.378  15.946  0.2836 -1.3155 -0.4757
  822MPD2    H112150   2.895   4.569  15.581  2.5697  1.4796 -1.1848
  822MPD2    H212151   3.216   4.297  15.584 -1.2323 -0.9267 -0.9537
  822MPD2    H312152   3.071   4.430  15.477  0.9117 -2.9134  0.2406
  822MPD2     N12153   2.859   4.565  15.855 -0.5409 -0.2538 -0.4216
  822MPD2    H512154   2.863   4.553  15.956  0.1023  1.7991 -0.1987
  822MPD2    N112155   3.182   4.221  15.863  0.5149 -0.3936 -0.3560
  822MPD2    H712156   3.161   4.226  15.962 -0.9162 -1.4438 -0.6204
  823MPD2     C12157   2.532   0.128  16.564  0.4212 -0.5571  0.0420
  823MPD2    C112158   2.574   0.023  16.492  0.5661 -0.3634  0.6099
  823MPD2    C212159   2.630   4.659  16.564 -0.1318 -0.4701 -0.8035
  823MPD2    C312160   2.636   4.653  16.701 -0.4209  0.4015 -0.2116
  823MPD2    C412161   2.599   0.026  16.767 -0.3664  0.0186 -0.1416
  823MPD2    C512162   2.549   0.136  16.698  0.1126  0.3250 -0.6066
  823MPD2     H12163   2.659   4.567  16.514  0.4020  0.0324 -1.4112
  823MPD2    H112164   2.603   0.029  16.876  0.3559  0.6838 -0.1833
  823MPD2    H212165   2.496   0.221  16.521  1.1927 -0.7771 -1.0872
  823MPD2    H312166   2.530   0.231  16.749  0.1728 -0.6183  1.1761
  823MPD2     N12167   2.660   4.542  16.780 -0.3676 -0.6169  0.3057
  823MPD2    H512168   2.643   4.547  16.880 -2.3347 -0.8267 -0.0175
  823MPD2    N112169   2.564   0.035  16.354 -0.5454 -0.2549  0.5876
  823MPD2    H712170   2.529   0.122  16.315  1.4735  0.1268 -0.4247
  824MPD2     C12171   3.407   3.424  15.817 -0.5144  0.1170 -0.5586
  824MPD2    C112172   3.472   3.540  15.784  0.2508  0.1872 -0.1904
  824MPD2    C212173   3.573   3.534  15.693 -0.1538  0.6106 -0.0605
  824MPD2    C312174   3.611   3.413  15.637 -0.5407 -0.7893  0.0828
  824MPD2    C412175   3.541   3.292  15.666 -0.4042  0.2106  0.1628
  824MPD2    C512176   3.441   3.305  15.754  0.8258 -0.8835  0.0786
  824MPD2     H12177   3.620   3.628  15.664  2.5817 -1.1112 -1.1640
  824MPD2    H112178   3.551   3.198  15.614 -1.4426 -1.0300  2.2415
  824MPD2    H212179   3.326   3.416  15.888  2.1030 -0.2917  2.3582
  824MPD2    H312180   3.392   3.220  15.800 -0.8314  0.7800  1.3842
  824MPD2     N12181   3.721   3.412  15.552 -0.0187  0.0929  0.8712
  824MPD2    H512182   3.757   3.503  15.522  0.2420 -0.1925  0.3170
  824MPD2    N112183   3.439   3.663  15.837 -0.0307  0.0479 -0.1100
  824MPD2    H712184   3.491   3.740  15.797  2.4189 -2.0496 -0.9936
  825MPD2     C12185   4.258   3.554  14.884 -0.2793  0.7741  0.5744
  825MPD2    C112186   4.165   3.589  14.976 -0.2860  0.8772 -0.7248
  825MPD2    C212187   4.109   3.712  14.955  0.0400 -0.3953  0.3664
  825MPD2    C312188   4.150   3.803  14.857 -0.1080 -0.3813 -0.2413
  825MPD2    C412189   4.262   3.773  14.789  0.6015 -0.4285 -0.3194
  825MPD2    C512190   4.312   3.645  14.794 -0.4944 -0.3354 -0.2665
  825MPD2     H12191   4.027   3.743  15.019 -1.4245 -1.0671 -1.1883
  825MPD2    H112192   4.319   3.842  14.729 -2.5691  0.3240 -2.4767
  825MPD2    H212193   4.304   3.457  14.894  2.3640  1.8388 -1.3263
  825MPD2    H312194   4.393   3.620  14.726  0.4947  0.6165  0.5756
  825MPD2     N12195   4.085   3.933  14.835  0.0507 -0.0829 -0.1950
  825MPD2    H512196   4.146   3.999  14.788 -0.5128 -0.4223 -1.4049
  825MPD2    N112197   4.121   3.491  15.065  0.0993 -0.4443  0.5639
  825MPD2    H712198   4.174   3.404  15.057  0.9120  0.0894  0.0965
  826MPD2     C12199   3.449   3.856  14.247 -0.4153 -0.0249 -0.2445
  826MPD2    C112200   3.478   3.868  14.115  0.3477  0.0660  0.3305
  826MPD2    C212201   3.385   3.904  14.019  0.1550  0.0474 -0.3741
  826MPD2    C312202   3.257   3.930  14.061  0.1984 -0.3526 -0.2284
  826MPD2    C412203   3.225   3.903  14.192 -0.3332 -0.7561  0.4475
  826MPD2    C512204   3.316   3.871  14.280 -0.2880 -0.3500  0.2276
  826MPD2     H12205   3.406   3.915  13.913 -0.1936 -1.3687 -0.5917
  826MPD2    H112206   3.125   3.908  14.234  0.5381  2.2605  2.2056
  826MPD2    H212207   3.519   3.822  14.323 -1.2754  0.6518  0.8521
  826MPD2    H312208   3.276   3.853  14.379  0.6904  2.5064  1.1155
  826MPD2     N12209   3.158   3.981  13.974  0.0982  0.4104 -0.5975
  826MPD2    H512210   3.066   4.000  14.011 -0.5838 -2.0187 -1.0405
  826MPD2    N112211   3.615   3.846  14.082  0.4196  0.5102  0.0264
  826MPD2    H712212   3.672   3.814  14.160 -0.1242 -2.1412 -0.6448
  827MPD2     C12213   4.603   0.994   9.656 -0.1841  0.0935 -0.4482
  827MPD2    C112214   4.661   0.901   9.742  0.2499 -0.4781  0.4706
  827MPD2    C212215   4.614   0.770   9.731 -0.6054 -0.5095 -0.3823
  827MPD2    C312216   4.519   0.731   9.636 -0.0974 -0.1255  0.1325
  827MPD2    C412217   4.471   0.828   9.549 -0.1400  0.5753  0.7642
  827MPD2    C512218   4.517   0.956   9.555 -0.2523 -0.0229  0.4078
  827MPD2     H12219   4.644   0.698   9.807  0.3634 -0.4783 -0.7335
  827MPD2    H112220   4.405   0.805   9.466  0.1341 -1.1240  1.0188
  827MPD2    H212221   4.644   1.094   9.660  0.0921  0.0059 -1.1324
  827MPD2    H312222   4.477   1.029   9.485 -1.4711 -0.2507  0.8668
  827MPD2     N12223   4.469   0.599   9.640  0.0061 -0.4339  0.4063
  827MPD2    H512224   4.496   0.544   9.720  2.4154 -0.2827 -0.2831
  827MPD2    N112225   0.024   0.939   9.837  0.2980  0.4135 -0.5199
  827MPD2    H712226   0.042   1.033   9.870 -2.3881  0.5826  0.4869
  828MPD2     C12227   2.624   4.521  12.257 -0.1889 -0.5068 -0.3742
  828MPD2    C112228   2.648   4.631  12.173 -0.3156  0.2565 -0.0533
  828MPD2    C212229   2.741   4.617  12.070  0.0850  0.6242  0.1707
  828MPD2    C312230   2.840   4.519  12.085  0.2606 -0.1917  0.7801
  828MPD2    C412231   2.840   4.441  12.197  0.1544 -0.2169 -0.0134
  828MPD2    C512232   2.725   4.431  12.270 -0.3833 -0.0617 -0.0004
  828MPD2     H12233   2.747   4.691  11.990  0.8476 -0.4035 -0.7132
  828MPD2    H112234   2.913   4.363  12.218  0.9576  0.1754 -1.3261
  828MPD2    H212235   2.544   4.518  12.330  1.0480 -0.4330  0.9875
  828MPD2    H312236   2.706   4.347  12.336  3.0949 -0.9369 -0.1022
  828MPD2     N12237   2.939   4.502  11.993 -0.5004 -0.4413 -0.4363
  828MPD2    H512238   3.005   4.425  12.000  1.8633  1.6913  0.4856
  828MPD2    N112239   2.555   4.733  12.158  0.3053  0.3107 -0.4462
  828MPD2    H712240   2.586   0.062  12.090 -0.5631  0.5530 -0.6004
  829MPD2     C12241   2.885   0.702  12.146 -0.2999  0.5585 -0.1422
  829MPD2    C112242   2.799   0.717  12.034  0.2375  0.1478  0.4865
  829MPD2    C212243   2.678   0.647  12.044  0.0200  0.1449 -0.1028
  829MPD2    C312244   2.645   0.580  12.165 -0.1771  0.6387 -0.4396
  829MPD2    C412245   2.717   0.596  12.278  0.0282  0.7240 -0.0577
  829MPD2    C512246   2.846   0.646  12.265  0.0603 -0.6317 -0.4148
  829MPD2     H12247   2.612   0.644  11.958  0.2160 -0.6760 -0.2198
  829MPD2    H112248   2.675   0.563  12.373 -3.4220 -1.2761 -2.2712
  829MPD2    H212249   2.988   0.729  12.129 -0.4395  1.9149  1.0865
  829MPD2    H312250   2.901   0.643  12.358  0.1256 -0.0268 -0.4370
  829MPD2     N12251   2.528   0.508  12.184  0.3262  0.0979  0.1563
  829MPD2    H512252   2.518   0.458  12.271 -0.1026  1.6272  0.9734
  829MPD2    N112253   2.850   0.774  11.917 -0.0340  0.3595 -0.2556
  829MPD2    H712254   2.937   0.823  11.928 -0.2673  0.4690  1.1131
  830MPD2     C12255   3.467   2.769  15.503  0.2449  0.0655  0.2524
  830MPD2    C112256   3.410   2.890  15.542  0.5043 -0.8744  1.0023
  830MPD2    C212257   3.434   3.006  15.468 -0.4591 -0.1326  0.1569
  830MPD2    C312258   3.524   2.997  15.362 -0.3806  0.0996 -0.8932
  830MPD2    C412259   3.587   2.871  15.333 -0.3111  0.4982 -0.2479
  830MPD2    C512260   3.556   2.764  15.403  0.2629 -0.0911  0.3630
  830MPD2     H12261   3.397   3.102  15.500 -1.2450 -0.5423  0.4810
  830MPD2    H112262   3.658   2.866  15.251 -1.4754 -0.1638 -1.2251
  830MPD2    H212263   3.447   2.674  15.551 -0.3235 -0.7954 -1.6969
  830MPD2    H312264   3.609   2.676  15.367 -1.5235 -1.0515  0.0949
  830MPD2     N12265   3.544   3.111  15.281  0.1269  0.5913  0.2325
  830MPD2    H512266   3.481   3.187  15.303  1.5456  1.3953  1.4418
  830MPD2    N112267   3.340   2.891  15.665 -0.0210 -0.1898 -0.0927
  830MPD2    H712268   3.353   2.818  15.735  1.5551 -0.7951 -1.0215
  831MPD2     C12269   3.167   0.017  16.104  0.2982  0.2323  0.1007
  831MPD2    C112270   3.220   4.633  16.078 -0.1947 -0.1477 -0.1035
  831MPD2    C212271   3.155   4.518  16.127  0.5642 -0.0891 -0.3928
  831MPD2    C312272   3.042   4.528  16.206  0.2501 -0.1816 -0.0011
  831MPD2    C412273   3.005   4.651  16.245  0.6419  0.0002  0.2459
  831MPD2    C512274   3.062   0.025  16.193 -0.0012 -0.8707 -0.7373
  831MPD2     H12275   3.204   4.423  16.106 -1.1384 -0.6696 -1.7295
  831MPD2    H112276   2.917   4.664  16.308 -1.2540 -1.2044 -2.1522
  831MPD2    H212277   3.197   0.109  16.054  0.4193  0.1291 -0.0162
  831MPD2    H312278   3.016   0.122  16.207  0.9755  0.0087 -3.6234
  831MPD2     N12279   2.960   4.422  16.250  0.2391 -0.2208 -0.1360
  831MPD2    H512280   2.884   4.446  16.312 -0.0462  0.3045 -0.6906
  831MPD2    N112281   3.316   4.625  15.978  0.2608 -0.1024 -0.2423
  831MPD2    H712282   3.329   4.710  15.925 -0.2686 -1.9356 -3.3600
  832MPD2     C12283   1.244   1.127  17.039  0.5775 -0.7792  0.1481
  832MPD2    C112284   1.206   1.255  17.042 -0.5479  0.3318  0.2636
  832MPD2    C212285   1.085   1.295  16.986 -0.1587 -0.0248  0.9223
  832MPD2    C312286   0.995   1.198  16.936  0.2182  0.6980  0.4676
  832MPD2    C412287   1.032   1.065  16.933  0.6771 -0.6876 -0.7925
  832MPD2    C512288   1.158   1.036  16.985  0.3719  0.4507 -0.2741
  832MPD2     H12289   1.055   1.398  16.995  0.7916  0.3937 -0.6126
  832MPD2    H112290   0.981   0.985  16.881  1.6622  0.2940 -3.2780
  832MPD2    H212291   1.340   1.108  17.085  0.3603  1.9433  1.6963
  832MPD2    H312292   1.195   0.934  16.980  2.9879  1.3201  1.3712
  832MPD2     N12293   0.878   1.231  16.873 -0.5595 -0.2743 -0.6820
  832MPD2    H512294   0.824   1.153  16.837 -1.2438 -0.5672  0.9719
  832MPD2    N112295   1.298   1.348  17.104 -0.4358 -0.0958  0.4788
  832MPD2    H712296   1.390   1.313  17.126  0.3558 -0.2503 -2.9944
  833MPD2     C12297   3.733   2.726  12.481 -0.3259 -0.9923  0.8706
  833MPD2    C112298   3.697   2.839  12.412  0.5924  0.1998 -0.0504
  833MPD2    C212299   3.747   2.863  12.285 -0.1884  0.0064 -0.1034
  833MPD2    C312300   3.848   2.779  12.236 -1.0486 -0.3368 -0.4140
  833MPD2    C412301   3.899   2.676  12.316 -0.8017  0.1426  0.8770
  833MPD2    C512302   3.837   2.649  12.435  0.3454 -0.6216 -1.1719
  833MPD2     H12303   3.706   2.939  12.220  0.9355  0.1208 -0.6911
  833MPD2    H112304   3.967   2.599  12.282  1.3056  1.6607  1.6313
  833MPD2    H212305   3.677   2.692  12.567 -2.8045 -0.7700 -0.6648
  833MPD2    H312306   3.873   2.559  12.482  0.3691  0.5362  1.0444
  833MPD2     N12307   3.893   2.810  12.108 -0.0684 -0.3226 -0.3610
  833MPD2    H512308   3.842   2.885  12.063  1.0304  0.9131  0.4307
  833MPD2    N112309   3.593   2.924  12.453  0.4012  0.3696 -0.0079
  833MPD2    H712310   3.571   3.005  12.395 -0.3960 -0.8733 -1.4406
  834MPD2     C12311   3.511   2.444  11.245 -0.0146 -0.1845  0.1718
  834MPD2    C112312   3.600   2.541  11.199  0.7858 -0.0549  0.1051
  834MPD2    C212313   3.676   2.613  11.290 -0.1369  0.7829  0.6227
  834MPD2    C312314   3.670   2.592  11.424 -0.1836 -0.0353 -0.4902
  834MPD2    C412315   3.589   2.495  11.472  0.4481  0.2386  0.1826
  834MPD2    C512316   3.506   2.418  11.386  0.5160  0.1930 -0.6539
  834MPD2     H12317   3.753   2.681  11.257  1.1715 -0.3649  1.2627
  834MPD2    H112318   3.577   2.461  11.575 -1.9442  1.4836  0.3088
  834MPD2    H212319   3.438   2.393  11.183  1.6840 -0.7610 -1.3804
  834MPD2    H312320   3.442   2.340  11.426  0.6969  0.0000 -0.7367
  834MPD2     N12321   3.762   2.661  11.516  0.6183 -0.0232  0.9395
  834MPD2    H512322   3.820   2.738  11.484  1.6451 -1.0566  0.2938
  834MPD2    N112323   3.601   2.559  11.061 -0.1827 -0.5951  0.5003
  834MPD2    H712324   3.539   2.503  11.003 -2.4937  1.0132  1.4043
  835MPD2     C12325   3.732   0.653  10.812  0.4283 -0.6266 -0.3137
  835MPD2    C112326   3.609   0.614  10.836 -0.1710 -0.0882  0.9827
  835MPD2    C212327   3.595   0.490  10.894 -0.0830  0.3939  0.2480
  835MPD2    C312328   3.706   0.415  10.937 -0.6421 -0.1241  0.3336
  835MPD2    C412329   3.830   0.459  10.916  0.2612 -0.1192  0.2316
  835MPD2    C512330   3.842   0.574  10.845 -0.2999  0.5808  0.4263
  835MPD2     H12331   3.495   0.447  10.900  0.9736 -2.1943 -0.6585
  835MPD2    H112332   3.911   0.392  10.943  0.7268  0.7566  1.0079
  835MPD2    H212333   3.761   0.748  10.769 -0.0295 -0.1745  0.3869
  835MPD2    H312334   3.939   0.617  10.826 -0.4687  0.8828  0.2480
  835MPD2     N12335   3.689   0.287  10.994 -0.5264  0.1454 -0.6041
  835MPD2    H512336   3.766   0.235  11.035 -2.2324 -3.3395 -1.8294
  835MPD2    N112337   3.494   0.686  10.800  0.3808  0.5191 -0.0248
  835MPD2    H712338   3.406   0.637  10.810  1.6909 -0.9733  4.1609
  836MPD2     C12339   3.590   4.733  11.732 -0.0843 -0.3770  0.3883
  836MPD2    C112340   3.494   4.726  11.638  0.6464 -0.4795  0.0037
  836MPD2    C212341   3.364   0.019  11.676 -0.5351 -0.0526 -0.9586
  836MPD2    C312342   3.334   0.072  11.803 -0.3674 -0.2104 -0.6061
  836MPD2    C412343   3.439   0.076  11.888 -0.3774 -0.2328  0.5197
  836MPD2    C512344   3.568   0.042  11.853 -0.1045 -0.0321  0.0776
  836MPD2     H12345   3.280   0.008  11.609 -1.1317  1.8093 -0.5152
  836MPD2    H112346   3.439   0.124  11.985 -2.7336  0.7295  0.0460
  836MPD2    H212347   3.691   4.700  11.712 -1.0020 -2.2072 -1.1411
  836MPD2    H312348   3.646   0.039  11.929  0.4419 -0.1345 -0.4875
  836MPD2     N12349   3.208   0.138  11.836 -0.5020  0.0296  0.1092
  836MPD2    H512350   3.192   0.168  11.931 -1.2606 -0.2689  0.0760
  836MPD2    N112351   3.534   4.694  11.509 -0.2950 -0.4430  0.4226
  836MPD2    H712352   3.630   4.663  11.499 -0.8369 -1.4480 -1.6454
  837MPD2     C12353   1.809   0.465  10.441  0.3490  0.3623  0.1892
  837MPD2    C112354   1.694   0.528  10.421 -0.1375  0.2493 -0.7305
  837MPD2    C212355   1.678   0.666  10.458  0.4823 -0.4641  0.4610
  837MPD2    C312356   1.790   0.736  10.502 -0.3309 -0.2364 -0.1050
  837MPD2    C412357   1.901   0.666  10.538  0.1061 -0.3095 -0.3537
  837MPD2    C512358   1.911   0.529  10.507 -0.8730 -0.1049 -0.0465
  837MPD2     H12359   1.590   0.726  10.437 -0.4852 -2.5052 -1.2528
  837MPD2    H112360   1.993   0.713  10.571 -0.1781  0.4721 -0.6629
  837MPD2    H212361   1.819   0.362  10.409 -1.1492  0.1719  0.3427
  837MPD2    H312362   2.004   0.476  10.525 -0.1094  0.6845 -1.6906
  837MPD2     N12363   1.788   0.874  10.498  0.5827  0.1575  0.1365
  837MPD2    H512364   1.696   0.913  10.483 -0.0689 -0.6160  2.2285
  837MPD2    N112365   1.583   0.481  10.351  0.2107 -0.1833 -0.3054
  837MPD2    H712366   1.511   0.553  10.350 -0.0771 -0.4563  1.1388
  838MPD2     C12367   0.563   3.477  11.756 -0.1343  0.5364 -0.3867
  838MPD2    C112368   0.438   3.444  11.726  0.1377 -0.5269 -0.2505
  838MPD2    C212369   0.337   3.457  11.820 -0.0350  0.4830  0.5556
  838MPD2    C312370   0.360   3.526  11.942 -0.1411 -0.0985  0.5215
  838MPD2    C412371   0.485   3.575  11.966  0.7818  0.3528  0.2800
  838MPD2    C512372   0.587   3.536  11.883  0.2074 -0.7522 -0.3639
  838MPD2     H12373   0.233   3.433  11.803  0.3663 -1.4665  0.8888
  838MPD2    H112374   0.503   3.620  12.063 -1.6546 -2.2710  1.9991
  838MPD2    H212375   0.650   3.468  11.692  1.1912 -0.3956  1.5688
  838MPD2    H312376   0.682   3.584  11.904 -0.1110 -0.4862  0.4450
  838MPD2     N12377   0.265   3.562  12.037  0.1912 -0.0274 -0.4643
  838MPD2    H512378   0.291   3.613  12.121  0.1316 -1.1862  0.2575
  838MPD2    N112379   0.400   3.384  11.600  0.1755  0.6011 -0.5818
  838MPD2    H712380   0.308   3.343  11.593 -0.4418  1.6756  1.2038
  839MPD2     C12381   4.603   2.791  11.532  0.3975 -0.3454 -0.5207
  839MPD2    C112382   4.664   2.769  11.413 -0.2834  0.0507 -0.6836
  839MPD2    C212383   0.008   2.864  11.359  0.1111 -0.5569  0.1807
  839MPD2    C312384   0.033   2.981  11.426 -0.4202 -0.3173  0.1665
  839MPD2    C412385   4.701   3.005  11.542 -0.2134  0.3225  0.3615
  839MPD2    C512386   4.616   2.912  11.592 -0.2644 -0.0049  0.4741
  839MPD2     H12387   0.073   2.829  11.279  0.3493  0.1323  0.0733
  839MPD2    H112388   4.717   3.090  11.607  0.2613 -0.1741  0.8900
  839MPD2    H212389   4.521   2.737  11.579  0.8140 -1.9701 -1.6350
  839MPD2    H312390   4.551   2.941  11.674  1.1964  2.1510  0.8697
  839MPD2     N12391   0.114   3.089  11.378 -0.6475  0.1994  0.4528
  839MPD2    H512392   0.121   3.170  11.438  1.2054 -0.4000  1.0542
  839MPD2    N112393   4.642   2.646  11.340 -0.3792 -0.6202  0.9314
  839MPD2    H712394   4.692   2.624  11.255 -0.4746 -0.9758  0.9644
  840MPD2     C12395   0.533   1.221  10.304 -0.6193 -0.2344  0.5107
  840MPD2    C112396   0.514   1.089  10.344  0.5338 -0.5133  0.7447
  840MPD2    C212397   0.587   1.044  10.456  0.1885 -0.5453  0.5770
  840MPD2    C312398   0.680   1.127  10.513  0.1663  0.0890  0.0991
  840MPD2    C412399   0.699   1.254  10.463  0.7371 -0.8417  0.7482
  840MPD2    C512400   0.627   1.304  10.356 -0.4361  0.4722 -0.6680
  840MPD2     H12401   0.565   0.944  10.491  1.8242 -0.9882  0.3249
  840MPD2    H112402   0.783   1.312  10.498 -0.5966  1.5117  0.0344
  840MPD2    H212403   0.487   1.253  10.211 -0.4774  1.2569  0.9616
  840MPD2    H312404   0.647   1.403  10.317  0.6958  0.7206  0.5347
  840MPD2     N12405   0.754   1.092  10.626  0.1290  0.4458  0.5434
  840MPD2    H512406   0.809   1.165  10.671  2.3451 -1.5788  1.0987
  840MPD2    N112407   0.412   1.014  10.280  0.0154  0.2455  0.3535
  840MPD2    H712408   0.363   1.055  10.201 -0.4289 -0.5088  0.2299
  841MPD2     C12409   4.440   0.080  14.553 -0.3849 -0.0417 -0.2750
  841MPD2    C112410   4.504   4.701  14.556  0.7266  0.3786 -0.1171
  841MPD2    C212411   4.645   4.694  14.582  0.0974  0.3811 -0.1203
  841MPD2    C312412   4.709   0.074  14.606  0.0528  0.2876  0.5972
  841MPD2    C412413   4.645   0.192  14.592 -0.3725  0.3634 -0.0229
  841MPD2    C512414   4.512   0.190  14.568 -0.1157  0.1402 -0.8298
  841MPD2     H12415   4.700   4.601  14.572  2.4267  1.6544  0.8899
  841MPD2    H112416   4.689   0.288  14.616 -1.6925  0.9772 -0.0559
  841MPD2    H212417   4.334   0.089  14.533 -0.5568  0.6548  0.9606
  841MPD2    H312418   4.459   0.284  14.576 -2.9172 -1.5760  0.7017
  841MPD2     N12419   0.101   0.069  14.632 -0.3322 -0.0303  0.1997
  841MPD2    H512420   0.130   4.723  14.675 -1.3747 -1.2316 -1.5483
  841MPD2    N112421   4.437   4.582  14.518  0.0436  0.5753  0.8236
  841MPD2    H712422   4.489   4.495  14.529  2.4746  2.0924  1.4370
  842MPD2     C12423   4.670   1.009  16.221  0.6089  0.1445 -0.3200
  842MPD2    C112424   0.016   1.120  16.240  0.1187 -0.1933  0.3506
  842MPD2    C212425   0.009   1.191  16.356 -0.6642 -0.7574  0.1970
  842MPD2    C312426   4.660   1.166  16.456 -0.1325  0.2059 -0.7697
  842MPD2    C412427   4.589   1.049  16.450 -0.1997 -0.7676  0.2312
  842MPD2    C512428   4.601   0.967  16.335 -0.1697  0.4264  0.7205
  842MPD2     H12429   0.071   1.279  16.366 -0.5868 -0.6635 -1.0283
  842MPD2    H112430   4.516   1.032  16.528 -1.4750 -0.6801 -0.9408
  842MPD2    H212431   4.658   0.948  16.133 -0.7202  0.8358 -0.6031
  842MPD2    H312432   4.550   0.873  16.319 -1.7455  1.4907 -0.5149
  842MPD2     N12433   4.627   1.254  16.559  0.0452 -0.5592 -0.2054
  842MPD2    H512434   4.543   1.232  16.612  0.9898 -0.5298  1.3212
  842MPD2    N112435   0.095   1.169  16.134  0.3338  0.1872  0.3285
  842MPD2    H712436   0.082   1.112  16.051  2.4190  2.2192 -1.3967
  843MPD2     C12437   2.443   2.381   0.204  0.4456 -0.5208  0.3209
  843MPD2    C112438   2.520   2.289   0.274  0.2264 -0.5449 -0.1912
  843MPD2    C212439   2.662   2.293   0.258 -0.3721  0.5197 -0.0648
  843MPD2    C312440   2.717   2.391   0.173 -1.0765  0.5657  0.5963
  843MPD2    C412441   2.635   2.461   0.092 -0.2622  0.2507 -0.7071
  843MPD2    C512442   2.499   2.462   0.114 -0.4142  0.5882 -0.3390
  843MPD2     H12443   2.726   2.231   0.319 -0.0748  0.2683 -0.6351
  843MPD2    H112444   2.676   2.533   0.021 -1.6969  3.1700  1.4308
  843MPD2    H212445   2.337   2.395   0.224 -0.1448 -0.6188 -2.8203
  843MPD2    H312446   2.433   2.533   0.065 -0.0377  1.9469  1.1163
  843MPD2     N12447   2.861   2.414   0.170  0.1201 -0.1683 -0.0903
  843MPD2    H512448   2.891   2.490   0.109 -0.2379  1.4426  1.7326
  843MPD2    N112449   2.458   2.196   0.362  0.6158 -0.2638 -0.1021
  843MPD2    H712450   2.358   2.199   0.376  0.7662 -1.3818  1.1803
  844MPD2     C12451   0.761   0.794  16.257 -0.3791 -0.5234  0.6979
  844MPD2    C112452   0.895   0.763  16.239  0.2687 -0.8532  0.8965
  844MPD2    C212453   0.991   0.835  16.309  0.1595  0.3614  0.1544
  844MPD2    C312454   0.961   0.941  16.396 -0.0903  0.0961 -0.1482
  844MPD2    C412455   0.827   0.962  16.415 -0.7515 -1.3061 -0.3980
  844MPD2    C512456   0.734   0.893  16.345 -0.9003  0.3194  0.3513
  844MPD2     H12457   1.097   0.811  16.305  0.5688  1.8769  1.9212
  844MPD2    H112458   0.796   1.048  16.473  0.0618 -1.6305  0.5088
  844MPD2    H212459   0.677   0.752  16.203 -1.6677  2.0067  0.7305
  844MPD2    H312460   0.628   0.912  16.355 -1.1157 -0.5416 -0.2622
  844MPD2     N12461   1.060   1.012  16.460 -0.9458  0.6075 -0.2615
  844MPD2    H512462   1.153   0.973  16.446 -1.2298  0.3178 -1.3960
  844MPD2    N112463   0.934   0.667  16.142  0.1904  0.1590  0.6413
  844MPD2    H712464   1.034   0.666  16.124  0.1558  2.0623  0.3419
  845MPD2     C12465   1.124   1.976  16.718  0.2801 -0.1505  0.8304
  845MPD2    C112466   1.042   1.904  16.800 -0.1505  0.3648 -0.1717
  845MPD2    C212467   1.054   1.767  16.814  0.1198  0.5155  0.3507
  845MPD2    C312468   1.160   1.703  16.746 -0.3312 -0.4676  1.1106
  845MPD2    C412469   1.241   1.774  16.671 -0.2524  0.3924  0.6017
  845MPD2    C512470   1.227   1.910  16.656 -0.5077 -0.4422  0.4316
  845MPD2     H12471   1.000   1.702  16.882  2.4005 -2.0761 -0.3195
  845MPD2    H112472   1.325   1.733  16.616 -2.1128  0.2165 -2.0970
  845MPD2    H212473   1.110   2.082  16.703  3.4908  0.1504 -0.1357
  845MPD2    H312474   1.286   1.969  16.586 -1.6832 -1.1365 -1.1517
  845MPD2     N12475   1.169   1.558  16.763 -0.0635  0.5256  0.6422
  845MPD2    H512476   1.080   1.513  16.778  0.0006  0.5612  1.1455
  845MPD2    N112477   0.938   1.981  16.873 -0.1286 -0.0744 -0.1482
  845MPD2    H712478   0.927   2.080  16.854 -1.1260  0.2752  2.3061
  846MPD2     C12479   2.651   1.954  13.481 -0.5659 -0.3872  0.4103
  846MPD2    C112480   2.591   2.077  13.503  0.0206 -0.5837  0.1104
  846MPD2    C212481   2.517   2.088  13.620  0.4522  0.2727 -0.1913
  846MPD2    C312482   2.517   1.988  13.712  0.1243  0.4971  0.0307
  846MPD2    C412483   2.571   1.860  13.685 -0.2949 -0.6072 -0.1234
  846MPD2    C512484   2.639   1.846  13.564  0.3327 -0.2097 -0.2476
  846MPD2     H12485   2.455   2.176  13.633 -1.5449 -1.2786  0.7583
  846MPD2    H112486   2.582   1.779  13.757  2.3542  0.3591  0.5506
  846MPD2    H212487   2.727   1.940  13.405  1.1261  0.3802  1.9472
  846MPD2    H312488   2.691   1.752  13.548 -1.3513 -0.6705 -3.0003
  846MPD2     N12489   2.470   2.017  13.839  0.1308  0.0901  0.6193
  846MPD2    H512490   2.435   2.112  13.848  0.0538  0.1222 -0.0150
  846MPD2    N112491   2.597   2.182  13.416 -1.0072  0.0589 -0.3228
  846MPD2    H712492   2.571   2.273  13.452 -0.9931 -0.0791  0.0298
  847MPD2     C12493   2.964   2.806  14.055  0.3473  0.4336 -0.2276
  847MPD2    C112494   3.050   2.917  14.075  0.2246  0.1364 -0.5146
  847MPD2    C212495   3.184   2.893  14.102  0.4841  0.3718  1.0066
  847MPD2    C312496   3.240   2.769  14.120 -0.0877  0.6466  1.1901
  847MPD2    C412497   3.157   2.663  14.089 -0.3208 -0.9170  0.8702
  847MPD2    C512498   3.022   2.684  14.059 -0.5511  0.0557 -0.0214
  847MPD2     H12499   3.248   2.979  14.120 -1.0369  1.3614  1.7091
  847MPD2    H112500   3.198   2.564  14.107  0.7790 -0.6173  0.0216
  847MPD2    H212501   2.857   2.804  14.040  0.3394  0.9852 -0.2191
  847MPD2    H312502   2.952   2.601  14.051 -0.9807  0.4740 -0.5591
  847MPD2     N12503   3.373   2.766  14.165  0.2969  0.1677 -0.5541
  847MPD2    H512504   3.411   2.857  14.185  1.0202 -0.0678 -0.8664
  847MPD2    N112505   3.009   3.050  14.078  0.4827  0.0314  0.6064
  847MPD2    H712506   3.083   3.119  14.088  0.2045  0.2894  0.8844
  848MPD2     C12507   0.675   1.479  16.123  0.1535  0.4362  0.1660
  848MPD2    C112508   0.710   1.553  16.235 -0.0773 -0.8467 -0.2932
  848MPD2    C212509   0.758   1.685  16.220 -0.6483  0.0625 -0.2224
  848MPD2    C312510   0.764   1.742  16.098  0.6195  1.0207 -0.1170
  848MPD2    C412511   0.717   1.674  15.988  0.4304 -0.3582  0.3909
  848MPD2    C512512   0.670   1.544  15.999 -0.2261 -0.7446  0.3544
  848MPD2     H12513   0.796   1.737  16.307 -2.6029 -1.6499  1.6657
  848MPD2    H112514   0.710   1.724  15.891  1.7497 -2.0945 -0.6067
  848MPD2    H212515   0.645   1.375  16.122  0.5957  0.3053  0.6778
  848MPD2    H312516   0.629   1.490  15.914  2.4889 -0.6181 -1.0333
  848MPD2     N12517   0.814   1.867  16.069  0.2078  0.2859  0.3776
  848MPD2    H512518   0.830   1.887  15.971 -2.4953 -0.9082 -0.3150
  848MPD2    N112519   0.705   1.502  16.369 -0.5751  0.0744 -0.1814
  848MPD2    H712520   0.723   1.565  16.447 -0.0333  1.5682 -1.5033
  849MPD2     C12521   4.587   0.960  13.675 -0.8777 -0.0347  0.2720
  849MPD2    C112522   4.712   0.918  13.702 -0.3105  0.3925  0.3805
  849MPD2    C212523   4.720   0.876  13.836 -0.2789  0.6125  0.0536
  849MPD2    C312524   4.620   0.852  13.925  0.1934  0.2548  0.0219
  849MPD2    C412525   4.491   0.891  13.892 -0.3477  0.1327  0.5564
  849MPD2    C512526   4.477   0.940  13.767 -0.5286 -0.5502  0.1810
  849MPD2     H12527   0.076   0.842  13.869 -1.2366  0.3660  2.5875
  849MPD2    H112528   4.401   0.878  13.952  1.1105 -2.1776  2.2086
  849MPD2    H212529   4.562   0.990  13.574  1.8571 -1.6388 -0.8720
  849MPD2    H312530   4.380   0.962  13.724  0.2098 -0.5987 -1.5221
  849MPD2     N12531   4.665   0.789  14.038  0.2342 -0.4740  0.2154
  849MPD2    H512532   0.018   0.754  14.024  0.0195 -0.1774 -1.9044
  849MPD2    N112533   0.083   0.934  13.622 -0.1904 -0.7301  0.3694
  849MPD2    H712534   0.167   0.887  13.652  1.7487  1.8571 -0.9956
  850MPD2     C12535   2.677   3.764  14.730  0.1254  0.5336 -0.3358
  850MPD2    C112536   2.731   3.708  14.844  0.7390 -0.3859 -0.1299
  850MPD2    C212537   2.865   3.703  14.856 -0.5671 -0.6235  0.0662
  850MPD2    C312538   2.954   3.750  14.759  0.3800  0.0676  0.6712
  850MPD2    C412539   2.896   3.793  14.638  0.5104 -0.6869 -0.3469
  850MPD2    C512540   2.760   3.800  14.629  0.5529  0.4710 -0.4122
  850MPD2     H12541   2.909   3.680  14.952  0.9246 -0.2465 -0.5210
  850MPD2    H112542   2.950   3.829  14.552 -0.7085 -1.8508 -1.5987
  850MPD2    H212543   2.571   3.772  14.710 -0.0477 -1.9572 -0.4493
  850MPD2    H312544   2.725   3.847  14.537 -0.5937  1.5430  0.5682
  850MPD2     N12545   3.095   3.748  14.773  0.8353  0.5716  0.2016
  850MPD2    H512546   3.136   3.797  14.694  0.7267 -0.2179 -0.3407
  850MPD2    N112547   2.657   3.670  14.958  0.1738  0.1480  0.6678
  850MPD2    H712548   2.712   3.640  15.038  0.6594 -1.7269 -0.3487
  851MPD2     C12549   3.058   3.679  15.534  0.0729  0.1046  0.0488
  851MPD2    C112550   3.009   3.655  15.408  0.8793  0.2084 -0.0107
  851MPD2    C212551   3.097   3.585  15.323  0.1910 -0.4188  0.1480
  851MPD2    C312552   3.235   3.571  15.349  0.3995  0.2413 -0.0242
  851MPD2    C412553   3.272   3.598  15.479 -0.3206  0.6289  0.1188
  851MPD2    C512554   3.181   3.646  15.570  0.0620 -0.2568  0.6474
  851MPD2     H12555   3.065   3.560  15.223 -0.0197 -0.6875  0.2852
  851MPD2    H112556   3.376   3.588  15.507 -0.3332  0.9668  0.2904
  851MPD2    H212557   3.000   3.726  15.612  0.6277 -0.6208  0.9004
  851MPD2    H312558   3.213   3.649  15.674  2.0592  1.3891 -0.0305
  851MPD2     N12559   3.322   3.524  15.241  0.2210 -0.3471  0.0348
  851MPD2    H512560   3.268   3.486  15.164  3.0747 -0.1978 -2.0444
  851MPD2    N112561   2.868   3.682  15.388 -0.9961  0.1478 -0.2527
  851MPD2    H712562   2.816   3.728  15.462  0.2446  0.6327  0.3091
  852MPD2     C12563   3.458   2.300   9.847  0.2623 -1.0422  0.1029
  852MPD2    C112564   3.440   2.410   9.932 -0.2037  0.1144  0.4717
  852MPD2    C212565   3.505   2.527   9.903 -0.0178  0.3160 -0.3799
  852MPD2    C312566   3.572   2.540   9.787  0.0733  0.4060  0.1488
  852MPD2    C412567   3.592   2.432   9.699 -0.6750  0.4791  0.4128
  852MPD2    C512568   3.539   2.316   9.737  0.3282  0.5504 -0.0955
  852MPD2     H12569   3.493   2.612   9.969 -0.1157 -1.1848  1.5650
  852MPD2    H112570   3.636   2.431   9.600  0.6332  1.6930  0.9926
  852MPD2    H212571   3.414   2.202   9.863  0.9583 -1.6137 -1.4144
  852MPD2    H312572   3.557   2.230   9.674  0.4875  1.2760 -1.0558
  852MPD2     N12573   3.623   2.666   9.758  0.0935 -0.1288  0.3135
  852MPD2    H512574   3.591   2.739   9.822  0.4957  0.3873 -0.0729
  852MPD2    N112575   3.364   2.414  10.045 -0.8948 -0.5532 -0.2106
  852MPD2    H712576   3.363   2.502  10.095  0.8377  0.3881 -1.8537
  853MPD2     C12577   4.354   1.493  12.292 -0.7983  0.1388 -0.1357
  853MPD2    C112578   4.310   1.612  12.236  0.2555 -0.0799  0.1460
  853MPD2    C212579   4.345   1.642  12.109  0.7511  0.1297  0.3222
  853MPD2    C312580   4.395   1.540  12.023  0.2727 -0.5813  0.1546
  853MPD2    C412581   4.438   1.424  12.085 -0.1258 -0.8018 -0.5200
  853MPD2    C512582   4.415   1.398  12.211 -0.3949 -0.4154  1.2555
  853MPD2     H12583   4.312   1.732  12.057  0.7503 -0.2288 -0.3028
  853MPD2    H112584   4.484   1.341  12.032 -2.6581 -2.7856  0.3795
  853MPD2    H212585   4.350   1.470  12.398  2.4500 -2.5800 -0.5898
  853MPD2    H312586   4.460   1.308  12.251 -1.4677 -1.2305  0.6272
  853MPD2     N12587   4.408   1.534  11.881  0.2392  0.0248 -0.0031
  853MPD2    H512588   4.439   1.449  11.835 -1.8182 -0.7636  0.0492
  853MPD2    N112589   4.240   1.703  12.315 -0.3681 -0.9108  1.0439
  853MPD2    H712590   4.239   1.679  12.414 -0.9176 -1.0684  1.0005
  854MPD2     C12591   1.346   1.647  12.647 -0.4161  0.0486 -0.0391
  854MPD2    C112592   1.411   1.746  12.572  0.0769  0.0645  0.6328
  854MPD2    C212593   1.547   1.735  12.565 -0.4116  0.5899  0.3968
  854MPD2    C312594   1.602   1.612  12.595  0.0901 -0.2070 -0.0206
  854MPD2    C412595   1.531   1.512  12.650  0.7412  0.3363 -0.0079
  854MPD2    C512596   1.402   1.529  12.675 -0.7004  0.1080  0.0923
  854MPD2     H12597   1.613   1.806  12.515 -0.2783  0.0512 -0.2013
  854MPD2    H112598   1.585   1.421  12.677 -0.0280 -0.5509 -1.4520
  854MPD2    H212599   1.240   1.660  12.668 -0.4193 -2.5029  1.4989
  854MPD2    H312600   1.345   1.452  12.726 -1.8000  1.5213  0.9929
  854MPD2     N12601   1.735   1.585  12.563  0.2728  0.1120 -0.1818
  854MPD2    H512602   1.770   1.497  12.598  3.8530  1.1320 -1.1647
  854MPD2    N112603   1.341   1.864  12.539 -0.1692 -0.4891 -0.0918
  854MPD2    H712604   1.240   1.860  12.547 -0.0475  0.0593  1.7825
  855MPD2     C12605   2.494   1.006  12.856 -0.4018  0.1125 -0.7269
  855MPD2    C112606   2.393   1.089  12.909 -0.2287 -0.7363 -0.5471
  855MPD2    C212607   2.311   1.167  12.826 -0.1558 -0.5515 -0.2344
  855MPD2    C312608   2.329   1.175  12.692  0.2605  0.5119 -0.2154
  855MPD2    C412609   2.446   1.108  12.646  0.1845  0.5475 -0.2676
  855MPD2    C512610   2.517   1.020  12.721 -0.2663  0.2326 -0.0739
  855MPD2     H12611   2.228   1.210  12.880  0.4043  2.6797 -1.9697
  855MPD2    H112612   2.484   1.113  12.545 -0.1792  2.2638 -0.3056
  855MPD2    H212613   2.556   0.942  12.918  2.5107  0.6234 -3.1131
  855MPD2    H312614   2.596   0.962  12.674 -0.4719 -0.1421  0.0427
  855MPD2     N12615   2.245   1.242  12.600  0.0792  0.1848  0.5013
  855MPD2    H512616   2.274   1.250  12.504  0.8885 -2.2446  0.5545
  855MPD2    N112617   2.367   1.094  13.045 -0.6282  0.3382  0.4571
  855MPD2    H712618   2.279   1.136  13.074 -0.5543 -0.4435  1.8018
  856MPD2     C12619   4.310   1.698  14.032 -0.4275  0.6433  0.1628
  856MPD2    C112620   4.351   1.783  13.936  0.0075  0.3252 -0.3945
  856MPD2    C212621   4.262   1.877  13.880  0.4752 -0.2836 -1.0280
  856MPD2    C312622   4.131   1.878  13.919  0.4257 -0.2963  0.5498
  856MPD2    C412623   4.084   1.787  14.007  0.4578 -0.2922 -0.1881
  856MPD2    C512624   4.175   1.695  14.065  0.3614  0.2518  0.5815
  856MPD2     H12625   4.303   1.942  13.803  0.7742  2.5253  1.5045
  856MPD2    H112626   3.980   1.794  14.038  0.5166  1.1945 -0.3270
  856MPD2    H212627   4.372   1.627  14.085  0.4081  1.6883  0.5991
  856MPD2    H312628   4.149   1.636  14.152 -0.2075  0.9545  0.8847
  856MPD2     N12629   4.051   1.981  13.872 -0.0090  0.7561  0.6207
  856MPD2    H512630   3.951   1.967  13.861  0.3979 -2.3180  0.9441
  856MPD2    N112631   4.490   1.786  13.905 -0.1015 -0.7568  0.2470
  856MPD2    H712632   4.555   1.726  13.955  2.8220  0.7788 -1.7088
  857MPD2     C12633   0.171   0.212  12.507  0.2192  0.3150  0.3765
  857MPD2    C112634   0.292   0.146  12.487  0.4911  1.1984  0.1370
  857MPD2    C212635   0.401   0.222  12.514 -0.0454  0.1950 -0.1110
  857MPD2    C312636   0.393   0.358  12.553  0.4930 -0.1380 -0.9796
  857MPD2    C412637   0.268   0.418  12.560  0.3081  0.2931  0.1326
  857MPD2    C512638   0.158   0.348  12.535  0.3727  0.5011 -0.1814
  857MPD2     H12639   0.498   0.174  12.502  0.5622  1.6980 -1.1246
  857MPD2    H112640   0.256   0.525  12.575 -2.0781  0.1604 -0.9023
  857MPD2    H212641   0.078   0.157  12.495  1.5388 -1.8172 -0.1140
  857MPD2    H312642   0.064   0.400  12.535 -0.7309 -1.4794  1.1850
  857MPD2     N12643   0.513   0.431  12.589  0.1290  0.4203 -0.0293
  857MPD2    H512644   0.595   0.372  12.591  1.5936  2.4135 -1.7538
  857MPD2    N112645   0.301   0.012  12.449  0.1431  0.6207 -0.0558
  857MPD2    H712646   0.210   4.708  12.439  0.4175  0.0943 -0.1840
  858MPD2     C12647   1.598   3.435  15.959  0.3317  0.8488  0.0399
  858MPD2    C112648   1.684   3.377  16.050 -0.6252 -0.4715  0.2424
  858MPD2    C212649   1.720   3.451  16.168  0.3126  0.2548  0.0925
  858MPD2    C312650   1.680   3.579  16.185 -0.5475  0.6310  0.5711
  858MPD2    C412651   1.601   3.635  16.089 -0.5459 -0.1888  0.0826
  858MPD2    C512652   1.561   3.565  15.978 -0.3783  0.3912 -0.6577
  858MPD2     H12653   1.794   3.413  16.237 -0.6015  0.7271  1.3246
  858MPD2    H112654   1.565   3.737  16.095 -3.8901 -1.3182 -0.5302
  858MPD2    H212655   1.561   3.378  15.874  0.5980  1.5793 -0.5695
  858MPD2    H312656   1.492   3.602  15.902 -0.3473 -1.6980 -1.7105
  858MPD2     N12657   1.707   3.662  16.301 -0.2575 -0.5802 -0.3430
  858MPD2    H512658   1.672   3.757  16.302 -2.7864 -1.5417  0.6183
  858MPD2    N112659   1.724   3.241  16.024 -0.2990  0.3943 -0.5697
  858MPD2    H712660   1.687   3.188  15.946  1.0041 -2.8225  0.9761
  859MPD2     C12661   4.468   0.469  15.530 -0.1741  0.2390 -0.3130
  859MPD2    C112662   4.601   0.503  15.522 -0.0745 -0.0685 -0.1604
  859MPD2    C212663   4.699   0.428  15.586  0.0803 -0.2429  0.1577
  859MPD2    C312664   4.669   0.304  15.642 -0.3165  0.6171  0.0273
  859MPD2    C412665   4.539   0.259  15.644 -0.3866  0.0234 -0.0764
  859MPD2    C512666   4.439   0.345  15.592  0.6097 -0.1570  0.1843
  859MPD2     H12667   0.062   0.460  15.588 -0.1677  0.5390  0.8289
  859MPD2    H112668   4.516   0.167  15.698  0.4621  0.3500  0.8347
  859MPD2    H212669   4.399   0.527  15.471  1.9918  1.5117 -1.5784
  859MPD2    H312670   4.334   0.324  15.607  0.6615  0.2856  1.1624
  859MPD2     N12671   0.024   0.222  15.699 -0.1307  0.3613  0.1694
  859MPD2    H512672   4.724   0.132  15.723 -2.2537  1.8951  2.3584
  859MPD2    N112673   4.631   0.625  15.446  0.6139 -0.1338 -0.2714
  859MPD2    H712674   4.544   0.672  15.422  0.1401 -0.9784 -0.2200
  860MPD2     C12675   2.704   2.405  11.259 -0.3134  0.4381 -0.8261
  860MPD2    C112676   2.715   2.307  11.353  0.6063 -0.5008 -0.2711
  860MPD2    C212677   2.598   2.264  11.409  0.1087 -0.4633 -0.7171
  860MPD2    C312678   2.474   2.317  11.373  0.1527 -0.1397 -0.0678
  860MPD2    C412679   2.468   2.405  11.269  0.0901 -0.5793 -0.1079
  860MPD2    C512680   2.582   2.453  11.215 -0.7447 -0.3556 -0.4461
  860MPD2     H12681   2.593   2.183  11.481  0.4162  1.6666  1.6990
  860MPD2    H112682   2.377   2.442  11.222 -0.3107 -0.7576  0.5203
  860MPD2    H212683   2.790   2.458  11.219  0.0457  0.4929  0.0240
  860MPD2    H312684   2.578   2.530  11.138 -2.8608 -1.3013 -1.3013
  860MPD2     N12685   2.362   2.267  11.440 -0.9946 -0.5012 -0.0456
  860MPD2    H512686   2.381   2.197  11.511 -2.2952  0.5417  1.3151
  860MPD2    N112687   2.842   2.267  11.405 -0.4800  0.2634  0.5134
  860MPD2    H712688   2.843   2.205  11.485  1.5254 -1.7490 -1.0348
  861MPD2     C12689   1.297   4.326  11.093 -0.3731  0.8317 -0.1031
  861MPD2    C112690   1.339   4.451  11.151  0.2348 -1.0181 -0.5045
  861MPD2    C212691   1.300   4.571  11.090 -0.1400  0.9258 -0.1715
  861MPD2    C312692   1.219   4.570  10.971 -0.6489  0.2136  0.5479
  861MPD2    C412693   1.192   4.447  10.919  0.2054  0.7237  0.5518
  861MPD2    C512694   1.231   4.326  10.976 -0.0437 -0.3029 -0.0315
  861MPD2     H12695   1.350   4.656  11.135 -0.7918  1.1193  0.1892
  861MPD2    H112696   1.142   4.441  10.823 -0.4471  0.5353  0.9013
  861MPD2    H212697   1.330   4.229  11.130 -0.6434  2.3407  4.1049
  861MPD2    H312698   1.197   4.230  10.940 -0.3921 -0.7528  1.4930
  861MPD2     N12699   1.176   4.685  10.896  0.0521 -0.7629  0.1616
  861MPD2    H512700   1.128   4.657  10.811 -0.1063 -1.2540  0.4090
  861MPD2    N112701   1.420   4.457  11.277  0.4312 -0.7156 -0.3562
  861MPD2    H712702   1.466   4.546  11.294 -0.0285 -0.3724 -0.8843
  862MPD2     C12703   0.638   0.060  10.425  0.0488 -0.3244 -0.4471
  862MPD2    C112704   0.717   4.734  10.512 -0.1991  0.0939  0.5678
  862MPD2    C212705   0.710   4.596  10.519  0.0366  0.0702 -0.0023
  862MPD2    C312706   0.605   4.529  10.456  0.3022 -0.3275 -0.3413
  862MPD2    C412707   0.530   4.598  10.360  0.4884 -0.0144 -0.5972
  862MPD2    C512708   0.551   4.731  10.344 -0.0740  0.3648  0.4478
  862MPD2     H12709   0.776   4.546  10.589 -0.6485  0.6824  1.0856
  862MPD2    H112710   0.453   4.552  10.300 -0.6347  2.1699 -0.8176
  862MPD2    H212711   0.644   0.168  10.426  0.7287 -0.3615 -0.5083
  862MPD2    H312712   0.473   0.043  10.290  0.9837  0.9522 -0.5144
  862MPD2     N12713   0.576   4.392  10.474  0.1592  0.3509  0.5906
  862MPD2    H512714   0.506   4.352  10.413  0.0332  1.3185  0.1029
  862MPD2    N112715   0.818   0.052  10.597  0.6534 -0.1697  0.1481
  862MPD2    H712716   0.859   4.731  10.666 -2.8852 -0.8985  1.5783
  863MPD2     C12717   0.037   3.002  16.730  0.2028 -0.1295  0.6261
  863MPD2    C112718   4.723   2.890  16.778 -0.7155 -0.3639  0.1349
  863MPD2    C212719   0.014   2.842  16.902 -0.1036  0.0597  0.2059
  863MPD2    C312720   0.120   2.894  16.971  0.1411  0.0577  0.0427
  863MPD2    C412721   0.162   3.017  16.927  0.8051 -0.2775 -0.0320
  863MPD2    C512722   0.125   3.072  16.810  0.0149  0.2036  0.1722
  863MPD2     H12723   4.716   2.753  16.950 -1.0573  1.5082  2.1232
  863MPD2    H112724   0.235   3.080  16.976  2.0703 -0.7046 -1.3642
  863MPD2    H212725   0.001   3.055  16.643 -1.6917 -2.1341  0.1920
  863MPD2    H312726   0.151   3.172  16.780 -1.8632  0.8992  0.8650
  863MPD2     N12727   0.168   2.833  17.089  0.4694 -0.4833 -0.2764
  863MPD2    H512728   0.123   2.747  17.119  1.6804 -1.3011 -0.8132
  863MPD2    N112729   4.627   2.830  16.694 -0.0171  0.1432  0.3558
  863MPD2    H712730   4.625   2.855  16.596  0.6265 -0.9441  0.0569
  864MPD2     C12731   0.447   3.772  17.372 -0.4853 -0.9807 -0.1979
  864MPD2    C112732   0.421   3.740  17.239 -0.1333  0.6086  0.1871
  864MPD2    C212733   0.498   3.787  17.142  0.1313  0.5046 -0.4096
  864MPD2    C312734   0.606   3.865  17.171  0.4949 -1.0324  0.0638
  864MPD2    C412735   0.632   3.899  17.305  0.6604 -0.1310  0.2810
  864MPD2    C512736   0.552   3.848  17.407  0.0925  0.2931 -0.4165
  864MPD2     H12737   0.473   3.767  17.038 -0.9252 -1.7625  0.2752
  864MPD2    H112738   0.718   3.962  17.325  0.9252 -0.0334 -1.1569
  864MPD2    H212739   0.378   3.741  17.450 -0.2827  1.2068  0.8473
  864MPD2    H312740   0.564   3.878  17.510 -0.1280 -0.7284 -0.0978
  864MPD2     N12741   0.683   3.912  17.062  0.2468 -0.1838 -0.2605
  864MPD2    H512742   0.660   3.878  16.969 -1.4336 -0.5718  0.3026
  864MPD2    N112743   0.308   3.658  17.211  0.1647  0.0920  0.2279
  864MPD2    H712744   0.245   3.628  17.285  1.1361 -1.2055  0.5150
  865MPD2     C12745   0.756   4.070  16.094 -0.0653  0.0938  0.1135
  865MPD2    C112746   0.703   3.974  16.176  0.1814 -0.5218  0.3016
  865MPD2    C212747   0.715   3.993  16.312  0.2982  0.1715 -0.3209
  865MPD2    C312748   0.811   4.089  16.356 -0.3615 -0.3102 -0.1669
  865MPD2    C412749   0.873   4.179  16.272  0.5288 -0.3528 -0.2698
  865MPD2    C512750   0.838   4.177  16.135 -0.0613  0.5969 -0.4691
  865MPD2     H12751   0.676   3.923  16.385  0.1881 -0.9332 -1.4394
  865MPD2    H112752   0.937   4.257  16.311  0.5465 -0.4050 -0.1944
  865MPD2    H212753   0.720   4.080  15.992 -1.5266 -0.3632  0.5750
  865MPD2    H312754   0.855   4.252  16.059 -1.4874 -0.4792 -1.8426
  865MPD2     N12755   0.855   4.085  16.491  0.3802 -0.2296  0.2329
  865MPD2    H512756   0.927   4.152  16.517  1.8637 -1.6497 -0.2405
  865MPD2    N112757   0.641   3.862  16.116 -0.0384 -0.5138 -0.5847
  865MPD2    H712758   0.641   3.865  16.014  0.4181 -2.4175 -0.6447
  866MPD2     C12759   2.088   4.658  11.360 -0.4278 -0.0613  0.2215
  866MPD2    C112760   1.970   4.596  11.316  0.0553 -0.0767  0.0400
  866MPD2    C212761   1.846   4.672  11.308  0.8114 -0.0005  0.2743
  866MPD2    C312762   1.850   0.068  11.326  0.3399  0.5689 -0.1766
  866MPD2    C412763   1.975   0.123  11.356 -0.2818 -0.0384  0.0214
  866MPD2    C512764   2.085   0.045  11.384  0.8398 -0.0852 -0.5528
  866MPD2     H12765   1.755   4.619  11.280 -0.0481  1.0825  1.0206
  866MPD2    H112766   1.983   0.231  11.369 -0.1573 -0.2243  1.4262
  866MPD2    H212767   2.185   4.609  11.365  0.4210  1.5492 -0.5599
  866MPD2    H312768   2.179   0.081  11.423  0.2028 -0.4957  1.3466
  866MPD2     N12769   1.734   0.154  11.317 -0.4098 -0.0659 -0.6038
  866MPD2    H512770   1.746   0.252  11.340  2.2570 -0.6273  0.3631
  866MPD2    N112771   1.981   4.457  11.283  0.3557  0.1126  0.4806
  866MPD2    H712772   2.076   4.423  11.291 -0.6553 -2.0395  3.2882
  867MPD2     C12773   3.954   3.884  16.409 -0.4785 -0.1606  0.6927
  867MPD2    C112774   4.034   3.885  16.519 -0.4205 -0.6119 -0.0299
  867MPD2    C212775   4.085   4.002  16.567  1.0193 -0.5630  0.1498
  867MPD2    C312776   4.045   4.128  16.507 -0.5188 -0.2559 -0.3282
  867MPD2    C412777   3.961   4.123  16.397  0.6210 -0.0359 -0.0308
  867MPD2    C512778   3.915   3.998  16.347  0.7838 -0.8641 -0.4009
  867MPD2     H12779   4.153   3.996  16.651  2.3842 -1.6939 -1.0307
  867MPD2    H112780   3.932   4.219  16.355  0.2915 -0.5982 -1.0647
  867MPD2    H212781   3.909   3.792  16.374 -0.3756  0.4602 -1.0646
  867MPD2    H312782   3.853   3.990  16.259  0.4612  0.3344 -0.2923
  867MPD2     N12783   4.091   4.255  16.555  0.3749 -0.0807 -0.2418
  867MPD2    H512784   4.070   4.336  16.498 -1.2805 -0.9884 -0.9405
  867MPD2    N112785   4.059   3.759  16.586 -0.7467  0.5994  0.5271
  867MPD2    H712786   4.013   3.678  16.546  0.3891 -0.4957  1.4122
  868MPD2     C12787   0.577   3.289  13.355 -0.8757  0.0899 -0.3426
  868MPD2    C112788   0.659   3.265  13.465 -0.0382 -0.4304 -0.2848
  868MPD2    C212789   0.607   3.285  13.596 -0.4433 -0.9461 -0.7871
  868MPD2    C312790   0.487   3.349  13.617 -0.4447  0.3389  0.2140
  868MPD2    C412791   0.419   3.395  13.501 -0.4907  0.1078 -0.9682
  868MPD2    C512792   0.460   3.358  13.374  0.5311  0.7882 -0.0139
  868MPD2     H12793   0.669   3.248  13.677  0.1517  2.5253  0.3115
  868MPD2    H112794   0.332   3.459  13.513  0.5631  1.2151  0.7282
  868MPD2    H212795   0.609   3.262  13.255  0.9648 -0.2575  0.3434
  868MPD2    H312796   0.407   3.396  13.287  2.1331 -0.5743 -1.5895
  868MPD2     N12797   0.444   3.364  13.755 -0.0516 -0.8528  0.0653
  868MPD2    H512798   0.508   3.338  13.830 -0.3543  2.3080  1.4484
  868MPD2    N112799   0.782   3.196  13.441  0.5128  0.4970 -0.2314
  868MPD2    H712800   0.808   3.184  13.343  0.6106 -0.5400 -0.0810
  869MPD2     C12801   2.179   0.937   0.097 -0.0125  0.0330  0.0514
  869MPD2    C112802   2.079   0.973   0.185 -0.0431 -0.3473 -0.4835
  869MPD2    C212803   2.088   0.936   0.316 -0.8663  0.1043  0.2299
  869MPD2    C312804   2.214   0.879   0.365  0.0301 -0.1694 -0.1356
  869MPD2    C412805   2.314   0.861   0.279  0.4467  0.3025 -0.3772
  869MPD2    C512806   2.295   0.884   0.145  0.3294 -0.4799  0.2352
  869MPD2     H12807   2.002   0.963   0.376 -0.6233  0.1775  0.5480
  869MPD2    H112808   2.412   0.826   0.310  0.5374 -0.0790 -1.1151
  869MPD2    H212809   2.178   0.962  17.754  0.0968 -0.8387 -0.1580
  869MPD2    H312810   2.372   0.864   0.071 -0.3014  0.8341 -0.7886
  869MPD2     N12811   2.240   0.859   0.505  0.0646  0.2146  0.1978
  869MPD2    H512812   2.329   0.818   0.532  0.2055  0.7280  0.5174
  869MPD2    N112813   1.965   1.034   0.128 -0.5382 -0.3080 -0.4673
  869MPD2    H712814   1.981   1.073   0.036  1.9047 -0.6367 -0.1864
  870MPD2     C12815   1.490   4.135   1.527 -0.4540  0.2475 -0.1995
  870MPD2    C112816   1.598   4.180   1.454 -0.2721  0.0433 -0.3656
  870MPD2    C212817   1.577   4.288   1.373 -0.3002 -0.0789  0.0586
  870MPD2    C312818   1.460   4.360   1.375  0.3041 -0.4160  0.2000
  870MPD2    C412819   1.358   4.323   1.460 -0.3946 -0.2558 -0.4084
  870MPD2    C512820   1.379   4.206   1.527  0.2176  0.3791 -0.6043
  870MPD2     H12821   1.659   4.342   1.326 -0.7682 -0.3218 -1.0308
  870MPD2    H112822   1.263   4.374   1.466 -0.3677 -0.1962 -0.4851
  870MPD2    H212823   1.501   4.059   1.603 -0.6061 -1.9105 -2.3405
  870MPD2    H312824   1.304   4.160   1.591  1.3016  0.3418  0.6402
  870MPD2     N12825   1.453   4.476   1.295  0.0642 -0.0133 -0.0860
  870MPD2    H512826   1.525   4.488   1.224  0.7465 -0.6629  0.4865
  870MPD2    N112827   1.719   4.114   1.482 -0.0509 -0.0304 -0.6712
  870MPD2    H712828   1.717   4.025   1.531 -0.5594  0.8456  0.8691
  871MPD2     C12829   2.557   3.796  16.568  0.2734  0.1575 -0.1571
  871MPD2    C112830   2.640   3.813  16.672 -0.1394 -0.3746 -0.2408
  871MPD2    C212831   2.727   3.704  16.699  0.7773 -0.6374 -0.0649
  871MPD2    C312832   2.731   3.591  16.625  0.2771  0.2650 -0.3749
  871MPD2    C412833   2.646   3.589  16.518 -0.6120  0.0568  0.6595
  871MPD2    C512834   2.554   3.683  16.497 -0.1695  0.2052 -0.3842
  871MPD2     H12835   2.795   3.716  16.783 -0.3430 -1.5061  0.9638
  871MPD2    H112836   2.646   3.497  16.461 -0.6182 -0.4664  1.4953
  871MPD2    H212837   2.481   3.870  16.543  0.3348  0.4804  0.6228
  871MPD2    H312838   2.484   3.676  16.415 -1.2613 -0.7213  0.6190
  871MPD2     N12839   2.814   3.476  16.647 -0.4870 -0.0467  0.2245
  871MPD2    H512840   2.830   3.411  16.571  2.1938 -1.9231  2.4065
  871MPD2    N112841   2.640   3.935  16.746  0.1935  0.1692 -0.2946
  871MPD2    H712842   2.567   4.005  16.739 -1.4724 -1.6625 -1.3231
  872MPD2     C12843   3.558   1.635  13.353  0.2460 -0.0059 -0.0454
  872MPD2    C112844   3.611   1.662  13.480  0.6439 -0.2659 -0.2877
  872MPD2    C212845   3.531   1.677  13.593 -0.4266  0.5585 -0.2108
  872MPD2    C312846   3.396   1.652  13.592  0.4372  0.1368 -0.1721
  872MPD2    C412847   3.342   1.618  13.472 -0.3413 -0.1030 -0.2564
  872MPD2    C512848   3.416   1.615  13.355 -0.4119  0.0585  0.3553
  872MPD2     H12849   3.587   1.701  13.682 -0.9592  0.8516  0.0442
  872MPD2    H112850   3.238   1.587  13.469 -0.5685  0.9164 -2.6250
  872MPD2    H212851   3.605   1.624  13.256 -0.3732 -1.7428 -0.1593
  872MPD2    H312852   3.365   1.583  13.265 -0.3209  1.1620 -0.0971
  872MPD2     N12853   3.312   1.657  13.706 -0.1041  0.4059  0.3918
  872MPD2    H512854   3.212   1.644  13.691  0.0041 -0.6222  0.5996
  872MPD2    N112855   3.750   1.696  13.499  0.0081 -0.8744 -0.1038
  872MPD2    H712856   3.778   1.730  13.591 -0.4256 -0.1713 -0.2286
  873MPD2     C12857   0.763   1.431   0.550 -0.0298 -0.0574  0.0103
  873MPD2    C112858   0.631   1.463   0.586 -0.4391  0.3607  0.3642
  873MPD2    C212859   0.533   1.372   0.544 -0.2257  0.6521 -0.0650
  873MPD2    C312860   0.563   1.259   0.461  0.9676 -0.4309  0.2133
  873MPD2    C412861   0.699   1.240   0.432  0.4110 -0.7972 -0.2675
  873MPD2    C512862   0.793   1.327   0.470  0.5680  0.3252 -0.4858
  873MPD2     H12863   0.429   1.381   0.573  0.5467  2.3057  2.2121
  873MPD2    H112864   0.729   1.152   0.376 -0.3031 -1.5758  0.5713
  873MPD2    H212865   0.846   1.497   0.571  0.0308 -0.4451  0.9914
  873MPD2    H312866   0.895   1.312   0.439  0.8948  0.1883  0.6427
  873MPD2     N12867   0.469   1.167   0.415 -0.1378  0.2463  0.0410
  873MPD2    H512868   0.511   1.093   0.360 -0.5687  0.1719 -0.1854
  873MPD2    N112869   0.616   1.580   0.665  0.4297 -0.1679 -0.4718
  873MPD2    H712870   0.702   1.630   0.684  0.5205 -0.8209  0.8116
  874MPD2     C12871   0.372   1.821  15.551  0.6110 -0.3798 -0.0943
  874MPD2    C112872   0.362   1.809  15.688  0.5479  0.0316  0.3712
  874MPD2    C212873   0.439   1.885  15.769 -0.0435  0.2515 -0.2199
  874MPD2    C312874   0.540   1.965  15.719  0.0567  0.3184  0.2163
  874MPD2    C412875   0.565   1.963  15.582  0.5647 -0.3263  0.1281
  874MPD2    C512876   0.480   1.889  15.499  0.2449 -0.0109  0.7157
  874MPD2     H12877   0.445   1.871  15.876 -2.3278  0.6378 -0.0311
  874MPD2    H112878   0.644   2.019  15.532  1.5459 -2.8824 -1.1655
  874MPD2    H212879   0.304   1.766  15.488  0.2473  1.1672 -1.0541
  874MPD2    H312880   0.500   1.889  15.393 -2.8837 -0.1054  0.1094
  874MPD2     N12881   0.621   2.030  15.812 -0.1979  0.1160  0.3571
  874MPD2    H512882   0.613   2.012  15.911 -1.8289 -0.5671  0.1038
  874MPD2    N112883   0.271   1.714  15.740  0.0916  0.7707 -0.0766
  874MPD2    H712884   0.215   1.665  15.671 -1.6357  0.9540  1.1880
  875MPD2     C12885   1.536   4.538  13.956 -0.0295  0.6356 -0.1624
  875MPD2    C112886   1.438   4.499  14.046 -0.3873 -0.8742  0.1006
  875MPD2    C212887   1.467   4.534  14.177  0.3196 -0.2716 -0.0048
  875MPD2    C312888   1.590   4.586  14.221 -0.1264  0.3519  0.1369
  875MPD2    C412889   1.684   4.621  14.132  0.0461 -0.3958  0.1618
  875MPD2    C512890   1.653   4.589  14.001 -0.0211  0.6767 -0.3694
  875MPD2     H12891   1.389   4.526  14.251  0.7351  2.7252  0.7434
  875MPD2    H112892   1.785   4.655  14.147 -1.5303  2.8179  3.7001
  875MPD2    H212893   1.523   4.518  13.851 -0.8379 -0.4402  0.1497
  875MPD2    H312894   1.735   4.588  13.929  1.0677 -0.6079  0.8925
  875MPD2     N12895   1.615   4.623  14.356  0.1199 -0.0280 -0.6721
  875MPD2    H512896   1.698   4.677  14.377 -0.9494  1.0285  0.8187
  875MPD2    N112897   1.304   4.455  14.010 -0.5410 -0.4262  0.4508
  875MPD2    H712898   1.225   4.453  14.073  0.3929  0.2238  1.6208
  876MPD2     C12899   0.007   1.056  15.747  0.2541  0.0911 -0.4214
  876MPD2    C112900   0.142   1.069  15.716  0.2452 -0.2416  0.3078
  876MPD2    C212901   0.215   0.952  15.747  0.7227 -0.2410  0.3617
  876MPD2    C312902   0.159   0.838  15.810  0.3912 -0.6932  0.7666
  876MPD2    C412903   0.027   0.834  15.833 -0.8149 -1.0389  0.0467
  876MPD2    C512904   4.697   0.940  15.796  0.3496  0.1374 -0.2875
  876MPD2     H12905   0.319   0.953  15.718  0.7635 -0.4270  0.5001
  876MPD2    H112906   4.706   0.758  15.879 -3.4377  0.9644 -0.1775
  876MPD2    H212907   4.677   1.137  15.731  2.1509  1.5161 -1.5454
  876MPD2    H312908   4.588   0.934  15.796  0.3335 -0.0293  2.5938
  876MPD2     N12909   0.246   0.741  15.856 -0.0853 -0.4592 -0.5110
  876MPD2    H512910   0.346   0.758  15.858 -0.1548  0.0948 -1.6928
  876MPD2    N112911   0.196   1.187  15.659  0.2830 -0.2371  0.0243
  876MPD2    H712912   0.128   1.257  15.630  1.1597 -0.1793 -1.9375
  877MPD2     C12913   0.077   1.653  15.030 -0.4872 -0.0549  0.5345
  877MPD2    C112914   0.209   1.608  15.048 -0.6460 -0.8364  0.2975
  877MPD2    C212915   0.290   1.616  14.939 -0.2117 -0.1199  0.5324
  877MPD2    C312916   0.247   1.654  14.812  0.1329  0.1808  0.0636
  877MPD2    C412917   0.120   1.691  14.793  0.5820 -0.0577 -0.1357
  877MPD2    C512918   0.030   1.681  14.903  0.0157  0.7949 -0.0881
  877MPD2     H12919   0.395   1.592  14.956 -0.0090  0.0844 -0.3894
  877MPD2    H112920   0.082   1.740  14.705  1.5853  2.3452  0.7595
  877MPD2    H212921   0.003   1.661  15.108 -0.4931 -1.2217  0.6567
  877MPD2    H312922   4.670   1.715  14.889 -0.5840 -1.6652 -1.7042
  877MPD2     N12923   0.330   1.669  14.698  0.0119 -0.1513  0.1719
  877MPD2    H512924   0.274   1.683  14.615  2.8033  5.3036 -0.8237
  877MPD2    N112925   0.260   1.564  15.174 -0.1096 -0.0053  0.1665
  877MPD2    H712926   0.361   1.563  15.182 -0.1729  0.6716  1.1145
  878MPD2     C12927   0.406   1.590  12.956  0.4012  0.3354 -0.3694
  878MPD2    C112928   0.286   1.516  12.954 -0.3720 -0.2196 -0.6811
  878MPD2    C212929   0.273   1.415  13.044  0.0673 -0.5359  0.2089
  878MPD2    C312930   0.361   1.396  13.149 -0.2461 -0.2316 -0.1593
  878MPD2    C412931   0.473   1.476  13.164  0.7078 -0.6527  0.1306
  878MPD2    C512932   0.497   1.566  13.060 -0.5987 -0.0476  0.2703
  878MPD2     H12933   0.201   1.337  13.022 -0.9608 -0.0917  1.9757
  878MPD2    H112934   0.551   1.451  13.234  0.5685  0.9404  0.8385
  878MPD2    H212935   0.435   1.655  12.874  1.7491 -0.6702 -0.7035
  878MPD2    H312936   0.586   1.627  13.053 -0.9865  0.4478 -0.2525
  878MPD2     N12937   0.345   1.277  13.218  0.9702 -0.3160  0.6261
  878MPD2    H512938   0.283   1.208  13.176  3.4002 -1.5244 -0.9788
  878MPD2    N112939   0.202   1.515  12.839  0.1789  0.1803  0.5188
  878MPD2    H712940   0.220   1.585  12.768 -0.7545 -0.9250 -0.8014
  879MPD2     C12941   0.769   2.661  17.250  0.1678  0.3641  0.0595
  879MPD2    C112942   0.738   2.537  17.200  0.1237  0.0188  0.3872
  879MPD2    C212943   0.626   2.525  17.117  0.8421 -0.2265 -0.3344
  879MPD2    C312944   0.553   2.635  17.078 -0.3939 -0.6787  0.1992
  879MPD2    C412945   0.585   2.758  17.126  0.0861 -0.5412 -0.1964
  879MPD2    C512946   0.694   2.767  17.208  0.0314 -0.4681  0.1348
  879MPD2     H12947   0.608   2.433  17.062 -0.3072  0.0080 -0.3414
  879MPD2    H112948   0.541   2.853  17.095  2.1325  0.0847 -1.1700
  879MPD2    H212949   0.860   2.678  17.306 -0.3402  1.2155  0.6313
  879MPD2    H312950   0.718   2.862  17.254 -1.3778 -1.1358  2.2409
  879MPD2     N12951   0.459   2.625  16.975  0.6024  0.1684  0.4141
  879MPD2    H512952   0.430   2.708  16.924  2.1496  1.3121  1.4040
  879MPD2    N112953   0.821   2.429  17.238 -0.1686  0.3232 -0.3251
  879MPD2    H712954   0.908   2.450  17.286 -0.2605  0.4281 -0.2037
  880MPD2     C12955   2.183   3.961   0.093 -0.0174  0.2157 -0.1099
  880MPD2    C112956   2.090   4.008   0.188  0.4473 -0.1016 -0.1300
  880MPD2    C212957   2.042   3.918   0.283  0.5286  0.0944 -0.4426
  880MPD2    C312958   2.086   3.787   0.294 -0.3919  0.3519 -0.7993
  880MPD2    C412959   2.190   3.750   0.212 -0.2045  0.3540  0.0020
  880MPD2    C512960   2.238   3.843   0.120 -0.4667 -0.3859 -0.3381
  880MPD2     H12961   1.952   3.939   0.340  1.5633  0.3147  1.0893
  880MPD2    H112962   2.238   3.653   0.210  2.1475  1.5814 -1.5740
  880MPD2    H212963   2.223   4.028   0.018 -1.6816  0.5613 -0.6796
  880MPD2    H312964   2.316   3.796   0.061  2.3551  2.3926  1.1467
  880MPD2     N12965   2.031   3.704   0.389 -0.4717  0.0240 -0.0630
  880MPD2    H512966   1.953   3.740   0.444 -0.8681 -0.4252 -0.3265
  880MPD2    N112967   2.053   4.148   0.178  0.9901  0.0611  0.0853
  880MPD2    H712968   2.108   4.199   0.109  0.5655  0.9127  0.3850
  881MPD2     C12969   2.013   0.277  17.457 -0.1123  0.3670 -0.5177
  881MPD2    C112970   2.070   0.154  17.440  0.9280  0.0559 -0.6678
  881MPD2    C212971   2.057   0.056  17.541 -0.5497 -0.5918 -0.1920
  881MPD2    C312972   1.981   0.086  17.656  0.0504  0.1962  0.2963
  881MPD2    C412973   1.925   0.214  17.675  1.3014  0.5024  0.5432
  881MPD2    C512974   1.941   0.305  17.570  0.0047 -0.3307 -0.4633
  881MPD2     H12975   2.109   4.704  17.526  1.2770  0.3386  0.3642
  881MPD2    H112976   1.864   0.246  17.759 -1.4020 -2.6811 -0.1956
  881MPD2    H212977   2.046   0.355  17.389 -0.0427  2.1156  1.5039
  881MPD2    H312978   1.900   0.405  17.562 -1.3707 -0.9863 -1.7365
  881MPD2     N12979   1.961   4.734  17.758  0.6025 -0.5319  0.6221
  881MPD2    H512980   1.904   0.032   0.071  1.0555 -0.2579  0.8236
  881MPD2    N112981   2.119   0.128  17.313 -0.2165 -0.6856  0.4634
  881MPD2    H712982   2.099   0.202  17.246  1.1351 -1.0081 -0.2838
  882MPD2     C12983   0.237   1.157  14.146 -0.2405 -0.0318  0.2319
  882MPD2    C112984   0.225   1.285  14.188 -0.2345  0.2425  0.6272
  882MPD2    C212985   0.098   1.345  14.185  0.8780 -0.4329  0.3035
  882MPD2    C312986   4.731   1.267  14.157 -0.0041  0.3912 -0.1930
  882MPD2    C412987   0.006   1.132  14.133  0.5619 -0.3014 -0.7201
  882MPD2    C512988   0.127   1.080  14.118 -0.0427  1.3936 -0.3518
  882MPD2     H12989   0.088   1.447  14.221 -1.4491 -0.7605  0.5677
  882MPD2    H112990   4.664   1.070  14.101 -0.0971  1.0442 -1.6313
  882MPD2    H212991   0.332   1.105  14.147  1.0390  2.2594 -0.5935
  882MPD2    H312992   0.149   0.979  14.088  0.9995  1.6973 -0.6194
  882MPD2     N12993   4.596   1.315  14.173 -0.0696  0.3975  0.3174
  882MPD2    H512994   4.523   1.245  14.176 -0.8796  1.1822 -1.8122
  882MPD2    N112995   0.337   1.356  14.247 -1.0752 -1.1030  0.4401
  882MPD2    H712996   0.421   1.299  14.258  1.2783  2.0447 -1.4420
  883MPD2     C12997   2.093   1.276  15.962  0.0455  0.2342 -0.1630
  883MPD2    C112998   2.116   1.381  15.875  0.4242 -0.0726 -0.5580
  883MPD2    C212999   2.185   1.493  15.925 -0.2876 -0.0918 -0.4388
  883MPD2    C313000   2.230   1.500  16.056  0.0240  0.1991 -0.0995
  883MPD2    C413001   2.189   1.400  16.143  0.2330 -0.7378  0.0773
  883MPD2    C513002   2.142   1.281  16.088  0.1654 -0.3500 -0.3386
  883MPD2     H13003   2.207   1.574  15.856  1.1312  0.4782  0.6857
  883MPD2    H113004   2.211   1.398  16.250 -0.4396  0.7613  0.2456
  883MPD2    H213005   2.027   1.195  15.935 -2.4286  2.0248  0.5869
  883MPD2    H313006   2.111   1.200  16.154  2.0592 -0.0297  0.9341
  883MPD2     N13007   2.325   1.598  16.086 -0.2179  0.2546 -0.5666
  883MPD2    H513008   2.350   1.668  16.016  0.2456 -0.0615 -0.7165
  883MPD2    N113009   2.048   1.393  15.748 -0.3091  0.0353 -0.9657
  883MPD2    H713010   2.074   1.477  15.699  0.7071  1.4509  2.0092
  884MPD2     C13011   4.260   2.123  15.116 -0.7028  0.1000 -0.0559
  884MPD2    C113012   4.294   2.255  15.086 -0.0866 -0.0719 -0.0460
  884MPD2    C213013   4.201   2.353  15.117  0.3133 -0.0919  0.0382
  884MPD2    C313014   4.086   2.330  15.190 -0.5794 -0.1870  0.1663
  884MPD2    C413015   4.064   2.205  15.233  0.9443  0.6197 -0.1481
  884MPD2    C513016   4.154   2.105  15.198 -0.3258  0.4627 -0.3754
  884MPD2     H13017   4.224   2.455  15.088 -1.6945  0.8161  1.5946
  884MPD2    H113018   3.977   2.182  15.293  1.7137  0.3791  0.8783
  884MPD2    H213019   4.313   2.038  15.074 -1.3607  0.0191 -0.7252
  884MPD2    H313020   4.129   2.004  15.229 -0.4174  0.0335 -1.8605
  884MPD2     N13021   3.997   2.435  15.199 -0.1197 -0.2810  0.5175
  884MPD2    H513022   4.025   2.519  15.148  2.4845 -1.5564 -0.1431
  884MPD2    N113023   4.401   2.293  15.004  0.7162  0.3548  0.2754
  884MPD2    H713024   4.404   2.393  14.988  0.1063  0.5011  1.0857
  885MPD2     C13025   2.529   2.800   0.150 -0.1264 -0.3082 -0.8594
  885MPD2    C113026   2.663   2.808   0.174  0.1205  0.2549  0.7163
  885MPD2    C213027   2.755   2.840   0.072 -0.1451 -0.5295  0.0723
  885MPD2    C313028   2.709   2.862  17.706  0.1550  0.6845 -0.1429
  885MPD2    C413029   2.571   2.864  17.682 -0.2534 -0.5833 -0.2738
  885MPD2    C513030   2.481   2.835   0.028 -0.1943 -0.4199  0.1993
  885MPD2     H13031   2.862   2.840   0.088 -0.1687  1.3018  0.2937
  885MPD2    H113032   2.535   2.882  17.581 -2.8184 -0.1790  0.7253
  885MPD2    H213033   2.459   2.784   0.231  0.4982 -0.7658 -0.4102
  885MPD2    H313034   2.376   2.843   0.004  0.5361  2.1837 -2.1279
  885MPD2     N13035   2.795   2.882  17.601 -0.6138 -0.0081  0.3266
  885MPD2    H513036   2.892   2.859  17.623  0.0135  0.6496 -1.7680
  885MPD2    N113037   2.704   2.752   0.295 -0.6602  0.9005 -0.4307
  885MPD2    H713038   2.625   2.743   0.358 -1.5948 -0.4887 -1.7964
  886MPD2     C13039   3.752   0.962  14.697  0.8301 -0.0052  0.5019
  886MPD2    C113040   3.808   0.984  14.823 -0.2656  0.3755  0.7502
  886MPD2    C213041   3.814   1.109  14.873 -0.3091  1.2658 -0.5575
  886MPD2    C313042   3.784   1.224  14.801 -0.3852  0.2677 -0.0125
  886MPD2    C413043   3.741   1.201  14.673  0.3400  0.0707 -0.2877
  886MPD2    C513044   3.727   1.078  14.622  0.4556 -1.0499  0.0352
  886MPD2     H13045   3.859   1.117  14.972 -1.9373  0.9102  0.2120
  886MPD2    H113046   3.704   1.282  14.610 -1.3268 -2.1637 -2.1959
  886MPD2    H213047   3.746   0.868  14.643  1.9448 -0.2570  0.8169
  886MPD2    H313048   3.687   1.060  14.523  1.5523 -1.4291 -0.3394
  886MPD2     N13049   3.803   1.353  14.845 -0.1351  0.0863  0.3504
  886MPD2    H513050   3.776   1.431  14.785 -1.2091 -0.1175  0.5825
  886MPD2    N113051   3.873   0.885  14.901  0.6052  0.0070 -0.2765
  886MPD2    H713052   3.925   0.911  14.984  2.1202 -0.9141 -0.9433
  887MPD2     C13053   4.347   0.831  15.445  0.0605 -0.0404  0.2041
  887MPD2    C113054   4.306   0.901  15.333  0.7427 -0.2599 -0.4027
  887MPD2    C213055   4.320   1.038  15.330 -0.3007 -0.1868  0.2253
  887MPD2    C313056   4.403   1.096  15.423 -0.2959 -0.3133 -0.1379
  887MPD2    C413057   4.457   1.021  15.530 -0.2569 -0.4379 -0.3899
  887MPD2    C513058   4.431   0.887  15.536 -0.1694  0.2819  0.1055
  887MPD2     H13059   4.276   1.103  15.256 -2.6827  0.2172  1.9699
  887MPD2    H113060   4.505   1.071  15.613  1.6951 -4.3215  0.8053
  887MPD2    H213061   4.316   0.729  15.463  1.0092 -0.2191  0.8247
  887MPD2    H313062   4.473   0.832  15.619  0.1020  0.4526  0.0810
  887MPD2     N13063   4.434   1.231  15.408  0.2393 -0.2614 -0.4904
  887MPD2    H513064   4.371   1.282  15.346 -0.2331 -1.4900 -1.0264
  887MPD2    N113065   4.238   0.837  15.226  0.6687 -0.2343 -0.2888
  887MPD2    H713066   4.203   0.896  15.151 -2.2204 -1.3024  0.2321
  888MPD2     C13067   1.566   0.665  14.771 -0.6457 -0.2105 -0.7922
  888MPD2    C113068   1.480   0.729  14.857  0.7972  0.4876 -0.1384
  888MPD2    C213069   1.504   0.864  14.881  0.0543 -0.7342  0.1819
  888MPD2    C313070   1.601   0.943  14.814  0.1361 -0.1028 -0.2011
  888MPD2    C413071   1.686   0.871  14.730  0.0899 -0.2511 -0.3582
  888MPD2    C513072   1.665   0.738  14.716  0.7149  0.1944 -0.0918
  888MPD2     H13073   1.443   0.915  14.955  2.2216  1.9579  0.0876
  888MPD2    H113074   1.763   0.927  14.677 -0.6343  1.4792  0.4190
  888MPD2    H213075   1.559   0.559  14.751  1.2206 -0.3319 -0.8100
  888MPD2    H313076   1.744   0.694  14.656  0.7576  0.1675 -0.0158
  888MPD2     N13077   1.610   1.077  14.858 -0.2136 -0.4702  0.3691
  888MPD2    H513078   1.543   1.118  14.922 -0.8768 -1.4976  0.3297
  888MPD2    N113079   1.385   0.654  14.936 -0.2186 -0.2340 -0.0239
  888MPD2    H713080   1.334   0.704  15.008 -0.4276 -0.6057  0.0866
  889MPD2     C13081   0.838   1.113  13.050 -0.4227 -0.1452  0.2267
  889MPD2    C113082   0.881   0.985  13.081 -0.0001 -0.6815  0.3508
  889MPD2    C213083   0.890   0.961  13.215  0.2068 -0.2126  0.1462
  889MPD2    C313084   0.881   1.060  13.314 -0.0757  0.7052  0.6107
  889MPD2    C413085   0.849   1.189  13.279  0.3721  0.6299 -0.2814
  889MPD2    C513086   0.821   1.214  13.144 -0.5000 -0.6158 -0.4977
  889MPD2     H13087   0.906   0.859  13.249  2.4445  0.4047  0.9860
  889MPD2    H113088   0.842   1.272  13.349 -2.0924  1.9009 -1.9881
  889MPD2    H213089   0.824   1.134  12.944 -1.4060  0.1308  0.4086
  889MPD2    H313090   0.800   1.311  13.100 -0.3402 -0.5553 -0.4390
  889MPD2     N13091   0.905   1.019  13.446 -0.1739 -0.8062 -0.2372
  889MPD2    H513092   0.937   0.925  13.466  1.4874 -0.5266 -1.5488
  889MPD2    N113093   0.866   0.879  12.987  0.1711  0.5787 -0.8243
  889MPD2    H713094   0.899   0.787  13.017  0.4615  0.3815 -1.7695
  890MPD2     C13095   0.665   2.073  14.590 -0.3843 -0.8748  0.5375
  890MPD2    C113096   0.730   2.184  14.645  0.0924  0.1633 -0.2631
  890MPD2    C213097   0.726   2.217  14.781  0.5083 -0.2315 -0.6955
  890MPD2    C313098   0.657   2.124  14.858  0.3829  0.6320 -0.3135
  890MPD2    C413099   0.603   2.007  14.808  0.0416  0.4481  1.1557
  890MPD2    C513100   0.607   1.984  14.673  0.6396 -0.0601 -0.1506
  890MPD2     H13101   0.760   2.313  14.819 -1.3907 -0.5355  1.7516
  890MPD2    H113102   0.552   1.945  14.881  0.6613 -1.1399  0.2404
  890MPD2    H213103   0.665   2.058  14.482 -1.4220  1.5756  0.1838
  890MPD2    H313104   0.567   1.891  14.636  0.0365  0.6705 -1.3071
  890MPD2     N13105   0.660   2.153  14.999  0.1109 -0.0785  0.8335
  890MPD2    H513106   0.730   2.219  15.030  1.1729 -0.5199 -0.6109
  890MPD2    N113107   0.790   2.269  14.550  0.2500 -0.2578 -0.3425
  890MPD2    H713108   0.771   2.244  14.453  0.0227  1.5571 -0.7724
  891MPD2     C13109   3.054   0.524  16.480 -0.4928 -0.7402  0.1653
  891MPD2    C113110   3.063   0.657  16.451 -0.1487 -0.6924 -0.2315
  891MPD2    C213111   3.163   0.734  16.494  0.2375  0.3489  0.0513
  891MPD2    C313112   3.274   0.670  16.552 -0.0171 -0.3327 -0.6020
  891MPD2    C413113   3.267   0.533  16.587 -0.0540  0.1809 -0.0292
  891MPD2    C513114   3.152   0.461  16.549  0.7551 -0.1818  0.1782
  891MPD2     H13115   3.165   0.841  16.476 -0.0852  0.1786 -1.0005
  891MPD2    H113116   3.350   0.478  16.630  0.6088  0.2378 -1.2223
  891MPD2    H213117   2.963   0.478  16.446 -1.2839  0.7178  0.3171
  891MPD2    H313118   3.135   0.360  16.585 -0.1659 -0.4795 -1.0917
  891MPD2     N13119   3.379   0.748  16.594 -0.3433 -0.2885  0.2556
  891MPD2    H513120   3.375   0.849  16.595 -0.5673 -0.3127  1.1176
  891MPD2    N113121   2.954   0.705  16.379 -0.1506 -0.2912  0.0335
  891MPD2    H713122   2.869   0.650  16.373 -0.3087 -0.0907  0.4134
  892MPD2     C13123   4.459   2.192  14.583 -0.1086  0.3206 -0.2696
  892MPD2    C113124   4.370   2.104  14.632  0.1256  0.1928  0.4328
  892MPD2    C213125   4.384   1.966  14.617  0.2768  0.4406  0.0958
  892MPD2    C313126   4.494   1.920  14.562 -1.5293  0.0890  0.3286
  892MPD2    C413127   4.593   1.997  14.518  0.1729  0.3077 -0.1213
  892MPD2    C513128   4.575   2.132  14.527  0.1938 -0.6417 -0.4759
  892MPD2     H13129   4.318   1.897  14.668  0.7115 -0.0551 -0.0053
  892MPD2    H113130   4.683   1.953  14.476 -0.3431  1.2718 -2.2564
  892MPD2    H213131   4.451   2.300  14.590  1.0238  0.3896  0.0932
  892MPD2    H313132   4.649   2.195  14.479 -1.0187 -0.8962 -2.6766
  892MPD2     N13133   4.509   1.783  14.534  0.3667 -0.2641  0.2539
  892MPD2    H513134   4.593   1.754  14.483  0.2245 -2.0363  1.0410
  892MPD2    N113135   4.253   2.158  14.693 -0.1641  0.2524  0.0022
  892MPD2    H713136   4.229   2.253  14.667 -0.3660  0.5085  1.1363
  893MPD2     C13137   0.983   1.218   1.589  0.4842  0.2086  0.6657
  893MPD2    C113138   0.973   1.206   1.452  0.3675  0.3438 -0.0980
  893MPD2    C213139   0.846   1.207   1.396  0.4251  0.3212 -0.5797
  893MPD2    C313140   0.733   1.243   1.474 -0.8043 -0.2981 -0.1546
  893MPD2    C413141   0.743   1.253   1.612  0.3842 -0.3147 -0.4401
  893MPD2    C513142   0.865   1.236   1.668 -0.4998  0.2886  0.1783
  893MPD2     H13143   0.834   1.185   1.290 -1.6841 -0.3464 -0.1912
  893MPD2    H113144   0.652   1.258   1.671  0.1449  1.0267 -0.8985
  893MPD2    H213145   1.078   1.213   1.641 -0.3097 -0.9336  1.9979
  893MPD2    H313146   0.870   1.238   1.776 -1.7663 -1.4239  0.2665
  893MPD2     N13147   0.613   1.246   1.406  0.1536 -0.2335 -0.7025
  893MPD2    H513148   0.614   1.215   1.309 -1.9306 -0.6229 -0.6098
  893MPD2    N113149   1.091   1.168   1.381 -0.5963 -0.6716  0.4851
  893MPD2    H713150   1.168   1.148   1.443  0.6772 -0.7248 -1.1161
  894MPD2     C13151   3.678   3.431   0.770 -0.1556  0.8569 -0.1981
  894MPD2    C113152   3.802   3.398   0.818  0.2323 -0.6686 -0.4451
  894MPD2    C213153   3.908   3.477   0.785 -0.2750  1.2408  0.1055
  894MPD2    C313154   3.892   3.585   0.702 -0.0276  0.2765 -0.0398
  894MPD2    C413155   3.766   3.623   0.657  0.5632 -0.3141 -0.4519
  894MPD2    C513156   3.659   3.546   0.693  0.6315  0.1882 -0.3675
  894MPD2     H13157   4.011   3.450   0.808  0.0087  1.4696 -0.8820
  894MPD2    H113158   3.757   3.700   0.582 -1.7138 -0.3808 -0.2542
  894MPD2    H213159   3.591   3.369   0.788  0.6600  0.3547  1.8963
  894MPD2    H313160   3.558   3.567   0.659  0.9911 -1.1385 -2.2469
  894MPD2     N13161   4.005   3.652   0.660 -0.1460 -0.1313 -0.7232
  894MPD2    H513162   4.097   3.613   0.676  0.6617  1.6654 -0.9942
  894MPD2    N113163   3.829   3.291   0.905  0.0005  0.7043  0.6239
  894MPD2    H713164   3.927   3.278   0.924  0.5169  2.2149 -1.0063
  895MPD2     C13165   3.346   1.031  13.359 -0.0363 -0.3978 -0.2280
  895MPD2    C113166   3.276   0.974  13.251 -0.4261  0.8175  0.0112
  895MPD2    C213167   3.302   0.844  13.216  0.3601  0.1244 -0.9151
  895MPD2    C313168   3.410   0.773  13.267  0.8156  0.3465  0.3657
  895MPD2    C413169   3.481   0.824  13.373  0.1438 -0.2274  0.1238
  895MPD2    C513170   3.441   0.947  13.421 -0.4988 -0.2149  0.3603
  895MPD2     H13171   3.251   0.804  13.129 -0.6132 -0.6494  0.0136
  895MPD2    H113172   3.559   0.769  13.425  2.6486  2.0626 -1.1986
  895MPD2    H213173   3.316   1.129  13.393 -0.7037 -0.3990 -0.8158
  895MPD2    H313174   3.493   0.988  13.507 -3.0258  0.1624  1.6836
  895MPD2     N13175   3.443   0.641  13.219 -0.2590 -0.1978 -0.3058
  895MPD2    H513176   3.501   0.579  13.273 -0.3792  0.7563  0.9218
  895MPD2    N113177   3.182   1.043  13.167 -0.2017 -0.8632 -0.7950
  895MPD2    H713178   3.138   0.996  13.089 -0.5554 -0.3175 -0.9277
  896MPD2     C13179   1.282   3.847   0.911  0.1946 -1.0170  0.1068
  896MPD2    C113180   1.246   3.727   0.856 -0.9069  0.1436  0.6715
  896MPD2    C213181   1.112   3.692   0.836  0.0031  0.0806  0.2773
  896MPD2    C313182   1.016   3.782   0.874 -0.1942 -0.3308 -0.2667
  896MPD2    C413183   1.055   3.902   0.930  0.0310  0.3243  0.6784
  896MPD2    C513184   1.187   3.931   0.953 -0.3880  0.0451  0.1800
  896MPD2     H13185   1.071   3.602   0.791  0.4354  0.4335 -0.8306
  896MPD2    H113186   0.984   3.974   0.968 -1.2013  1.1264 -3.2417
  896MPD2    H213187   1.386   3.867   0.934  0.4486 -0.2423 -1.6864
  896MPD2    H313188   1.216   4.020   1.008  0.8512  0.4703 -1.1610
  896MPD2     N13189   0.873   3.756   0.842  0.3723 -0.5987  0.2017
  896MPD2    H513190   0.850   3.671   0.791 -2.4276  0.0956  0.3003
  896MPD2    N113191   1.349   3.635   0.814 -0.7157  0.4375  0.7339
  896MPD2    H713192   1.445   3.662   0.828 -0.7592  0.5279  0.8568
  897MPD2     C13193   2.380   1.580  10.651  0.0334 -0.4368  0.0657
  897MPD2    C113194   2.269   1.511  10.597  0.3326 -0.0514  0.1378
  897MPD2    C213195   2.182   1.441  10.682 -0.6629 -0.1270  0.5154
  897MPD2    C313196   2.203   1.435  10.819  0.1011 -0.1788  0.0200
  897MPD2    C413197   2.318   1.495  10.860 -0.8758  0.0774 -0.1974
  897MPD2    C513198   2.403   1.569  10.781  0.1549  0.1277  0.2253
  897MPD2     H13199   2.108   1.367  10.653 -0.6895  1.4251 -3.4191
  897MPD2    H113200   2.351   1.487  10.963 -0.6772  0.9428 -0.1950
  897MPD2    H213201   2.448   1.628  10.582 -0.6500  3.5799  2.2023
  897MPD2    H313202   2.479   1.634  10.823 -0.3865 -1.3473  3.5269
  897MPD2     N13203   2.111   1.366  10.902 -0.2378  0.9588  0.4321
  897MPD2    H513204   2.022   1.336  10.863 -0.9130  0.1024  2.6159
  897MPD2    N113205   2.240   1.527  10.462  0.0678 -0.2287 -0.3487
  897MPD2    H713206   2.292   1.597  10.411  0.9573  0.3168  1.3164
  898MPD2     C13207   3.422   1.656   0.057 -0.3136  0.0678  0.0779
  898MPD2    C113208   3.554   1.656   0.020 -0.0820 -0.1496 -0.1124
  898MPD2    C213209   3.594   1.732  17.669  0.3272  0.3292  0.5721
  898MPD2    C313210   3.505   1.814  17.603  1.1754 -0.2274  0.0567
  898MPD2    C413211   3.372   1.807  17.642  0.3836  0.1098 -0.1334
  898MPD2    C513212   3.335   1.728  17.746  0.7228  0.6586 -0.1301
  898MPD2     H13213   3.697   1.745  17.638  0.3734 -1.6613 -0.1640
  898MPD2    H113214   3.299   1.879  17.606 -1.4336 -1.0469  1.2734
  898MPD2    H213215   3.377   1.590   0.130  0.2398  1.7051  1.8896
  898MPD2    H313216   3.232   1.741   0.018  0.8850  1.6371 -0.0044
  898MPD2     N13217   3.546   1.901  17.500 -0.2009  0.1691 -0.3009
  898MPD2    H513218   3.644   1.899  17.471  0.1333 -0.5406  0.9193
  898MPD2    N113219   3.654   1.595   0.097 -0.5967 -0.6801 -0.2049
  898MPD2    H713220   3.747   1.591   0.057 -1.2109  0.6584 -1.7674
  899MPD2     C13221   0.163   2.204  17.191 -0.5412 -0.4268  0.1566
  899MPD2    C113222   0.198   2.260  17.310  0.5879 -0.2706 -0.4665
  899MPD2    C213223   0.168   2.199  17.427  0.4004  0.2494 -0.2606
  899MPD2    C313224   0.090   2.086  17.427  0.0277  0.0551 -0.4302
  899MPD2    C413225   0.073   2.023  17.304 -0.2403  0.8050 -0.9251
  899MPD2    C513226   0.102   2.086  17.188 -1.2125 -0.6125 -0.0914
  899MPD2     H13227   0.187   2.251  17.520  1.7636 -0.0975 -0.3516
  899MPD2    H113228   0.036   1.921  17.299  0.6811  0.4294 -0.1842
  899MPD2    H213229   0.195   2.248  17.097  0.0268  0.3103  0.6916
  899MPD2    H313230   0.074   2.037  17.095 -0.8243 -0.5606 -0.2341
  899MPD2     N13231   0.022   2.044  17.550  0.2334  0.4990 -0.4417
  899MPD2    H513232   4.717   1.954  17.554 -1.1003  1.2823  1.6852
  899MPD2    N113233   0.275   2.380  17.301 -0.0664 -0.5578 -0.2823
  899MPD2    H713234   0.290   2.414  17.206  0.0673 -0.7418 -0.3297
  900MPD2     C13235   4.027   3.204  12.230 -0.1255  0.1343  0.1900
  900MPD2    C113236   3.929   3.204  12.328  0.9878  0.5923 -0.0729
  900MPD2    C213237   3.798   3.256  12.302  0.0072  0.1524 -0.1139
  900MPD2    C313238   3.783   3.318  12.178 -0.4432 -0.6219  0.1389
  900MPD2    C413239   3.876   3.306  12.078  0.0403 -0.1088 -0.2465
  900MPD2    C513240   4.001   3.247  12.102  0.4551  0.5750 -0.2993
  900MPD2     H13241   3.734   3.270  12.389 -1.8290 -0.3176 -1.3830
  900MPD2    H113242   3.852   3.335  11.976  0.8211 -1.6835 -0.8725
  900MPD2    H213243   4.122   3.154  12.249  0.2065  1.3141  1.6048
  900MPD2    H313244   4.074   3.240  12.022  0.5129  2.1403 -0.3763
  900MPD2     N13245   3.672   3.395  12.153  0.0928 -0.1390  0.0875
  900MPD2    H513246   3.606   3.390  12.229 -0.0911 -1.1556 -0.1469
  900MPD2    N113247   3.973   3.174  12.461  0.0723  0.7491 -0.3653
  900MPD2    H713248   4.071   3.147  12.465  0.2723  1.4123 -0.7220
  901MPD2     C13249   4.155   2.311  12.499 -0.2760  0.7835  0.0323
  901MPD2    C113250   4.268   2.392  12.483  0.0065  0.6177  0.3898
  901MPD2    C213251   4.264   2.512  12.554 -0.2975 -0.5744  0.2544
  901MPD2    C313252   4.156   2.557  12.627  0.3045 -0.0158 -0.5230
  901MPD2    C413253   4.052   2.469  12.648 -0.2460 -0.3669 -0.6673
  901MPD2    C513254   4.062   2.343  12.589  0.2894 -0.5669  0.0834
  901MPD2     H13255   4.339   2.586  12.528 -0.7776  0.4869  1.8965
  901MPD2    H113256   3.969   2.498  12.712 -1.2164 -0.5002 -1.8453
  901MPD2    H213257   4.141   2.217  12.447 -0.3855  1.2464 -0.7814
  901MPD2    H313258   3.976   2.283  12.614 -1.0997  1.4721  0.1826
  901MPD2     N13259   4.146   2.688  12.671  0.7942 -0.3197 -0.0671
  901MPD2    H513260   4.231   2.742  12.660  0.3249  0.2067 -1.0594
  901MPD2    N113261   4.366   2.361  12.386 -0.1298 -0.1842  0.4910
  901MPD2    H713262   4.334   2.302  12.311 -0.0096  0.7496 -0.3003
  902MPD2     C13263   3.373   1.841  12.229  0.2499  1.1176 -0.8011
  902MPD2    C113264   3.474   1.931  12.239  0.1973 -0.1699  0.2397
  902MPD2    C213265   3.601   1.904  12.195 -0.0103 -0.5225  0.1357
  902MPD2    C313266   3.630   1.779  12.151 -0.0117  0.6996  0.5091
  902MPD2    C413267   3.529   1.682  12.153 -0.3599  0.2149 -0.4120
  902MPD2    C513268   3.402   1.717  12.192 -0.8332 -0.0051  0.4527
  902MPD2     H13269   3.671   1.987  12.196  0.7649 -1.0976 -3.8194
  902MPD2    H113270   3.553   1.581  12.122 -0.2842  0.7913 -2.2323
  902MPD2    H213271   3.273   1.863  12.264  0.7664  0.2711  1.2433
  902MPD2    H313272   3.329   1.637  12.198 -0.2078 -0.6736 -0.7586
  902MPD2     N13273   3.758   1.750  12.100  0.3031 -0.8287 -0.6426
  902MPD2    H513274   3.763   1.652  12.073  1.8382 -0.8115 -0.4482
  902MPD2    N113275   3.457   2.050  12.299  0.3536 -0.2154  0.0652
  902MPD2    H713276   3.542   2.104  12.310  0.3300 -0.6192  2.3022
  903MPD2     C13277   3.814   1.903  11.326  0.0056  0.5319  0.8789
  903MPD2    C113278   3.816   1.969  11.447 -0.0762  0.1201 -0.1713
  903MPD2    C213279   3.704   2.043  11.483  0.0835 -0.2327  0.4336
  903MPD2    C313280   3.592   2.036  11.405 -0.5397  0.0403 -0.2509
  903MPD2    C413281   3.598   1.972  11.281 -0.3991  0.3669  0.0384
  903MPD2    C513282   3.710   1.908  11.239 -0.4678 -0.0119 -0.7201
  903MPD2     H13283   3.705   2.099  11.576  2.7177 -3.0884  2.1430
  903MPD2    H113284   3.509   1.965  11.219 -0.9399 -0.2080  0.8802
  903MPD2    H213285   3.894   1.840  11.289 -0.2735 -0.1130  1.3718
  903MPD2    H313286   3.726   1.870  11.139  1.0496  1.6422 -1.1105
  903MPD2     N13287   3.470   2.079  11.463  0.2641 -0.0796  0.1881
  903MPD2    H513288   3.466   2.117  11.557  0.0394 -0.2746  0.2577
  903MPD2    N113289   3.930   1.941  11.534  0.0510  0.0989  0.0497
  903MPD2    H713290   4.003   1.879  11.499  1.1344  1.0560  0.6016
  904MPD2     C13291   3.174   0.055  13.743  0.0504 -0.3137 -0.9465
  904MPD2    C113292   3.221   0.170  13.693  0.0668  0.0522 -0.8736
  904MPD2    C213293   3.355   0.213  13.712 -0.1643 -0.4982  0.2986
  904MPD2    C313294   3.431   0.135  13.784 -1.4579  0.4357  1.4721
  904MPD2    C413295   3.392   0.011  13.830 -0.0765 -0.2456  0.3727
  904MPD2    C513296   3.265   4.717  13.807 -0.7437 -0.1096 -0.1373
  904MPD2     H13297   3.402   0.294  13.657  0.1036 -0.7115  0.2096
  904MPD2    H113298   3.456   4.695  13.896 -1.5836  0.7218  2.6815
  904MPD2    H213299   3.076   0.013  13.725 -0.5101  0.1096  1.0960
  904MPD2    H313300   3.235   4.621  13.848 -2.9886  0.7175  0.1583
  904MPD2     N13301   3.555   0.183  13.820  0.3776  0.1355  0.0535
  904MPD2    H513302   3.581   0.274  13.783 -2.2529  0.4848 -0.9275
  904MPD2    N113303   3.138   0.263  13.631  0.5429 -0.1389  0.1225
  904MPD2    H713304   3.188   0.333  13.577 -0.3246  0.8385  0.5875
  905MPD2     C13305   2.861   0.161  13.032 -0.2119  0.5793  0.5664
  905MPD2    C113306   2.945   0.272  13.053  0.1891 -0.1249 -0.1791
  905MPD2    C213307   3.048   0.281  12.959  0.2684  0.8411 -0.1874
  905MPD2    C313308   3.080   0.178  12.872 -0.2564  0.1209  0.0249
  905MPD2    C413309   2.991   0.082  12.853  0.4332  0.0195 -0.1386
  905MPD2    C513310   2.882   0.073  12.932 -0.2368  0.2059 -0.3227
  905MPD2     H13311   3.103   0.375  12.957  0.5010  0.7709  2.9942
  905MPD2    H113312   3.012   4.733  12.796 -3.1481 -0.9871  0.1009
  905MPD2    H213313   2.767   0.157  13.087 -0.2950  2.5191  0.5500
  905MPD2    H313314   2.806   4.738  12.922  1.8391 -1.6549 -1.6846
  905MPD2     N13315   3.189   0.183  12.778 -0.2400  0.2942 -0.3632
  905MPD2    H513316   3.188   0.120  12.698  0.3521  2.2441 -1.9127
  905MPD2    N113317   2.913   0.355  13.161  0.8002 -0.3710 -0.7639
  905MPD2    H713318   2.827   0.343  13.213  0.6865  2.4312 -0.3114
  906MPD2     C13319   0.549   0.796  11.335 -0.6084 -0.0887  0.7591
  906MPD2    C113320   0.588   0.721  11.222 -0.1364 -0.0814  0.0055
  906MPD2    C213321   0.511   0.612  11.192  0.3754  0.1730  0.2637
  906MPD2    C313322   0.407   0.569  11.275  0.2528  0.3210 -0.4712
  906MPD2    C413323   0.367   0.649  11.377  0.0866  0.1187  0.2844
  906MPD2    C513324   0.435   0.767  11.405 -0.1544 -0.1633  0.0194
  906MPD2     H13325   0.536   0.553  11.104  1.1947 -1.6881  1.7365
  906MPD2    H113326   0.286   0.624  11.445 -0.7763 -0.3521 -0.9209
  906MPD2    H213327   0.606   0.888  11.338 -1.2306  0.2664  1.7483
  906MPD2    H313328   0.405   0.836  11.483 -1.5199 -0.9897  0.2174
  906MPD2     N13329   0.323   0.458  11.234  0.1900 -0.0687  0.5886
  906MPD2    H513330   0.242   0.433  11.291 -0.1516  0.1570  0.1978
  906MPD2    N113331   0.696   0.758  11.136 -0.3390 -0.4478 -0.3968
  906MPD2    H713332   0.713   0.698  11.057 -0.1699 -1.5227  0.4603
  907MPD2     C13333   3.854   4.476  15.395  0.3466  0.2440 -0.0681
  907MPD2    C113334   3.943   4.383  15.342 -0.0052  0.1779  0.3587
  907MPD2    C213335   4.046   4.331  15.419 -0.1581  0.3656  0.2146
  907MPD2    C313336   4.064   4.373  15.550  0.7728 -0.4134  0.1857
  907MPD2    C413337   3.974   4.462  15.601  0.5488  0.4386 -0.5210
  907MPD2    C513338   3.878   4.524  15.522  0.1742 -0.0571 -0.2979
  907MPD2     H13339   4.110   4.258  15.371 -1.3653 -0.6156  0.0857
  907MPD2    H113340   3.971   4.491  15.705  0.2019 -0.2698 -0.3332
  907MPD2    H213341   3.769   4.520  15.345  0.7187  0.0262 -0.9006
  907MPD2    H313342   3.805   4.591  15.565  0.4095 -0.6377  1.0172
  907MPD2     N13343   4.159   4.308  15.636 -0.8366 -0.1592 -0.5745
  907MPD2    H513344   4.206   4.225  15.603  3.2093  0.9735  2.3186
  907MPD2    N113345   3.936   4.333  15.207 -0.1543 -0.2147  0.2750
  907MPD2    H713346   3.990   4.252  15.183 -0.1941 -0.3188  0.5331
  908MPD2     C13347   2.351   1.311   9.436  0.1770 -0.4806 -0.2250
  908MPD2    C113348   2.277   1.231   9.517  0.0599 -0.1814  0.4509
  908MPD2    C213349   2.239   1.289   9.646  0.7103 -0.9807  0.6558
  908MPD2    C313350   2.277   1.417   9.686 -1.0086 -0.0044 -0.2743
  908MPD2    C413351   2.339   1.497   9.594 -0.5155 -0.5018 -0.4601
  908MPD2    C513352   2.384   1.445   9.469 -0.2648  0.2116  0.2221
  908MPD2     H13353   2.170   1.227   9.700  0.1655 -2.2221 -1.4600
  908MPD2    H113354   2.381   1.595   9.616  2.8343 -1.7225 -1.4595
  908MPD2    H213355   2.392   1.267   9.346  0.1426  0.2363 -0.5875
  908MPD2    H313356   2.425   1.513   9.396 -1.0877  0.8181  0.3324
  908MPD2     N13357   2.245   1.480   9.806 -0.5354  0.0262  0.5258
  908MPD2    H513358   2.297   1.567   9.812 -0.2676 -0.0846 -0.1214
  908MPD2    N113359   2.252   1.098   9.478 -0.3563 -0.1768 -0.1587
  908MPD2    H713360   2.307   1.071   9.397 -1.6719 -1.5814 -0.5861
  909MPD2     C13361   2.515   3.522  10.674  0.0638  0.1765 -0.3649
  909MPD2    C113362   2.602   3.594  10.753 -0.2321  0.1570 -1.1181
  909MPD2    C213363   2.583   3.602  10.894  0.2076  0.2258 -0.0982
  909MPD2    C313364   2.482   3.542  10.955  0.3579  0.2436  0.5077
  909MPD2    C413365   2.395   3.473  10.879  0.1017  0.4966 -0.0766
  909MPD2    C513366   2.412   3.465  10.742  0.3772  0.3399  0.1290
  909MPD2     H13367   2.646   3.672  10.947  1.1878 -0.0680 -0.8796
  909MPD2    H113368   2.306   3.426  10.920 -0.6638  1.5163 -0.5918
  909MPD2    H213369   2.519   3.517  10.566 -1.4956 -2.4392 -0.3057
  909MPD2    H313370   2.332   3.410  10.694 -1.5544  3.5341 -0.3060
  909MPD2     N13371   2.468   3.554  11.096 -0.2378  0.4188 -0.6362
  909MPD2    H513372   2.550   3.584  11.148 -1.5344  0.1788  1.5510
  909MPD2    N113373   2.707   3.679  10.701  0.7306  0.3846  0.2879
  909MPD2    H713374   2.766   3.729  10.768 -0.5075  1.0028  0.9096
  910MPD2     C13375   3.687   0.336  15.958 -0.2271  0.1093  0.1537
  910MPD2    C113376   3.717   0.225  15.880 -0.2368  1.0357 -0.9063
  910MPD2    C213377   3.656   0.212  15.758 -0.4978 -0.1309  0.1580
  910MPD2    C313378   3.581   0.313  15.706 -0.0739 -0.1710  0.2440
  910MPD2    C413379   3.571   0.433  15.775  1.0610 -0.2415  0.7449
  910MPD2    C513380   3.623   0.441  15.902 -0.2324  0.2075 -0.4317
  910MPD2     H13381   3.676   0.121  15.702  0.8143  0.8681 -1.0088
  910MPD2    H113382   3.519   0.519  15.734  1.2841 -0.3912  0.1585
  910MPD2    H213383   3.735   0.355  16.054 -1.6905  0.2631  0.8550
  910MPD2    H313384   3.622   0.536  15.954  0.8458  0.1933 -0.3676
  910MPD2     N13385   3.501   0.315  15.590  0.0164 -0.0644 -0.3364
  910MPD2    H513386   3.445   0.398  15.572  0.2430  0.4540  1.4280
  910MPD2    N113387   3.799   0.123  15.950 -0.7093  0.4946  0.3815
  910MPD2    H713388   3.841   0.145  16.039 -0.5288  2.5647 -0.2259
  911MPD2     C13389   1.430   0.773  15.896  0.0054 -0.0670 -0.4937
  911MPD2    C113390   1.463   0.809  16.020 -0.1038  0.2481 -0.2062
  911MPD2    C213391   1.387   0.907  16.086 -0.4423  0.1520  0.2857
  911MPD2    C313392   1.273   0.955  16.025  0.8696  0.3446 -0.3941
  911MPD2    C413393   1.238   0.899  15.904 -0.0244 -0.4331  0.1677
  911MPD2    C513394   1.316   0.811  15.833  0.0462 -0.2162  0.3061
  911MPD2     H13395   1.419   0.955  16.177  1.0397  0.0654 -0.1910
  911MPD2    H113396   1.148   0.931  15.852  1.4407  0.6436 -1.7227
  911MPD2    H213397   1.499   0.712  15.840  2.2161  1.4747  0.5438
  911MPD2    H313398   1.294   0.773  15.734 -0.0402 -2.3688  1.1554
  911MPD2     N13399   1.193   1.066  16.069 -0.2611 -0.6368 -0.3605
  911MPD2    H513400   1.111   1.092  16.016  1.1942  2.2202 -1.1774
  911MPD2    N113401   1.589   0.754  16.077  0.8237 -0.5474  0.2966
  911MPD2    H713402   1.637   0.695  16.009  1.3969 -0.0860  0.3019
  912MPD2     C13403   0.924   1.205  15.592 -0.4689  0.0868 -0.0335
  912MPD2    C113404   0.904   1.168  15.725 -0.2257  0.8072 -0.3700
  912MPD2    C213405   0.907   1.030  15.755 -0.3354  0.5236 -0.6967
  912MPD2    C313406   0.921   0.931  15.660 -0.4642 -0.0795  0.1614
  912MPD2    C413407   0.945   0.976  15.529 -0.1690  0.3506  0.5625
  912MPD2    C513408   0.941   1.107  15.492 -0.1659 -0.0118  0.0111
  912MPD2     H13409   0.900   0.986  15.854  3.2845  0.5298 -0.4184
  912MPD2    H113410   0.957   0.901  15.451 -0.9166  0.0063  0.7783
  912MPD2    H213411   0.927   1.309  15.560 -2.3434 -0.1102 -0.8114
  912MPD2    H313412   0.945   1.125  15.385 -1.8927 -0.5548 -0.1336
  912MPD2     N13413   0.926   0.798  15.703  1.0609 -0.2830  0.0096
  912MPD2    H513414   0.899   0.784  15.800  2.0181 -0.1246  0.2980
  912MPD2    N113415   0.898   1.264  15.829 -0.0625  0.0480  0.3512
  912MPD2    H713416   0.923   1.361  15.819 -0.2881  0.2267  1.4484
  913MPD2     C13417   1.521   2.959  10.391 -0.2283 -0.7452 -0.2699
  913MPD2    C113418   1.621   2.966  10.476 -0.2334  0.4341 -0.1926
  913MPD2    C213419   1.735   3.038  10.452  0.9337  0.5221 -0.1895
  913MPD2    C313420   1.758   3.074  10.318 -0.0363  0.0277  0.1167
  913MPD2    C413421   1.659   3.054  10.222 -0.6548  0.0955 -0.0875
  913MPD2    C513422   1.535   3.004  10.262 -0.0351  0.1245  0.8719
  913MPD2     H13423   1.811   3.040  10.530  1.4157 -2.5539 -0.6054
  913MPD2    H113424   1.672   3.070  10.116 -2.3441 -0.7217 -0.4097
  913MPD2    H213425   1.431   2.902  10.413 -1.1859  0.4494 -1.0748
  913MPD2    H313426   1.450   2.976  10.201  1.4198  1.7664 -1.9504
  913MPD2     N13427   1.872   3.132  10.265  0.5402 -0.2338  0.3849
  913MPD2    H513428   1.873   3.127  10.164  0.8527 -0.0495  0.3775
  913MPD2    N113429   1.612   2.881  10.593 -0.3599 -0.1605  0.1219
  913MPD2    H713430   1.530   2.823  10.604 -0.8133  0.6636  1.1081
  914MPD2     C13431   0.085   3.079  11.898  0.3344 -0.4105 -0.4936
  914MPD2    C113432   0.017   3.069  12.023  0.1565 -0.6289 -0.3008
  914MPD2    C213433   4.719   2.947  12.069  0.8781  0.0397  0.1865
  914MPD2    C313434   4.737   2.838  11.986  0.2329  0.3168  0.3263
  914MPD2    C413435   0.064   2.851  11.864  0.0603 -0.4965 -0.7493
  914MPD2    C513436   0.102   2.975  11.820  0.6124 -0.5911 -0.6225
  914MPD2     H13437   4.662   2.931  12.160 -1.2487  1.6074 -0.8643
  914MPD2    H113438   0.085   2.765  11.802 -2.4189 -0.3837 -1.7508
  914MPD2    H213439   0.125   3.175  11.868  0.4702  0.0374  1.1191
  914MPD2    H313440   0.158   2.983  11.728 -2.3368  0.4408 -2.3461
  914MPD2     N13441   4.690   2.710  12.028  0.2754  0.3391  0.3570
  914MPD2    H513442   4.670   2.707  12.127  0.0740 -0.4595  0.2935
  914MPD2    N113443   0.002   3.189  12.094 -0.2848 -0.1412 -0.4885
  914MPD2    H713444   0.046   3.271  12.052 -1.4625  1.0855  0.6847
  915MPD2     C13445   2.854   2.287  15.496  0.0867  0.0926  0.0889
  915MPD2    C113446   2.717   2.318  15.491  0.0574 -0.0289 -0.3242
  915MPD2    C213447   2.663   2.348  15.619 -0.3166  0.3309 -0.0149
  915MPD2    C313448   2.747   2.364  15.732 -0.0192 -0.6301  0.4098
  915MPD2    C413449   2.875   2.345  15.725 -0.8936 -0.6280  0.1465
  915MPD2    C513450   2.931   2.309  15.609  0.0786 -0.0072  0.5171
  915MPD2     H13451   2.557   2.372  15.623 -0.6557 -1.5409  2.4217
  915MPD2    H113452   2.947   2.334  15.806 -1.1299  2.1510  0.7518
  915MPD2    H213453   2.900   2.259  15.402  0.3898  1.7132 -0.2506
  915MPD2    H313454   3.034   2.280  15.593  0.7185  2.8715 -0.5990
  915MPD2     N13455   2.684   2.392  15.856 -0.5609 -0.5649 -0.3007
  915MPD2    H513456   2.584   2.406  15.851 -0.1361  1.4659 -3.9423
  915MPD2    N113457   2.648   2.330  15.368  0.1578 -0.2992  0.0061
  915MPD2    H713458   2.704   2.330  15.283  1.1211 -2.5510  0.6418
  916MPD2     C13459   0.695   0.478  15.516  0.8328  0.4846  0.1578
  916MPD2    C113460   0.703   0.394  15.622  0.2160  0.2199  0.3664
  916MPD2    C213461   0.815   0.311  15.631  0.7437 -0.0325 -0.2860
  916MPD2    C313462   0.917   0.312  15.543 -0.6819  0.1245  0.7967
  916MPD2    C413463   0.904   0.392  15.435 -0.4646 -0.3384  0.1153
  916MPD2    C513464   0.796   0.476  15.427 -0.0106  0.3407 -0.1915
  916MPD2     H13465   0.820   0.262  15.728 -1.7772 -0.9684 -0.6403
  916MPD2    H113466   0.973   0.393  15.352 -0.8376  1.2834 -0.1818
  916MPD2    H213467   0.612   0.548  15.511  0.5879  0.1432 -0.6535
  916MPD2    H313468   0.795   0.534  15.335 -0.5155  0.4688 -0.1006
  916MPD2     N13469   1.042   0.247  15.574  0.4600 -0.1767  0.5276
  916MPD2    H513470   1.051   0.208  15.667  1.1079 -1.8093 -0.2183
  916MPD2    N113471   0.597   0.415  15.712 -0.2197 -0.2801 -0.0106
  916MPD2    H713472   0.525   0.482  15.688 -1.6953 -1.6113  0.7099
  917MPD2     C13473   1.152   3.169  11.881  0.6510  0.1094  0.1052
  917MPD2    C113474   1.077   3.188  11.773 -0.6691  0.3786  0.1021
  917MPD2    C213475   1.132   3.241  11.656  0.4188 -0.2104 -0.4332
  917MPD2    C313476   1.261   3.289  11.662  1.1845  0.2930 -0.4002
  917MPD2    C413477   1.335   3.264  11.771 -0.6433 -0.4708  0.4733
  917MPD2    C513478   1.285   3.201  11.878  0.0937  0.3255 -0.2251
  917MPD2     H13479   1.063   3.281  11.583  0.2433  0.2454 -0.0216
  917MPD2    H113480   1.437   3.300  11.777  0.5408 -3.6196 -0.6569
  917MPD2    H213481   1.109   3.139  11.976  2.4490  0.0662  0.9080
  917MPD2    H313482   1.353   3.202  11.963  0.7356  0.7638 -0.7443
  917MPD2     N13483   1.326   3.368  11.564 -0.5905  0.4056  0.8730
  917MPD2    H513484   1.426   3.348  11.565 -1.2724 -2.9855  2.2555
  917MPD2    N113485   0.938   3.160  11.792 -0.2340 -0.0782  0.3755
  917MPD2    H713486   0.909   3.122  11.882  1.8366 -1.2848  0.5325
  918MPD2     C13487   0.618   3.467  12.429 -0.5245  0.3441 -0.3806
  918MPD2    C113488   0.734   3.417  12.373 -0.2716 -0.9311 -0.9163
  918MPD2    C213489   0.726   3.325  12.276  0.5240  0.3586 -0.0909
  918MPD2    C313490   0.596   3.280  12.236  0.6346  0.0898 -0.3908
  918MPD2    C413491   0.484   3.318  12.306  0.7148  0.2826 -0.2824
  918MPD2    C513492   0.497   3.410  12.405 -0.2059  0.2317 -0.3737
  918MPD2     H13493   0.815   3.292  12.223  0.7414  1.2277 -0.2551
  918MPD2    H113494   0.386   3.285  12.275 -0.6093  1.7711  2.3200
  918MPD2    H213495   0.626   3.552  12.497 -0.9189 -0.7925  1.0805
  918MPD2    H313496   0.406   3.454  12.445  0.2998  1.9109 -1.0309
  918MPD2     N13497   0.607   3.195  12.120  0.6219  0.0587 -0.2194
  918MPD2    H513498   0.704   3.169  12.102  0.9509  0.3210  1.2009
  918MPD2    N113499   0.859   3.472  12.395 -0.5829 -0.0671  0.2033
  918MPD2    H713500   0.933   3.445  12.332 -1.6267  0.2647 -1.1705
  919MPD2     C13501   1.360   2.808  11.548 -0.2798  0.1279  0.3998
  919MPD2    C113502   1.319   2.687  11.488 -0.1473 -0.4462  0.5705
  919MPD2    C213503   1.277   2.690  11.353 -0.5607  0.0995  0.3606
  919MPD2    C313504   1.277   2.810  11.283 -0.8642  0.3123 -0.4052
  919MPD2    C413505   1.310   2.929  11.347 -0.0786 -0.1290  0.7468
  919MPD2    C513506   1.354   2.928  11.478 -0.3059 -0.3522  0.2923
  919MPD2     H13507   1.246   2.595  11.313 -1.1822  0.6809 -0.5374
  919MPD2    H113508   1.307   3.027  11.300 -1.2485 -2.0896 -3.3134
  919MPD2    H213509   1.415   2.808  11.641  1.4757  0.8452 -0.6369
  919MPD2    H313510   1.398   3.016  11.523 -2.1470  0.5685  0.2841
  919MPD2     N13511   1.226   2.801  11.151  0.0622  0.4267  0.2023
  919MPD2    H513512   1.184   2.711  11.131  0.8982 -0.0129  0.4366
  919MPD2    N113513   1.338   2.566  11.553 -0.6658  0.0384 -0.0061
  919MPD2    H713514   1.337   2.480  11.498  0.8816  1.4950 -2.3470
  920MPD2     C13515   1.049   3.143  10.137  0.8008  0.3554 -0.0726
  920MPD2    C113516   1.011   3.006  10.156  0.2265 -0.7248 -0.8831
  920MPD2    C213517   1.046   2.947  10.280  0.2648  0.0084 -0.5321
  920MPD2    C313518   1.131   3.008  10.369  0.4477  0.4789 -0.4784
  920MPD2    C413519   1.174   3.139  10.353 -0.6162 -0.7385  0.2915
  920MPD2    C513520   1.127   3.201  10.234  0.1488  0.5428  1.4054
  920MPD2     H13521   1.014   2.849  10.311  2.6554  0.0355  2.0657
  920MPD2    H113522   1.235   3.191  10.426 -0.1227 -0.7420 -0.1157
  920MPD2    H213523   1.015   3.201  10.053 -1.8490  1.6290  1.8655
  920MPD2    H313524   1.155   3.305  10.221  0.3909  0.4240  0.9758
  920MPD2     N13525   1.152   2.943  10.484 -0.1892  0.1763  0.1477
  920MPD2    H513526   1.105   2.853  10.487  0.9374 -0.3723  1.2068
  920MPD2    N113527   0.915   2.935  10.078 -0.4216  0.3407 -0.1218
  920MPD2    H713528   0.876   2.850  10.118  3.1676 -1.5673 -0.6227
  921MPD2     C13529   2.279   1.185  16.493 -0.0903 -0.2329 -0.2258
  921MPD2    C113530   2.324   1.065  16.451 -0.0186  0.2130 -0.7211
  921MPD2    C213531   2.237   0.956  16.448  0.4158  0.1644  0.1806
  921MPD2    C313532   2.107   0.974  16.480  0.0188 -0.6452  0.6160
  921MPD2    C413533   2.067   1.096  16.518  0.5086 -0.0432  0.2779
  921MPD2    C513534   2.151   1.201  16.522  0.3831 -0.7492  0.2106
  921MPD2     H13535   2.272   0.859  16.417  1.0381  0.4349  0.0287
  921MPD2    H113536   1.967   1.109  16.557  0.4630  0.7054 -0.0809
  921MPD2    H213537   2.347   1.268  16.505 -0.4565  0.1477 -0.7487
  921MPD2    H313538   2.113   1.286  16.577 -2.1625 -0.5696 -1.8304
  921MPD2     N13539   2.016   0.867  16.477 -0.5087 -0.3333  0.6018
  921MPD2    H513540   1.922   0.882  16.513  0.1852 -1.5071  2.8458
  921MPD2    N113541   2.456   1.057  16.412  0.4364 -0.2600  0.6703
  921MPD2    H713542   2.507   1.143  16.396 -0.5812  0.3017  0.4163
  922MPD2     C13543   3.443   4.204  16.910  0.6938 -0.5878  0.2471
  922MPD2    C113544   3.503   4.275  17.019  0.1891 -0.3264  0.4980
  922MPD2    C213545   3.532   4.202  17.131 -0.4388 -0.1828 -0.6245
  922MPD2    C313546   3.478   4.076  17.153  0.0006  0.4616  0.0144
  922MPD2    C413547   3.418   4.002  17.048  0.0314 -0.6234 -0.5725
  922MPD2    C513548   3.395   4.072  16.933 -0.1459  0.6047 -0.1110
  922MPD2     H13549   3.585   4.247  17.214 -0.1983 -0.3120 -0.7095
  922MPD2    H113550   3.375   3.903  17.062 -0.6436  0.0031  1.6519
  922MPD2    H213551   3.410   4.252  16.819  0.5093 -2.7460 -0.8133
  922MPD2    H313552   3.337   4.030  16.852  0.8168  1.5986 -1.2972
  922MPD2     N13553   3.512   4.026  17.279  0.3260 -0.2124 -0.4850
  922MPD2    H513554   3.542   4.089  17.353  0.3664  1.9629 -2.3293
  922MPD2    N113555   3.546   4.412  17.019 -0.6049 -0.0358 -0.3790
  922MPD2    H713556   3.590   4.437  17.107  1.7710 -2.4356 -0.8721
  923MPD2     C13557   4.701   1.253   8.827 -0.3224  0.1369 -0.0588
  923MPD2    C113558   4.681   1.353   8.917 -0.1980 -0.4626  0.5641
  923MPD2    C213559   0.039   1.365   9.014 -0.5174 -0.1420  0.4530
  923MPD2    C313560   0.132   1.262   9.038  0.5551 -0.2232 -0.0657
  923MPD2    C413561   0.131   1.146   8.964  0.4844 -0.0566 -0.8491
  923MPD2    C513562   0.047   1.148   8.855  0.8635 -0.2121 -0.1046
  923MPD2     H13563   0.031   1.448   9.083 -0.2673  0.2772 -0.0255
  923MPD2    H113564   0.202   1.066   8.981 -1.3815 -1.6229 -0.4252
  923MPD2    H213565   4.639   1.252   8.738 -1.9238 -2.7662  1.1009
  923MPD2    H313566   0.058   1.063   8.789 -1.1393  0.2612 -1.0408
  923MPD2     N13567   0.217   1.263   9.143 -0.1339 -0.3639  0.1634
  923MPD2    H513568   0.278   1.183   9.155  1.9185  0.9062 -1.6018
  923MPD2    N113569   4.577   1.453   8.896 -0.2135  0.6347 -0.2271
  923MPD2    H713570   4.518   1.435   8.815  0.6981  2.4479 -1.3111
  924MPD2     C13571   4.486   3.583  15.951  0.0124 -0.0494 -1.0299
  924MPD2    C113572   4.561   3.680  16.009 -0.5669  0.9441 -0.2330
  924MPD2    C213573   4.560   3.809  15.962 -0.4004 -0.1377 -0.3895
  924MPD2    C313574   4.478   3.839  15.854  0.0736  0.1405 -0.3994
  924MPD2    C413575   4.398   3.737  15.793 -0.1766 -0.2817  0.1069
  924MPD2    C513576   4.414   3.608  15.837 -0.4298  0.0113  0.5749
  924MPD2     H13577   4.627   3.887  15.997 -0.5262  0.4482 -1.4433
  924MPD2    H113578   4.340   3.770  15.707  0.3558 -1.9055 -0.8676
  924MPD2    H213579   4.476   3.481  15.988  0.3278 -0.1591 -1.2477
  924MPD2    H313580   4.352   3.532  15.792  0.5418  0.1939 -1.0799
  924MPD2     N13581   4.471   3.969  15.804  0.6071 -0.0222  0.6886
  924MPD2    H513582   4.387   3.989  15.750  2.2593  0.5583 -1.6699
  924MPD2    N113583   4.619   3.637  16.131 -0.0028  0.7165  0.2412
  924MPD2    H713584   4.574   3.554  16.167 -0.2694  1.3380  1.3381
  925MPD2     C13585   3.178   1.872  14.566  0.3274 -0.5331 -0.5952
  925MPD2    C113586   3.133   1.755  14.520  0.1313  0.1554  1.0373
  925MPD2    C213587   3.052   1.672  14.599  0.3859  0.3670  0.0867
  925MPD2    C313588   3.004   1.717  14.720  0.3412 -0.3265  0.2226
  925MPD2    C413589   3.044   1.848  14.761 -0.1419 -1.3565 -0.2724
  925MPD2    C513590   3.134   1.924  14.683  0.1072  0.0170  0.2169
  925MPD2     H13591   2.996   1.586  14.563 -0.9858  0.9925  0.7251
  925MPD2    H113592   3.017   1.884  14.859  3.1489  1.3103 -0.3490
  925MPD2    H213593   3.253   1.923  14.507  2.7669  0.2611  3.1813
  925MPD2    H313594   3.168   2.023  14.712  1.2035 -0.0040 -1.0274
  925MPD2     N13595   2.922   1.631  14.804 -0.0993 -0.2647  0.0848
  925MPD2    H513596   2.921   1.534  14.776 -0.6778 -0.4305  0.6619
  925MPD2    N113597   3.146   1.719  14.384  0.6263 -0.4120 -0.4566
  925MPD2    H713598   3.100   1.631  14.364 -0.4257  0.5958 -2.4629
  926MPD2     C13599   2.037   0.100  12.938 -0.4543 -0.4669  0.4900
  926MPD2    C113600   1.973   0.215  12.899  0.3575 -0.4689  0.0027
  926MPD2    C213601   2.049   0.319  12.847 -0.3176  0.3621 -0.2197
  926MPD2    C313602   2.192   0.315  12.849 -0.8580  0.3012 -0.3160
  926MPD2    C413603   2.254   0.207  12.893 -0.7369 -0.2776 -0.2706
  926MPD2    C513604   2.181   0.099  12.929  0.0136  0.1972  0.3712
  926MPD2     H13605   1.989   0.407  12.832 -0.4564  0.3382  0.1930
  926MPD2    H113606   2.362   0.202  12.884 -1.1652 -3.1427 -3.5747
  926MPD2    H213607   1.988   0.004  12.946 -0.6850 -0.2108  2.0396
  926MPD2    H313608   2.242   0.012  12.948 -1.0663 -0.4073  1.0616
  926MPD2     N13609   2.271   0.422  12.804  0.0057  0.6833  0.3261
  926MPD2    H513610   2.371   0.404  12.810  0.0168  0.0288 -1.7605
  926MPD2    N113611   1.826   0.225  12.903  0.5609 -0.0665 -0.7709
  926MPD2    H713612   1.784   0.308  12.862 -0.4801  0.2936  1.0273
  927MPD2     C13613   1.935   2.558  17.450  0.4151  0.5328  0.5757
  927MPD2    C113614   1.862   2.450  17.390 -0.5539 -0.6657  0.1512
  927MPD2    C213615   1.884   2.424  17.251 -0.2329 -0.0546  0.6068
  927MPD2    C313616   1.980   2.491  17.185 -0.4097 -0.5816 -0.4017
  927MPD2    C413617   2.037   2.601  17.240  0.3658  0.0492 -0.4095
  927MPD2    C513618   2.017   2.630  17.372 -0.3336 -0.0057 -0.7521
  927MPD2     H13619   1.833   2.340  17.206  0.8004 -0.0161 -0.6463
  927MPD2    H113620   2.114   2.654  17.185  0.7233  0.9598  0.9510
  927MPD2    H213621   1.913   2.576  17.554 -1.7194 -3.4466  0.7918
  927MPD2    H313622   2.071   2.713  17.418  0.1913  0.0194 -1.4131
  927MPD2     N13623   2.005   2.451  17.051  0.0645 -0.3306 -0.5534
  927MPD2    H513624   1.943   2.377  17.018 -2.4224  0.6146  1.9588
  927MPD2    N113625   1.782   2.375  17.482 -0.2427  0.1455 -0.1435
  927MPD2    H713626   1.772   2.419  17.574 -0.0919 -2.6056  1.1770
  928MPD2     C13627   4.017   0.613   0.525  0.4918  0.1435 -0.3578
  928MPD2    C113628   3.986   0.750   0.516 -0.2825  0.3683 -1.4097
  928MPD2    C213629   4.063   0.835   0.430  0.3891 -0.3264 -0.3274
  928MPD2    C313630   4.156   0.777   0.349  0.2548  0.6760  0.3385
  928MPD2    C413631   4.171   0.638   0.340 -0.0818  0.5684  0.6404
  928MPD2    C513632   4.100   0.561   0.431 -0.2771 -0.0619 -0.4554
  928MPD2     H13633   4.044   0.942   0.431 -0.9963 -0.5895  1.1460
  928MPD2    H113634   4.236   0.599   0.263  0.2677  0.0989  1.1674
  928MPD2    H213635   3.961   0.553   0.596  1.6152 -0.1384  0.3016
  928MPD2    H313636   4.120   0.454   0.433  0.6842  0.1545  0.8741
  928MPD2     N13637   4.244   0.849   0.264 -0.6946  0.6231  0.2923
  928MPD2    H513638   4.304   0.795   0.202 -0.4377 -1.6811  2.5667
  928MPD2    N113639   3.880   0.799   0.596  0.1316 -0.1164  0.0855
  928MPD2    H713640   3.856   0.737   0.673 -1.7471 -0.0041 -0.4116
  929MPD2     C13641   0.186   1.160   9.672  0.6454  0.7237 -0.7444
  929MPD2    C113642   0.128   1.284   9.697 -0.4118  0.2564  0.4483
  929MPD2    C213643   0.050   1.340   9.600  0.2198 -1.0743  0.7877
  929MPD2    C313644   0.009   1.271   9.486 -0.2404  0.1428 -0.9204
  929MPD2    C413645   0.065   1.152   9.462  0.6547  0.6583  0.9095
  929MPD2    C513646   0.156   1.106   9.549  0.2808 -0.1374  0.6475
  929MPD2     H13647   4.721   1.415   9.635 -1.7783 -1.4452 -2.3672
  929MPD2    H113648   0.047   1.095   9.371  0.4198  2.5382 -0.2165
  929MPD2    H213649   0.252   1.105   9.738 -0.0590  1.0740  0.2466
  929MPD2    H313650   0.203   1.009   9.535 -3.3194 -1.9488  1.2466
  929MPD2     N13651   4.633   1.304   9.414 -0.3018 -0.1240  0.7209
  929MPD2    H513652   4.595   1.243   9.341  1.7321 -1.2353  0.6057
  929MPD2    N113653   0.129   1.340   9.822  0.3680 -0.4387 -0.0844
  929MPD2    H713654   0.080   1.429   9.826 -0.5598 -0.9418 -0.3313
  930MPD2     C13655   1.160   3.079  14.043 -0.6430  0.6893 -0.4985
  930MPD2    C113656   1.275   3.009  14.020 -1.1518  0.0695 -0.3217
  930MPD2    C213657   1.258   2.868  14.009 -0.3983  0.4416 -0.3007
  930MPD2    C313658   1.131   2.804  13.998 -0.0862 -0.8830  0.3324
  930MPD2    C413659   1.021   2.880  14.012  0.5201  0.4972 -0.0435
  930MPD2    C513660   1.031   3.018  14.027 -0.2042 -0.1553  0.0919
  930MPD2     H13661   1.343   2.802  14.024 -2.0689 -1.7490 -0.4501
  930MPD2    H113662   0.926   2.829  14.007  0.7819  0.0338 -0.2607
  930MPD2    H213663   1.156   3.185  14.068 -0.6190  0.0886  2.1243
  930MPD2    H313664   0.937   3.072  14.034 -1.2517 -1.6665 -2.2335
  930MPD2     N13665   1.113   2.665  13.961  0.1593 -0.7104  1.0114
  930MPD2    H513666   1.017   2.633  13.958  0.4339 -1.6092  1.6672
  930MPD2    N113667   1.401   3.079  14.026  0.3778  0.0509  0.6941
  930MPD2    H713668   1.394   3.175  14.057 -0.4457  0.2969 -0.2449
  931MPD2     C13669   1.790   1.654  17.746  0.4520  0.3311  0.9892
  931MPD2    C113670   1.706   1.741   0.055 -0.4080 -0.3830  0.6366
  931MPD2    C213671   1.652   1.699   0.172 -0.4555  0.2726 -0.4658
  931MPD2    C313672   1.699   1.586   0.236  0.5013  0.9106 -0.6140
  931MPD2    C413673   1.793   1.507   0.168 -0.8666  0.2889  0.4067
  931MPD2    C513674   1.837   1.540   0.045 -0.3105  0.6447  0.6753
  931MPD2     H13675   1.618   1.773   0.244 -0.2385  1.3360 -1.4549
  931MPD2    H113676   1.840   1.421   0.215 -2.7052 -1.3911 -0.8048
  931MPD2    H213677   1.838   1.682  17.653  0.1930 -0.1291  0.7195
  931MPD2    H313678   1.921   1.485   0.003 -1.4215 -0.0609 -0.6257
  931MPD2     N13679   1.658   1.559   0.370 -0.4145 -0.2081  0.1088
  931MPD2    H513680   1.710   1.485   0.417  1.8611  0.8857 -0.7066
  931MPD2    N113681   1.681   1.871  17.757 -0.2649 -0.0448  0.6983
  931MPD2    H713682   1.711   1.893  17.662 -1.8760  0.1729  0.2337
  932MPD2     C13683   3.416   2.200  10.468 -0.5542  0.1238  0.4558
  932MPD2    C113684   3.449   2.214  10.598  0.2209 -0.0380  0.2459
  932MPD2    C213685   3.443   2.103  10.682  0.5283 -0.2354  0.4623
  932MPD2    C313686   3.406   1.980  10.625  0.1682  0.4461 -0.1505
  932MPD2    C413687   3.353   1.982  10.501  0.1034  0.1594  0.4459
  932MPD2    C513688   3.356   2.093  10.423 -0.2329  0.1890 -0.3585
  932MPD2     H13689   3.472   2.110  10.786  1.5351 -1.2077  0.2399
  932MPD2    H113690   3.315   1.888  10.464  0.9706  1.2613 -3.1851
  932MPD2    H213691   3.414   2.290  10.408 -1.6920 -1.0042 -1.2052
  932MPD2    H313692   3.319   2.100  10.322 -0.7300  0.4876 -0.1551
  932MPD2     N13693   3.411   1.857  10.693  0.0384  0.0116 -0.8829
  932MPD2    H513694   3.389   1.771  10.643  0.2628 -0.3768 -0.3224
  932MPD2    N113695   3.490   2.337  10.656  0.1860  0.5592  0.5366
  932MPD2    H713696   3.494   2.336  10.757  1.1045 -1.6663  0.4748
  933MPD2     C13697   3.296   1.491   0.832  0.9058  0.4255  0.5086
  933MPD2    C113698   3.398   1.451   0.746 -0.0957 -0.0383 -0.0239
  933MPD2    C213699   3.433   1.535   0.638 -0.1545  0.0137  0.5002
  933MPD2    C313700   3.357   1.647   0.609 -0.1919  0.0129  0.1616
  933MPD2    C413701   3.246   1.673   0.684  0.1281 -0.2997  0.2625
  933MPD2    C513702   3.226   1.603   0.798 -0.9087 -0.5448  0.5096
  933MPD2     H13703   3.518   1.510   0.575 -0.1612 -1.2302  0.9711
  933MPD2    H113704   3.165   1.744   0.669 -0.6679 -1.0905  0.7835
  933MPD2    H213705   3.267   1.435   0.920  0.0566  1.0084  0.6010
  933MPD2    H313706   3.141   1.629   0.860 -0.4830 -0.6677  1.1480
  933MPD2     N13707   3.406   1.727   0.501  0.8843  0.4254  0.1267
  933MPD2    H513708   3.491   1.694   0.458  0.9559  0.7921 -0.0165
  933MPD2    N113709   3.481   1.339   0.781 -0.4156 -0.4646 -0.5825
  933MPD2    H713710   3.449   1.292   0.865 -0.9238 -1.3745 -1.2760
  934MPD2     C13711   0.850   3.855   1.286 -0.7785  0.4135 -0.6099
  934MPD2    C113712   0.899   3.750   1.226 -0.3289 -0.1269  0.5237
  934MPD2    C213713   0.827   3.641   1.174 -0.4094 -0.2920  0.2526
  934MPD2    C313714   0.689   3.648   1.193 -0.2852  0.5901  0.3718
  934MPD2    C413715   0.639   3.759   1.256 -0.1703  0.4214 -0.4503
  934MPD2    C513716   0.719   3.866   1.305 -0.1125  0.1288  0.7552
  934MPD2     H13717   0.874   3.557   1.126 -1.4951 -0.8442  0.1505
  934MPD2    H113718   0.534   3.767   1.279 -0.2151  0.2357 -0.5953
  934MPD2    H213719   0.913   3.937   1.316 -0.0196 -1.4014  2.7979
  934MPD2    H313720   0.682   3.952   1.361  1.1871 -0.0518  1.8899
  934MPD2     N13721   0.599   3.542   1.166  0.6767  0.6054  0.0273
  934MPD2    H513722   0.499   3.554   1.181  0.4678 -1.4259  0.3503
  934MPD2    N113723   1.034   3.737   1.212  0.9817 -0.0776 -0.5140
  934MPD2    H713724   1.068   3.645   1.184 -1.0046 -1.4055  1.4247
  935MPD2     C13725   0.593   2.579   1.328  0.4588  0.3485 -0.1279
  935MPD2    C113726   0.521   2.596   1.209 -0.1601 -0.5904  0.2133
  935MPD2    C213727   0.474   2.718   1.183  0.4404 -0.3100  0.0215
  935MPD2    C313728   0.500   2.829   1.266  0.1826 -0.8976  0.4070
  935MPD2    C413729   0.574   2.811   1.381 -0.0880  0.2177  0.1463
  935MPD2    C513730   0.619   2.685   1.411  0.2548 -0.5435 -0.2749
  935MPD2     H13731   0.423   2.725   1.088  2.2819  0.9034 -0.8700
  935MPD2    H113732   0.618   2.894   1.435 -2.0003  0.5762  1.1425
  935MPD2    H213733   0.645   2.486   1.343  0.0375  0.0848 -0.2855
  935MPD2    H313734   0.680   2.667   1.499  0.0700 -1.0254 -0.2447
  935MPD2     N13735   0.459   2.956   1.232 -0.9712  0.4107 -0.4870
  935MPD2    H513736   0.500   3.031   1.288  0.3081 -0.2190 -0.5791
  935MPD2    N113737   0.510   2.493   1.112  0.7475  0.5145 -0.1684
  935MPD2    H713738   0.459   2.512   1.026 -0.0845 -0.9780 -0.0028
  936MPD2     C13739   3.448   4.116  12.165  0.4756 -0.3489  0.5462
  936MPD2    C113740   3.499   4.113  12.293 -0.1475  0.1962 -0.0828
  936MPD2    C213741   3.634   4.127  12.307 -0.0362 -0.0924 -0.0307
  936MPD2    C313742   3.712   4.177  12.211  0.6846 -0.1260 -0.0570
  936MPD2    C413743   3.658   4.193  12.086  0.4206  0.5811  0.4249
  936MPD2    C513744   3.529   4.152  12.067  0.4310 -0.0704 -0.3656
  936MPD2     H13745   3.668   4.127  12.410  0.5438  2.8436 -0.2379
  936MPD2    H113746   3.713   4.222  11.997  1.3491  0.8685  1.0912
  936MPD2    H213747   3.346   4.086  12.144 -0.4630  1.6785  2.1880
  936MPD2    H313748   3.493   4.159  11.965 -0.9673 -1.8230  0.0141
  936MPD2     N13749   3.839   4.237  12.232  0.5195  0.0734 -0.4018
  936MPD2    H513750   3.886   4.279  12.153 -1.7091  2.0476 -0.7032
  936MPD2    N113751   3.422   4.089  12.405  0.7302 -0.0914  0.6755
  936MPD2    H713752   3.478   4.075  12.488  0.1639  0.3887  1.1356
  937MPD2     C13753   1.752   1.999  11.438  0.3460  0.8087 -0.0529
  937MPD2    C113754   1.719   2.132  11.432  0.6247  0.6171 -0.2159
  937MPD2    C213755   1.793   2.219  11.351  0.4171 -0.6580 -0.9722
  937MPD2    C313756   1.881   2.167  11.259 -0.0066  0.0858  0.6466
  937MPD2    C413757   1.906   2.029  11.264 -0.6067 -0.1942  0.2604
  937MPD2    C513758   1.846   1.949  11.358 -0.2764  0.0448  0.2227
  937MPD2     H13759   1.776   2.325  11.343  0.8456 -0.4169  1.2975
  937MPD2    H113760   1.984   1.979  11.207 -1.2107  1.9213 -2.4302
  937MPD2    H213761   1.701   1.930  11.504 -1.0254  1.3311 -0.5557
  937MPD2    H313762   1.858   1.841  11.353 -1.2812 -0.2119  3.0869
  937MPD2     N13763   1.944   2.251  11.163  0.2954 -0.0233  0.6693
  937MPD2    H513764   1.940   2.352  11.171 -3.8942 -0.0973 -0.7925
  937MPD2    N113765   1.649   2.190  11.538 -1.0754 -0.0309  0.9724
  937MPD2    H713766   1.645   2.292  11.534  0.6127 -0.0320 -0.5422
  938MPD2     C13767   4.339   2.530   0.518  0.0124 -0.2077  0.2600
  938MPD2    C113768   4.387   2.633   0.598  0.4023  0.1730  0.0028
  938MPD2    C213769   4.423   2.610   0.728  0.1839  0.1697 -0.4586
  938MPD2    C313770   4.410   2.482   0.785  0.5806  0.5893  0.7466
  938MPD2    C413771   4.355   2.381   0.713  0.5416  0.0794  0.1995
  938MPD2    C513772   4.315   2.407   0.579  0.3149 -0.7632 -0.0434
  938MPD2     H13773   4.476   2.688   0.781  0.1791 -0.3144  0.2580
  938MPD2    H113774   4.345   2.287   0.764  0.7096 -1.1533 -2.0445
  938MPD2    H213775   4.317   2.539   0.412 -0.4715  1.5995  0.5103
  938MPD2    H313776   4.282   2.321   0.521  1.4550 -0.1215 -1.6344
  938MPD2     N13777   4.435   2.455   0.922  0.0943 -0.3770 -0.0904
  938MPD2    H513778   4.429   2.362   0.962 -0.3513  0.8318  2.6449
  938MPD2    N113779   4.414   2.765   0.557 -0.0486  0.1763  0.5709
  938MPD2    H713780   4.463   2.835   0.612 -1.6026  3.6405 -2.4753
  939MPD2     C13781   1.247   3.766   0.463 -0.6137  0.1606 -0.2237
  939MPD2    C113782   1.286   3.904   0.480  0.2241 -0.4873  0.2832
  939MPD2    C213783   1.398   3.942   0.412  0.5626  0.2816  0.2523
  939MPD2    C313784   1.475   3.848   0.336  0.9342  0.3291 -0.1517
  939MPD2    C413785   1.429   3.723   0.323  0.0633  0.0500  0.2239
  939MPD2    C513786   1.312   3.681   0.380 -0.0486 -0.2234 -0.7089
  939MPD2     H13787   1.437   4.042   0.430  0.8459 -0.2762  2.7174
  939MPD2    H113788   1.488   3.642   0.282  0.6058  0.1947  0.7291
  939MPD2    H213789   1.153   3.738   0.509 -1.5120 -1.5290 -3.0660
  939MPD2    H313790   1.282   3.579   0.400 -0.8100  0.0658 -0.3687
  939MPD2     N13791   1.593   3.901   0.264 -0.5149  0.0680  0.0729
  939MPD2    H513792   1.606   4.001   0.273  1.5007 -0.3328  1.8297
  939MPD2    N113793   1.222   3.989   0.572 -0.1863 -0.2781 -0.6079
  939MPD2    H713794   1.129   3.964   0.602 -0.9172  1.4015 -1.4877
  940MPD2     C13795   4.071   0.219  12.809 -0.7120 -0.0101 -1.3121
  940MPD2    C113796   4.134   0.100  12.833 -0.2467 -0.4185 -0.0881
  940MPD2    C213797   4.178   0.019  12.727  0.0779  0.0266 -0.5326
  940MPD2    C313798   4.163   0.065  12.593  0.0352 -0.2125 -0.6732
  940MPD2    C413799   4.086   0.181  12.576  0.0223 -0.4864  0.0820
  940MPD2    C513800   4.038   0.260  12.680  0.1972  0.1978 -0.3964
  940MPD2     H13801   4.232   4.668  12.748 -2.6553 -1.7855 -1.3603
  940MPD2    H113802   4.078   0.211  12.473  2.4800 -2.0115 -0.5633
  940MPD2    H213803   4.051   0.290  12.889  0.6240  0.6053 -1.5303
  940MPD2    H313804   3.979   0.348  12.654  0.2796  0.4091  0.1361
  940MPD2     N13805   4.222   0.014  12.478  0.1689 -0.7311 -0.4227
  940MPD2    H513806   4.207   0.066  12.392 -1.5989  2.0926  1.5839
  940MPD2    N113807   4.157   0.074  12.971 -0.3431  0.8521 -0.6108
  940MPD2    H713808   4.136   0.145  13.041 -0.9289  0.6190 -0.5475
  941MPD2     C13809   4.068   4.038   9.475 -0.1988 -0.4306  0.0034
  941MPD2    C113810   4.202   4.064   9.494 -0.7902  0.2687  1.1114
  941MPD2    C213811   4.287   3.960   9.510  0.7596 -0.5100 -0.9202
  941MPD2    C313812   4.243   3.827   9.499  0.4257 -0.5247  0.1203
  941MPD2    C413813   4.110   3.809   9.485  0.0964 -0.0382 -0.2070
  941MPD2    C513814   4.026   3.909   9.471 -0.8331  0.1858 -0.2924
  941MPD2     H13815   4.392   3.981   9.525  0.9561 -0.6047 -2.1876
  941MPD2    H113816   4.059   3.714   9.491  0.9256 -0.4079  0.8299
  941MPD2    H213817   3.993   4.116   9.474  0.7115  0.4555 -0.2451
  941MPD2    H313818   3.919   3.898   9.461 -1.0779  0.8200  1.5897
  941MPD2     N13819   4.316   3.710   9.524 -0.4741 -0.4501  0.5122
  941MPD2    H513820   4.264   3.624   9.536 -1.5895  0.0267 -0.9416
  941MPD2    N113821   4.253   4.192   9.509 -0.0258 -0.1181 -0.1499
  941MPD2    H713822   4.352   4.205   9.530  0.1800  0.4752 -1.4747
  942MPD2     C13823   2.955   1.136   8.673 -0.3242 -0.3284 -0.5590
  942MPD2    C113824   3.038   1.163   8.783  0.5710  0.4673  0.1313
  942MPD2    C213825   3.166   1.195   8.753 -0.8202 -0.1369 -0.2484
  942MPD2    C313826   3.210   1.212   8.629 -0.0246 -0.0297  0.2109
  942MPD2    C413827   3.124   1.195   8.522 -0.6146 -0.6560 -0.1329
  942MPD2    C513828   3.002   1.161   8.551  0.1030  0.2568 -0.2545
  942MPD2     H13829   3.234   1.203   8.838 -2.0752  0.2365  0.7270
  942MPD2    H113830   3.157   1.214   8.421  1.2730  0.5628  0.7047
  942MPD2    H213831   2.852   1.102   8.682 -0.2608 -0.6055 -0.8626
  942MPD2    H313832   2.929   1.160   8.471 -0.2698 -0.2061  0.0880
  942MPD2     N13833   3.341   1.252   8.588  0.6044  0.0046 -0.4969
  942MPD2    H513834   3.362   1.237   8.490 -1.3324 -0.7374 -0.7959
  942MPD2    N113835   3.005   1.152   8.923  0.0559 -0.4674  0.4091
  942MPD2    H713836   3.075   1.168   8.994 -1.6380  0.0836  1.9701
  943MPD2     C13837   2.610   0.102  10.036 -0.3040  0.5196 -0.6232
  943MPD2    C113838   2.508   0.037  10.102 -0.5925 -0.0557  0.4077
  943MPD2    C213839   2.468   0.083  10.222 -0.0595 -0.1221  0.2218
  943MPD2    C313840   2.529   0.188  10.281 -0.0528  0.3193 -0.7888
  943MPD2    C413841   2.608   0.266  10.209 -0.3906 -0.5893 -0.9332
  943MPD2    C513842   2.657   0.223  10.087  0.5102  0.1851 -0.1321
  943MPD2     H13843   2.389   0.036  10.281 -0.1962 -1.0279 -0.6845
  943MPD2    H113844   2.664   0.350  10.249 -1.6600  0.5878 -1.6039
  943MPD2    H213845   2.646   0.060   9.943  1.0608 -2.0239  1.0484
  943MPD2    H313846   2.737   0.274  10.035 -0.0767  0.9507 -0.2739
  943MPD2     N13847   2.494   0.212  10.416 -0.1096 -0.2451  0.4749
  943MPD2    H513848   2.417   0.155  10.449 -1.2210  0.6688 -0.5702
  943MPD2    N113849   2.454   4.662  10.048 -0.7894  0.2919 -0.2701
  943MPD2    H713850   2.493   4.635   9.959 -1.7238  0.4496 -0.7334
  944MPD2     C13851   2.088   3.026  11.062  0.2443  0.4012  0.6221
  944MPD2    C113852   2.174   3.109  11.127 -0.2327  0.4165  0.5098
  944MPD2    C213853   2.126   3.178  11.237 -0.4616 -0.3091  0.1902
  944MPD2    C313854   1.995   3.182  11.268 -0.0147  0.1142 -0.0436
  944MPD2    C413855   1.913   3.090  11.212 -0.9171  0.6813  0.3933
  944MPD2    C513856   1.961   3.010  11.109  0.2863 -0.7616  0.3196
  944MPD2     H13857   2.190   3.247  11.291  0.8080 -1.1084 -0.2806
  944MPD2    H113858   1.811   3.070  11.241 -1.3304  1.5095 -0.4697
  944MPD2    H213859   2.124   2.969  10.978  0.2750 -0.0183  0.9147
  944MPD2    H313860   1.891   2.942  11.063 -1.1907  1.1882 -0.3360
  944MPD2     N13861   1.966   3.268  11.377 -0.1516 -0.4088 -0.6743
  944MPD2    H513862   2.043   3.321  11.419  1.5838 -1.0250 -3.0968
  944MPD2    N113863   2.308   3.116  11.086  0.1742  0.2622 -0.4619
  944MPD2    H713864   2.324   3.064  11.000 -0.0620 -1.3164  0.4496
    1TMC1    C113865   0.692   3.795  14.639  0.5691 -0.3885  0.7614
    1TMC1    C213866   0.767   3.786  14.748 -0.5534 -0.0845  0.1372
    1TMC1    C313867   0.786   3.658  14.795 -0.1037 -0.3938  0.2764
    1TMC1    C413868   0.665   3.686  14.558  0.4002 -0.3435 -0.2173
    1TMC1    C513869   0.691   3.561  14.603  0.0486  0.0964 -0.4169
    1TMC1    C613870   0.746   3.549  14.731 -0.6578  0.2008  0.5248
    1TMC1     C13871   0.706   3.928  14.580 -0.5406 -0.3745 -0.2731
    1TMC1     O13872   0.816   3.988  14.594  0.3777  0.4534 -0.3308
    1TMC1     H13873   0.782   3.873  14.812 -0.9633  0.8052 -0.9813
    1TMC1    H113874   0.606   3.700  14.468  1.6401 -0.6983 -1.0790
    1TMC1    H213875   0.767   3.450  14.769  1.4901  1.6963  3.2193
    1TMC1    C713876   0.644   3.436  14.536  0.2319 -0.3107 -0.7858
    1TMC1    C813877   0.836   3.649  14.930 -0.0411  0.0418  0.1870
    1TMC1    O113878   0.632   3.331  14.590 -0.0848  0.2296  0.2208
    1TMC1    O213879   0.910   3.737  14.978  0.2852 -0.1194  0.2663
    1TMC1    O313880   0.578   3.470  14.422  0.2770  0.3213  0.0113
    1TMC1    H313881   0.626   3.541  14.375  0.1380  0.6283  0.3347
    1TMC1    O513882   0.821   3.525  14.987  0.3197 -0.4976 -1.2532
    1TMC1    H513883   0.762   3.465  14.937 -2.2749 -0.5888  1.9068
    2MPD2     C13884   0.524   4.352  14.362  0.1078 -0.2164 -0.2469
    2MPD2    C113885   0.455   4.248  14.313 -0.7364 -0.4200  0.0804
    2MPD2    C213886   0.474   4.124  14.370 -0.4731  0.1991 -0.0384
    2MPD2    C313887   0.583   4.100  14.458  0.3288  0.3183  0.2034
    2MPD2    C413888   0.654   4.211  14.505  0.8920 -0.2484  0.2539
    2MPD2    C513889   0.616   4.331  14.463  0.2534 -0.0925 -0.4070
    2MPD2     H13890   0.407   4.044  14.341 -0.8590  0.5063  0.0131
    2MPD2    H113891   0.733   4.198  14.578  0.3838  1.8778  1.1785
    2MPD2    H213892   0.509   4.450  14.318 -1.2991 -0.0859  0.5389
    2MPD2    H313893   0.669   4.419  14.498 -1.9502  1.3169 -0.6421
    2MPD2     N13894   0.600   3.966  14.501  0.8495  0.4116 -0.9049
    2MPD2    H513895   0.526   3.899  14.479 -0.3402  0.8978  1.6269
    2MPD2    N113896   0.371   4.279  14.198 -0.2211 -0.1971 -0.0292
    2MPD2    H713897   0.361   4.377  14.174 -4.4530 -0.3968  0.9548
    3TMC2    C113898   0.238   4.262  14.005  0.8586 -0.4347  0.0658
    3TMC2    C213899   0.210   4.392  14.013 -0.1100  0.9250 -0.2063
    3TMC2    C313900   0.130   4.446  13.921  0.0549 -0.0742 -0.1197
    3TMC2    C413901   0.199   4.183  13.898  0.9510 -0.2683  0.1902
    3TMC2    C513902   0.128   4.244  13.798 -0.3206 -0.1704 -0.5822
    3TMC2    C613903   0.086   4.376  13.810  0.8776  0.4333  0.2885
    3TMC2     C13904   0.324   4.191  14.109  0.8534 -0.0953  0.8175
    3TMC2     O13905   0.340   4.069  14.094 -0.1869  0.5197 -0.6976
    3TMC2     H13906   0.228   4.456  14.098 -0.5191  2.7943 -1.5313
    3TMC2    H113907   0.226   4.078  13.890 -1.3158 -0.7638 -0.8950
    3TMC2    H213908   0.014   4.408  13.736 -0.6795 -1.4893  0.9665
    3TMC2    C713909   0.111   4.169  13.674  0.0474  0.9097  0.2388
    3TMC2    C813910   0.083   4.580  13.956  0.0941  0.1360  0.1820
    3TMC2    O113911   0.088   4.052  13.686  0.8462  0.6989  0.2996
    3TMC2    O213912   0.159   4.665  14.005 -0.0453  0.2788 -0.2493
    3TMC2    O513913   4.717   4.607  13.874  0.2761  0.2698  0.7775
    3TMC2    H513914   4.667   4.523  13.865 -1.1962  1.1633  0.5834
    4TMC2    C113915   4.584   0.101  13.014  0.8917  1.0294  0.4843
    4TMC2    C213916   4.643   0.085  12.890  0.6392 -0.2682 -0.1203
    4TMC2    C313917   4.741   4.729  12.869 -0.2655  0.2632  0.3755
    4TMC2    C413918   4.616   0.018  13.112 -0.3911  0.0129 -0.4180
    4TMC2    C513919   4.717   4.664  13.082 -0.4568 -0.0571  0.1479
    4TMC2    C613920   0.050   4.644  12.965 -0.0340  0.2280 -0.2495
    4TMC2     C13921   4.483   0.199  13.045 -0.0893 -0.2720 -0.3572
    4TMC2     O13922   4.450   0.208  13.163 -0.4366  0.8933  0.0143
    4TMC2     H13923   4.604   0.144  12.808  2.7349  0.5437 -0.5380
    4TMC2    H113924   4.564   0.020  13.207 -1.6269 -1.0253 -1.0712
    4TMC2    H213925   0.123   4.565  12.954  1.5685  1.5176  1.1255
    4TMC2    C713926   4.740   4.577  13.196 -0.1514 -0.1378  0.6796
    4TMC2    C813927   0.014   4.700  12.729  0.4040  0.2776  0.3987
    4TMC2    O113928   4.716   4.623  13.306  0.0777 -0.4892  0.3718
    4TMC2    O213929   4.680   4.710  12.631  0.1028  0.4328 -0.1999
    4TMC2    O513930   0.135   4.650  12.709 -0.1498 -0.0468  0.2337
    4TMC2    H513931   0.185   4.669  12.791  1.6533 -1.6190 -0.4905
    5MPD2     C13932   4.200   0.602  12.949  0.1607 -0.9659  0.2421
    5MPD2    C113933   4.220   0.541  12.828  0.4738 -0.5879 -0.4237
    5MPD2    C213934   4.312   0.443  12.820 -0.5476  0.0009  0.3053
    5MPD2    C313935   4.373   0.399  12.939  1.1568 -0.5186 -0.5021
    5MPD2    C413936   4.351   0.463  13.057  0.1944 -0.3871  0.1757
    5MPD2    C513937   4.266   0.568  13.062 -0.7928  0.2494 -0.0012
    5MPD2     H13938   4.339   0.400  12.724 -0.2346 -2.5182  1.5154
    5MPD2    H113939   4.411   0.435  13.143  0.1306 -1.8636 -0.2594
    5MPD2    H213940   4.128   0.682  12.967 -0.9013 -1.9200  0.2783
    5MPD2    H313941   4.243   0.615  13.157 -0.7819  0.6199 -0.1823
    5MPD2     N13942   4.445   0.275  12.934 -0.7685 -0.0127 -0.5587
    5MPD2    H513943   4.462   0.234  12.843 -0.8553  0.1567 -0.6513
    5MPD2    N113944   4.149   0.604  12.722 -0.6689  0.2709  0.3568
    5MPD2    H713945   4.075   0.671  12.740  0.1217  0.9334  1.1348
    6MPD1     C13946   3.184   2.110  12.880  0.3593 -0.3355  0.1129
    6MPD1    C113947   3.315   2.126  12.827 -0.0277 -0.4946  0.7368
    6MPD1    C213948   3.367   2.026  12.746 -0.4278  0.4977 -0.4191
    6MPD1    C313949   3.292   1.909  12.708 -0.4145  0.2230 -0.0091
    6MPD1    C413950   3.166   1.896  12.777  0.2534 -0.1629  0.2600
    6MPD1    C513951   3.113   1.993  12.852  0.8588 -0.3140 -0.0141
    6MPD1     H13952   3.469   2.035  12.713 -0.9865 -0.4984 -2.3770
    6MPD1    H113953   3.118   1.802  12.754 -1.7230  1.3504 -1.8628
    6MPD1    H213954   3.137   2.189  12.938  0.7177 -0.1260  0.1154
    6MPD1    H313955   3.019   1.975  12.903  0.6941  1.0379  0.1645
    6MPD1     N13956   3.335   1.806  12.621 -1.2581  0.3652  0.0792
    6MPD1    H513957   3.270   1.733  12.595 -2.1912  0.8969  0.9084
    6MPD1    N113958   3.390   2.242  12.866 -1.3121 -0.6278 -0.1675
    6MPD1    H613959   3.481   2.256  12.821 -1.2495  1.6992  0.6982
    6MPD1    H713960   3.333   2.325  12.883  0.0988  0.2062  0.5026
    7MPD2     C13961   3.473   1.060  12.853 -0.8564 -0.5583  0.0072
    7MPD2    C113962   3.516   1.084  12.723  0.2611 -0.2436 -0.1452
    7MPD2    C213963   3.593   0.991  12.658  0.9300 -0.1903 -0.3000
    7MPD2    C313964   3.622   0.869  12.712  0.3400 -0.4613  0.2652
    7MPD2    C413965   3.567   0.835  12.837  0.5164  0.0147 -0.5234
    7MPD2    C513966   3.499   0.934  12.907  0.3120  0.1699 -0.4929
    7MPD2     H13967   3.630   1.033  12.565  1.5485  0.4603  0.2389
    7MPD2    H113968   3.564   0.732  12.870  1.6440 -0.0408 -0.6069
    7MPD2    H213969   3.425   1.135  12.914  0.1988 -0.4206  0.6730
    7MPD2    H313970   3.460   0.898  13.002  3.2259  0.4384  0.7876
    7MPD2     N13971   3.694   0.773  12.644  0.1106  0.0273  0.7116
    7MPD2    H513972   3.705   0.684  12.692  1.4383 -0.6137 -0.7894
    7MPD2    N113973   3.508   1.210  12.660  0.0588 -0.3317  0.7082
    7MPD2    H713974   3.543   1.212  12.565  2.5179  0.1888  1.6225
    8TMC3    C113975   3.827   0.693  12.473  0.5790  0.1612 -0.5657
    8TMC3    C213976   3.925   0.652  12.555  0.1876  0.5710 -0.6143
    8TMC3    C313977   4.049   0.620  12.500 -0.6465  0.8178 -0.5014
    8TMC3    C413978   3.852   0.711  12.342  0.5406 -0.4937 -0.0665
    8TMC3    C513979   3.977   0.694  12.295 -0.2548  0.3111 -0.1258
    8TMC3    C613980   4.074   0.631  12.368  0.8218 -1.0143 -1.1728
    8TMC3     C13981   3.744   0.795  12.522  0.6653 -0.2427  0.0436
    8TMC3     O13982   3.709   0.873  12.433  0.4434 -0.1365 -0.3832
    8TMC3     H13983   3.902   0.638  12.660  2.0075 -2.2348 -0.5704
    8TMC3    H113984   3.776   0.750  12.276  0.0940 -0.9707  0.1613
    8TMC3    H213985   4.177   0.630  12.334  0.7980  0.6240 -1.3085
    8TMC3    C713986   4.028   0.809  12.219 -0.1600 -0.3166  0.3140
    8TMC3    C813987   4.160   0.579  12.585  0.0364  0.2607 -0.1339
    8TMC3    O113988   4.146   0.806  12.187  0.1467  0.0063  0.2544
    8TMC3    O213989   4.255   0.527  12.526 -0.0565 -0.0203  0.2647
    9TMC3    C113990   3.500   1.648  12.551 -0.1610  0.4767 -0.0908
    9TMC3    C213991   3.604   1.632  12.462  0.3919  0.9530  0.7528
    9TMC3    C313992   3.651   1.501  12.448  0.0608  0.4203 -0.1576
    9TMC3    C413993   3.449   1.554  12.638 -0.1022  0.4342  0.6173
    9TMC3    C513994   3.512   1.436  12.636 -0.3903 -0.1962 -0.3833
    9TMC3    C613995   3.612   1.406  12.542 -0.1994 -0.3828 -0.2032
    9TMC3     C13996   3.467   1.786  12.578 -0.5829 -0.4424  0.4356
    9TMC3     O13997   3.563   1.862  12.577 -0.5767 -0.1866  0.2063
    9TMC3     H13998   3.644   1.710  12.398  1.7827 -1.5968 -1.5299
    9TMC3    H113999   3.371   1.580  12.709 -0.0972  0.9458  0.4311
    9TMC3    H214000   3.673   1.317  12.548  1.2779  0.8837  3.3648
    9TMC3    C714001   3.466   1.330  12.714 -0.9587  0.6297  0.2458
    9TMC3    C814002   3.775   1.478  12.371 -0.3749  0.3785 -0.5248
    9TMC3    O114003   3.384   1.346  12.804 -0.4355  0.1442  0.5040
    9TMC3    O214004   3.852   1.571  12.352 -0.3582 -0.2041  0.1874
   10MPD2     C14005   4.077   1.107  12.162  0.1965 -0.3322 -0.2447
   10MPD2    C114006   3.973   1.053  12.239  0.2584 -0.4254  0.3912
   10MPD2    C214007   3.884   1.137  12.298 -0.1049  0.4087 -1.3642
   10MPD2    C314008   3.893   1.275  12.296 -0.2041  0.0634 -0.5012
   10MPD2    C414009   4.010   1.330  12.244 -0.5159  0.6538  0.6495
   10MPD2    C514010   4.093   1.240  12.168  0.0675 -0.0648  0.0269
   10MPD2     H14011   3.800   1.092  12.349  1.2999  1.5360  1.9501
   10MPD2    H114012   4.027   1.436  12.235 -0.7889  0.4870 -1.8910
   10MPD2    H214013   4.148   1.050  12.104  0.3209  0.1392 -0.5527
   10MPD2    H314014   4.169   1.283  12.103 -0.2551 -0.9173 -0.9176
   10MPD2     N14015   3.784   1.342  12.349  0.1738 -0.5328  0.4909
   10MPD2    H514016   3.699   1.296  12.382  0.1045 -0.2230  0.7475
   10MPD2    N114017   3.943   0.918  12.248 -0.3149  0.4082 -0.0797
   10MPD2    H714018   3.864   0.890  12.305 -1.4539 -1.4725 -2.6009
   11MPD2     C14019   0.042   4.117  13.391 -0.0030 -0.0707  0.4486
   11MPD2    C114020   0.070   4.238  13.443  0.2506  0.2625  0.3308
   11MPD2    C214021   0.081   4.342  13.356 -0.0306 -0.1363 -0.0018
   11MPD2    C314022   0.039   4.335  13.227  0.1014  0.1696  0.0059
   11MPD2    C414023   0.012   4.213  13.174  0.2780  0.4513 -0.2721
   11MPD2    C514024   0.028   4.103  13.251  0.0371 -0.8713  0.0590
   11MPD2     H14025   0.095   4.441  13.398  1.0720 -0.5339  0.5496
   11MPD2    H114026   4.714   4.205  13.073 -0.5254 -0.9443  0.1673
   11MPD2    H214027   0.045   4.029  13.455 -1.4786 -0.1873  0.3419
   11MPD2    H314028   4.737   4.012  13.202 -0.5873 -0.1204 -0.9270
   11MPD2     N14029   0.029   4.446  13.147  0.1917 -0.7501 -0.1652
   11MPD2    H514030   0.046   4.429  13.048  2.0258 -1.4656  0.2636
   11MPD2    N114031   0.103   4.259  13.575  0.5060  0.5458 -0.0426
   11MPD2    H714032   0.140   4.346  13.610  1.6410  1.3527 -3.2893
    1MPD1     C14033   2.784   1.078  16.781  0.5097  0.6086  0.2195
    1MPD1    C114034   2.722   1.175  16.709  0.5117 -0.1695  0.2766
    1MPD1    C214035   2.762   1.191  16.572  0.3925  0.5967  0.2406
    1MPD1    C314036   2.876   1.130  16.532 -0.4212  0.0361  0.1847
    1MPD1    C414037   2.946   1.043  16.611  0.7785  0.3381  0.4341
    1MPD1    C514038   2.891   1.006  16.731 -0.4686  0.6291  0.6160
    1MPD1     H14039   2.709   1.264  16.513  0.9648  2.8616  2.5518
    1MPD1    H114040   3.041   1.003  16.578  0.6910  1.2526 -0.8932
    1MPD1    H214041   2.762   1.066  16.887 -0.4332 -1.5254 -0.2240
    1MPD1    H314042   2.947   0.937  16.794  0.2625  1.0526  0.4342
    1MPD1     N14043   2.942   1.165  16.417  0.1022  0.5554  1.0622
    1MPD1    H514044   3.022   1.106  16.397 -1.4215 -1.0894 -0.1441
    1MPD1    N114045   2.603   1.239  16.752 -0.5874 -0.0078  1.3648
    1MPD1    H614046   2.589   1.326  16.701  2.3823  0.0643  0.6379
    1MPD1    H714047   2.597   1.258  16.852 -1.2216  0.2873  1.2716
    2MPD1     C14048   3.616   0.724  16.134  0.3112  0.1178 -0.0924
    2MPD1    C114049   3.524   0.706  16.233 -0.5971  0.7126 -0.5775
    2MPD1    C214050   3.405   0.778  16.222  0.2778  0.0037 -0.1266
    2MPD1    C314051   3.397   0.878  16.132  0.0550  0.2896 -0.1237
    2MPD1    C414052   3.494   0.900  16.031 -0.3271  0.4763 -0.5348
    2MPD1    C514053   3.598   0.815  16.031  0.4076  0.0358 -0.1543
    2MPD1     H14054   3.326   0.752  16.292  0.5620 -0.0987  0.1614
    2MPD1    H114055   3.482   0.959  15.941  0.6106  0.9667 -0.3365
    2MPD1    H214056   3.701   0.658  16.122 -1.2823 -1.8730 -0.5200
    2MPD1    H314057   3.675   0.816  15.954  1.1352 -0.6350  0.5535
    2MPD1     N14058   3.276   0.961  16.141 -0.5034  0.3912 -0.3133
    2MPD1    H514059   3.197   0.942  16.201 -1.2031  0.8212 -1.0993
    2MPD1    N114060   3.531   0.587  16.309 -0.2628 -0.3058  0.1849
    2MPD1    H614061   3.481   0.600  16.397  0.8988  1.4078  0.5910
    2MPD1    H714062   3.625   0.561  16.336  0.2684  0.6436 -0.7363
    3TMC3    C114063   3.151   1.148  16.086  0.3875 -0.2712  0.9741
    3TMC3    C214064   3.100   1.191  15.966 -0.7141 -0.5880  0.2308
    3TMC3    C314065   2.986   1.271  15.977 -0.4539 -0.1695  0.1495
    3TMC3    C414066   3.111   1.184  16.211 -0.1286 -0.3791  0.9680
    3TMC3    C514067   3.002   1.269  16.217 -0.0292 -0.7399  0.4498
    3TMC3    C614068   2.933   1.305  16.099  0.3878  0.5561  0.0618
    3TMC3     C14069   3.270   1.078  16.069  0.0968 -0.2484 -0.8596
    3TMC3     O14070   3.337   1.128  15.980  0.0219  0.2076 -0.0975
    3TMC3     H14071   3.132   1.151  15.870 -2.0378 -0.6111 -0.2065
    3TMC3    H114072   3.153   1.132  16.297 -0.6351  1.1263  2.1304
    3TMC3    H214073   2.842   1.362  16.110  0.1574 -0.3308  2.6844
    3TMC3    C714074   2.914   1.268  16.329  0.0544  0.1283  0.1102
    3TMC3    C814075   2.909   1.327  15.867 -0.1910  0.7003 -0.1003
    3TMC3    O114076   2.829   1.357  16.330 -0.2596  0.1152  0.2303
    3TMC3    O214077   2.793   1.354  15.891  0.1335 -0.2057 -0.0070
    4MPD1     C14078   2.861   1.506  15.400  1.2314 -0.0056 -0.0286
    4MPD1    C114079   2.992   1.468  15.414 -0.1956  0.0059 -0.5551
    4MPD1    C214080   3.022   1.404  15.534  0.6051  0.2337  0.4048
    4MPD1    C314081   2.934   1.385  15.637  0.4364  0.0467  0.3105
    4MPD1    C414082   2.803   1.424  15.623  0.4548 -0.0330 -0.1927
    4MPD1    C514083   2.775   1.486  15.501 -0.1441  0.5205 -0.2819
    4MPD1     H14084   3.123   1.368  15.549  1.1450  1.3444 -0.5711
    4MPD1    H114085   2.720   1.405  15.689  0.3823  0.9431 -0.0028
    4MPD1    H214086   2.831   1.555  15.309  1.7208  0.6297  0.1520
    4MPD1    H314087   2.672   1.519  15.493 -0.6739 -1.3997 -1.3021
    4MPD1     N14088   2.981   1.323  15.752 -0.3490 -0.1705  0.5809
    4MPD1    H514089   3.075   1.285  15.763  0.9373  2.9610  0.2993
    4MPD1    N114090   3.079   1.473  15.303  0.0687  0.7025 -0.6786
    4MPD1    H614091   3.166   1.517  15.334  1.1053 -1.2186 -0.8335
    4MPD1    H714092   3.048   1.537  15.230  1.2861  2.9071  0.7085
    1TCq1    O114093   3.612   1.009  10.397  0.0958  0.2167  0.4464
    1TCq1    C114094   3.492   1.074  10.415  0.6612 -0.0488  0.1709
    1TCq1    O214095   3.385   1.012  10.400 -0.7524  0.4331 -0.0741
    1TCq1    C214096   3.520   1.207  10.379 -1.2251 -0.6086 -0.1433
    1TCq1    C314097   3.447   1.270  10.285 -0.7834 -0.0812  0.1620
    1TCq1    C414098   3.497   1.390  10.231  0.0819  0.4493 -0.6492
    1TCq1    C514099   3.622   1.441  10.272  0.5833  0.0041 -1.0151
    1TCq1    C614100   3.688   1.380  10.372 -0.0781 -0.1238 -0.8771
    1TCq1    C714101   3.635   1.258  10.431 -0.5563  0.0134  0.3258
    1TCq1    C814102   3.796   1.449  10.434  0.0374  0.0901  0.3749
    1TCq1    O414103   3.807   1.568  10.408  0.4089  0.4366 -0.4133
    1TCq1    C914104   3.445   1.443  10.111 -0.1964  0.0775 -0.2521
    1TCq1    O514105   3.326   1.412  10.085 -0.3649  0.2180  0.4955
    1TCq1    O614106   3.512   1.534  10.053 -0.2244 -0.2146 -0.7651
    1TCq1    H114107   3.696   1.057  10.415  0.6175  0.1914 -1.9911
    1TCq1    H214108   3.363   1.231  10.230  1.1792 -1.3994 -1.8970
    1TCq1    H314109   3.663   1.531  10.227  0.9493  0.0683 -0.5609
    1TCq1    H414110   3.687   1.221  10.518 -0.5692 -0.1734  0.2543
    2MPD1     C14111   4.207   1.486  10.750  0.2825  0.6224  0.6887
    2MPD1    C114112   4.137   1.369  10.774  0.8589  0.7290 -0.3083
    2MPD1    C214113   4.032   1.323  10.687 -0.0572  0.6376 -0.1007
    2MPD1    C314114   3.981   1.414  10.595 -0.0494  0.2021 -0.2629
    2MPD1    C414115   4.047   1.531  10.570 -0.0299  0.0064  0.5786
    2MPD1    C514116   4.158   1.564  10.640  0.5802 -0.6000 -0.4703
    2MPD1     H14117   3.978   1.230  10.696 -1.6720  1.4893 -0.8454
    2MPD1    H114118   4.020   1.608  10.499 -0.0985 -0.1117  0.4765
    2MPD1    H214119   4.291   1.519  10.810  0.9433 -1.3590  0.8601
    2MPD1    H314120   4.205   1.658  10.612  0.8869 -0.6513 -0.1269
    2MPD1     N14121   3.873   1.375  10.516 -0.5867 -0.0623 -0.1166
    2MPD1    H514122   3.848   1.277  10.515 -1.4567  0.1392  2.2820
    2MPD1    N114123   4.186   1.280  10.874 -0.2968  0.4011  0.0489
    2MPD1    H614124   4.240   1.332  10.943  3.1600 -1.1764 -1.4243
    2MPD1    H714125   4.123   1.219  10.924  0.0093  0.5240  0.5788
    1TMC1    C114126   1.921   1.710   0.900  0.5640 -0.2436  0.0107
    1TMC1    C214127   1.811   1.757   0.970  0.0234  0.1515  0.3257
    1TMC1    C314128   1.805   1.740   1.107  0.5079  0.3631  0.1678
    1TMC1    C414129   2.025   1.646   0.960 -0.3484 -0.6616 -0.7372
    1TMC1    C514130   2.008   1.630   1.095 -0.2682  0.7616 -0.5972
    1TMC1    C614131   1.905   1.677   1.171 -0.1112  0.0673  0.0493
    1TMC1     C14132   1.901   1.709   0.761  0.0078 -0.6542  0.0503
    1TMC1     O14133   1.805   1.771   0.716  0.4814 -0.3479 -0.1454
    1TMC1     H14134   1.728   1.811   0.928  1.4515  1.8552 -0.3066
    1TMC1    H114135   2.112   1.620   0.900 -1.0625  0.3597 -2.2038
    1TMC1    H214136   1.899   1.659   1.277  1.8659  0.2434  0.1966
    1TMC1    C714137   2.097   1.555   1.176 -0.2459  0.4780  0.0837
    1TMC1    C814138   1.678   1.763   1.176 -0.4412  0.7530  0.4714
    1TMC1    O114139   2.124   1.562   1.294  0.1189 -0.1020 -0.4306
    1TMC1    O214140   1.573   1.730   1.125 -0.1497 -0.1893  0.4986
    1TMC1    O314141   2.141   1.459   1.093  0.2254 -0.2586  0.1695
    1TMC1    H314142   2.099   1.457   1.004  1.8350 -0.8203 -0.5884
    1TMC1    O514143   1.705   1.788   1.308 -0.5164  0.4536  0.2427
    1TMC1    H514144   1.794   1.831   1.304 -1.4244  2.1324 -1.9238
    2MPD1     C14145   2.125   1.695   0.283  0.1560  0.5180  0.0174
    2MPD1    C114146   2.194   1.612   0.371 -0.4375  0.7334 -0.3158
    2MPD1    C214147   2.153   1.596   0.501  0.6239  0.7989 -0.0527
    2MPD1    C314148   2.038   1.662   0.553 -0.6104 -0.3003  0.6146
    2MPD1    C414149   1.966   1.734   0.463 -0.1408 -0.2041 -0.0809
    2MPD1    C514150   2.012   1.763   0.337  0.8171 -0.4964  0.4636
    2MPD1     H14151   2.203   1.526   0.568 -1.5357  0.8327  1.6037
    2MPD1    H114152   1.874   1.784   0.490 -0.2809  0.7909 -2.4166
    2MPD1    H214153   2.153   1.714   0.179 -0.8257 -0.0946 -0.3572
    2MPD1    H314154   1.943   1.809   0.268  1.2675  1.6386  1.4437
    2MPD1     N14155   2.005   1.645   0.685 -0.1283  0.2635 -0.7923
    2MPD1    H514156   2.062   1.573   0.729  0.3771  0.0566 -1.7829
    2MPD1    N114157   2.303   1.525   0.336  0.5056  0.8438  0.3480
    2MPD1    H614158   2.350   1.551   0.249 -0.3586  1.9868  0.2220
    2MPD1    H714159   2.374   1.512   0.408  1.2016 -2.9932 -1.0212
    1MPD1     C14160   0.484   1.581  11.746  0.1766 -0.0737 -0.5183
    1MPD1    C114161   0.535   1.699  11.793  0.5173  0.1165  0.2159
    1MPD1    C214162   0.593   1.787  11.703 -0.1787 -0.4052 -0.4835
    1MPD1    C314163   0.597   1.752  11.573 -0.1787  0.3947 -0.7203
    1MPD1    C414164   0.538   1.639  11.528  0.5141  0.2666  0.5290
    1MPD1    C514165   0.464   1.555  11.613 -0.2280 -0.1745 -0.1226
    1MPD1     H14166   0.625   1.884  11.738  1.2971 -1.1241  0.1612
    1MPD1    H114167   0.532   1.607  11.424  1.1259 -0.5346  0.7428
    1MPD1    H214168   0.425   1.518  11.811  0.7890 -0.6020 -0.4696
    1MPD1    H314169   0.402   1.473  11.579 -0.5006  0.1682 -0.4508
    1MPD1     N14170   0.661   1.843  11.492 -0.5592  0.5374 -0.6213
    1MPD1    H514171   0.714   1.918  11.535  0.6243 -1.6928  1.7762
    1MPD1    N114172   0.551   1.722  11.935 -0.1000 -0.4579 -0.2283
    1MPD1    H614173   0.477   1.670  11.980  0.7119  0.7267  2.4627
    1MPD1    H714174   0.554   1.819  11.967 -2.2288 -0.4040 -0.2440
    2MPD1     C14175   0.782   0.957  11.838 -0.3395 -0.1423  0.1404
    2MPD1    C114176   0.879   1.050  11.833  0.6991 -0.2031 -0.0624
    2MPD1    C214177   0.906   1.113  11.716 -0.0454  0.1941  0.2451
    2MPD1    C314178   0.869   1.051  11.594 -0.6598 -0.6057  0.5008
    2MPD1    C414179   0.796   0.932  11.599  0.1101 -0.3545 -0.3974
    2MPD1    C514180   0.754   0.889  11.722 -0.3189 -0.4676  0.2956
    2MPD1     H14181   0.966   1.203  11.716 -0.8223  0.7104 -0.5448
    2MPD1    H114182   0.761   0.880  11.511  1.4026  1.6460 -2.0708
    2MPD1    H214183   0.739   0.925  11.932 -1.5371  0.6061 -0.1526
    2MPD1    H314184   0.693   0.800  11.723 -3.2673  1.5410  0.3740
    2MPD1     N14185   0.908   1.101  11.467 -0.1499 -0.0785 -0.0937
    2MPD1    H514186   0.855   1.059  11.392 -0.3425 -0.8680  0.4811
    2MPD1    N114187   0.907   1.122  11.951 -0.0080  0.3019  0.3083
    2MPD1    H614188   0.896   1.075  12.040 -0.3911  1.7385  1.0231
    2MPD1    H714189   0.996   1.171  11.955 -0.1012  0.6079 -1.1565
    3MPD1     C14190   0.355   1.009  10.876 -0.9019 -0.2197  0.2627
    3MPD1    C114191   0.392   0.973  11.000  0.0104  0.0321  0.4407
    3MPD1    C214192   0.477   1.057  11.071 -0.1577 -0.6557 -0.1854
    3MPD1    C314193   0.556   1.155  11.003  0.5525 -0.1751 -0.3480
    3MPD1    C414194   0.531   1.179  10.868  0.1068 -0.2520  0.2716
    3MPD1    C514195   0.421   1.118  10.818 -0.2680 -1.5620  0.2254
    3MPD1     H14196   0.500   1.043  11.176  0.4160 -2.1159 -0.4947
    3MPD1    H114197   0.578   1.250  10.801 -1.1221 -0.5899 -0.9596
    3MPD1    H214198   0.270   0.959  10.832 -0.1143 -0.7283 -0.6669
    3MPD1    H314199   0.400   1.137  10.714 -2.2069 -1.2413  0.6643
    3MPD1     N14200   0.663   1.213  11.080  0.1346  0.7423  0.8104
    3MPD1    H514201   0.665   1.182  11.177  0.3285 -1.2266  0.1816
    3MPD1    N114202   0.323   0.866  11.064 -0.0013  0.3676  0.0016
    3MPD1    H614203   0.367   0.829  11.149 -0.2933 -1.9392 -0.8544
    3MPD1    H714204   0.305   0.797  10.992  1.1406 -0.2793  0.3355
    4MPD2     C14205   0.859   2.000  10.690 -0.4754 -0.2177  0.5441
    4MPD2    C114206   0.922   2.052  10.802 -0.0491  0.0749 -0.1334
    4MPD2    C214207   1.052   2.078  10.797  0.1627  0.3689  0.9968
    4MPD2    C314208   1.124   2.070  10.675  0.1194  0.1446 -0.0875
    4MPD2    C414209   1.056   2.036  10.561 -0.3342 -0.6683  0.2202
    4MPD2    C514210   0.922   1.998  10.571  0.0191  0.1856  1.1238
    4MPD2     H14211   1.108   2.093  10.889  2.4047 -0.5333 -0.2248
    4MPD2    H114212   1.112   2.029  10.469  0.4577  0.9124  0.5683
    4MPD2    H214213   0.753   1.975  10.692 -0.8494  1.3907  0.7799
    4MPD2    H314214   0.863   1.961  10.487  1.5877  0.6919 -0.2092
    4MPD2     N14215   1.259   2.092  10.660 -0.3007 -0.7468  0.3010
    4MPD2    H514216   1.297   2.078  10.567  0.2875 -0.7987  0.5555
    4MPD2    N114217   0.864   2.071  10.924 -0.2415  0.2070  0.7662
    4MPD2    H714218   0.925   2.087  11.004  1.5879 -1.6212 -0.2443
    5TMC3    C114219   0.718   2.089  11.101  0.6795  0.2541 -0.0861
    5TMC3    C214220   0.656   1.985  11.159 -0.1596  0.3142  0.2482
    5TMC3    C314221   0.714   1.933  11.279 -0.4029 -0.0787 -0.0864
    5TMC3    C414222   0.831   2.155  11.155  0.0602  0.5572  0.3691
    5TMC3    C514223   0.891   2.088  11.264 -0.3551 -1.3519  0.4794
    5TMC3    C614224   0.834   1.976  11.322  0.2540 -0.3022 -0.5678
    5TMC3     C14225   0.733   2.057  10.959 -0.5348 -0.9105  0.8388
    5TMC3     O14226   0.642   2.007  10.901 -0.0296 -0.5719 -0.5018
    5TMC3     H14227   0.560   1.946  11.126 -0.6498  0.1160  1.9036
    5TMC3    H114228   0.876   2.238  11.102  1.3982  0.4271  1.3114
    5TMC3    H214229   0.879   1.934  11.411  0.6834 -1.3966 -1.3051
    5TMC3    C714230   1.035   2.094  11.254 -0.7372 -0.1680 -0.2723
    5TMC3    C814231   0.634   1.846  11.360  1.1960 -0.3864 -0.7127
    5TMC3    O114232   1.084   2.159  11.164 -0.4237  0.0555  0.0196
    5TMC3    O214233   0.532   1.808  11.305 -0.6825  0.2511  0.3635
    6TMC3    C114234   0.992   1.244  11.297 -0.1634 -0.7193 -0.2549
    6TMC3    C214235   0.873   1.242  11.230  0.7546 -0.1875 -0.4801
    6TMC3    C314236   0.880   1.307  11.116 -0.5451 -0.8441  0.1369
    6TMC3    C414237   1.103   1.323  11.267  0.2392 -0.1173  0.0927
    6TMC3    C514238   1.093   1.392  11.146  0.9734 -1.2426  0.6744
    6TMC3    C614239   0.983   1.388  11.073 -0.5584 -0.0170  0.8391
    6TMC3     C14240   0.984   1.208  11.438 -0.3358 -0.3222  0.4502
    6TMC3     O14241   1.068   1.261  11.508 -0.2575 -0.0855 -0.0588
    6TMC3     H14242   0.799   1.175  11.272  1.8586 -0.8389  0.4184
    6TMC3    H114243   1.190   1.331  11.331  0.8718  0.6841 -0.8707
    6TMC3    H214244   0.989   1.440  10.978  0.4945 -1.5470  0.0682
    6TMC3    C714245   1.207   1.466  11.091 -0.1640 -0.3121  0.1841
    6TMC3    C814246   0.770   1.282  11.022  0.1111  0.3319  0.4202
    6TMC3    O114247   1.191   1.535  10.993 -0.8932 -0.2984 -0.3491
    6TMC3    O214248   0.785   1.318  10.904  0.2943  0.2506  0.4073
    7MPD2     C14249   1.479   1.866  11.311 -0.5337  0.3242 -1.0041
    7MPD2    C114250   1.450   1.981  11.245 -1.2482  0.6318 -0.4211
    7MPD2    C214251   1.324   2.034  11.258  0.2620 -0.4035  0.4583
    7MPD2    C314252   1.229   1.964  11.332  0.6108  0.2147  0.1438
    7MPD2    C414253   1.272   1.864  11.409 -0.5789 -0.6733  0.2763
    7MPD2    C514254   1.397   1.811  11.400  0.3985 -0.0478 -0.1784
    7MPD2     H14255   1.304   2.128  11.208  0.2493 -1.2231 -1.0825
    7MPD2    H114256   1.199   1.806  11.463 -0.1716  0.5481  2.1513
    7MPD2    H214257   1.576   1.820  11.298  0.0171  0.8316  1.3118
    7MPD2    H314258   1.426   1.723  11.456  0.5495  0.9423  1.2827
    7MPD2     N14259   1.094   1.999  11.335  0.6165  0.0868  0.5900
    7MPD2    H514260   1.028   1.943  11.388  1.8636  0.8318  2.9117
    7MPD2    N114261   1.548   2.025  11.144 -0.2062  0.3127  0.1933
    7MPD2    H714262   1.622   1.963  11.116 -0.1987  1.2888 -1.9480
    8TMC3    C114263   1.615   2.134  10.947 -0.2656 -0.0250  0.4591
    8TMC3    C214264   1.664   2.015  10.912  0.5220  0.3773 -0.3149
    8TMC3    C314265   1.603   1.935  10.816 -0.7743  0.8197 -0.2675
    8TMC3    C414266   1.528   2.194  10.861  0.1581  0.2022 -0.1005
    8TMC3    C514267   1.476   2.126  10.754  0.7826  0.0169  0.3679
    8TMC3    C614268   1.502   1.994  10.736  0.0103 -0.0203  0.4909
    8TMC3     C14269   1.555   2.149  11.081  0.0452 -0.6067 -0.7027
    8TMC3     O14270   1.490   2.248  11.110 -0.3273  0.1216 -0.6362
    8TMC3     H14271   1.744   1.982  10.978  0.0454 -0.7947 -0.3212
    8TMC3    H114272   1.512   2.301  10.868 -0.0333  0.0662  1.5847
    8TMC3    H214273   1.450   1.934  10.662 -0.4272  0.3866  0.4641
    8TMC3    C714274   1.334   2.141  10.760  0.2104 -0.2908  0.3780
    8TMC3    C814275   1.568   1.806  10.850 -0.3024  0.2474 -1.0339
    8TMC3    O114276   1.297   2.199  10.859  0.2609  0.0165 -0.0097
    8TMC3    O214277   1.467   1.754  10.800  0.1753  0.1298 -0.3187
    9MPD2     C14278   1.704   1.614  11.135 -0.5293  0.5205  0.2116
    9MPD2    C114279   1.604   1.660  11.049  0.2578 -0.0754 -1.0278
    9MPD2    C214280   1.475   1.606  11.057  0.3643  0.1079  0.2334
    9MPD2    C314281   1.451   1.498  11.141  0.1380 -0.0222 -0.2619
    9MPD2    C414282   1.550   1.449  11.216  0.1383  0.5837  0.4807
    9MPD2    C514283   1.669   1.519  11.224  0.3809 -0.5106  0.3306
    9MPD2     H14284   1.400   1.632  10.983  0.0357 -0.0702  0.5076
    9MPD2    H114285   1.525   1.376  11.293  0.7279  0.5261  0.6186
    9MPD2    H214286   1.809   1.641  11.127 -0.3642 -0.8293 -2.1413
    9MPD2    H314287   1.753   1.470  11.273  1.2788  0.6708 -0.0215
    9MPD2     N14288   1.329   1.431  11.154 -0.6615  0.2936  0.2611
    9MPD2    H514289   1.328   1.363  11.229 -0.4290 -0.6656 -0.5956
    9MPD2    N114290   1.645   1.754  10.953 -0.5064  0.7692 -0.3364
    9MPD2    H714291   1.735   1.795  10.976 -0.7100  0.4032  1.1469
    1MPD1     C14292   4.640   4.291  16.759  0.5691  0.5091  0.4310
    1MPD1    C114293   4.691   4.222  16.869 -0.9847  0.1945  0.0431
    1MPD1    C214294   0.026   4.293  16.961  0.0752 -0.0948  0.2660
    1MPD1    C314295   0.052   4.426  16.945  0.5141 -0.4916  0.7766
    1MPD1    C414296   0.005   4.488  16.832  0.2170 -0.2498  0.3559
    1MPD1    C514297   4.674   4.417  16.742 -0.7239  0.7644  0.4286
    1MPD1     H14298   0.078   4.233  17.036 -1.2324 -1.3082  0.2063
    1MPD1    H114299   0.027   4.593  16.818  0.3063 -0.0472  2.0187
    1MPD1    H214300   4.577   4.239  16.687  2.2030 -1.4467  0.4000
    1MPD1    H314301   4.641   4.472  16.654 -1.1451 -2.2760 -1.3050
    1MPD1     N14302   0.133   4.501  17.032 -0.5650  0.2901  0.3240
    1MPD1    H514303   0.135   4.598  17.001  1.1008 -0.8082 -2.9553
    1MPD1    N114304   4.661   4.085  16.876 -0.0936 -0.3928 -0.0827
    1MPD1    H614305   4.687   4.045  16.966 -2.3806  0.5706  1.0091
    1MPD1    H714306   4.562   4.066  16.863 -0.6146  2.9655 -0.9174
    2TMC2    C114307   0.367   4.607  17.435  0.2670 -0.0446  0.6175
    2TMC2    C214308   0.388   4.739  17.393 -0.4678 -0.0104  0.2162
    2TMC2    C314309   0.335   0.032  17.271 -0.1159  0.2174 -0.2409
    2TMC2    C414310   0.306   4.519  17.346  0.1321 -0.0464 -0.0309
    2TMC2    C514311   0.260   4.562  17.225  0.0978  0.4377  0.2666
    2TMC2    C614312   0.256   4.694  17.192 -0.1231 -0.0717  0.4902
    2TMC2     C14313   0.413   4.553  17.564 -0.1684 -0.8710 -0.3286
    2TMC2     O14314   0.429   4.434  17.570  0.0559 -0.6931 -0.1200
    2TMC2     H14315   0.454   0.068  17.444 -0.3216  0.8783 -1.1972
    2TMC2    H114316   0.284   4.419  17.382  0.7030 -0.4211 -0.7123
    2TMC2    H214317   0.222   4.736  17.098 -0.1026  0.7906  0.8724
    2TMC2    C714318   0.195   4.456  17.147  0.1838 -0.0217 -0.0779
    2TMC2    C814319   0.384   0.158  17.222  0.6283  0.4608  0.2908
    2TMC2    O114320   0.205   4.341  17.185 -0.2262  0.0687  0.1049
    2TMC2    O214321   0.332   0.259  17.264 -0.0841 -0.8720 -0.0924
    2TMC2    O514322   0.399   0.139  17.093  0.5773  0.2258  0.0149
    2TMC2    H514323   0.436   0.049  17.082  0.2265 -0.0445  1.0184
    3MPD1     C14324   0.646   4.577   0.261  0.1670 -0.4599  0.6295
    3MPD1    C114325   0.620   4.704   0.210  0.1153  0.1356  0.3153
    3MPD1    C214326   0.569   4.723   0.082 -0.2031  0.3124  0.2751
    3MPD1    C314327   0.529   4.611   0.014 -0.7992  0.1210 -0.5611
    3MPD1    C414328   0.545   4.485   0.064  0.4289  0.0181  0.1725
    3MPD1    C514329   0.602   4.472   0.189  0.1619 -0.0488 -0.0950
    3MPD1     H14330   0.555   0.080   0.038 -1.0944 -0.3211 -0.8855
    3MPD1    H114331   0.518   4.397   0.006  0.7895 -0.1197  0.2161
    3MPD1    H214332   0.679   4.560   0.363  0.0045 -1.3171  0.5398
    3MPD1    H314333   0.608   4.374   0.235  0.3011  1.0257  2.1629
    3MPD1     N14334   0.463   4.640  17.656  0.6192  0.2691  0.6410
    3MPD1    H514335   0.447   4.739  17.645 -0.7013  0.0591  0.6781
    3MPD1    N114336   0.667   0.070   0.279  0.5553 -0.0287 -0.1823
    3MPD1    H614337   0.614   0.152   0.251  0.1054 -0.2784 -0.0674
    3MPD1    H714338   0.660   0.057   0.380  1.2365  2.6114  0.1864
    1TMC1    C114339   3.878   3.926  12.908 -0.1609 -0.2918  0.0658
    1TMC1    C214340   3.861   3.825  12.999  0.4311 -0.1694 -0.6757
    1TMC1    C314341   3.748   3.750  12.992  0.5558  0.1746  0.4235
    1TMC1    C414342   3.788   3.959  12.813 -0.0005  0.0433  0.2445
    1TMC1    C514343   3.676   3.874  12.797 -0.4705  0.2720  0.2225
    1TMC1    C614344   3.654   3.774  12.897  0.8071 -0.2199 -0.1316
    1TMC1     C14345   3.996   4.006  12.910 -0.4783 -0.4338 -0.3683
    1TMC1     O14346   4.029   4.061  12.805  0.2999 -0.0405  0.8247
    1TMC1     H14347   3.943   3.794  13.062  1.6027  1.1194 -1.5611
    1TMC1    H114348   3.805   4.049  12.756 -0.5536 -0.8354 -1.2946
    1TMC1    H214349   3.555   3.730  12.890  0.5753  0.0017  1.7915
    1TMC1    C714350   3.575   3.904  12.700 -0.5000  0.8169  0.3371
    1TMC1    C814351   3.720   3.638  13.089 -0.0757 -0.3739 -0.1896
    1TMC1    O114352   3.455   3.900  12.733  0.2317 -0.6821 -0.1422
    1TMC1    O214353   3.803   3.575  13.155  0.1380 -0.2960 -0.3199
    1TMC1    O314354   3.638   3.968  12.600  0.0037  0.1934 -0.1166
    1TMC1    H314355   3.729   3.933  12.587 -1.0970 -2.8894  0.3322
    1TMC1    O514356   3.594   3.661  13.124  0.0944 -0.6517 -0.2870
    1TMC1    H514357   3.563   3.750  13.094 -1.6463 -1.2802 -0.3144
    2MPD2     C14358   4.206   4.185  13.010  0.0601 -0.4841 -0.0686
    2MPD2    C114359   4.156   4.090  13.088 -0.3056  0.4577  0.1371
    2MPD2    C214360   4.197   4.083  13.216  0.6954 -0.2870  0.4344
    2MPD2    C314361   4.295   4.165  13.267 -0.4082 -0.3279 -0.1332
    2MPD2    C414362   4.345   4.273  13.186 -0.3202 -0.0626 -0.2859
    2MPD2    C514363   4.300   4.273  13.059  0.3810 -1.0962 -0.6155
    2MPD2     H14364   4.153   4.009  13.280  1.0206  0.0917  1.1022
    2MPD2    H114365   4.424   4.342  13.211 -0.0684 -0.9460  1.4368
    2MPD2    H214366   4.169   4.201  12.910 -3.2884  2.7309  1.6764
    2MPD2    H314367   4.348   4.349  12.998  0.9825  0.8930  2.3447
    2MPD2     N14368   4.335   4.151  13.404  0.3822 -0.4188  0.4591
    2MPD2    H514369   4.302   4.068  13.453 -1.4959  0.2765  0.3710
    2MPD2    N114370   4.052   4.003  13.037  0.4489 -0.8242 -0.2388
    2MPD2    H714371   4.005   3.947  13.108 -0.9918  1.1067  0.3091
    3TCq1    O114372   4.423   3.833  13.893  0.0796 -0.2511  0.2625
    3TCq1    C114373   4.336   3.871  13.799 -0.0500 -1.1080 -0.0384
    3TCq1    O214374   4.278   3.803  13.717  0.3292 -0.0023 -0.1076
    3TCq1    C214375   4.380   4.002  13.755  0.9255 -0.0686 -0.8907
    3TCq1    C314376   4.424   4.082  13.856  0.2433  0.0530 -0.3075
    3TCq1    C414377   4.491   4.198  13.829  0.1848 -0.1486  0.6601
    3TCq1    C514378   4.511   4.234  13.698 -0.2124  0.2044 -0.7021
    3TCq1    C614379   4.465   4.158  13.597  0.4586 -0.2102 -0.8681
    3TCq1    C714380   4.406   4.036  13.625  0.4352  0.6073  0.3330
    3TCq1    C814381   4.431   4.222  13.469  0.2302 -0.1881  0.0532
    3TCq1    O414382   4.469   4.336  13.443 -0.0605 -0.3062  0.3128
    3TCq1    C914383   4.537   4.286  13.934 -0.0271  0.1535  0.4582
    3TCq1    O514384   4.520   4.253  14.055 -0.5631 -0.0978  0.2388
    3TCq1    O614385   4.565   4.401  13.899 -0.2490 -0.0344  0.1032
    3TCq1    H114386   4.506   3.883  13.905  0.2443 -0.6369  0.7317
    3TCq1    H214387   4.404   4.053  13.958  1.0081  0.5363 -0.0219
    3TCq1    H314388   4.571   4.322  13.677  2.0105 -0.7166  1.7667
    3TCq1    H414389   4.371   3.960  13.556  3.8040 -0.4999 -0.1358
    1MPD2     C14390   3.263   0.055  14.716  0.5979 -0.8935  0.1090
    1MPD2    C114391   3.174   4.715  14.770 -0.0485 -0.0791  0.1412
    1MPD2    C214392   3.199   4.590  14.817  0.0720 -0.6962 -0.6568
    1MPD2    C314393   3.328   4.546  14.804  0.2626  0.2066  0.1665
    1MPD2    C414394   3.418   4.621  14.741 -0.0792  0.3852  0.2088
    1MPD2    C514395   3.384   0.007  14.697  0.5500 -0.2605  0.4366
    1MPD2     H14396   3.120   4.524  14.851 -0.1795  0.5525  1.1908
    1MPD2    H114397   3.520   4.584  14.732 -0.2447 -0.1742  0.6218
    1MPD2    H214398   3.229   0.150  14.678 -0.2764 -1.4398 -0.4955
    1MPD2    H314399   3.460   0.073  14.657  1.2388 -1.0281  0.4830
    1MPD2     N14400   3.351   4.419  14.859  0.0824  0.5396  0.2469
    1MPD2    H514401   3.270   4.380  14.904  0.6523 -0.0193  0.7940
    1MPD2    N114402   3.038   0.014  14.755 -0.0319  0.0820  0.0793
    1MPD2    H714403   3.025   0.102  14.706 -1.3055  0.1082  0.4820
    2TMC3    C114404   2.800   0.008  14.751  0.3121 -0.7263 -0.0866
    2TMC3    C214405   2.692   4.681  14.797  0.1463  0.4866 -0.0907
    2TMC3    C314406   2.596   4.645  14.715  0.6915  0.2304  0.3198
    2TMC3    C414407   2.793   0.073  14.630  0.1247  0.6137  0.1842
    2TMC3    C514408   2.692   0.040  14.545  0.0415  0.4669 -0.5634
    2TMC3    C614409   2.593   4.694  14.587 -0.1505 -0.4579 -0.2974
    2TMC3     C14410   2.924   4.683  14.787 -0.4049  0.4249  0.0620
    2TMC3     O14411   2.918   4.586  14.859 -0.3808  0.0329  0.0474
    2TMC3     H14412   2.691   4.646  14.899  1.0668  2.3056  0.5446
    2TMC3    H114413   2.870   0.140  14.593  1.1811  0.0260  1.2716
    2TMC3    H214414   2.518   4.648  14.523  0.5842  1.0637 -2.2790
    2TMC3    C714415   2.660   0.115  14.430 -0.2367  0.4299  0.4642
    2TMC3    C814416   2.557   4.508  14.733 -0.3724  0.2700  0.6769
    2TMC3    O114417   2.540   0.111  14.411  0.5492 -0.4817 -0.3117
    2TMC3    O214418   2.459   4.458  14.682 -0.1659 -0.1639  0.3957
    3TCq1    O114419   2.956   1.182  13.917  0.1584 -0.0292 -0.1241
    3TCq1    C114420   3.006   1.075  13.846 -0.5801 -0.5450 -0.5675
    3TCq1    O214421   2.985   1.058  13.722  0.1792 -0.3496 -0.0632
    3TCq1    C214422   3.024   0.969  13.939 -0.3589  0.3396  0.0398
    3TCq1    C314423   3.092   0.996  14.055 -0.1161  0.7446 -0.5646
    3TCq1    C414424   3.090   0.894  14.152 -0.4402 -0.5273  0.6869
    3TCq1    C514425   3.034   0.771  14.127  0.5207  0.4607 -0.0808
    3TCq1    C614426   2.975   0.753  14.001 -0.1466  0.2410 -0.6028
    3TCq1    C714427   2.972   0.847  13.904 -1.0824  0.5482  0.0620
    3TCq1    C814428   2.904   0.628  13.970  0.5111 -0.5501  0.1252
    3TCq1    O414429   2.846   0.615  13.860  0.2520  0.4289  0.2463
    3TCq1    C914430   3.141   0.920  14.287 -0.4875 -0.2181 -0.3070
    3TCq1    O514431   3.090   0.844  14.380  0.1453 -0.4701  1.1041
    3TCq1    O614432   3.204   1.026  14.296  0.0868  0.7199 -0.3794
    3TCq1    H114433   2.947   1.170  14.014  1.7054  4.4716  0.5507
    3TCq1    H214434   3.120   1.099  14.075 -1.1773  1.0162 -0.4959
    3TCq1    H314435   3.038   0.695  14.204 -0.0319 -0.0686 -0.5787
    3TCq1    H414436   2.917   0.824  13.814  0.7286  0.6228 -1.0741
    4MPD2     C14437   2.710   0.410  14.020 -0.3359  0.4462  0.4573
    4MPD2    C114438   2.816   0.437  14.104 -0.8346 -0.4212 -0.3577
    4MPD2    C214439   2.826   0.363  14.222 -0.4133 -0.3798 -0.3012
    4MPD2    C314440   2.742   0.258  14.245 -0.0898  0.1421 -0.0783
    4MPD2    C414441   2.639   0.223  14.149 -0.1571 -0.1659 -0.0177
    4MPD2    C514442   2.624   0.304  14.042 -0.6792  0.3501  1.1137
    4MPD2     H14443   2.905   0.386  14.292 -1.3561  0.8815  0.3642
    4MPD2    H114444   2.571   0.144  14.178  1.3887 -2.1445 -1.7694
    4MPD2    H214445   2.696   0.460  13.925 -0.7783  0.3388  0.4690
    4MPD2    H314446   2.550   0.288  13.964  0.8262  0.9560 -0.4347
    4MPD2     N14447   2.757   0.190  14.372  0.3851  0.5859  0.7520
    4MPD2    H514448   2.838   0.216  14.428 -1.5681  3.6246  2.1687
    4MPD2    N114449   2.907   0.539  14.077 -0.4006  0.1085  0.2126
    4MPD2    H714450   2.971   0.559  14.154 -2.8499  0.2725  2.1807
    5TMC2    C114451   3.211   4.125  14.948  0.1127  0.2033 -0.4157
    5TMC2    C214452   3.212   4.158  15.081  0.2209  0.3359 -0.7339
    5TMC2    C314453   3.328   4.214  15.129 -0.2704  0.1925  0.0008
    5TMC2    C414454   3.318   4.160  14.873 -0.2829  0.1140 -0.1798
    5TMC2    C514455   3.434   4.220  14.926 -0.1120  1.1542 -0.3076
    5TMC2    C614456   3.442   4.231  15.058  0.4496  0.3770  0.4586
    5TMC2     C14457   3.086   4.166  14.882  0.5183 -0.5920  0.1353
    5TMC2     O14458   3.098   4.266  14.808  0.4679 -0.2972  0.9537
    5TMC2     H14459   3.121   4.160  15.141  0.9573 -0.7841  0.4324
    5TMC2    H114460   3.310   4.134  14.768  0.4778 -0.6630 -0.0372
    5TMC2    H214461   3.520   4.290  15.106  0.7462 -0.4873  1.0239
    5TMC2    C714462   3.467   4.346  14.857  0.2692 -0.1277 -0.3140
    5TMC2    C814463   3.332   4.270  15.265  0.0938 -0.2874 -0.5125
    5TMC2    O114464   3.563   4.356  14.783  0.0862  0.4100  0.4339
    5TMC2    O214465   3.439   4.290  15.324  0.3260 -0.7485 -0.4229
    5TMC2    O514466   3.216   4.344  15.286  0.2907 -0.3588 -0.1122
    5TMC2    H514467   3.155   4.346  15.209  2.0747 -2.3965 -1.5404
    6MPD2     C14468   2.581   4.217  14.822  0.7523  0.3232  0.1718
    6MPD2    C114469   2.687   4.310  14.824 -0.3827  0.5501  0.3819
    6MPD2    C214470   2.813   4.270  14.857  0.4948  0.3159  0.4517
    6MPD2    C314471   2.846   4.144  14.904  0.0903  0.2485 -1.0449
    6MPD2    C414472   2.740   4.054  14.916  0.1480  0.1688 -0.5275
    6MPD2    C514473   2.616   4.088  14.864  0.8819  0.4097  0.5203
    6MPD2     H14474   2.892   4.344  14.855 -0.3545  1.2224  0.7785
    6MPD2    H114475   2.753   3.954  14.956 -1.6733 -0.1148 -0.6180
    6MPD2    H214476   2.482   4.257  14.802  0.6999  1.2644  2.3060
    6MPD2    H314477   2.544   4.010  14.881 -1.2812  1.9776 -1.4771
    6MPD2     N14478   2.973   4.104  14.935  0.9383  0.1919 -0.0601
    6MPD2    H514479   2.979   4.012  14.978  1.4539  0.3757  0.2659
    6MPD2    N114480   2.666   4.444  14.793  0.2485 -0.3032  0.4520
    6MPD2    H714481   2.740   4.511  14.811 -1.6093  2.2458 -1.5882
  945NH3     N114482   1.250   0.012   9.422 -0.3911 -0.7119 -0.8717
  945NH3     H214483   1.335   4.719   9.465 -0.5217  0.2430  0.1452
  945NH3     H314484   1.203   0.061   9.498  2.4557  1.2829 -0.4073
  945NH3     H414485   1.276   0.101   9.381 -2.6630  1.1822  1.7512
  946SOD     NA14486   0.655   0.272  13.451 -0.2898 -0.0092 -0.0411
  947SOD     NA14487   2.467   1.778  11.389 -0.2631  0.0979  0.8424
  948SOD     NA14488   4.157   1.736   9.816 -0.0273 -0.4158 -0.4296
  949SOD     NA14489   1.067   0.189   8.041  0.1179  0.0547  0.2494
  950SOD     NA14490   1.959   4.632  12.118  0.0865 -0.0962 -0.4230
  951SOD     NA14491   0.526   1.750   1.832 -0.9289  0.7422 -0.4201
  952SOD     NA14492   0.153   1.785  16.348 -0.0668 -0.1333 -0.2906
  953SOD     NA14493   2.369   3.001  14.340  0.5199  0.2748 -0.8623
  954SOL     OW14494   4.219   4.301  17.090  0.3754 -0.1406 -0.1589
  954SOL    HW114495   4.299   4.354  17.084  0.5446 -0.4441 -0.5266
  954SOL    HW214496   4.243   4.225  17.143 -1.4269 -0.2714  0.4766
  955SOL     OW14497   4.395   4.602  10.751  0.5265 -0.0464  0.5071
  955SOL    HW114498   4.426   4.584  10.662 -1.6296  2.6416 -0.7836
  955SOL    HW214499   4.308   4.639  10.734  0.5540  0.7017  2.0414
  956SOL     OW14500   1.586   0.151   3.193  0.1446 -0.2293 -0.0152
  956SOL    HW114501   1.568   0.101   3.114  0.4529  1.6014 -1.2419
  956SOL    HW214502   1.574   0.242   3.165  1.6568  0.9789  3.2055
  957SOL     OW14503   0.746   1.138   8.260  0.1560 -0.9745  0.2091
  957SOL    HW114504   0.664   1.155   8.214 -0.0821 -1.6385  0.3817
  957SOL    HW214505   0.802   1.215   8.254  1.3171 -1.6710  1.8571
  958SOL     OW14506   4.162   4.227   1.287 -0.2658  0.8021  0.0092
  958SOL    HW114507   4.080   4.212   1.240 -0.9210  1.4902  0.9169
  958SOL    HW214508   4.166   4.323   1.294  1.9957  0.5960  1.5397
  959SOL     OW14509   1.256   0.494  17.237 -0.0929 -0.0693 -0.0341
  959SOL    HW114510   1.248   0.566  17.299 -1.0960  0.5999 -0.9291
  959SOL    HW214511   1.337   0.458  17.273  0.1878  1.0310  0.4318
  960SOL     OW14512   1.300   3.619   3.196 -0.2537  0.3557 -0.0465
  960SOL    HW114513   1.299   3.565   3.117 -0.3715 -0.2216  0.3493
  960SOL    HW214514   1.358   3.695   3.184  1.7238 -1.0767  0.5653
  961SOL     OW14515   4.110   3.265   1.528 -0.0084 -0.0435 -0.2911
  961SOL    HW114516   4.166   3.192   1.502  1.7217  1.1506  0.0878
  961SOL    HW214517   4.177   3.307   1.582  1.0237 -0.8562 -0.9419
  962SOL     OW14518   2.978   2.929   7.882 -0.8779  0.4873  0.0861
  962SOL    HW114519   2.889   2.963   7.897 -0.2206  1.8868  0.7744
  962SOL    HW214520   3.018   2.957   7.964  0.4234  0.5980 -0.5937
  963SOL     OW14521   2.174   1.043  12.332 -0.0765  0.7599  0.2283
  963SOL    HW114522   2.250   1.096  12.355  0.3721  0.5120 -0.7269
  963SOL    HW214523   2.212   1.006  12.253 -1.1802 -0.9500  0.4926
  964SOL     OW14524   2.150   2.401   1.990  0.0376  0.4532 -0.3238
  964SOL    HW114525   2.192   2.340   2.050  1.1728 -0.4182 -1.9946
  964SOL    HW214526   2.124   2.468   2.053 -0.1278 -1.0243  1.1734
  965SOL     OW14527   3.057   3.447   4.168  0.1093 -0.4067 -0.2170
  965SOL    HW114528   3.000   3.518   4.140 -0.5248 -1.0623 -0.5869
  965SOL    HW214529   3.000   3.391   4.221 -0.2730  0.4924  0.3292
  966SOL     OW14530   2.251   1.723   3.585  0.2893 -0.6669  0.2214
  966SOL    HW114531   2.217   1.700   3.498  0.2755  0.2631 -0.0226
  966SOL    HW214532   2.325   1.662   3.587  0.3582 -0.5956 -0.0553
  967SOL     OW14533   2.360   1.262   1.234 -0.6575 -0.4665 -0.0398
  967SOL    HW114534   2.412   1.265   1.153 -1.0162 -1.0670 -0.2934
  967SOL    HW214535   2.293   1.324   1.205 -0.8405 -0.5678  0.1713
  968SOL     OW14536   0.183   2.910   2.663  0.0765  0.4955 -0.9106
  968SOL    HW114537   0.110   2.854   2.692  1.4842 -0.1877  1.3314
  968SOL    HW214538   0.187   2.973   2.735 -1.9452  0.2884 -0.6024
  969SOL     OW14539   0.103   0.798  14.900 -0.2212 -0.2165 -0.0193
  969SOL    HW114540   0.117   0.893  14.907  1.5869 -0.4827  0.0912
  969SOL    HW214541   0.188   0.768  14.933 -0.4110 -1.1098 -0.3452
  970SOL     OW14542   3.986   1.834  17.611 -0.6106  0.4490  0.0425
  970SOL    HW114543   3.960   1.772  17.679 -2.0091  2.9001  1.7388
  970SOL    HW214544   4.059   1.786  17.572  0.1293  0.5519  1.2943
  971SOL     OW14545   4.166   2.681   6.485 -0.0201 -0.0358  0.8539
  971SOL    HW114546   4.230   2.749   6.502 -0.3150  0.0168  1.7419
  971SOL    HW214547   4.143   2.704   6.395  0.2386 -0.1125  0.7666
  972SOL     OW14548   4.498   0.657   8.234 -0.2638  0.9951 -0.0679
  972SOL    HW114549   4.538   0.571   8.217 -0.3332  0.8237  0.6533
  972SOL    HW214550   4.575   0.705   8.264 -0.8707  1.2530  1.0820
  973SOL     OW14551   0.236   1.808   6.420  0.5215 -0.6585 -0.4444
  973SOL    HW114552   0.193   1.738   6.470 -0.2532  1.7449  2.2505
  973SOL    HW214553   0.223   1.775   6.331 -2.3429 -1.0923  0.1451
  974SOL     OW14554   4.037   4.576   8.074  0.3697  0.2107  0.0189
  974SOL    HW114555   4.008   4.513   8.140 -0.1054 -0.5135 -0.8873
  974SOL    HW214556   4.120   4.607   8.112  0.1261 -0.6363  1.2351
  975SOL     OW14557   0.360   3.114   4.679 -0.4829  0.1407  0.0371
  975SOL    HW114558   0.400   3.181   4.623 -1.3792  1.2374  0.7028
  975SOL    HW214559   0.316   3.165   4.747  0.6810  0.7111  0.3580
  976SOL     OW14560   2.880   1.048   2.162  0.7164 -0.5296  0.4435
  976SOL    HW114561   2.823   0.984   2.205 -0.8273 -0.7339 -1.8937
  976SOL    HW214562   2.825   1.088   2.094  0.0006 -2.2447  0.0020
  977SOL     OW14563   4.390   4.518   6.172  0.1101 -0.6183 -0.1886
  977SOL    HW114564   4.296   4.520   6.188  0.6510 -0.2039  2.9970
  977SOL    HW214565   4.417   4.597   6.219 -1.3383  0.4849 -1.2060
  978SOL     OW14566   3.434   2.410   4.778 -0.1966 -0.4275 -0.4067
  978SOL    HW114567   3.424   2.385   4.686  0.3970  0.4568 -0.7032
  978SOL    HW214568   3.340   2.417   4.797  0.1325  0.7365  0.7007
  979SOL     OW14569   2.328   1.275  16.830 -0.0432 -0.6580 -0.4167
  979SOL    HW114570   2.351   1.214  16.900 -1.8424 -1.6725 -0.7207
  979SOL    HW214571   2.404   1.277  16.772 -0.1689 -0.4249 -0.5749
  980SOL     OW14572   2.353   3.373   6.918 -0.2980  0.3143  0.1214
  980SOL    HW114573   2.413   3.401   6.849  1.1390  0.2712  1.3323
  980SOL    HW214574   2.311   3.458   6.931 -0.8902 -0.0934  0.9115
  981SOL     OW14575   2.075   4.184  15.292 -0.4328 -0.3723  0.5342
  981SOL    HW114576   2.006   4.250  15.300  0.5356  0.6906  0.0217
  981SOL    HW214577   2.107   4.183  15.202  1.2350  0.1111  1.1211
  982SOL     OW14578   3.434   4.061  13.306  0.1438  0.6937 -0.5750
  982SOL    HW114579   3.384   4.041  13.385 -1.8048  2.3395 -1.3986
  982SOL    HW214580   3.437   4.157  13.298 -0.9676  0.6484 -1.4210
  983SOL     OW14581   0.467   2.787  15.428  0.6196 -0.0315 -0.5489
  983SOL    HW114582   0.458   2.882  15.435  2.7863  0.1918 -0.7380
  983SOL    HW214583   0.557   2.782  15.459  1.5452  2.9822 -2.7644
  984SOL     OW14584   3.344   4.251   0.500  0.4156  0.4389 -0.2728
  984SOL    HW114585   3.376   4.287   0.583 -0.3529  1.1203 -0.2675
  984SOL    HW214586   3.356   4.157   0.512  0.4748  0.7307  2.0683
  985SOL     OW14587   4.692   1.656   6.952 -0.2149 -0.4461 -0.2481
  985SOL    HW114588   4.734   1.642   7.037  0.5882 -1.4561 -0.8028
  985SOL    HW214589   0.020   1.713   6.919  0.2615  0.3354  2.0614
  986SOL     OW14590   3.548   4.059  13.717  0.4355  0.7138  0.4630
  986SOL    HW114591   3.460   4.069  13.754 -0.8344  1.8906 -2.8672
  986SOL    HW214592   3.581   3.979  13.756  0.3688  0.6764  0.4440
  987SOL     OW14593   0.660   4.520  13.434  0.2710 -0.0912 -0.3007
  987SOL    HW114594   0.672   4.452  13.501 -0.3797 -0.9808 -1.0986
  987SOL    HW214595   0.733   4.496  13.378 -0.3800  0.1777 -1.2639
  988SOL     OW14596   3.825   3.692  14.773  0.4339  0.3128  0.0521
  988SOL    HW114597   3.920   3.679  14.772  0.5199  1.0519 -1.4869
  988SOL    HW214598   3.804   3.706  14.865  2.3358 -1.3641  0.7542
  989SOL     OW14599   1.073   1.409  17.591 -0.2210  0.1117  0.0869
  989SOL    HW114600   1.054   1.474  17.523  0.9557  1.2046  0.7951
  989SOL    HW214601   1.148   1.453  17.633  1.0040 -1.3543 -0.5606
  990SOL     OW14602   1.899   3.566  14.903 -0.2361 -0.7200  0.9916
  990SOL    HW114603   1.960   3.576  14.976  3.0136 -1.4091 -1.5994
  990SOL    HW214604   1.845   3.645  14.901  2.5313  1.1799  1.7973
  991SOL     OW14605   1.339   4.353   4.207 -0.2517 -0.3770  0.2341
  991SOL    HW114606   1.335   4.263   4.237  0.7794 -0.9119 -1.2524
  991SOL    HW214607   1.432   4.376   4.212 -0.8951  1.8872  1.8883
  992SOL     OW14608   0.663   0.516   2.677  0.2180 -0.6659 -0.4219
  992SOL    HW114609   0.659   0.496   2.771  0.3811  1.5211  0.0521
  992SOL    HW214610   0.756   0.525   2.655 -0.0952  4.1737  0.2711
  993SOL     OW14611   2.554   0.784   3.531 -0.8038 -0.5777  0.6352
  993SOL    HW114612   2.477   0.779   3.474  0.8928 -3.4574 -1.3931
  993SOL    HW214613   2.505   0.769   3.612 -0.6398 -0.8698  0.6770
  994SOL     OW14614   1.061   3.393  17.163 -0.7137 -0.0821 -0.1706
  994SOL    HW114615   1.057   3.449  17.085  1.3924 -1.1295 -1.0261
  994SOL    HW214616   1.117   3.324  17.129 -0.3471 -0.5904  1.4887
  995SOL     OW14617   3.794   4.572  11.525  0.3203 -0.3198 -0.5852
  995SOL    HW114618   3.867   4.628  11.553  0.3423 -0.6813  0.0846
  995SOL    HW214619   3.780   4.509  11.597  1.4652  1.4363  1.1829
  996SOL     OW14620   0.997   4.723   1.275 -0.5059  0.2055  0.3821
  996SOL    HW114621   0.948   4.661   1.220 -0.7411  1.0802 -0.3970
  996SOL    HW214622   1.007   4.670   1.354 -1.0200  0.4720  0.6175
  997SOL     OW14623   0.277   0.711  15.089  0.0943 -0.4066 -0.2995
  997SOL    HW114624   0.344   0.726  15.156 -0.1258  0.9089 -0.3700
  997SOL    HW214625   0.314   0.647  15.028  3.2264 -1.0733  2.3272
  998SOL     OW14626   4.119   0.899   7.969 -0.0993 -0.0125 -0.6634
  998SOL    HW114627   4.076   0.821   7.934  0.3965 -0.4923 -0.1926
  998SOL    HW214628   4.050   0.963   7.983  2.0584  2.2569 -0.5017
  999SOL     OW14629   3.772   3.946   3.148  0.1307 -0.1631 -0.3943
  999SOL    HW114630   3.831   3.907   3.084  1.4722 -2.0868  2.0274
  999SOL    HW214631   3.789   4.039   3.131 -1.0777  0.3377  1.1000
 1000SOL     OW14632   0.623   2.713  13.590 -0.3266  0.4100  0.5629
 1000SOL    HW114633   0.559   2.689  13.657  0.3907  0.7549  1.3700
 1000SOL    HW214634   0.595   2.804  13.588  2.7789  1.2861 -1.8060
 1001SOL     OW14635   4.717   0.186   2.242 -0.2110 -0.0242  0.4120
 1001SOL    HW114636   4.714   0.097   2.207 -0.3319 -0.3358  1.2009
 1001SOL    HW214637   0.038   0.186   2.314  1.9567  0.8880 -1.4729
 1002SOL     OW14638   2.212   2.178   7.757  0.6605 -0.1914 -0.0035
 1002SOL    HW114639   2.233   2.105   7.698 -0.5328 -0.3465 -0.2341
 1002SOL    HW214640   2.230   2.252   7.698 -0.9474 -0.1940 -0.4978
 1003SOL     OW14641   0.924   1.932  15.121 -0.1577 -0.1668 -0.7345
 1003SOL    HW114642   0.892   1.875  15.192  0.8290 -0.9831 -0.9489
 1003SOL    HW214643   0.937   1.861  15.059  0.7028  1.7141 -2.6815
 1004SOL     OW14644   3.993   0.192   4.872 -0.5728 -0.2433 -0.6991
 1004SOL    HW114645   3.972   0.279   4.908 -0.4611  0.2740 -1.8634
 1004SOL    HW214646   3.947   0.201   4.789  0.0701 -0.0339 -1.0319
 1005SOL     OW14647   3.772   0.400   3.970 -0.1066  0.0045  0.2779
 1005SOL    HW114648   3.756   0.421   3.878  2.2066 -1.0850 -0.3725
 1005SOL    HW214649   3.792   0.485   4.009 -0.4971 -0.6732  1.9802
 1006SOL     OW14650   4.441   2.703   7.060  0.4106  0.5551 -0.1975
 1006SOL    HW114651   4.531   2.734   7.062  1.3865 -2.2576  0.3871
 1006SOL    HW214652   4.442   2.626   7.117 -0.3003  1.1829  0.6674
 1007SOL     OW14653   3.990   3.572  15.826  0.2713  0.3632  0.2368
 1007SOL    HW114654   4.041   3.556  15.747  2.5782 -2.1090  2.2584
 1007SOL    HW214655   3.958   3.660  15.804 -0.1145 -0.1016 -1.0727
 1008SOL     OW14656   1.294   2.466   9.622  0.0823  0.4085  0.0450
 1008SOL    HW114657   1.242   2.418   9.687  0.1094  0.3521  0.0249
 1008SOL    HW214658   1.382   2.437   9.646  0.9355  2.4587 -0.6545
 1009SOL     OW14659   4.676   0.356   0.321  0.0259 -0.0465 -0.1387
 1009SOL    HW114660   4.648   0.439   0.360  1.4293  0.9377 -1.2216
 1009SOL    HW214661   0.024   0.377   0.292  0.9238 -0.8339  2.0935
 1010SOL     OW14662   1.972   1.283   6.352  0.1208  0.6005 -0.4840
 1010SOL    HW114663   1.963   1.378   6.350 -2.1629  0.4063  1.7170
 1010SOL    HW214664   1.938   1.251   6.268 -2.3802  3.3145 -0.4966
 1011SOL     OW14665   0.992   3.223   5.551 -0.4916 -0.3741 -0.0375
 1011SOL    HW114666   0.953   3.270   5.477  0.3846  0.3977 -0.0129
 1011SOL    HW214667   0.906   3.203   5.590 -0.8971 -0.7019 -1.1206
 1012SOL     OW14668   1.114   4.686  16.653 -0.2265  0.0967 -0.2019
 1012SOL    HW114669   1.099   4.607  16.705 -0.7881  1.4454  1.7063
 1012SOL    HW214670   1.073   0.011  16.709 -0.8489 -1.4465  1.1686
 1013SOL     OW14671   2.138   3.337   3.963 -0.0587 -0.0167 -0.5665
 1013SOL    HW114672   2.175   3.328   3.875 -0.3741 -0.5645 -0.6434
 1013SOL    HW214673   2.198   3.277   4.008 -0.1751  0.6247  0.4370
 1014SOL     OW14674   2.273   4.263   2.937 -0.3097  0.0111  0.1349
 1014SOL    HW114675   2.196   4.320   2.927 -1.7894 -1.6692  1.8372
 1014SOL    HW214676   2.338   4.326   2.967 -2.5257  2.2465  0.3060
 1015SOL     OW14677   1.417   0.409   5.208 -0.0389 -0.6228 -0.2530
 1015SOL    HW114678   1.376   0.328   5.238  0.3528 -1.7632 -2.7907
 1015SOL    HW214679   1.508   0.393   5.231 -0.4586  0.2358  2.0700
 1016SOL     OW14680   2.707   3.671   2.935 -0.4496  0.5359  0.1828
 1016SOL    HW114681   2.759   3.667   2.855 -1.5941  1.5894 -0.6086
 1016SOL    HW214682   2.739   3.753   2.972 -2.9603  0.8073  1.7031
 1017SOL     OW14683   2.205   1.185   1.667 -0.1788  0.0020 -0.4057
 1017SOL    HW114684   2.300   1.189   1.667 -0.1756  0.0028  0.9709
 1017SOL    HW214685   2.193   1.259   1.607 -0.2905  0.7979  0.5878
 1018SOL     OW14686   1.424   3.847   1.806  0.2123  0.0705  0.3323
 1018SOL    HW114687   1.504   3.824   1.758  0.8929  3.5902 -0.2709
 1018SOL    HW214688   1.450   3.899   1.882 -0.9778  1.1061  0.0348
 1019SOL     OW14689   3.722   2.983   2.249 -0.0449  0.5957  0.6246
 1019SOL    HW114690   3.733   2.958   2.157 -0.5841  1.9169  0.2062
 1019SOL    HW214691   3.700   3.075   2.238  0.3013  0.6434  0.3604
 1020SOL     OW14692   4.439   2.890   1.601 -0.1131  0.0342  0.2776
 1020SOL    HW114693   4.462   2.849   1.518 -0.1038  0.7158 -0.0532
 1020SOL    HW214694   4.519   2.874   1.651 -0.5521  1.0832  1.3140
 1021SOL     OW14695   4.635   1.570   7.760 -0.0671  0.0998 -0.3111
 1021SOL    HW114696   4.552   1.536   7.728  1.3534 -1.3621 -2.4446
 1021SOL    HW214697   4.688   1.559   7.681 -0.5256  2.1585 -0.8997
 1022SOL     OW14698   2.600   2.496   8.800  0.3160  0.1060 -0.3968
 1022SOL    HW114699   2.515   2.481   8.841  0.2653  1.8690  0.1506
 1022SOL    HW214700   2.576   2.518   8.710  2.5031 -0.9589 -1.2520
 1023SOL     OW14701   3.905   1.152   3.242  0.3447 -0.1730 -0.1010
 1023SOL    HW114702   3.920   1.182   3.331  0.1038 -1.2555  0.3125
 1023SOL    HW214703   3.979   1.184   3.191  0.2045 -1.9997 -1.4662
 1024SOL     OW14704   1.193   2.793   2.218 -0.2261 -0.3025 -0.1941
 1024SOL    HW114705   1.238   2.709   2.225 -0.4340 -0.3038  1.1526
 1024SOL    HW214706   1.254   2.851   2.264 -1.0725 -0.9769  1.7922
 1025SOL     OW14707   1.599   2.002   5.438 -0.0145  0.4534 -0.0059
 1025SOL    HW114708   1.681   2.046   5.459  0.1836 -1.5103  3.2501
 1025SOL    HW214709   1.575   2.041   5.353  1.2772 -1.2371 -1.1490
 1026SOL     OW14710   1.173   4.607   0.028  0.0917  0.4849 -0.3717
 1026SOL    HW114711   1.095   4.578  17.744 -1.2113  1.4221  1.2625
 1026SOL    HW214712   1.166   4.701   0.014 -1.1693  0.5922  1.0676
 1027SOL     OW14713   1.687   2.689  14.052 -0.6545 -0.1710 -0.1719
 1027SOL    HW114714   1.654   2.757  13.993 -0.0102  1.6049  1.5053
 1027SOL    HW214715   1.617   2.687  14.116 -0.1092 -0.1202  0.4250
 1028SOL     OW14716   0.855   1.351   7.069 -0.0478  0.2664  0.0003
 1028SOL    HW114717   0.788   1.286   7.050  0.5542  0.3526 -2.4006
 1028SOL    HW214718   0.906   1.330   6.991  1.1193  1.0756  0.5331
 1029SOL     OW14719   2.650   1.965   8.378  0.0867  0.2993  0.2900
 1029SOL    HW114720   2.569   2.010   8.353  0.1883 -0.2723 -1.0951
 1029SOL    HW214721   2.717   2.025   8.344  1.7643 -1.1163  1.0816
 1030SOL     OW14722   2.539   1.289  11.395  0.2711  1.0035  0.1639
 1030SOL    HW114723   2.543   1.302  11.301 -0.7545 -2.0921 -0.3125
 1030SOL    HW214724   2.550   1.194  11.393 -0.4345  0.8633  2.6165
 1031SOL     OW14725   3.497   3.327   5.432  0.1663  0.1872  0.1474
 1031SOL    HW114726   3.455   3.409   5.456  0.1151 -0.6339  2.8692
 1031SOL    HW214727   3.431   3.270   5.392  0.4754 -0.4665  0.5741
 1032SOL     OW14728   3.517   2.904   6.413  0.4024  1.0168  0.7570
 1032SOL    HW114729   3.427   2.871   6.410  1.3336 -1.3721 -1.5334
 1032SOL    HW214730   3.562   2.844   6.473 -0.3720  0.9007  1.2164
 1033SOL     OW14731   1.814   0.452  15.294 -0.1924  0.1580  0.4290
 1033SOL    HW114732   1.771   0.375  15.330  0.2534  0.0726  0.7708
 1033SOL    HW214733   1.771   0.478  15.211 -1.2361 -0.5854  0.7407
 1034SOL     OW14734   4.534   1.288   7.527 -0.0600  0.3317 -0.1077
 1034SOL    HW114735   4.626   1.273   7.508 -0.1842 -1.6618  0.8485
 1034SOL    HW214736   4.538   1.298   7.622  3.5090 -1.0488 -0.1269
 1035SOL     OW14737   0.563   1.738   0.369  0.7145  0.1879  0.1951
 1035SOL    HW114738   0.552   1.645   0.349 -0.7633  0.1549  1.1864
 1035SOL    HW214739   0.656   1.747   0.389  0.8964 -0.7680 -0.2291
 1036SOL     OW14740   2.492   4.051   1.938 -0.1156 -0.4692  0.4786
 1036SOL    HW114741   2.434   4.078   1.866  1.6714  0.4394 -0.6066
 1036SOL    HW214742   2.580   4.038   1.902 -0.7273  0.2320 -1.2530
 1037SOL     OW14743   0.934   1.330  10.700  0.3843  0.1750 -0.2295
 1037SOL    HW114744   0.948   1.419  10.668  0.6697  0.1621 -0.1433
 1037SOL    HW214745   0.882   1.342  10.779  0.8859  1.4948 -0.1051
 1038SOL     OW14746   3.770   1.671   8.610  0.4211 -0.1928 -0.2307
 1038SOL    HW114747   3.801   1.651   8.522 -1.4750  0.7953 -1.1259
 1038SOL    HW214748   3.839   1.633   8.663  0.7704 -0.0171 -0.5618
 1039SOL     OW14749   2.474   3.462   7.880 -0.5420 -0.4535  0.4468
 1039SOL    HW114750   2.395   3.492   7.835  1.8276  1.5618 -2.3262
 1039SOL    HW214751   2.515   3.546   7.901 -2.2062  0.3060  0.6390
 1040SOL     OW14752   3.998   4.126   7.704  0.0295  0.2318 -0.9055
 1040SOL    HW114753   3.950   4.050   7.670  1.4248 -0.9254 -0.2463
 1040SOL    HW214754   4.084   4.091   7.724  0.3096  1.2993 -0.2775
 1041SOL     OW14755   1.577   1.898   9.280  0.1359  0.2812  0.2665
 1041SOL    HW114756   1.613   1.950   9.207 -0.8286  0.3716 -0.1445
 1041SOL    HW214757   1.641   1.827   9.290 -0.6172 -0.5661 -0.8821
 1042SOL     OW14758   3.349   1.867   4.280  0.5137 -0.1867 -0.0367
 1042SOL    HW114759   3.320   1.833   4.365 -0.0757  0.4941  0.0313
 1042SOL    HW214760   3.278   1.837   4.223  0.6446  2.2301 -1.4763
 1043SOL     OW14761   4.574   0.323   2.627 -0.1225 -0.1946 -0.0225
 1043SOL    HW114762   4.547   0.231   2.624  1.2304 -0.6462  1.6045
 1043SOL    HW214763   4.494   0.359   2.589 -0.8531  0.0261  1.7357
 1044SOL     OW14764   2.325   2.653   8.742 -0.0140 -0.2044  0.3110
 1044SOL    HW114765   2.278   2.570   8.734 -0.5308  0.1654 -0.5502
 1044SOL    HW214766   2.346   2.658   8.649  1.4562 -0.0719  0.6492
 1045SOL     OW14767   0.258   0.454  17.031 -0.0821  0.4461 -0.6303
 1045SOL    HW114768   0.283   0.384  17.093  0.3560  0.3698 -0.8909
 1045SOL    HW214769   0.309   0.530  17.059  1.1071 -0.8426  0.7583
 1046SOL     OW14770   3.288   3.995   4.697  0.0505  0.0308 -0.1504
 1046SOL    HW114771   3.371   4.035   4.722  0.0936  1.0580 -2.0150
 1046SOL    HW214772   3.255   4.064   4.640 -2.2481 -1.2476 -0.3449
 1047SOL     OW14773   1.775   3.254  13.141  0.2661 -0.3362  0.5438
 1047SOL    HW114774   1.691   3.299  13.132 -0.2288 -1.3598  0.0183
 1047SOL    HW214775   1.756   3.160  13.144  0.0376 -0.2830  0.8184
 1048SOL     OW14776   2.202   0.414   2.407 -0.4610 -0.3052 -0.1483
 1048SOL    HW114777   2.218   0.472   2.333 -1.4743 -0.0621 -0.1805
 1048SOL    HW214778   2.140   0.461   2.463  1.3115  1.5192  0.2634
 1049SOL     OW14779   2.953   4.514   1.139  0.3467  0.1181 -0.1611
 1049SOL    HW114780   2.981   4.480   1.224  1.9195 -3.1220 -1.9795
 1049SOL    HW214781   3.033   4.508   1.086  1.9156  0.8032  2.1514
 1050SOL     OW14782   3.953   0.548   8.561  0.4056 -0.6068 -0.2421
 1050SOL    HW114783   3.896   0.535   8.485 -2.2679  0.1138  1.6424
 1050SOL    HW214784   3.895   0.578   8.631 -0.3078 -1.0605 -0.6367
 1051SOL     OW14785   1.786   0.573  15.563  0.0284  0.7878 -0.0841
 1051SOL    HW114786   1.728   0.527  15.502 -0.7113 -0.3478  1.5062
 1051SOL    HW214787   1.864   0.516  15.554 -0.4273 -0.2687  2.8689
 1052SOL     OW14788   0.797   3.229   6.191 -0.3440 -0.0494  0.0643
 1052SOL    HW114789   0.821   3.304   6.245 -0.7996 -1.2499  1.9499
 1052SOL    HW214790   0.702   3.224   6.202 -0.2341 -0.7258  0.6956
 1053SOL     OW14791   0.759   1.799  12.432 -0.2249 -0.0627 -0.0980
 1053SOL    HW114792   0.696   1.824  12.499 -0.6826  2.9811 -1.7027
 1053SOL    HW214793   0.727   1.712  12.409  0.7093  0.3063 -2.8237
 1054SOL     OW14794   3.429   2.637   7.096 -0.0021  0.3677  0.2073
 1054SOL    HW114795   3.518   2.671   7.091 -0.0894  0.5302 -0.1831
 1054SOL    HW214796   3.391   2.723   7.113  0.6331  0.6465  0.2009
 1055SOL     OW14797   1.468   3.976   5.155  0.0493 -0.0808  0.2310
 1055SOL    HW114798   1.435   3.886   5.161  3.1002 -1.2628 -0.6622
 1055SOL    HW214799   1.390   4.027   5.135  0.5771 -0.4350 -2.6591
 1056SOL     OW14800   0.952   3.263  14.877  0.0479 -0.4230  0.4126
 1056SOL    HW114801   0.908   3.269  14.962 -1.2953 -0.4646 -0.2794
 1056SOL    HW214802   1.034   3.311  14.889  0.0879 -0.4483  0.2351
 1057SOL     OW14803   0.004   3.737  14.730 -0.2259 -0.0113 -0.1828
 1057SOL    HW114804   4.712   3.791  14.659 -0.2714 -0.7107 -0.6938
 1057SOL    HW214805   4.737   3.794  14.806  0.7517 -3.1884  2.2909
 1058SOL     OW14806   4.672   0.620   0.843  0.0792 -0.2317  0.1697
 1058SOL    HW114807   0.015   0.634   0.886 -0.6459  1.2926  1.1044
 1058SOL    HW214808   4.632   0.707   0.835  1.2004  0.3146  0.5495
 1059SOL     OW14809   4.545   0.686   5.977 -0.0127  0.2078 -0.4919
 1059SOL    HW114810   4.511   0.751   5.916 -0.4045 -1.2874 -1.8822
 1059SOL    HW214811   4.493   0.606   5.964 -0.3264  0.3113  0.1459
 1060SOL     OW14812   2.046   1.296   2.385 -0.2527  0.2116  0.0785
 1060SOL    HW114813   1.992   1.373   2.399  0.0706  0.3834  0.3990
 1060SOL    HW214814   1.980   1.228   2.396 -1.6130  1.4661 -0.4508
 1061SOL     OW14815   2.366   2.289   4.544 -0.3646  0.1373  0.2108
 1061SOL    HW114816   2.420   2.265   4.469 -0.3039  0.4428  0.1535
 1061SOL    HW214817   2.417   2.358   4.587  2.1839 -1.4754 -0.2435
 1062SOL     OW14818   2.403   3.294   9.246 -0.3694 -0.2573  0.4375
 1062SOL    HW114819   2.367   3.375   9.211 -0.1931  0.5741  2.1976
 1062SOL    HW214820   2.479   3.331   9.289  0.6779  0.9692 -2.4471
 1063SOL     OW14821   1.528   2.856   7.996 -0.5044  0.0704 -0.3139
 1063SOL    HW114822   1.514   2.790   8.064  1.1633 -0.0297 -0.0620
 1063SOL    HW214823   1.531   2.939   8.044  0.6016  0.4822 -1.0839
 1064SOL     OW14824   0.132   4.526   1.092  0.2553 -0.7401  0.4770
 1064SOL    HW114825   0.178   4.442   1.101  0.4113 -1.0355 -3.0355
 1064SOL    HW214826   0.134   4.561   1.181 -1.0895  0.1437  0.1684
 1065SOL     OW14827   4.314   2.606   8.648 -0.4655 -0.0690  0.2193
 1065SOL    HW114828   4.331   2.690   8.606 -0.3731  0.4899  1.3906
 1065SOL    HW214829   4.291   2.635   8.736  1.0265  0.5243  0.4237
 1066SOL     OW14830   1.184   1.368   2.913  0.0081 -0.1469  0.2974
 1066SOL    HW114831   1.262   1.389   2.862  0.4049 -1.3073  0.4309
 1066SOL    HW214832   1.178   1.446   2.968 -0.0077  0.2941 -0.3234
 1067SOL     OW14833   0.036   0.825   4.585  0.0898  0.0618 -0.4051
 1067SOL    HW114834   0.039   0.921   4.586 -1.0804  0.0836  0.3067
 1067SOL    HW214835   4.721   0.817   4.508  0.3444 -2.2220 -0.3454
 1068SOL     OW14836   0.980   4.153  10.201  0.2517 -0.4150  0.4500
 1068SOL    HW114837   0.953   4.225  10.144  2.8464  0.2653  0.1259
 1068SOL    HW214838   0.895   4.114  10.226  0.5090 -3.0777 -2.8044
 1069SOL     OW14839   2.811   0.854   8.783  0.2032  0.2591  0.3996
 1069SOL    HW114840   2.791   0.932   8.835 -0.4743 -1.4516  2.7065
 1069SOL    HW214841   2.760   0.794   8.837  2.0753 -2.3769 -0.7551
 1070SOL     OW14842   2.454   3.137   1.591 -0.2077  0.2553  0.4107
 1070SOL    HW114843   2.432   3.134   1.684 -0.1984  0.3760  0.4165
 1070SOL    HW214844   2.514   3.062   1.588 -1.4517 -0.6806 -0.9277
 1071SOL     OW14845   3.606   3.086   5.214  0.1026  0.2733  0.1021
 1071SOL    HW114846   3.664   3.162   5.212 -0.8055  0.9876  0.6391
 1071SOL    HW214847   3.532   3.128   5.170  0.4915  1.8718  0.9430
 1072SOL     OW14848   1.549   2.796   3.089 -0.2430 -0.7519 -0.4286
 1072SOL    HW114849   1.518   2.756   3.170 -1.9072  1.7142  0.1659
 1072SOL    HW214850   1.638   2.818   3.117 -0.9404  2.2611 -0.5963
 1073SOL     OW14851   0.613   3.163   2.079 -0.0494 -0.3391  0.0340
 1073SOL    HW114852   0.573   3.249   2.082  2.4499  0.8837 -1.3624
 1073SOL    HW214853   0.624   3.157   2.174 -0.7219  1.5781  0.2195
 1074SOL     OW14854   2.766   3.777   1.099 -0.5773  1.1104  0.5187
 1074SOL    HW114855   2.699   3.833   1.059  0.3021  1.5413 -0.3579
 1074SOL    HW214856   2.805   3.739   1.021 -1.2872 -1.1405  1.2677
 1075SOL     OW14857   3.161   3.098  13.172 -1.1238  0.1219 -0.9750
 1075SOL    HW114858   3.214   3.040  13.117 -1.5416 -0.7699 -0.4405
 1075SOL    HW214859   3.232   3.152  13.206 -1.0911 -0.0274 -0.8096
 1076SOL     OW14860   1.876   3.739   4.564  0.2671  0.6029  0.4206
 1076SOL    HW114861   1.900   3.764   4.474 -1.8599 -0.1799 -0.3696
 1076SOL    HW214862   1.900   3.646   4.566  1.1308  0.7430 -2.7052
 1077SOL     OW14863   0.903   4.613  16.375  0.4711  0.0723  0.3413
 1077SOL    HW114864   0.987   4.658  16.374  1.8036 -2.4291 -0.9742
 1077SOL    HW214865   0.840   4.685  16.372  0.0527 -0.3340 -0.6290
 1078SOL     OW14866   4.353   3.411   4.650 -0.1815  0.1497 -0.5522
 1078SOL    HW114867   4.374   3.457   4.731  0.4422  3.0685 -2.3405
 1078SOL    HW214868   4.415   3.454   4.591  2.2725 -0.8768  1.3053
 1079SOL     OW14869   4.241   3.301   8.305 -0.3176  0.4157  0.2634
 1079SOL    HW114870   4.308   3.243   8.341  0.7890  0.4369 -1.7225
 1079SOL    HW214871   4.291   3.350   8.239  2.4061 -0.7179  1.4822
 1080SOL     OW14872   1.627   3.850   2.745 -0.1615  0.3923 -0.4258
 1080SOL    HW114873   1.663   3.915   2.685 -1.3654 -0.8930 -2.5857
 1080SOL    HW214874   1.677   3.869   2.824 -1.9498 -3.0869  1.5600
 1081SOL     OW14875   3.987   3.327   5.654 -0.2506 -0.0385  0.2977
 1081SOL    HW114876   4.000   3.421   5.666  0.1105 -0.3033  1.9741
 1081SOL    HW214877   4.047   3.322   5.580  0.7334  2.9306  0.9088
 1082SOL     OW14878   2.270   2.159  14.711  0.1255 -0.6854  0.2060
 1082SOL    HW114879   2.176   2.144  14.702  0.0783 -0.8139  0.8516
 1082SOL    HW214880   2.271   2.251  14.739  2.3601 -0.2749 -1.2141
 1083SOL     OW14881   4.152   1.922   4.315  0.8783  0.3789 -0.2081
 1083SOL    HW114882   4.088   1.851   4.318  0.0269  1.2010  1.0579
 1083SOL    HW214883   4.238   1.880   4.315  1.0391  0.7046  0.7696
 1084SOL     OW14884   2.966   3.493   3.232  0.2438 -0.0554  0.4209
 1084SOL    HW114885   2.965   3.451   3.146 -1.1074 -1.6659  1.2263
 1084SOL    HW214886   2.873   3.497   3.256  0.1881  1.1233  0.0201
 1085SOL     OW14887   2.216   0.177  15.746 -0.7197 -0.1118 -0.3290
 1085SOL    HW114888   2.168   0.145  15.823 -1.5771  1.2827 -0.2766
 1085SOL    HW214889   2.285   0.111  15.749  0.0961  0.7317 -0.5764
 1086SOL     OW14890   0.844   1.013  14.544  0.0492  0.1096  0.2694
 1086SOL    HW114891   0.811   0.924  14.556  1.2848 -0.6715 -2.0292
 1086SOL    HW214892   0.787   1.041  14.471  0.3085 -0.1263 -0.0250
 1087SOL     OW14893   3.156   0.606   2.819 -0.2757  0.3793  0.8317
 1087SOL    HW114894   3.184   0.597   2.910  0.5318 -0.7543  0.4709
 1087SOL    HW214895   3.226   0.554   2.779  0.4683 -0.3888  3.1813
 1088SOL     OW14896   2.044   0.141   1.258  0.2670  0.5542 -0.1502
 1088SOL    HW114897   2.032   0.224   1.304  2.0764  1.3310 -1.1011
 1088SOL    HW214898   2.139   0.129   1.261  0.4521  1.0091 -4.1651
 1089SOL     OW14899   1.183   2.324   5.669 -0.2152 -0.0262  0.1666
 1089SOL    HW114900   1.142   2.285   5.746 -0.4043  0.4113  0.2885
 1089SOL    HW214901   1.155   2.415   5.667 -1.1293 -0.3149 -0.1106
 1090SOL     OW14902   4.462   4.307   3.048  0.0888  0.0806 -0.1838
 1090SOL    HW114903   4.393   4.259   3.003 -1.5952  1.9136  0.4529
 1090SOL    HW214904   4.496   4.364   2.979 -1.1202 -0.8506 -1.5531
 1091SOL     OW14905   3.170   1.021   5.022  0.2374 -0.4958  0.2965
 1091SOL    HW114906   3.196   1.009   4.931 -0.4974  1.7387 -0.2022
 1091SOL    HW214907   3.083   1.060   5.026  0.6974  0.3721  2.0172
 1092SOL     OW14908   3.913   3.180   5.162 -0.9275 -0.5956 -0.0666
 1092SOL    HW114909   3.963   3.120   5.217 -1.6915  0.5422  1.8953
 1092SOL    HW214910   3.862   3.226   5.229  1.1369  1.5244  0.0705
 1093SOL     OW14911   4.081   1.803   1.691  0.8894 -0.3077  0.2581
 1093SOL    HW114912   4.111   1.887   1.657  1.4416 -0.6252 -0.0470
 1093SOL    HW214913   4.168   1.763   1.691 -0.3680 -3.0297  0.6665
 1094SOL     OW14914   0.671   2.568  16.671  0.7094 -0.0592 -0.4936
 1094SOL    HW114915   0.720   2.616  16.738  1.6844  1.3374 -2.2151
 1094SOL    HW214916   0.675   2.479  16.706  0.4338  1.1188  2.5507
 1095SOL     OW14917   3.862   3.019   1.791 -0.1310  0.3125 -0.5609
 1095SOL    HW114918   3.851   3.033   1.697  1.2786 -0.3836 -0.8383
 1095SOL    HW214919   3.834   3.105   1.823 -0.2583  0.8702 -2.1351
 1096SOL     OW14920   1.163   0.437   5.660 -0.3171  0.2590  0.4201
 1096SOL    HW114921   1.191   0.404   5.745  1.3774 -0.2183 -0.3292
 1096SOL    HW214922   1.215   0.518   5.659  3.2770 -2.0484  1.2327
 1097SOL     OW14923   2.391   3.913   6.357 -0.0028  0.2067 -0.6405
 1097SOL    HW114924   2.470   3.968   6.352  0.4535 -0.2245  2.0929
 1097SOL    HW214925   2.406   3.855   6.282 -0.4598 -1.7663  0.8321
 1098SOL     OW14926   2.893   4.599   7.416 -0.2091  0.4605  0.3210
 1098SOL    HW114927   2.860   4.687   7.398  1.2277  1.0326  0.5639
 1098SOL    HW214928   2.914   4.596   7.509  0.0706 -1.4517  0.2117
 1099SOL     OW14929   2.320   3.909   8.404  0.2996 -0.0473  0.7440
 1099SOL    HW114930   2.267   3.875   8.477 -1.4319 -1.4684 -1.2027
 1099SOL    HW214931   2.354   3.830   8.363  0.8792  0.9115 -0.6151
 1100SOL     OW14932   3.503   0.385   1.530  0.2061 -0.3326 -0.9817
 1100SOL    HW114933   3.563   0.445   1.574 -0.2381  0.1120 -0.9749
 1100SOL    HW214934   3.430   0.441   1.504 -0.7734 -1.1609 -0.0399
 1101SOL     OW14935   4.097   4.191   4.987  0.6792  0.3343 -0.5186
 1101SOL    HW114936   4.099   4.198   5.083  1.2498 -0.3382 -0.4850
 1101SOL    HW214937   4.119   4.099   4.974 -0.3781 -0.2361  1.5663
 1102SOL     OW14938   0.043   3.083   6.979 -0.6751  0.0703  0.3797
 1102SOL    HW114939   0.014   3.020   6.913  1.0622  0.4164 -0.7299
 1102SOL    HW214940   0.056   3.158   6.920  1.0033  0.0031  0.6467
 1103SOL     OW14941   0.966   1.262   3.455 -0.1085 -0.9303 -0.1635
 1103SOL    HW114942   1.034   1.325   3.431 -1.6679  0.9623  0.4585
 1103SOL    HW214943   0.899   1.326   3.479 -0.6342 -1.2549 -0.7638
 1104SOL     OW14944   3.973   0.365  10.019 -0.2068 -0.2623 -0.5097
 1104SOL    HW114945   3.888   0.404  10.041 -0.8068 -2.8994  1.7765
 1104SOL    HW214946   3.980   0.415   9.938 -2.3675  2.6850  1.1116
 1105SOL     OW14947   0.908   3.258  16.178 -0.5113  0.1582 -0.2052
 1105SOL    HW114948   0.912   3.233  16.086  2.0871 -1.6273  0.3899
 1105SOL    HW214949   0.923   3.352  16.168 -0.3845 -0.0142 -1.6390
 1106SOL     OW14950   1.941   1.873   5.617  0.0180 -0.2021 -0.1316
 1106SOL    HW114951   1.859   1.911   5.649 -0.6747 -2.0698  0.3031
 1106SOL    HW214952   1.972   1.828   5.696  0.4520  0.2959 -0.0125
 1107SOL     OW14953   0.861   0.980   7.245 -0.3696  0.0076 -0.0436
 1107SOL    HW114954   0.894   0.959   7.158 -2.1944  1.1641 -1.0147
 1107SOL    HW214955   0.896   0.914   7.304 -1.1696  2.3028  3.0260
 1108SOL     OW14956   0.248   0.791   2.241  0.0530  0.0347 -0.0633
 1108SOL    HW114957   0.248   0.707   2.193 -0.4445  0.5132 -0.8991
 1108SOL    HW214958   0.273   0.849   2.169  0.6914  1.4643  1.3160
 1109SOL     OW14959   1.920   3.154   4.749  0.3420 -0.1995 -0.3132
 1109SOL    HW114960   2.012   3.171   4.772 -0.0321 -0.2062  1.1867
 1109SOL    HW214961   1.939   3.098   4.675  3.9413 -0.5554  0.8763
 1110SOL     OW14962   3.407   0.823   9.234  0.1994 -0.7779  0.3819
 1110SOL    HW114963   3.388   0.744   9.184  2.3820 -1.9001  1.3463
 1110SOL    HW214964   3.492   0.809   9.276  1.1337  2.2647 -0.5008
 1111SOL     OW14965   2.545   1.876   7.036 -0.5130 -0.4334 -0.3000
 1111SOL    HW114966   2.458   1.910   7.012 -0.1827  0.1328 -0.7044
 1111SOL    HW214967   2.599   1.936   6.985  1.2436 -1.6177  0.1748
 1112SOL     OW14968   3.415   3.755   2.102 -0.3469  0.1729 -0.3972
 1112SOL    HW114969   3.478   3.823   2.127 -1.8834  2.0849 -1.7585
 1112SOL    HW214970   3.369   3.795   2.029  0.1850  0.2559 -0.6897
 1113SOL     OW14971   2.719   0.628   1.682 -0.6354 -0.2472 -0.5757
 1113SOL    HW114972   2.750   0.641   1.771 -1.9229  0.6540 -0.2601
 1113SOL    HW214973   2.651   0.694   1.694 -0.3239 -0.2741  1.2708
 1114SOL     OW14974   3.148   0.792   1.951  0.1642  0.3453 -0.4564
 1114SOL    HW114975   3.233   0.755   1.929  1.7628  2.7042  1.7584
 1114SOL    HW214976   3.162   0.884   1.926  3.5764 -0.3174 -0.9803
 1115SOL     OW14977   2.069   0.363   2.046 -0.2156  0.0971 -0.2475
 1115SOL    HW114978   2.036   0.388   1.960  1.1029 -0.9125 -1.0708
 1115SOL    HW214979   2.141   0.426   2.049  1.1347 -1.5328  2.4356
 1116SOL     OW14980   2.475   0.815   6.065  0.3644 -0.5860  0.1928
 1116SOL    HW114981   2.444   0.872   5.995 -0.8449 -0.2079  1.0416
 1116SOL    HW214982   2.462   0.733   6.017  1.8965 -0.6720 -0.0912
 1117SOL     OW14983   2.384   2.005   0.134  0.4490 -0.8120 -0.2447
 1117SOL    HW114984   2.471   2.000   0.095  0.0305  0.8260 -1.3556
 1117SOL    HW214985   2.394   2.085   0.186 -1.7448  0.8504 -2.4261
 1118SOL     OW14986   1.396   0.934  13.788  0.3586 -0.2579 -0.1300
 1118SOL    HW114987   1.383   1.011  13.733 -3.1547 -0.9781 -0.3403
 1118SOL    HW214988   1.317   0.956  13.838  1.1882 -0.5382  1.2805
 1119SOL     OW14989   2.944   3.013   3.197  0.3561  0.3002 -0.2910
 1119SOL    HW114990   2.861   3.036   3.155  0.8497  0.5127 -1.1640
 1119SOL    HW214991   2.925   2.942   3.258  0.0849 -0.6950 -1.5202
 1120SOL     OW14992   1.330   4.040   9.017 -0.5729 -0.1525  0.7522
 1120SOL    HW114993   1.293   3.953   9.029  1.6218 -1.1594  0.2288
 1120SOL    HW214994   1.397   4.020   8.952 -0.0310  0.0913  1.2257
 1121SOL     OW14995   3.383   2.681   8.288  0.8085 -0.2659  0.2620
 1121SOL    HW114996   3.358   2.705   8.378 -3.1670  1.4700 -1.3294
 1121SOL    HW214997   3.423   2.598   8.312  0.4632 -0.8932 -1.3654
 1122SOL     OW14998   1.319   0.474   0.824 -0.4095  0.3321 -0.1076
 1122SOL    HW114999   1.399   0.517   0.854 -1.0189  1.1293  0.4069
 1122SOL    HW215000   1.303   0.418   0.900 -2.4397  0.6930 -0.2563
 1123SOL     OW15001   1.982   0.202   9.374  0.0980  0.0617  0.3310
 1123SOL    HW115002   1.996   0.287   9.416  1.0562  0.6375 -1.1824
 1123SOL    HW215003   1.951   0.225   9.287  1.7309 -0.2516 -0.3217
 1124SOL     OW15004   3.320   1.046  16.555 -0.7368 -0.3318  0.3441
 1124SOL    HW115005   3.261   1.111  16.593  0.1503  1.0833 -0.7264
 1124SOL    HW215006   3.371   1.102  16.497 -0.6841 -0.1008  0.6152
 1125SOL     OW15007   4.468   1.966  12.782  0.1959  0.0620  0.4948
 1125SOL    HW115008   4.428   1.990  12.698  2.7474  2.6036  0.0101
 1125SOL    HW215009   4.539   2.029  12.777 -0.7685  1.1515  0.4822
 1126SOL     OW15010   1.822   4.291   9.204  0.0560  0.1716 -0.4994
 1126SOL    HW115011   1.784   4.273   9.290 -1.3519  3.2390 -0.4618
 1126SOL    HW215012   1.811   4.206   9.161  1.3307 -0.7922  1.0702
 1127SOL     OW15013   3.603   1.786   4.234  0.0339 -0.0977 -0.2647
 1127SOL    HW115014   3.595   1.715   4.298  1.2169 -0.3458 -0.4043
 1127SOL    HW215015   3.512   1.817   4.240 -0.4749 -1.8649  1.1229
 1128SOL     OW15016   0.743   3.168   5.641  0.1852  0.1722 -0.1659
 1128SOL    HW115017   0.691   3.248   5.647  0.7642  0.5636 -0.4257
 1128SOL    HW215018   0.711   3.115   5.714 -0.8799  1.5092  0.3254
 1129SOL     OW15019   1.903   1.930  15.417 -0.2232 -0.1653  0.0698
 1129SOL    HW115020   1.833   1.880  15.375 -0.3348 -1.4795  1.8120
 1129SOL    HW215021   1.920   1.874  15.493 -0.6507 -2.4271 -1.5316
 1130SOL     OW15022   0.450   0.345   1.789  0.2028 -0.1281  0.7208
 1130SOL    HW115023   0.509   0.298   1.848  0.8934 -1.4840 -1.0633
 1130SOL    HW215024   0.395   0.268   1.772 -0.7334  0.5140  0.7946
 1131SOL     OW15025   4.415   2.146   4.179  0.4860  0.2980 -0.2123
 1131SOL    HW115026   4.387   2.237   4.189 -2.3320 -0.4375 -1.2767
 1131SOL    HW215027   4.502   2.167   4.146  1.1560 -1.4089  0.4722
 1132SOL     OW15028   3.514   4.307   2.034 -0.3079  0.1355  0.0403
 1132SOL    HW115029   3.435   4.359   2.023 -0.9000 -0.4176  1.6904
 1132SOL    HW215030   3.504   4.234   1.973 -0.3285  0.8186 -0.7671
 1133SOL     OW15031   2.047   0.861  14.940  0.2638 -0.0766  0.1455
 1133SOL    HW115032   2.057   0.934  15.002 -0.5650  0.2655 -0.1195
 1133SOL    HW215033   2.134   0.861  14.901 -0.3170  2.4953 -1.1823
 1134SOL     OW15034   1.717   0.462   8.032  0.3990 -0.2141 -0.0145
 1134SOL    HW115035   1.742   0.555   8.033 -0.8687  0.1372 -0.5539
 1134SOL    HW215036   1.626   0.467   8.060  1.1692  2.3151  2.0360
 1135SOL     OW15037   4.507   3.971   2.706  0.3329  0.8075  0.6790
 1135SOL    HW115038   4.454   3.932   2.777 -1.6315  1.8991 -0.1769
 1135SOL    HW215039   4.594   3.948   2.739  0.9805  1.5738 -0.5125
 1136SOL     OW15040   0.872   3.540   7.710 -0.4787 -0.4699  0.1735
 1136SOL    HW115041   0.920   3.461   7.687 -0.0550  0.3752 -1.8886
 1136SOL    HW215042   0.926   3.612   7.676  1.4221 -0.5827  2.9244
 1137SOL     OW15043   1.969   1.648  16.905  0.2530 -0.0567  0.3431
 1137SOL    HW115044   2.019   1.578  16.863  1.9448  0.0837  2.0998
 1137SOL    HW215045   2.027   1.661  16.981  2.1642 -4.4327 -0.3083
 1138SOL     OW15046   3.090   3.305   3.877  0.1971 -0.4788  0.3040
 1138SOL    HW115047   3.063   3.280   3.965 -2.2392  3.5193  0.7354
 1138SOL    HW215048   3.063   3.397   3.881 -2.4662 -1.3186  1.9286
 1139SOL     OW15049   2.991   1.807   3.959  0.1741  0.0568  0.4120
 1139SOL    HW115050   2.951   1.730   3.918 -1.6313 -0.0538  2.4215
 1139SOL    HW215051   3.026   1.777   4.043  1.3335 -0.6161 -0.3079
 1140SOL     OW15052   4.414   4.024   7.139  0.0873 -0.8424  0.4920
 1140SOL    HW115053   4.461   3.985   7.213 -0.4004 -2.6022 -0.1254
 1140SOL    HW215054   4.424   3.954   7.074  1.1545  2.2445 -2.6825
 1141SOL     OW15055   1.285   4.094   8.255  0.2196  0.5351 -0.7899
 1141SOL    HW115056   1.336   4.171   8.278  1.1274  0.0760 -1.2707
 1141SOL    HW215057   1.215   4.133   8.202  0.1162  1.3845 -0.0199
 1142SOL     OW15058   0.037   1.346  14.951  0.6478 -0.4586  0.0328
 1142SOL    HW115059   4.714   1.385  15.010  1.5853  0.3224  0.5328
 1142SOL    HW215060   0.075   1.427  14.915 -1.8584  0.8933  0.4625
 1143SOL     OW15061   2.528   3.515  17.210  0.1593  0.0652  0.5201
 1143SOL    HW115062   2.493   3.579  17.272 -2.4796 -0.8298 -0.0329
 1143SOL    HW215063   2.484   3.439  17.247 -0.6986  1.1466  1.7144
 1144SOL     OW15064   0.317   1.812   4.597  0.3104 -0.6587 -0.7433
 1144SOL    HW115065   0.310   1.892   4.545 -0.5670 -0.6659 -0.6389
 1144SOL    HW215066   0.302   1.741   4.534  1.7509 -2.1197  0.5563
 1145SOL     OW15067   0.799   2.818   4.588  0.5809 -0.2953 -0.2238
 1145SOL    HW115068   0.869   2.822   4.523 -0.1919 -3.0864 -1.2461
 1145SOL    HW215069   0.753   2.896   4.559 -0.0172 -0.6311 -0.1671
 1146SOL     OW15070   1.552   2.731   1.699  0.1840 -0.1533  0.6981
 1146SOL    HW115071   1.638   2.704   1.667  0.5483 -0.5009  1.9644
 1146SOL    HW215072   1.499   2.659   1.663 -1.0952  1.1489 -0.0213
 1147SOL     OW15073   3.544   4.635   5.653 -0.0881  0.4163 -0.6904
 1147SOL    HW115074   3.553   4.605   5.743 -0.4461 -0.9432 -1.1076
 1147SOL    HW215075   3.451   4.654   5.662 -0.2524 -0.5228 -0.4195
 1148SOL     OW15076   3.271   2.810   4.201 -0.6963 -0.3834  0.4318
 1148SOL    HW115077   3.338   2.754   4.161 -1.8662 -0.0810 -1.9513
 1148SOL    HW215078   3.310   2.893   4.176 -1.0161 -1.2067 -2.7837
 1149SOL     OW15079   2.989   4.640   2.503 -0.0915 -0.4202  0.5514
 1149SOL    HW115080   3.059   4.608   2.560 -0.7619 -1.4837  0.7751
 1149SOL    HW215081   3.037   4.627   2.422  1.2411  1.1876  1.0792
 1150SOL     OW15082   3.769   0.420  16.410 -0.4552 -0.5395  0.3269
 1150SOL    HW115083   3.701   0.357  16.435  1.4542 -1.1425  4.0205
 1150SOL    HW215084   3.816   0.415  16.493 -0.9902 -0.1196  0.6581
 1151SOL     OW15085   4.383   1.530   5.441  0.6201  0.4041 -0.4614
 1151SOL    HW115086   4.299   1.518   5.485  0.4251  1.1865 -0.6259
 1151SOL    HW215087   4.376   1.606   5.384  0.0877 -0.1565 -1.1420
 1152SOL     OW15088   1.548   0.111   2.696  0.0316 -0.0105  0.2297
 1152SOL    HW115089   1.551   0.172   2.622  3.6889  1.2997  1.5002
 1152SOL    HW215090   1.504   0.168   2.759  0.7633 -0.1468  0.8541
 1153SOL     OW15091   1.803   4.578   7.071  0.0039  0.3906 -0.3837
 1153SOL    HW115092   1.788   4.571   7.165 -0.8668 -1.6996 -0.6826
 1153SOL    HW215093   1.718   4.594   7.031  0.6149 -1.0234 -2.2426
 1154SOL     OW15094   4.603   1.465   4.739 -0.4020 -0.2978  0.0013
 1154SOL    HW115095   4.655   1.545   4.730 -0.2878 -0.4193 -0.4233
 1154SOL    HW215096   4.666   1.393   4.747 -0.6922 -0.5657 -0.1302
 1155SOL     OW15097   2.458   2.541  12.199  0.5552 -0.0047  0.2216
 1155SOL    HW115098   2.382   2.491  12.170  0.9062 -0.1385 -0.4785
 1155SOL    HW215099   2.485   2.591  12.122  0.3268  1.7484  1.2804
 1156SOL     OW15100   0.532   4.253   1.169 -0.3105 -0.4407  0.5109
 1156SOL    HW115101   0.613   4.213   1.138 -0.3096 -0.5784  0.6882
 1156SOL    HW215102   0.481   4.252   1.088 -0.0201  0.2367  0.3231
 1157SOL     OW15103   1.505   1.114   5.429 -0.3722 -0.7219 -0.2073
 1157SOL    HW115104   1.418   1.143   5.399  0.1996  0.3169 -0.8506
 1157SOL    HW215105   1.518   1.034   5.378  1.8051 -0.0720 -0.6471
 1158SOL     OW15106   0.973   4.422  13.203 -0.3735 -0.1401 -0.8094
 1158SOL    HW115107   1.059   4.383  13.220 -0.6766 -0.9543 -1.1277
 1158SOL    HW215108   1.004   4.508  13.174 -1.0294  0.1039 -0.7864
 1159SOL     OW15109   0.527   1.134   7.521  0.5011 -1.0473  0.5668
 1159SOL    HW115110   0.576   1.054   7.542 -0.0266 -1.6422 -0.4754
 1159SOL    HW215111   0.566   1.147   7.434 -0.2157  0.6858  0.4996
 1160SOL     OW15112   2.572   4.532   2.061 -0.0236 -0.4577  0.5539
 1160SOL    HW115113   2.538   4.589   1.992  0.3638 -1.7788 -0.7292
 1160SOL    HW215114   2.650   4.485   2.030  0.3852  0.6580 -0.0996
 1161SOL     OW15115   0.991   4.076  14.401 -0.0199 -0.5533 -0.0657
 1161SOL    HW115116   0.933   4.045  14.470 -1.4107  0.8621 -0.5817
 1161SOL    HW215117   0.974   4.005  14.339 -0.8540 -0.3930 -0.0233
 1162SOL     OW15118   2.123   1.876   8.055 -0.4272  0.1918  0.3938
 1162SOL    HW115119   2.059   1.945   8.037  0.1808  0.0747 -2.1722
 1162SOL    HW215120   2.074   1.802   8.092  1.3042  0.4161  3.0750
 1163SOL     OW15121   3.037   0.267   4.280 -0.0960  0.2516 -0.3613
 1163SOL    HW115122   3.019   0.358   4.259  1.9656  0.7013 -0.1530
 1163SOL    HW215123   3.132   0.277   4.290 -0.0045  0.2935 -1.2590
 1164SOL     OW15124   4.027   1.257  16.878 -0.1715 -0.1306  0.5512
 1164SOL    HW115125   4.003   1.215  16.795  0.5272  3.1933 -1.3027
 1164SOL    HW215126   4.038   1.175  16.927  0.2310 -0.3338  0.1236
 1165SOL     OW15127   0.253   3.142   8.067  0.2625 -0.5463 -0.1950
 1165SOL    HW115128   0.328   3.162   8.010  1.0788  0.4074  1.2308
 1165SOL    HW215129   0.287   3.151   8.156 -1.7138 -0.4639  0.5412
 1166SOL     OW15130   3.128   4.217   4.554 -0.3721  0.6337 -0.0329
 1166SOL    HW115131   3.100   4.199   4.464  1.1964  0.8728 -0.5585
 1166SOL    HW215132   3.135   4.312   4.554  0.4139  0.5826  2.7696
 1167SOL     OW15133   0.778   3.058  17.069 -0.2076 -0.1223 -0.0186
 1167SOL    HW115134   0.726   3.111  17.130  0.0521  2.8529 -2.3566
 1167SOL    HW215135   0.704   3.038  17.011 -1.5344 -0.7532  1.8981
 1168SOL     OW15136   4.599   0.816   2.888 -0.1262  0.7564  0.4506
 1168SOL    HW115137   4.543   0.864   2.948  0.8787  1.6266  0.6892
 1168SOL    HW215138   4.653   0.888   2.855  1.1262 -2.0059 -3.5931
 1169SOL     OW15139   3.946   0.087   4.333 -0.1065 -0.5294 -0.0364
 1169SOL    HW115140   3.880   0.020   4.313 -1.0348 -0.2685  2.1063
 1169SOL    HW215141   4.017   0.029   4.359 -0.5375 -2.3271 -2.9869
 1170SOL     OW15142   3.023   4.259  11.080  0.6514 -0.2269 -0.7911
 1170SOL    HW115143   3.085   4.277  11.151  2.0497  0.1976 -2.1363
 1170SOL    HW215144   3.081   4.261  11.004  0.7163 -0.1901 -0.7405
 1171SOL     OW15145   1.331   2.284  14.951 -0.2240 -0.0280 -0.2516
 1171SOL    HW115146   1.263   2.288  14.884  1.5363 -2.5475 -2.2284
 1171SOL    HW215147   1.293   2.330  15.026 -0.3352 -1.8553  0.8084
 1172SOL     OW15148   0.095   1.057  14.863 -1.0430 -0.6832  0.2990
 1172SOL    HW115149   0.023   1.029  14.807 -0.4760 -1.8809  0.1724
 1172SOL    HW215150   0.073   1.150  14.869  0.5967 -0.2141 -0.8595
 1173SOL     OW15151   1.522   2.630   2.853  0.5303  0.0305  0.1549
 1173SOL    HW115152   1.525   2.693   2.925 -2.1982  0.9489 -0.5372
 1173SOL    HW215153   1.526   2.550   2.904  0.1143 -0.4877 -0.6190
 1174SOL     OW15154   2.575   3.784   4.881  0.1224  0.2199 -0.0605
 1174SOL    HW115155   2.651   3.837   4.907  0.3168  0.3193 -0.8487
 1174SOL    HW215156   2.614   3.745   4.803 -1.6181 -2.1986  0.2500
 1175SOL     OW15157   1.421   4.241   2.616 -0.0828  0.0912 -0.4406
 1175SOL    HW115158   1.506   4.210   2.647 -0.5017  0.9836  1.6510
 1175SOL    HW215159   1.443   4.333   2.598 -0.8591  0.3338 -0.1534
 1176SOL     OW15160   0.140   3.898  14.104 -0.3952  0.2341 -0.5051
 1176SOL    HW115161   0.125   3.920  14.196  1.2712 -1.9573  0.2802
 1176SOL    HW215162   0.206   3.966  14.089 -0.7932  1.0648  1.5500
 1177SOL     OW15163   0.879   3.026   7.839 -0.0696  0.3815  0.2888
 1177SOL    HW115164   0.923   2.955   7.793 -2.5546 -0.5086 -0.6920
 1177SOL    HW215165   0.943   3.039   7.909 -0.9865  2.6502  0.7008
 1178SOL     OW15166   1.047   2.186   9.287  0.4590  0.2344 -0.1723
 1178SOL    HW115167   0.985   2.197   9.359  2.8180  2.8959  1.4178
 1178SOL    HW215168   1.127   2.174   9.337  0.8983 -0.3587 -1.0073
 1179SOL     OW15169   0.936   4.415   9.216 -0.0140 -0.1477  0.1380
 1179SOL    HW115170   1.014   4.469   9.230 -0.8764  0.8954  1.0185
 1179SOL    HW215171   0.863   4.466   9.180 -1.0550 -0.6596  1.4905
 1180SOL     OW15172   0.419   1.978   8.009 -0.0579  0.0982  0.4821
 1180SOL    HW115173   0.380   1.935   8.085 -1.8124  0.6066 -0.1151
 1180SOL    HW215174   0.399   1.910   7.945  0.2095  0.6864 -0.2307
 1181SOL     OW15175   4.052   2.033   3.393  0.1085 -0.3354 -0.1675
 1181SOL    HW115176   3.965   2.073   3.389 -0.3719 -1.2736  0.8817
 1181SOL    HW215177   4.023   1.947   3.422 -2.0871  0.1609 -0.9014
 1182SOL     OW15178   0.184   0.762   0.681 -0.4403  0.1347 -0.1555
 1182SOL    HW115179   0.191   0.709   0.761  0.1953  4.1744  2.4132
 1182SOL    HW215180   0.173   0.851   0.712 -2.2397 -0.3255  0.5387
 1183SOL     OW15181   2.034   0.634  15.815 -0.2733  0.1540  0.6789
 1183SOL    HW115182   2.026   0.565  15.880 -0.7597  1.4479  1.9955
 1183SOL    HW215183   2.110   0.681  15.849 -1.2307  3.2010 -1.3355
 1184SOL     OW15184   2.527   1.087   4.955 -0.0876  0.5364  0.4274
 1184SOL    HW115185   2.449   1.102   5.008  0.2572 -0.6223  1.2863
 1184SOL    HW215186   2.549   0.995   4.971  0.0557  0.7342  1.3332
 1185SOL     OW15187   2.925   0.890   3.997  0.0514  0.4799 -0.0178
 1185SOL    HW115188   2.976   0.928   4.068 -0.0234  1.7954 -0.6667
 1185SOL    HW215189   2.979   0.814   3.976  1.7661  2.2847 -2.0565
 1186SOL     OW15190   0.234   2.339   6.535 -0.2212  0.1901 -0.2691
 1186SOL    HW115191   0.222   2.247   6.513  1.2562 -0.9889  3.8699
 1186SOL    HW215192   0.313   2.357   6.484  1.5035 -2.0313  1.6294
 1187SOL     OW15193   2.093   2.299   3.745  0.1476 -0.0960 -0.2264
 1187SOL    HW115194   2.001   2.283   3.766 -0.5065 -0.9011 -3.8540
 1187SOL    HW215195   2.131   2.212   3.732  1.1252 -0.0282  2.1084
 1188SOL     OW15196   0.455   1.694   9.323 -0.4760 -0.5599 -0.0990
 1188SOL    HW115197   0.519   1.764   9.309 -1.3877 -0.0107 -1.5218
 1188SOL    HW215198   0.489   1.635   9.256  0.0482 -0.8037  0.3750
 1189SOL     OW15199   1.713   0.313  16.333  0.3482  0.0831  0.2477
 1189SOL    HW115200   1.766   0.240  16.367  1.6687 -0.3518 -2.7439
 1189SOL    HW215201   1.677   0.274  16.254 -0.4969 -0.9822  1.1445
 1190SOL     OW15202   3.701   3.792   2.636  0.0977 -0.0005  0.3753
 1190SOL    HW115203   3.650   3.804   2.556  0.7982  0.2629 -0.0300
 1190SOL    HW215204   3.637   3.745   2.689 -1.0372  0.1536 -0.8617
 1191SOL     OW15205   2.328   2.216   2.109  0.3214  0.5433 -0.5644
 1191SOL    HW115206   2.318   2.184   2.199  1.9873  0.0026 -0.5808
 1191SOL    HW215207   2.382   2.141   2.085 -0.1069 -0.5174  1.7899
 1192SOL     OW15208   4.541   3.825   3.229 -0.2249  0.1213  0.9942
 1192SOL    HW115209   4.537   3.729   3.225 -1.8859  0.2595 -0.7856
 1192SOL    HW215210   4.628   3.837   3.267 -0.0326  0.7520  0.3515
 1193SOL     OW15211   3.504   2.940   3.266  0.3319  0.4269  0.4382
 1193SOL    HW115212   3.580   2.884   3.273  0.6104  0.5504 -1.6511
 1193SOL    HW215213   3.439   2.873   3.246 -0.9868  1.7263  0.3219
 1194SOL     OW15214   4.408   2.812   0.151 -0.4579  0.1198 -0.1055
 1194SOL    HW115215   4.481   2.750   0.155 -2.4207 -2.3235 -1.5817
 1194SOL    HW215216   4.351   2.786   0.224  0.3589 -1.2759  0.0513
 1195SOL     OW15217   0.192   1.390   4.230 -0.4058 -0.1295 -0.1789
 1195SOL    HW115218   0.165   1.331   4.160 -2.2457 -0.8311  1.1353
 1195SOL    HW215219   0.242   1.450   4.175  2.9371 -2.3843  0.4062
 1196SOL     OW15220   2.878   4.504   3.279  0.2874  0.2665 -0.5357
 1196SOL    HW115221   2.866   4.447   3.203 -3.1481  2.0600 -1.3536
 1196SOL    HW215222   2.973   4.517   3.278  0.5407 -1.6539 -1.0495
 1197SOL     OW15223   2.470   0.084  11.221 -0.0791  0.4848 -0.2747
 1197SOL    HW115224   2.421   0.056  11.143  1.2492 -0.5971 -0.7231
 1197SOL    HW215225   2.504   0.167  11.189 -0.4910  0.2720 -1.2657
 1198SOL     OW15226   0.457   2.296   3.587  0.0514  0.0573  0.3908
 1198SOL    HW115227   0.376   2.265   3.547 -0.6317  0.7843  1.2033
 1198SOL    HW215228   0.527   2.274   3.525  0.4983  0.5406  0.7209
 1199SOL     OW15229   3.385   3.045   4.116  0.6153  0.3465  0.2577
 1199SOL    HW115230   3.480   3.048   4.131  0.7682 -0.0464 -0.6124
 1199SOL    HW215231   3.369   3.139   4.128 -0.1921  0.5922 -2.6435
 1200SOL     OW15232   2.202   3.478   4.567 -0.2248 -0.8418 -0.2346
 1200SOL    HW115233   2.107   3.483   4.571 -0.0104 -0.4013  3.5172
 1200SOL    HW215234   2.226   3.535   4.493  1.1163  1.9737  2.3709
 1201SOL     OW15235   2.429   3.792   6.096  0.1046  0.0485 -0.1705
 1201SOL    HW115236   2.427   3.712   6.044  0.1157 -0.2945  0.3549
 1201SOL    HW215237   2.408   3.865   6.037  1.8376 -0.2126 -1.0971
 1202SOL     OW15238   0.440   4.375  14.725  0.2848  0.1861 -0.1430
 1202SOL    HW115239   0.529   4.405  14.746  1.2750  0.6712 -4.8371
 1202SOL    HW215240   0.424   4.430  14.649 -1.3576  2.0932  1.6117
 1203SOL     OW15241   3.848   0.042   0.127 -0.1234  0.2475  0.1562
 1203SOL    HW115242   3.877   4.735   0.049  1.3124 -1.4694  1.7342
 1203SOL    HW215243   3.889   4.734   0.199  0.8644 -0.7378 -1.0837
 1204SOL     OW15244   2.872   0.441   4.591  0.2248  0.0379 -0.6382
 1204SOL    HW115245   2.906   0.460   4.678  0.9970  2.4257 -1.4728
 1204SOL    HW215246   2.955   0.420   4.548 -1.5115 -1.6423 -3.1263
 1205SOL     OW15247   4.478   1.811   3.540  0.0699  0.3509 -0.6549
 1205SOL    HW115248   4.523   1.788   3.458 -0.8496 -2.1187 -0.4694
 1205SOL    HW215249   4.401   1.754   3.547  0.7805 -0.8248 -2.2927
 1206SOL     OW15250   0.597   1.365  13.632  0.0052 -0.3452  0.2225
 1206SOL    HW115251   0.678   1.320  13.607  0.3722  0.7635 -0.5820
 1206SOL    HW215252   0.546   1.365  13.551  0.9754  1.0300 -0.3872
 1207SOL     OW15253   0.934   2.437  11.808 -0.2495  0.0731 -0.1512
 1207SOL    HW115254   0.946   2.343  11.825  0.8424  0.0331 -1.1193
 1207SOL    HW215255   0.999   2.472  11.869  1.6214 -2.5946 -0.5806
 1208SOL     OW15256   2.361   3.637   1.231  0.2882  0.0157 -0.4045
 1208SOL    HW115257   2.372   3.729   1.208  0.0021  0.6291  1.8377
 1208SOL    HW215258   2.287   3.654   1.290  0.4424 -0.5661 -0.0462
 1209SOL     OW15259   0.442   0.743  10.673  0.1033  0.3082 -0.4594
 1209SOL    HW115260   0.530   0.774  10.693  0.7020 -0.9645 -1.0987
 1209SOL    HW215261   0.434   0.771  10.582 -0.3479  0.6769 -0.3070
 1210SOL     OW15262   4.435   2.254   4.548 -0.2551 -0.4798  0.5699
 1210SOL    HW115263   4.479   2.330   4.509 -0.5856 -0.6840 -0.2022
 1210SOL    HW215264   4.503   2.196   4.515 -0.6568 -0.3983 -0.4062
 1211SOL     OW15265   0.226   0.824  11.960  0.6447 -0.4534  0.0152
 1211SOL    HW115266   0.248   0.737  11.928  3.7638 -0.3041  1.7928
 1211SOL    HW215267   0.142   0.804  12.001 -0.5983  0.8431 -1.9026
 1212SOL     OW15268   2.854   3.886   4.288  0.7294  0.3874  0.2326
 1212SOL    HW115269   2.890   3.803   4.319  0.5763 -0.2119 -1.1972
 1212SOL    HW215270   2.868   3.933   4.370 -0.3849 -3.0251  2.3592
 1213SOL     OW15271   1.347   0.321   6.332  0.3002  0.0527  0.4861
 1213SOL    HW115272   1.362   0.411   6.303 -0.4070 -0.3474 -1.0814
 1213SOL    HW215273   1.399   0.322   6.413 -0.4820  1.6338  0.9509
 1214SOL     OW15274   2.863   1.082   9.800 -0.2307 -0.5716  0.2895
 1214SOL    HW115275   2.906   1.167   9.799 -0.0719 -0.6564 -0.7647
 1214SOL    HW215276   2.915   1.033   9.736 -0.3192 -0.3048  0.0121
 1215SOL     OW15277   1.955   0.667   7.678 -0.0796 -0.0991  0.4054
 1215SOL    HW115278   1.993   0.606   7.741  0.5100 -0.9141 -0.7402
 1215SOL    HW215279   1.913   0.732   7.735 -0.8136  1.0715 -1.4718
 1216SOL     OW15280   1.251   3.087   0.550  0.5769 -0.0908 -0.0199
 1216SOL    HW115281   1.334   3.051   0.516 -0.1357 -2.2144  0.4718
 1216SOL    HW215282   1.241   3.157   0.485  0.0220  1.6770  1.9813
 1217SOL     OW15283   4.566   1.501   3.038 -0.0228  0.4972  0.0074
 1217SOL    HW115284   4.651   1.461   3.056 -1.3973 -2.5278 -0.3174
 1217SOL    HW215285   4.589   1.567   2.972  3.2479 -0.4956  0.1519
 1218SOL     OW15286   0.478   3.662   2.113  0.1622  0.4653  0.2295
 1218SOL    HW115287   0.466   3.567   2.113 -0.7946  0.5895  1.7479
 1218SOL    HW215288   0.497   3.692   2.024  2.1285  1.9507  1.1491
 1219SOL     OW15289   0.328   3.985   3.691 -0.3829  0.5527  0.4982
 1219SOL    HW115290   0.316   4.075   3.722 -1.7841  0.7273 -0.5401
 1219SOL    HW215291   0.284   3.987   3.606 -2.5875  1.2516  1.6645
 1220SOL     OW15292   2.142   0.952   6.560 -0.2036 -0.0118 -0.7446
 1220SOL    HW115293   2.167   0.884   6.622 -0.6824  0.4121 -0.0834
 1220SOL    HW215294   2.060   0.917   6.526 -0.8447  0.3284  0.4575
 1221SOL     OW15295   3.359   1.605   2.606 -0.4860 -0.3750  0.3006
 1221SOL    HW115296   3.402   1.522   2.586 -0.2967 -0.5749  1.5327
 1221SOL    HW215297   3.410   1.644   2.676 -0.6774 -0.3795  0.4448
 1222SOL     OW15298   3.922   3.689   6.916  0.0808 -0.2915 -0.7203
 1222SOL    HW115299   3.835   3.696   6.878 -0.4651 -0.5937  0.4758
 1222SOL    HW215300   3.951   3.601   6.894 -0.4104 -0.1474 -1.9138
 1223SOL     OW15301   4.583   0.299   9.398 -0.1406  0.7356  0.1356
 1223SOL    HW115302   4.537   0.215   9.392  0.0846  0.7343 -1.5383
 1223SOL    HW215303   4.645   0.288   9.470 -0.4807 -0.9842  0.1566
 1224SOL     OW15304   2.266   1.222   2.524 -0.4657 -0.4872 -0.6932
 1224SOL    HW115305   2.321   1.266   2.458 -0.9623  1.5323  0.2470
 1224SOL    HW215306   2.178   1.222   2.487 -0.5118  2.1008 -0.6312
 1225SOL     OW15307   1.883   0.838  15.492 -0.3346 -0.4366 -0.0155
 1225SOL    HW115308   1.882   0.743  15.504 -0.3863 -0.3104  0.9654
 1225SOL    HW215309   1.789   0.855  15.492 -0.2201  0.0791  4.8528
 1226SOL     OW15310   3.977   3.703   8.631  0.2230  0.3035  0.4914
 1226SOL    HW115311   3.895   3.681   8.676 -0.0902  0.6432  0.0854
 1226SOL    HW215312   3.942   3.692   8.543  1.8825  0.0992 -0.1369
 1227SOL     OW15313   3.865   4.715  10.743 -0.5357 -0.1271 -0.4166
 1227SOL    HW115314   3.927   4.711  10.816 -2.0644  2.9366  1.0615
 1227SOL    HW215315   3.916   0.024  10.680  0.8251 -0.0811  0.7282
 1228SOL     OW15316   3.088   3.805   7.209 -0.0196 -0.1230  0.0992
 1228SOL    HW115317   3.182   3.806   7.225 -0.3256  1.6984  1.7724
 1228SOL    HW215318   3.057   3.868   7.274 -2.0626 -0.3614 -0.6151
 1229SOL     OW15319   3.524   4.169   7.054 -0.3014 -0.3780  0.0382
 1229SOL    HW115320   3.457   4.232   7.029  0.5965  1.6566  2.6384
 1229SOL    HW215321   3.601   4.225   7.043  0.1742 -1.2772 -1.1756
 1230SOL     OW15322   1.685   2.660   7.149 -0.4141 -0.4793 -0.2964
 1230SOL    HW115323   1.713   2.641   7.060 -3.3506 -0.8728 -1.1165
 1230SOL    HW215324   1.736   2.586   7.182  0.7401  1.0462  1.3168
 1231SOL     OW15325   0.686   1.891   4.354 -0.2710 -0.3558  0.4265
 1231SOL    HW115326   0.702   1.862   4.444 -0.4176 -0.4192  0.4319
 1231SOL    HW215327   0.777   1.910   4.328 -0.3630 -1.2107 -0.5362
 1232SOL     OW15328   1.190   2.080   5.873 -0.3379  0.4060  0.2139
 1232SOL    HW115329   1.271   2.029   5.869 -1.2433 -0.9927 -0.3330
 1232SOL    HW215330   1.141   2.055   5.794 -0.2204  0.6075  0.0759
 1233SOL     OW15331   4.392   2.692  11.846 -0.8598  0.4624 -0.7775
 1233SOL    HW115332   4.454   2.621  11.832 -2.0424 -0.9815  1.2358
 1233SOL    HW215333   4.354   2.694  11.758  1.2415  2.4391 -1.6342
 1234SOL     OW15334   3.425   4.190  11.389  0.3987 -0.2100  0.5540
 1234SOL    HW115335   3.481   4.153  11.321  1.2858  0.4342  0.9485
 1234SOL    HW215336   3.491   4.206  11.456 -0.8045  2.0200  1.2244
 1235SOL     OW15337   4.625   2.925   6.770 -0.3465  0.0268 -0.6123
 1235SOL    HW115338   4.639   2.831   6.767 -0.2323 -0.0267  1.4819
 1235SOL    HW215339   4.706   2.948   6.723  0.1035 -0.6600 -0.1701
 1236SOL     OW15340   2.412   1.907  12.742  0.3315  0.5417  0.1666
 1236SOL    HW115341   2.501   1.882  12.716 -1.2191 -1.3643 -3.1896
 1236SOL    HW215342   2.362   1.864  12.673  2.0289 -0.3446 -0.5258
 1237SOL     OW15343   1.495   3.975  14.769  0.1046  0.2458 -0.4106
 1237SOL    HW115344   1.545   4.009  14.843 -0.0920  0.9721 -0.6143
 1237SOL    HW215345   1.415   3.948  14.814 -0.3945  1.4035 -0.6106
 1238SOL     OW15346   1.020   3.474   9.154  0.4079 -0.1392  0.3711
 1238SOL    HW115347   0.957   3.483   9.083  0.1342  0.0820  0.6443
 1238SOL    HW215348   1.029   3.379   9.160  0.5158 -0.1477  0.0409
 1239SOL     OW15349   4.257   1.053   5.419  0.5061  0.1749  0.0230
 1239SOL    HW115350   4.231   1.144   5.405 -1.1850 -0.3115  0.0634
 1239SOL    HW215351   4.280   1.024   5.331  0.4302  1.0797 -0.2915
 1240SOL     OW15352   0.896   0.887   8.916 -0.7130  0.7213 -0.1995
 1240SOL    HW115353   0.836   0.834   8.865  0.3227  1.4945 -2.2322
 1240SOL    HW215354   0.838   0.949   8.962 -1.8738 -2.4956  2.6709
 1241SOL     OW15355   2.226   3.981   8.856  0.0990 -0.8820  0.4263
 1241SOL    HW115356   2.261   4.070   8.847 -1.0483 -0.5331 -0.5525
 1241SOL    HW215357   2.135   3.991   8.882  0.0641 -0.3143  0.0786
 1242SOL     OW15358   0.187   4.334   2.923  0.4576 -0.7902 -0.2724
 1242SOL    HW115359   0.267   4.370   2.884 -0.7535  0.8393 -1.2703
 1242SOL    HW215360   0.224   4.276   2.990  0.1087 -0.6276  0.0599
 1243SOL     OW15361   4.523   2.762   8.861 -0.0516 -0.5562  0.3404
 1243SOL    HW115362   4.569   2.706   8.924  0.7876 -1.2399 -0.8729
 1243SOL    HW215363   4.473   2.822   8.916 -1.2940  0.5160 -2.0037
 1244SOL     OW15364   0.999   1.711  11.301  0.7492  0.2751  0.2801
 1244SOL    HW115365   0.965   1.623  11.285  0.2605  0.0953  2.3940
 1244SOL    HW215366   1.007   1.746  11.212  0.9604 -1.3767 -0.3693
 1245SOL     OW15367   3.529   0.943   1.092 -0.2313 -0.0277 -0.1583
 1245SOL    HW115368   3.488   0.861   1.119  2.7009 -0.4303  3.1586
 1245SOL    HW215369   3.595   0.948   1.162 -1.1167 -2.2726  0.8431
 1246SOL     OW15370   4.718   3.565   7.436 -0.0848 -0.5688  0.1739
 1246SOL    HW115371   0.002   3.657   7.443  1.1833 -0.9688  0.7492
 1246SOL    HW215372   4.648   3.550   7.500 -1.2739  0.4169 -0.8957
 1247SOL     OW15373   4.135   3.338   6.654  0.7954  0.2618 -0.2958
 1247SOL    HW115374   4.048   3.337   6.693  0.1290 -0.7211 -1.8082
 1247SOL    HW215375   4.113   3.335   6.561  1.4308 -1.4350 -0.3836
 1248SOL     OW15376   1.508   3.273   5.402 -0.2528  0.2635  0.2741
 1248SOL    HW115377   1.593   3.309   5.428 -0.7053  2.6827 -1.5818
 1248SOL    HW215378   1.449   3.342   5.434 -2.6126 -0.9043 -1.5628
 1249SOL     OW15379   4.190   1.270   7.871 -0.6136 -0.1779 -0.2711
 1249SOL    HW115380   4.116   1.326   7.895 -1.6376 -1.2433 -0.9743
 1249SOL    HW215381   4.144   1.201   7.823 -2.5218 -0.0963  1.4699
 1250SOL     OW15382   1.193   0.167   7.001  0.4982  0.3362  0.4923
 1250SOL    HW115383   1.102   0.163   6.972  0.4668 -1.3359  0.8270
 1250SOL    HW215384   1.192   0.123   7.087 -0.2831 -1.4019 -0.4156
 1251SOL     OW15385   2.054   0.761   1.710  0.4260  0.3848  0.3140
 1251SOL    HW115386   2.109   0.824   1.755  1.0580  0.5757 -0.7297
 1251SOL    HW215387   2.119   0.692   1.694 -1.9172 -1.2092 -2.4477
 1252SOL     OW15388   1.686   0.054   3.599 -0.4630  0.4713 -0.4637
 1252SOL    HW115389   1.692   0.007   3.516  0.9810  0.7307 -0.5120
 1252SOL    HW215390   1.616   0.004   3.641  1.5680 -1.4333  0.7216
 1253SOL     OW15391   4.225   3.178   7.953 -0.1086  0.3813 -0.4597
 1253SOL    HW115392   4.316   3.160   7.929 -0.1305 -0.8945  0.4350
 1253SOL    HW215393   4.243   3.256   8.005 -2.2668 -0.7946  2.0639
 1254SOL     OW15394   4.599   4.356   4.570 -0.4708 -0.4512  0.3571
 1254SOL    HW115395   4.614   4.449   4.557 -1.1180 -0.7598 -2.5486
 1254SOL    HW215396   4.584   4.330   4.479 -2.6864 -1.1929  0.9298
 1255SOL     OW15397   0.298   2.049   1.524  0.1324  0.5463  0.2286
 1255SOL    HW115398   0.304   2.143   1.538 -0.3925  0.5441  0.4826
 1255SOL    HW215399   0.223   2.034   1.581  0.9160  0.3359  1.1888
 1256SOL     OW15400   1.299   2.620   1.443 -0.1688 -0.1568 -0.1246
 1256SOL    HW115401   1.270   2.710   1.431 -1.8941 -0.6901 -0.0049
 1256SOL    HW215402   1.265   2.602   1.530 -0.4359  1.1849  0.0428
 1257SOL     OW15403   2.643   2.879   5.390  0.1142  0.0890  0.3080
 1257SOL    HW115404   2.675   2.792   5.412 -0.2693 -0.1096  0.0776
 1257SOL    HW215405   2.720   2.927   5.422 -0.0744  1.5914 -1.4869
 1258SOL     OW15406   0.853   2.695  15.062 -0.2324  0.0864  0.1039
 1258SOL    HW115407   0.890   2.710  15.149  1.3043  0.1259 -0.5641
 1258SOL    HW215408   0.861   2.601  15.045  2.4932  0.3168  0.0848
 1259SOL     OW15409   4.284   1.312   5.737 -0.4288  0.9669  0.0158
 1259SOL    HW115410   4.219   1.255   5.778  2.1066 -2.3294 -0.5184
 1259SOL    HW215411   4.243   1.369   5.672 -1.3819 -0.4886 -0.6616
 1260SOL     OW15412   3.215   3.231   8.421 -0.1657 -0.0533  0.2336
 1260SOL    HW115413   3.249   3.147   8.453  0.4472  0.0160 -0.2461
 1260SOL    HW215414   3.131   3.243   8.466  0.1546  0.9258  0.5563
 1261SOL     OW15415   1.398   3.366   9.741 -0.0853 -1.3707  0.3552
 1261SOL    HW115416   1.413   3.326   9.827  0.1608  0.8597  1.3522
 1261SOL    HW215417   1.323   3.422   9.764  0.1487 -0.6213 -0.7162
 1262SOL     OW15418   3.066   4.559   8.800  0.3038  0.0836  0.2122
 1262SOL    HW115419   3.062   4.472   8.839 -0.3427  0.3736  0.8001
 1262SOL    HW215420   3.080   4.524   8.712  1.4852  0.8221  0.1004
 1263SOL     OW15421   0.388   2.121   1.786  0.6562  0.4091  0.3518
 1263SOL    HW115422   0.384   2.055   1.855 -0.0878  0.7485  0.6279
 1263SOL    HW215423   0.303   2.164   1.794  0.2583 -0.0363 -1.4341
 1264SOL     OW15424   2.954   3.814   8.642  0.3315  0.3225 -0.2095
 1264SOL    HW115425   2.859   3.819   8.626  0.0521  3.5962  2.4439
 1264SOL    HW215426   2.969   3.883   8.706 -0.4865 -0.0951  0.4265
 1265SOL     OW15427   2.428   4.573   0.331  0.0472  0.1340 -0.3729
 1265SOL    HW115428   2.418   4.644   0.268 -0.5849  0.5787  0.2327
 1265SOL    HW215429   2.423   4.608   0.420  0.0438  1.3168 -0.8473
 1266SOL     OW15430   1.072   2.356   9.090  0.1075 -0.0214  0.1677
 1266SOL    HW115431   1.090   2.317   9.175 -0.7531 -0.3028  0.2170
 1266SOL    HW215432   0.981   2.380   9.110  0.0836 -0.3191  0.4170
 1267SOL     OW15433   2.629   2.735   8.605 -0.4919  0.2920 -0.3287
 1267SOL    HW115434   2.567   2.805   8.627 -0.9409 -0.9762  2.4012
 1267SOL    HW215435   2.604   2.728   8.513 -0.4522 -0.0019 -0.3151
 1268SOL     OW15436   1.929   3.868  16.129 -0.2851 -0.3986 -0.4860
 1268SOL    HW115437   1.988   3.800  16.096 -1.0289 -0.6598 -1.2615
 1268SOL    HW215438   1.958   3.882  16.219  0.1534  0.7435 -0.7963
 1269SOL     OW15439   4.582   2.851   4.685 -0.6000 -0.1511 -0.4837
 1269SOL    HW115440   4.633   2.829   4.763 -1.2516 -0.2448 -0.0893
 1269SOL    HW215441   4.630   2.800   4.621 -1.3792 -0.3520 -0.9034
 1270SOL     OW15442   4.696   3.001   8.405 -0.2624 -0.2442  1.0119
 1270SOL    HW115443   4.700   2.919   8.357 -0.6660  0.3559 -0.0457
 1270SOL    HW215444   4.651   2.977   8.486  1.5522  0.2393  2.1725
 1271SOL     OW15445   4.377   3.196   5.494 -0.0779 -0.5095  0.4115
 1271SOL    HW115446   4.410   3.201   5.404  1.5026 -3.1681  0.8394
 1271SOL    HW215447   4.453   3.210   5.550 -1.7512  1.7074  2.1695
 1272SOL     OW15448   1.828   4.400   3.362  0.1699 -0.7478  0.6492
 1272SOL    HW115449   1.782   4.372   3.282  0.4126 -1.2323  0.6786
 1272SOL    HW215450   1.916   4.428   3.339 -0.6068  2.0867  1.1147
 1273SOL     OW15451   4.554   2.533   6.340 -0.5003 -0.3428  0.4678
 1273SOL    HW115452   4.462   2.544   6.316 -0.0951  3.4909  0.7438
 1273SOL    HW215453   4.543   2.521   6.435  0.2655 -3.1593  0.1975
 1274SOL     OW15454   4.528   1.459   3.844  0.3902 -0.0652 -0.5393
 1274SOL    HW115455   4.508   1.434   3.934  1.9663 -0.9061 -0.4135
 1274SOL    HW215456   4.463   1.412   3.792  1.2768  0.5458 -2.2167
 1275SOL     OW15457   4.554   3.196  15.350  0.4899  0.2705 -0.1927
 1275SOL    HW115458   4.504   3.226  15.426 -0.9446 -2.0103 -0.2070
 1275SOL    HW215459   4.476   3.165  15.303  0.1796  1.4137 -0.4118
 1276SOL     OW15460   2.761   2.690   8.098  0.0911 -0.0220 -0.2256
 1276SOL    HW115461   2.726   2.727   8.017  0.1484  0.7503  0.1007
 1276SOL    HW215462   2.707   2.611   8.105  0.5979 -0.3547 -0.1403
 1277SOL     OW15463   3.377   0.419   0.025 -0.0635 -0.1181 -0.3063
 1277SOL    HW115464   3.456   0.458   0.062 -0.1222  0.4890 -0.8211
 1277SOL    HW215465   3.411   0.333  17.761  0.0725 -0.4086  0.8403
 1278SOL     OW15466   4.464   3.297   4.145 -0.9355 -0.4817  0.0642
 1278SOL    HW115467   4.543   3.347   4.128 -0.5285 -0.6905  1.3114
 1278SOL    HW215468   4.413   3.378   4.152  0.1258 -0.0591  3.0416
 1279SOL     OW15469   0.071   3.348   3.588 -0.2778  0.0853  0.0988
 1279SOL    HW115470   0.046   3.321   3.677  3.5607  0.8590  1.4378
 1279SOL    HW215471   0.166   3.353   3.603  0.2143  0.8433 -3.4537
 1280SOL     OW15472   3.444   2.379   7.825 -0.0800  0.6817 -0.7800
 1280SOL    HW115473   3.456   2.309   7.760 -0.6188  0.8681 -1.0748
 1280SOL    HW215474   3.374   2.436   7.793 -0.7540 -0.6051 -1.6017
 1281SOL     OW15475   0.887   2.356   2.939 -0.4547 -0.3291 -0.1006
 1281SOL    HW115476   0.809   2.303   2.923 -1.3292  0.5209  1.3030
 1281SOL    HW215477   0.905   2.379   2.848  1.2160  0.7423  0.5062
 1282SOL     OW15478   3.416   4.434  12.612 -0.5782  0.1576 -0.0291
 1282SOL    HW115479   3.356   4.502  12.583 -0.7778 -0.7001 -1.6970
 1282SOL    HW215480   3.466   4.420  12.531 -1.3692 -2.2940 -0.1230
 1283SOL     OW15481   0.626   4.213   5.105 -0.2319 -0.0076  0.4319
 1283SOL    HW115482   0.703   4.185   5.155 -0.8512 -0.9662  0.8638
 1283SOL    HW215483   0.630   4.307   5.120  0.4328 -0.3595  2.5019
 1284SOL     OW15484   0.277   0.893   8.213 -0.0380  0.5098 -0.1904
 1284SOL    HW115485   0.212   0.848   8.159  0.4397 -0.5581  0.1150
 1284SOL    HW215486   0.239   0.979   8.230  0.3438  0.1785  2.4017
 1285SOL     OW15487   4.643   2.430   4.443  0.2592 -0.2928  0.0631
 1285SOL    HW115488   4.609   2.511   4.481  0.2043 -0.3033  0.0368
 1285SOL    HW215489   4.698   2.393   4.512 -0.0663 -1.1546 -0.1400
 1286SOL     OW15490   1.429   4.415   9.532  0.4380 -0.0627 -0.3507
 1286SOL    HW115491   1.464   4.487   9.481 -0.4070  0.3290 -0.3793
 1286SOL    HW215492   1.336   4.422   9.511  0.3691  0.8790  0.2995
 1287SOL     OW15493   3.485   4.222   2.864  0.1318  0.1456  0.5772
 1287SOL    HW115494   3.497   4.302   2.813  0.1181  0.3084  0.8315
 1287SOL    HW215495   3.525   4.259   2.943 -0.4475  0.8919  0.5190
 1288SOL     OW15496   4.500   3.841  15.248 -0.4122 -0.5907  0.1726
 1288SOL    HW115497   4.543   3.756  15.258  1.4324  0.6215  2.3300
 1288SOL    HW215498   4.572   3.900  15.229 -1.8502  1.0556 -0.1679
 1289SOL     OW15499   1.407   4.003   9.762  0.3172  0.1960  0.9365
 1289SOL    HW115500   1.408   4.029   9.670 -1.8264  0.1365  0.8973
 1289SOL    HW215501   1.462   4.071   9.800 -0.2775  0.0124  2.1469
 1290SOL     OW15502   0.975   1.053   8.706  0.0787 -0.1553 -0.4331
 1290SOL    HW115503   0.923   1.054   8.626 -1.5353  1.9407  0.6539
 1290SOL    HW215504   0.942   0.979   8.756  0.4544 -1.1137 -1.5865
 1291SOL     OW15505   2.566   1.025   2.584  0.0341 -0.0259  0.2054
 1291SOL    HW115506   2.622   1.064   2.651  1.0815 -1.5510  0.1899
 1291SOL    HW215507   2.503   1.097   2.578 -0.2840 -0.1466  2.2005
 1292SOL     OW15508   3.943   1.128   2.823 -0.0317  0.0214 -0.8148
 1292SOL    HW115509   3.911   1.211   2.858 -3.1481 -1.3992 -0.3191
 1292SOL    HW215510   3.985   1.157   2.742 -0.8409  0.6612 -0.9993
 1293SOL     OW15511   3.020   2.859   7.633 -1.0759  0.6406  0.4234
 1293SOL    HW115512   3.102   2.896   7.599  0.2354  1.9567  5.0096
 1293SOL    HW215513   3.015   2.889   7.723  3.0825  2.8835 -0.0544
 1294SOL     OW15514   1.364   3.203   4.917  0.0277 -0.2225 -0.1431
 1294SOL    HW115515   1.322   3.170   4.997  1.1810  2.4504  1.5641
 1294SOL    HW215516   1.391   3.119   4.880 -1.0745 -1.0415  0.8976
 1295SOL     OW15517   4.208   2.255   4.706  0.4890  0.5922 -0.2060
 1295SOL    HW115518   4.204   2.160   4.716 -0.2560  0.7563  1.1923
 1295SOL    HW215519   4.285   2.250   4.649  0.4963 -0.7749 -0.0861
 1296SOL     OW15520   1.077   1.730   4.017  0.1248 -0.4255  0.0482
 1296SOL    HW115521   1.011   1.662   4.032 -0.8414  0.4390 -0.2236
 1296SOL    HW215522   1.158   1.681   4.031 -1.2389 -1.9647  2.6755
 1297SOL     OW15523   2.413   0.023  10.772  0.2755 -0.3729 -0.1079
 1297SOL    HW115524   2.364   0.057  10.847 -0.9755 -1.8862 -0.2443
 1297SOL    HW215525   2.359   4.687  10.753 -0.3620 -0.0839  0.5311
 1298SOL     OW15526   0.034   3.497   2.438 -0.1101 -0.1113 -0.5917
 1298SOL    HW115527   0.069   3.416   2.476  1.1004 -0.1009 -1.6671
 1298SOL    HW215528   0.071   3.489   2.350 -0.1993 -0.0325 -0.6363
 1299SOL     OW15529   4.093   4.643   8.538 -0.4284  0.0122  0.1486
 1299SOL    HW115530   4.025   4.579   8.559 -0.1725 -0.4292 -0.3567
 1299SOL    HW215531   4.041   4.723   8.545 -2.7059 -1.3049 -1.5590
 1300SOL     OW15532   1.317   0.275   4.058 -0.3475  0.3783  0.3865
 1300SOL    HW115533   1.401   0.320   4.049 -0.1919 -0.1624 -0.8856
 1300SOL    HW215534   1.321   0.229   4.141 -0.7858  3.1148  1.9220
 1301SOL     OW15535   1.407   3.343   6.637  0.1200 -0.0047 -0.0029
 1301SOL    HW115536   1.445   3.420   6.595  2.9306 -0.2399  2.1077
 1301SOL    HW215537   1.473   3.278   6.612  0.7689  0.5374  0.3098
 1302SOL     OW15538   2.727   4.650  17.421  0.3295 -0.6824 -0.1209
 1302SOL    HW115539   2.790   4.618  17.486  2.0333 -1.9101 -2.3477
 1302SOL    HW215540   2.742   4.602  17.339 -1.2668 -0.8842 -0.2782
 1303SOL     OW15541   1.460   3.288  10.486  0.0360 -0.3043 -0.5447
 1303SOL    HW115542   1.398   3.317  10.420 -1.1581 -0.4802  0.4868
 1303SOL    HW215543   1.449   3.196  10.509  1.4179  0.3654  2.7936
 1304SOL     OW15544   1.502   1.844   3.675  0.0292  0.3359 -0.2357
 1304SOL    HW115545   1.451   1.827   3.596  2.4485  0.9345 -1.9374
 1304SOL    HW215546   1.430   1.889   3.718 -0.9007  0.3257 -1.7792
 1305SOL     OW15547   1.606   3.907  15.894  0.0819  0.7609 -0.3875
 1305SOL    HW115548   1.640   3.831  15.848 -0.8606  0.5748 -0.7762
 1305SOL    HW215549   1.680   3.965  15.910  1.8869 -0.7400 -3.2913
 1306SOL     OW15550   4.476   2.920  17.078 -0.1198 -0.4333  0.2876
 1306SOL    HW115551   4.552   2.970  17.108 -0.3092  0.2239 -0.3275
 1306SOL    HW215552   4.509   2.878  16.999 -2.2543 -2.1833  0.3240
 1307SOL     OW15553   3.545   2.953   5.446  0.2277  0.0124 -0.9895
 1307SOL    HW115554   3.609   2.884   5.460  0.8047  0.2245 -2.5492
 1307SOL    HW215555   3.560   2.985   5.357  1.3729  0.2252 -0.7157
 1308SOL     OW15556   0.468   3.051   0.197 -0.1458 -0.1942  0.3536
 1308SOL    HW115557   0.434   2.978   0.249 -0.7816 -0.7843 -0.8877
 1308SOL    HW215558   0.485   3.111   0.269 -2.0565 -0.1747  0.7981
 1309SOL     OW15559   1.503   4.620   7.044 -0.1236  0.1836  0.0771
 1309SOL    HW115560   1.446   4.649   6.973  1.0682 -0.3249 -1.1143
 1309SOL    HW215561   1.495   4.693   7.105  0.0345 -0.5129  0.9228
 1310SOL     OW15562   0.079   4.265   7.982 -0.0376  0.4299  0.3808
 1310SOL    HW115563   0.013   4.197   7.993  0.7238 -0.3125  0.3221
 1310SOL    HW215564   0.027   4.322   7.926 -0.8225  0.4461  1.1190
 1311SOL     OW15565   2.693   1.851   3.025 -0.5127  0.8327 -0.2467
 1311SOL    HW115566   2.775   1.853   3.074 -1.1074 -1.3095  0.8358
 1311SOL    HW215567   2.718   1.890   2.942  1.1897  0.5113  0.1155
 1312SOL     OW15568   3.540   0.290   5.210  0.4166 -0.1654 -0.3053
 1312SOL    HW115569   3.568   0.268   5.299 -1.2089  0.9529  0.4926
 1312SOL    HW215570   3.595   0.363   5.184 -1.5222  0.3583 -2.9690
 1313SOL     OW15571   2.873   3.939  12.311  0.1229 -0.4829  0.2373
 1313SOL    HW115572   2.806   3.870  12.315  1.9654 -2.2521  0.6716
 1313SOL    HW215573   2.834   4.009  12.259 -0.0503 -1.6462 -1.1987
 1314SOL     OW15574   1.717   4.022  17.063  0.3275  0.0027 -0.3852
 1314SOL    HW115575   1.640   3.977  17.099  1.0194  0.1251  1.2120
 1314SOL    HW215576   1.670   4.059  16.988 -0.0807  2.2862  1.0078
 1315SOL     OW15577   1.819   2.103   2.758 -0.0332  0.1747 -0.2695
 1315SOL    HW115578   1.744   2.141   2.804  0.0807  0.4319 -0.2966
 1315SOL    HW215579   1.781   2.101   2.669  0.9093 -1.9308 -0.6179
 1316SOL     OW15580   0.084   1.065   6.929  0.3985  0.9885 -0.4044
 1316SOL    HW115581   0.035   1.124   6.985 -0.4035 -0.0015 -0.0651
 1316SOL    HW215582   0.037   0.983   6.946  1.7355  0.4359  0.6140
 1317SOL     OW15583   0.425   0.748  12.329 -0.5004 -0.1852 -0.6054
 1317SOL    HW115584   0.431   0.780  12.419  0.0277 -1.2890 -0.2380
 1317SOL    HW215585   0.520   0.740  12.318 -0.6171 -0.1619 -1.6318
 1318SOL     OW15586   2.826   3.869   6.784 -0.4074  0.0034  0.5812
 1318SOL    HW115587   2.911   3.913   6.782 -0.6551  0.4805  0.5566
 1318SOL    HW215588   2.858   3.780   6.793  0.1113  0.3919  2.5214
 1319SOL     OW15589   4.356   1.759   9.925  0.7489 -0.1576 -0.1414
 1319SOL    HW115590   4.431   1.750   9.983  0.7930 -2.2982 -0.5139
 1319SOL    HW215591   4.399   1.819   9.863  0.3503 -2.5186 -2.7271
 1320SOL     OW15592   2.110   4.249   9.132 -0.3132 -0.1703 -0.0754
 1320SOL    HW115593   2.043   4.286   9.190 -0.4691 -0.7624  0.1286
 1320SOL    HW215594   2.155   4.190   9.193 -0.6098 -0.4963 -0.1648
 1321SOL     OW15595   3.267   4.077   3.585 -0.0087 -1.0228  0.5504
 1321SOL    HW115596   3.202   4.017   3.548 -1.5009  2.0389 -1.8606
 1321SOL    HW215597   3.326   4.011   3.621 -0.6972 -1.0482  1.6279
 1322SOL     OW15598   0.107   1.220   8.090 -0.2816  0.3399  0.0593
 1322SOL    HW115599   0.148   1.290   8.141 -1.0504 -0.2436  1.5059
 1322SOL    HW215600   0.053   1.274   8.033 -0.5284 -0.2841 -0.2958
 1323SOL     OW15601   0.308   0.898   4.612  0.2286 -0.6953  0.3077
 1323SOL    HW115602   0.234   0.837   4.616 -1.6940  1.7686  2.5652
 1323SOL    HW215603   0.377   0.845   4.573 -0.1571 -0.4648 -0.6827
 1324SOL     OW15604   3.163   4.484   1.950 -0.4042 -0.2392  0.1950
 1324SOL    HW115605   3.167   4.475   2.045 -1.8358 -0.6454  0.2113
 1324SOL    HW215606   3.205   4.401   1.925  0.1491  0.4206 -1.0736
 1325SOL     OW15607   3.029   4.099   0.254 -0.5681  0.5390  0.2667
 1325SOL    HW115608   3.024   4.003   0.254  2.3440  0.3882 -0.9071
 1325SOL    HW215609   3.051   4.109   0.161  2.8439 -0.0130  1.0016
 1326SOL     OW15610   1.925   1.782   4.636  0.0026  0.4330  0.2151
 1326SOL    HW115611   1.990   1.718   4.608 -1.1386 -0.8914  0.5810
 1326SOL    HW215612   1.973   1.830   4.704  2.5907 -2.1062  0.1804
 1327SOL     OW15613   0.149   1.190  17.716  0.4027 -0.0556  0.5996
 1327SOL    HW115614   0.067   1.235  17.737 -1.1623 -1.4510 -2.5033
 1327SOL    HW215615   0.128   1.097  17.713 -0.4109  0.1079  1.5025
 1328SOL     OW15616   2.791   3.582   5.054  0.6656 -0.5277  0.1182
 1328SOL    HW115617   2.806   3.536   4.971 -0.3431 -0.6744  0.0195
 1328SOL    HW215618   2.860   3.649   5.053  1.6988 -1.5987 -0.4545
 1329SOL     OW15619   2.495   1.360   6.053 -0.3283 -0.4389  0.1367
 1329SOL    HW115620   2.523   1.446   6.083 -0.5857 -0.0205 -0.8226
 1329SOL    HW215621   2.521   1.310   6.130 -0.8048 -1.1039 -0.1322
 1330SOL     OW15622   0.113   3.653   1.909 -0.0940  0.9652  0.0208
 1330SOL    HW115623   0.155   3.586   1.962 -0.4915  0.1254 -0.7221
 1330SOL    HW215624   0.172   3.659   1.833 -0.3973 -0.9957 -0.3743
 1331SOL     OW15625   4.585   1.710   2.871  0.1337 -1.0195 -0.1177
 1331SOL    HW115626   4.533   1.753   2.940  1.1397  1.8033 -1.1016
 1331SOL    HW215627   4.529   1.730   2.796  0.2175 -2.3961 -0.5472
 1332SOL     OW15628   2.552   0.560   3.370 -0.4425 -0.8447 -0.1511
 1332SOL    HW115629   2.586   0.649   3.381 -0.6133 -0.7933 -0.0476
 1332SOL    HW215630   2.476   0.582   3.317  0.0738  0.1367 -0.4850
 1333SOL     OW15631   4.087   4.174   5.260  0.3563  0.6140  0.2413
 1333SOL    HW115632   4.000   4.142   5.236 -0.4431  2.6391  0.4316
 1333SOL    HW215633   4.076   4.172   5.355  0.1028  0.9283  0.2184
 1334SOL     OW15634   1.514   1.333   9.077  0.0051  0.1451  0.6044
 1334SOL    HW115635   1.499   1.317   8.983  0.4743 -0.0815  0.5692
 1334SOL    HW215636   1.581   1.269   9.099 -1.1833 -1.8997 -1.7803
 1335SOL     OW15637   3.521   2.945   1.860 -0.3923 -0.2827  0.2021
 1335SOL    HW115638   3.426   2.934   1.869 -0.5412 -0.2629 -1.3670
 1335SOL    HW215639   3.520   3.003   1.784 -2.0798  0.7603  1.0376
 1336SOL     OW15640   1.186   4.559   7.929 -0.8998  0.3885  0.0011
 1336SOL    HW115641   1.161   4.476   7.969 -2.3315  1.1005  0.5842
 1336SOL    HW215642   1.241   4.531   7.856  3.8410 -0.4849  3.8735
 1337SOL     OW15643   3.692   0.682  17.017 -0.1244  0.6679  0.0255
 1337SOL    HW115644   3.612   0.718  17.056 -0.3341 -1.2924  1.3966
 1337SOL    HW215645   3.753   0.756  17.018  1.6311 -0.7833 -0.0980
 1338SOL     OW15646   3.038   1.471   1.863  0.6880  0.2071  0.7701
 1338SOL    HW115647   3.059   1.403   1.926  0.0311  0.7694  1.6026
 1338SOL    HW215648   2.986   1.407   1.814 -0.6233  0.0986  2.3030
 1339SOL     OW15649   0.077   0.705   3.729 -0.8706  0.2830  0.1924
 1339SOL    HW115650   0.100   0.781   3.676  0.5253  0.9180  1.7030
 1339SOL    HW215651   0.151   0.712   3.789  0.7741  0.6551 -1.8696
 1340SOL     OW15652   4.049   3.761   3.537 -0.0899 -0.3113 -0.4207
 1340SOL    HW115653   4.008   3.751   3.451  0.1604 -2.7390 -0.2310
 1340SOL    HW215654   3.976   3.765   3.598  0.4989  0.3371  0.2416
 1341SOL     OW15655   3.588   0.054   6.375  0.1067  0.5530  0.3988
 1341SOL    HW115656   3.595   0.137   6.424  1.6340  0.4093  0.4298
 1341SOL    HW215657   3.565   4.735   6.446  0.4649 -0.2917 -0.1999
 1342SOL     OW15658   1.744   1.943   5.930  0.7255 -0.0753 -0.1869
 1342SOL    HW115659   1.801   1.873   5.962 -0.0716 -0.3787  0.5651
 1342SOL    HW215660   1.800   2.018   5.952 -0.1388  1.1415 -2.1140
 1343SOL     OW15661   4.153   1.264   6.685  0.3998  0.1675  0.0463
 1343SOL    HW115662   4.077   1.283   6.629  0.3340  0.5611  0.2676
 1343SOL    HW215663   4.190   1.185   6.647  0.4344 -0.2373  0.9223
 1344SOL     OW15664   4.567   2.135   5.678  0.1812 -0.1198 -0.3272
 1344SOL    HW115665   4.479   2.163   5.705 -0.4651 -1.9149 -0.5100
 1344SOL    HW215666   4.561   2.132   5.583  2.1443 -0.9721 -0.4148
 1345SOL     OW15667   0.081   1.545  11.638  0.0532  0.1831 -0.9734
 1345SOL    HW115668   0.102   1.637  11.650  1.3597 -0.1595 -0.6415
 1345SOL    HW215669   0.112   1.506  11.720 -0.0395  0.1817 -0.9384
 1346SOL     OW15670   1.093   3.023  15.195 -0.2602  0.9545  0.0629
 1346SOL    HW115671   1.005   2.997  15.166 -0.2464  1.2634 -0.2564
 1346SOL    HW215672   1.068   3.050  15.283 -0.4252 -1.0996  0.6580
 1347SOL     OW15673   3.760   4.666   4.231  0.1768 -0.0825  0.2163
 1347SOL    HW115674   3.771   4.686   4.138  0.1350 -1.5305 -0.1080
 1347SOL    HW215675   3.684   4.607   4.230  1.2934 -1.5145  0.2140
 1348SOL     OW15676   3.530   0.795  17.214  1.0132 -0.6489  0.4294
 1348SOL    HW115677   3.524   0.883  17.252 -1.2355 -1.2389  1.4353
 1348SOL    HW215678   3.524   0.744  17.296 -0.9450  0.1724  0.7738
 1349SOL     OW15679   0.096   3.092   4.019 -0.0955  0.0553 -0.4774
 1349SOL    HW115680   0.181   3.052   4.042 -1.1555 -1.0003  1.6740
 1349SOL    HW215681   0.039   3.022   4.051 -0.4966  1.0977  1.0814
 1350SOL     OW15682   2.518   2.671  11.945 -0.3346  0.6303 -0.2023
 1350SOL    HW115683   2.501   2.627  11.861 -3.0030  0.5459  0.4074
 1350SOL    HW215684   2.541   2.762  11.930  2.3599  0.0320  0.2742
 1351SOL     OW15685   1.402   3.687   6.091 -0.1856  0.8187  0.3279
 1351SOL    HW115686   1.448   3.679   6.175 -0.5278  1.7559  0.5968
 1351SOL    HW215687   1.321   3.643   6.114  0.0222 -0.0860 -0.6634
 1352SOL     OW15688   2.524   3.721   1.532  0.0137 -0.0165  0.1312
 1352SOL    HW115689   2.592   3.666   1.492  0.7372  1.3311 -0.5066
 1352SOL    HW215690   2.477   3.746   1.452 -0.7573  0.5666  0.7685
 1353SOL     OW15691   0.554   0.460   4.469 -0.0717 -0.0418  0.7414
 1353SOL    HW115692   0.574   0.367   4.468 -1.2868 -0.2960  0.4450
 1353SOL    HW215693   0.588   0.483   4.383 -3.3262  1.1656 -0.2303
 1354SOL     OW15694   0.772   4.277  17.318 -0.3784 -0.1288 -0.1781
 1354SOL    HW115695   0.807   4.200  17.274 -0.5658  0.2918 -1.0561
 1354SOL    HW215696   0.677   4.269  17.305 -0.5104  3.8253 -1.6252
 1355SOL     OW15697   2.836   3.547   8.463 -0.4002  0.2266  0.2847
 1355SOL    HW115698   2.921   3.562   8.503 -0.6722 -2.2181  1.7738
 1355SOL    HW215699   2.794   3.629   8.489 -1.4743 -0.4844  0.7746
 1356SOL     OW15700   3.410   3.908   3.804 -0.3027 -0.5694 -0.1413
 1356SOL    HW115701   3.398   3.815   3.824  0.0551 -0.6684 -0.3876
 1356SOL    HW215702   3.337   3.949   3.850  1.3413  1.1304  0.9598
 1357SOL     OW15703   3.002   3.879  15.125  0.2954  0.2637  0.3132
 1357SOL    HW115704   2.995   3.789  15.094  1.0066  0.5644 -0.7271
 1357SOL    HW215705   3.013   3.864  15.218 -2.2987 -1.2323  0.3751
 1358SOL     OW15706   1.714   3.997   9.617  0.3360  0.4257 -0.5934
 1358SOL    HW115707   1.776   4.027   9.683 -1.1912 -1.7981  1.8364
 1358SOL    HW215708   1.626   3.992   9.653 -0.3136  1.7641 -2.0064
 1359SOL     OW15709   0.299   4.112  15.227 -0.2028 -0.5790  0.2480
 1359SOL    HW115710   0.320   4.113  15.320  0.1998  3.0124  0.1053
 1359SOL    HW215711   0.298   4.207  15.214  2.0929 -0.4953  0.7353
 1360SOL     OW15712   1.990   1.361   7.955  0.7325  0.0888  0.3712
 1360SOL    HW115713   1.963   1.420   7.884 -2.6002  1.3409  2.6599
 1360SOL    HW215714   2.049   1.294   7.921 -0.7568 -1.0272 -0.0028
 1361SOL     OW15715   4.363   1.211  16.273  0.0179  0.1774  0.1852
 1361SOL    HW115716   4.391   1.152  16.203 -1.1488 -0.7548  0.5082
 1361SOL    HW215717   4.325   1.280  16.219 -0.6935 -1.2744 -1.2047
 1362SOL     OW15718   0.080   3.185   5.984  0.1434  0.1889 -0.6213
 1362SOL    HW115719   0.137   3.261   5.999 -3.1613  2.1627  1.9134
 1362SOL    HW215720   0.130   3.111   6.019  0.6268  0.9063  0.2093
 1363SOL     OW15721   0.056   3.820   7.441 -0.0237 -0.0691 -0.3624
 1363SOL    HW115722   0.041   3.913   7.459 -1.2750 -0.6197  1.4642
 1363SOL    HW215723   0.138   3.829   7.393 -0.0394 -1.0236 -0.5745
 1364SOL     OW15724   1.970   2.456  12.813  1.0161  1.0724 -0.4954
 1364SOL    HW115725   2.032   2.390  12.780  0.3844  0.5064 -0.5526
 1364SOL    HW215726   2.028   2.531  12.825  2.9705 -0.6390  0.6815
 1365SOL     OW15727   1.584   3.648   7.726  0.4010 -0.6297 -0.2928
 1365SOL    HW115728   1.536   3.575   7.765 -2.8382  1.0888 -1.0456
 1365SOL    HW215729   1.573   3.722   7.784  1.2566 -0.2340 -0.6366
 1366SOL     OW15730   4.289   1.477   2.996  0.5066 -0.0284 -0.0997
 1366SOL    HW115731   4.371   1.517   3.025 -0.1805  2.0628 -1.0219
 1366SOL    HW215732   4.303   1.441   2.909 -0.7694  0.2335 -0.4070
 1367SOL     OW15733   0.252   0.739   3.937  0.0778 -0.4261 -0.7072
 1367SOL    HW115734   0.200   0.733   4.018 -0.8629 -1.2931 -1.3832
 1367SOL    HW215735   0.286   0.651   3.922 -0.6417 -1.0703  1.3308
 1368SOL     OW15736   2.951   2.205   2.152  0.4092  0.0235 -0.1788
 1368SOL    HW115737   2.898   2.278   2.185  0.9270  0.6363 -0.7141
 1368SOL    HW215738   2.898   2.195   2.073 -0.8074 -0.6583  0.7229
 1369SOL     OW15739   3.247   3.235   3.021 -0.2374 -0.4526 -0.2956
 1369SOL    HW115740   3.175   3.178   3.045  0.5071 -1.0581  0.5236
 1369SOL    HW215741   3.298   3.247   3.101  0.4489  3.1626 -1.2738
 1370SOL     OW15742   0.901   0.308   7.929  0.1516  0.0490  0.5162
 1370SOL    HW115743   0.823   0.304   7.986 -1.7390  0.2512 -2.0809
 1370SOL    HW215744   0.873   0.284   7.841 -0.0893  1.7894  0.1116
 1371SOL     OW15745   3.104   0.426   8.633 -0.4721 -0.0211  0.1585
 1371SOL    HW115746   3.105   0.473   8.549  1.1672  0.0234  0.2003
 1371SOL    HW215747   3.116   0.340   8.591 -1.2429  0.0907 -0.3036
 1372SOL     OW15748   2.362   0.298   8.138  0.0282  0.6514 -0.5345
 1372SOL    HW115749   2.387   0.360   8.070 -0.6310  0.5048 -0.9126
 1372SOL    HW215750   2.361   0.351   8.217  0.5626  0.8841 -0.6872
 1373SOL     OW15751   2.483   1.497  17.232 -0.0064 -0.1315  0.0177
 1373SOL    HW115752   2.405   1.456  17.194  0.8106 -1.2328 -0.4947
 1373SOL    HW215753   2.501   1.432  17.301 -0.5376 -1.8767 -1.4719
 1374SOL     OW15754   3.203   1.539   9.849  0.4616 -0.0665 -0.4840
 1374SOL    HW115755   3.193   1.625   9.891 -1.2119 -1.0629  1.1558
 1374SOL    HW215756   3.252   1.495   9.918 -0.0676  0.9249  0.5227
 1375SOL     OW15757   4.198   0.986   5.669 -0.1546 -0.2589 -0.0899
 1375SOL    HW115758   4.203   1.009   5.577 -0.4705 -1.5142 -0.4249
 1375SOL    HW215759   4.143   1.060   5.693  0.9088  1.2223 -2.2736
 1376SOL     OW15760   4.500   2.697   5.596  0.2583  0.5864  0.4423
 1376SOL    HW115761   4.566   2.721   5.660 -0.8033  0.2673  1.6402
 1376SOL    HW215762   4.424   2.729   5.644 -1.3082 -0.5308 -1.2583
 1377SOL     OW15763   1.016   3.418  12.080 -0.0530  0.1937  0.2457
 1377SOL    HW115764   0.991   3.430  11.988  0.2970  3.2435  0.5455
 1377SOL    HW215765   1.112   3.415  12.080 -0.0836 -0.9449 -0.3327
 1378SOL     OW15766   1.362   4.639   4.542  0.4267  0.1321 -0.7804
 1378SOL    HW115767   1.352   4.617   4.450  0.6881 -0.9893 -0.5417
 1378SOL    HW215768   1.270   4.655   4.563  0.0139 -1.6119 -1.2462
 1379SOL     OW15769   3.885   1.519   1.901  0.0137  0.5023  0.2694
 1379SOL    HW115770   3.889   1.546   1.809 -1.4417  1.5414  0.5214
 1379SOL    HW215771   3.975   1.487   1.908  0.9364  3.3050  1.4337
 1380SOL     OW15772   1.372   1.912   4.863  0.1345 -0.1177  0.1621
 1380SOL    HW115773   1.410   1.825   4.862 -1.8241 -0.9365 -1.2836
 1380SOL    HW215774   1.421   1.943   4.787 -0.6686 -0.0047 -0.3099
 1381SOL     OW15775   2.803   4.305   2.030  0.2353  0.0364  0.0103
 1381SOL    HW115776   2.734   4.244   2.002  0.2376 -1.5835  3.4838
 1381SOL    HW215777   2.864   4.235   2.052 -1.7952 -1.3444  1.3151
 1382SOL     OW15778   4.584   1.703   5.008  0.1118  0.1619 -0.1218
 1382SOL    HW115779   4.585   1.659   5.094 -0.6683  0.4179  0.0223
 1382SOL    HW215780   4.615   1.793   5.016  0.5041  0.1520 -1.5389
 1383SOL     OW15781   3.194   3.883   9.743 -0.5826  0.1072  0.0730
 1383SOL    HW115782   3.281   3.851   9.765  0.1959  1.8341 -0.5300
 1383SOL    HW215783   3.212   3.943   9.671  0.3048 -0.5198 -0.2320
 1384SOL     OW15784   0.202   4.168  15.752 -0.3199 -0.1311 -0.4058
 1384SOL    HW115785   0.137   4.108  15.789  0.6291  0.9263  2.9663
 1384SOL    HW215786   0.270   4.167  15.820 -1.3684 -2.4399  0.6241
 1385SOL     OW15787   3.531   2.871  10.305  0.4604 -0.1140  0.4781
 1385SOL    HW115788   3.551   2.963  10.287 -1.7833 -0.0083 -1.4956
 1385SOL    HW215789   3.619   2.835  10.296 -0.1429 -1.3129 -0.7354
 1386SOL     OW15790   0.834   0.789   8.568 -0.3042 -0.6102 -0.3746
 1386SOL    HW115791   0.810   0.874   8.531 -0.4273 -0.4455  0.0831
 1386SOL    HW215792   0.920   0.784   8.527  0.3528 -1.4471  1.0922
 1387SOL     OW15793   2.984   1.807   6.909  0.5103 -0.3340 -0.1582
 1387SOL    HW115794   2.973   1.835   6.818  0.7300 -3.0199 -1.0013
 1387SOL    HW215795   3.007   1.715   6.893  0.2946 -0.2542 -0.9495
 1388SOL     OW15796   2.753   3.667   5.575 -0.1157  0.1359 -0.0183
 1388SOL    HW115797   2.771   3.600   5.642  0.6350  0.3587  0.0017
 1388SOL    HW215798   2.841   3.704   5.564 -0.0651 -0.6614 -2.2955
 1389SOL     OW15799   1.494   2.734   6.179  0.6904  0.0614 -1.0041
 1389SOL    HW115800   1.498   2.672   6.106  1.2362 -0.5174 -0.4820
 1389SOL    HW215801   1.408   2.708   6.212  1.2790 -0.3538  0.2487
 1390SOL     OW15802   1.541   3.534   4.595 -0.2904  0.2152  0.2157
 1390SOL    HW115803   1.462   3.481   4.605 -0.8421  0.7627 -1.1857
 1390SOL    HW215804   1.567   3.553   4.685  0.3364 -0.7748  0.2383
 1391SOL     OW15805   0.005   0.492   9.947 -0.6217 -0.4755 -0.2415
 1391SOL    HW115806   0.029   0.463   9.859  0.5551  0.9104 -0.3759
 1391SOL    HW215807   0.059   0.571   9.950  0.5685 -1.3717  2.3027
 1392SOL     OW15808   0.988   4.569   1.978  0.4399  0.0893  0.2312
 1392SOL    HW115809   0.952   4.502   1.920 -0.1776  0.8248 -0.2449
 1392SOL    HW215810   0.928   4.557   2.052 -0.9617 -1.4699 -1.1608
 1393SOL     OW15811   3.921   1.026  11.255 -0.0456  0.0583 -0.2029
 1393SOL    HW115812   3.895   1.026  11.163 -3.4211 -1.3800  0.7590
 1393SOL    HW215813   3.846   0.984  11.297 -1.0994  0.2090 -1.8888
 1394SOL     OW15814   1.568   0.419  17.069 -0.6928  0.2978 -0.8281
 1394SOL    HW115815   1.606   0.332  17.058  1.8892  1.0887  1.6865
 1394SOL    HW215816   1.569   0.426  17.164 -1.5533 -1.9152 -0.6552
 1395SOL     OW15817   1.249   1.343  12.497  0.2850  0.6510 -0.5447
 1395SOL    HW115818   1.193   1.293  12.557 -0.2122  3.3232  1.1945
 1395SOL    HW215819   1.186   1.406  12.462  0.9785  2.3747  1.3717
 1396SOL     OW15820   3.811   2.217   5.394 -0.3832  0.7926 -0.0339
 1396SOL    HW115821   3.754   2.182   5.462 -1.2034  1.3072 -0.4474
 1396SOL    HW215822   3.840   2.137   5.350 -2.6125 -1.2626  2.2578
 1397SOL     OW15823   1.141   3.253  10.684 -0.0417 -0.2305  0.0658
 1397SOL    HW115824   1.215   3.203  10.649  2.1370  4.1656 -1.5983
 1397SOL    HW215825   1.141   3.331  10.627  1.9482  0.0926  0.5000
 1398SOL     OW15826   3.382   0.308   0.845 -0.3604 -0.1845  0.4379
 1398SOL    HW115827   3.360   0.315   0.938  1.5816 -0.8857  0.9490
 1398SOL    HW215828   3.308   0.258   0.810 -0.1651  0.6764 -1.1774
 1399SOL     OW15829   3.652   1.203   3.000  0.7934  0.0418 -0.0140
 1399SOL    HW115830   3.565   1.173   2.976  0.5298  0.8719 -0.0956
 1399SOL    HW215831   3.630   1.270   3.065  1.3729  0.8159 -0.6097
 1400SOL     OW15832   0.306   1.595  12.035 -0.2224  0.2921 -0.0067
 1400SOL    HW115833   0.237   1.554  11.984  1.0330 -2.4232  0.4858
 1400SOL    HW215834   0.272   1.683  12.053  0.7633  1.0673 -1.8658
 1401SOL     OW15835   1.664   4.192   8.694  0.5850 -0.0888  0.0928
 1401SOL    HW115836   1.615   4.241   8.627  0.7474  0.1368  0.1384
 1401SOL    HW215837   1.697   4.259   8.753  1.3031  0.2779 -0.7174
 1402SOL     OW15838   1.429   3.565  15.296 -0.0547  0.0844  0.2925
 1402SOL    HW115839   1.506   3.609  15.260 -1.9407  1.2858 -2.2173
 1402SOL    HW215840   1.420   3.482  15.248 -0.7832 -0.5473  1.5248
 1403SOL     OW15841   2.535   1.865   3.866 -0.5667  0.3485 -0.6723
 1403SOL    HW115842   2.562   1.781   3.900  1.2001  1.3398  0.3542
 1403SOL    HW215843   2.617   1.915   3.870 -0.2542 -0.1920 -0.4532
 1404SOL     OW15844   1.018   1.321   0.112  0.6653 -0.2984 -0.2863
 1404SOL    HW115845   0.977   1.398   0.151  2.7929 -0.0021  1.3823
 1404SOL    HW215846   1.034   1.347   0.022 -3.4656  1.0080 -0.6121
 1405SOL     OW15847   0.156   3.205   1.736 -0.4165  0.6741 -0.0727
 1405SOL    HW115848   0.076   3.188   1.687  0.8852  1.1099 -2.3965
 1405SOL    HW215849   0.206   3.128   1.707  0.4397  0.8585  0.8971
 1406SOL     OW15850   3.588   1.975   8.217 -0.1548 -0.2069  0.4734
 1406SOL    HW115851   3.500   1.973   8.254 -0.1793 -0.7206  0.3850
 1406SOL    HW215852   3.648   1.974   8.292  0.1988 -1.6053  0.1821
 1407SOL     OW15853   2.903   2.007  13.143  0.0585 -0.2602 -0.2791
 1407SOL    HW115854   2.856   1.934  13.102  0.6701 -0.0095 -1.4242
 1407SOL    HW215855   2.832   2.067  13.169  0.6947  0.9320 -1.3244
 1408SOL     OW15856   2.473   2.895   2.936  0.7355  0.3478  0.2831
 1408SOL    HW115857   2.482   2.938   3.021  0.7896 -1.6997  1.3154
 1408SOL    HW215858   2.435   2.808   2.950  3.1755 -0.5290  1.5895
 1409SOL     OW15859   1.463   2.961   1.600  0.0176  0.1835  0.3068
 1409SOL    HW115860   1.450   2.891   1.664 -0.8314 -0.0555 -0.1210
 1409SOL    HW215861   1.538   2.930   1.548 -0.3922 -0.7220  0.2424
 1410SOL     OW15862   3.615   3.945   2.378  0.6318  0.1753  0.3093
 1410SOL    HW115863   3.600   3.948   2.284  1.1358  2.1935  0.2883
 1410SOL    HW215864   3.574   4.027   2.405  2.4090  0.8803  0.8908
 1411SOL     OW15865   0.612   0.236   1.961 -0.1708 -0.3321 -0.0657
 1411SOL    HW115866   0.645   0.147   1.948  1.6669  0.4207 -0.6142
 1411SOL    HW215867   0.622   0.250   2.055  0.1182  0.8781 -0.2737
 1412SOL     OW15868   1.998   3.334   7.517 -0.1736  0.3447  1.1145
 1412SOL    HW115869   2.045   3.415   7.534  2.2053 -1.3898  2.8202
 1412SOL    HW215870   1.993   3.328   7.422  1.6527  1.0136  0.9737
 1413SOL     OW15871   3.048   3.580  10.059 -0.5096  0.2995  0.0939
 1413SOL    HW115872   3.079   3.491  10.044 -3.9452 -1.4058  3.1955
 1413SOL    HW215873   3.081   3.610  10.144 -0.4333 -1.1611  0.5776
 1414SOL     OW15874   1.420   0.446   8.222 -0.7692  0.1841 -0.5130
 1414SOL    HW115875   1.402   0.537   8.199  1.7855  0.3851 -1.7298
 1414SOL    HW215876   1.364   0.425   8.297  0.7077 -0.2498  0.4585
 1415SOL     OW15877   2.565   2.300  14.821 -0.2379 -0.2343  0.0884
 1415SOL    HW115878   2.489   2.353  14.796 -0.2084  0.3083  1.1733
 1415SOL    HW215879   2.550   2.211  14.787  1.8263 -0.6548  0.2656
 1416SOL     OW15880   1.845   1.342   5.701  0.1730 -0.0119 -0.1437
 1416SOL    HW115881   1.826   1.365   5.792  0.4948  0.2822 -0.1525
 1416SOL    HW215882   1.776   1.277   5.689  0.2965  0.1783 -1.8213
 1417SOL     OW15883   3.948   3.356  16.183  0.5763 -0.2607 -0.2200
 1417SOL    HW115884   3.862   3.398  16.184  0.1871 -1.0564 -0.0588
 1417SOL    HW215885   3.977   3.373  16.273 -2.8229 -2.4961  1.3068
 1418SOL     OW15886   2.947   1.960  10.373  0.0307  0.2350 -0.2242
 1418SOL    HW115887   3.002   1.994  10.303 -0.7813 -1.8298 -1.8694
 1418SOL    HW215888   2.985   1.996  10.454 -1.1230  0.0417  0.3936
 1419SOL     OW15889   4.613   0.603   3.971 -0.1744 -0.3615 -0.1418
 1419SOL    HW115890   4.640   0.679   3.920 -4.0432 -0.0995 -1.8314
 1419SOL    HW215891   4.591   0.543   3.899 -1.1664 -1.3762  1.0156
 1420SOL     OW15892   2.536   3.687   4.181  0.7882  0.3263  0.0939
 1420SOL    HW115893   2.586   3.609   4.206 -1.3719 -0.9212  0.5606
 1420SOL    HW215894   2.562   3.739   4.257  0.9574  0.4964 -0.0818
 1421SOL     OW15895   2.730   3.762   1.802 -0.1949  0.4502  0.3647
 1421SOL    HW115896   2.781   3.680   1.804 -0.1092  0.5251  1.2458
 1421SOL    HW215897   2.671   3.732   1.733 -0.5540  0.7322  0.5491
 1422SOL     OW15898   4.004   1.757  17.070  0.0395  0.5288  0.0036
 1422SOL    HW115899   3.919   1.740  17.030  0.7141 -0.6753 -0.9276
 1422SOL    HW215900   4.015   1.850  17.088  0.9879  0.9205 -2.6394
 1423SOL     OW15901   0.182   1.407  12.222 -0.4163 -0.2588  0.3372
 1423SOL    HW115902   0.233   1.454  12.156 -0.0689  0.5946  1.2109
 1423SOL    HW215903   0.216   1.318  12.213  1.0554  0.4185 -0.8107
 1424SOL     OW15904   0.039   3.955  15.204  0.6408 -0.0376 -0.1513
 1424SOL    HW115905   0.107   3.899  15.240 -1.1611 -2.8027 -0.9981
 1424SOL    HW215906   0.053   4.042  15.241  1.0925 -0.7460  1.3239
 1425SOL     OW15907   2.730   3.489  13.863 -0.4704 -0.1261 -0.0467
 1425SOL    HW115908   2.825   3.490  13.875 -0.5735  0.0160  0.7620
 1425SOL    HW215909   2.726   3.479  13.768  1.7607  0.2971 -0.1720
 1426SOL     OW15910   3.822   3.062   6.553 -0.1292  0.2189 -0.5399
 1426SOL    HW115911   3.759   3.098   6.491  0.2380  1.0121 -0.4557
 1426SOL    HW215912   3.888   3.038   6.488  1.0352 -1.2160  1.1763
 1427SOL     OW15913   4.437   1.017   8.401 -0.4532 -0.0557 -0.5677
 1427SOL    HW115914   4.525   1.016   8.362  0.4770 -0.7918  1.5333
 1427SOL    HW215915   4.386   0.980   8.330 -0.7093  0.4643 -0.6541
 1428SOL     OW15916   2.764   2.444  11.687  0.0041 -0.0472 -0.7180
 1428SOL    HW115917   2.674   2.470  11.709  0.3769  0.9124 -0.3047
 1428SOL    HW215918   2.788   2.512  11.624 -0.6773 -1.0395 -2.0422
 1429SOL     OW15919   2.229   0.493  10.356 -0.0141 -0.8020 -0.2625
 1429SOL    HW115920   2.180   0.414  10.332 -0.0412 -0.8809  0.0492
 1429SOL    HW215921   2.289   0.495  10.282  0.2225  0.5707 -0.0325
 1430SOL     OW15922   4.336   2.678   9.172 -0.1238  0.2613 -1.0451
 1430SOL    HW115923   4.418   2.704   9.215  0.7353 -0.3220 -2.3166
 1430SOL    HW215924   4.345   2.735   9.096  0.2948  1.7739  0.1419
 1431SOL     OW15925   3.246   3.906   1.340 -0.5899  0.2963  0.1943
 1431SOL    HW115926   3.256   3.855   1.421  0.7130 -0.5878 -0.5188
 1431SOL    HW215927   3.161   3.874   1.311  0.0213  0.2637 -1.5556
 1432SOL     OW15928   3.369   2.342   8.087 -0.0381 -0.4715 -0.0319
 1432SOL    HW115929   3.382   2.250   8.063 -1.0357 -0.8810  0.9935
 1432SOL    HW215930   3.366   2.381   8.000 -0.3171 -0.9739 -0.2492
 1433SOL     OW15931   1.235   3.591   9.499  0.0623  0.3545  0.0652
 1433SOL    HW115932   1.192   3.509   9.526 -1.1293  0.7187 -0.7504
 1433SOL    HW215933   1.235   3.638   9.582  1.3168 -0.9420  0.8079
 1434SOL     OW15934   2.566   3.739   9.976 -0.0560 -0.0067  0.3592
 1434SOL    HW115935   2.514   3.800   9.926 -0.3993  1.1233  2.0808
 1434SOL    HW215936   2.591   3.789  10.055  3.1021 -0.4121 -0.3594
 1435SOL     OW15937   4.715   2.793  12.353 -0.1097  0.6551 -0.2668
 1435SOL    HW115938   4.722   2.769  12.445  1.8823  0.5464 -0.4514
 1435SOL    HW215939   4.624   2.823  12.358 -1.7266 -4.0811 -1.4832
 1436SOL     OW15940   0.725   2.962   2.904 -0.3960  0.2032  0.3414
 1436SOL    HW115941   0.787   2.911   2.955  0.8257 -1.6387 -2.9908
 1436SOL    HW215942   0.652   2.900   2.913 -0.7400  1.0009  3.1048
 1437SOL     OW15943   0.685   0.524   4.741  0.2896  0.1599  0.3468
 1437SOL    HW115944   0.639   0.607   4.743 -0.3708 -0.1914 -0.2327
 1437SOL    HW215945   0.642   0.473   4.673  1.4726  0.6126 -0.7515
 1438SOL     OW15946   0.221   2.012  13.146  0.0204  0.0256  0.0338
 1438SOL    HW115947   0.184   1.937  13.192  0.3582 -0.4740 -0.5105
 1438SOL    HW215948   0.167   2.083  13.180 -3.7419 -2.3050 -1.1153
 1439SOL     OW15949   0.292   1.392   7.230  0.4846 -0.4595  0.3606
 1439SOL    HW115950   0.217   1.438   7.266 -0.0278 -0.4892 -0.6747
 1439SOL    HW215951   0.359   1.460   7.222  2.7584 -2.8438 -1.0483
 1440SOL     OW15952   3.251   2.119   5.729 -0.2240 -0.1532 -0.7311
 1440SOL    HW115953   3.306   2.049   5.694 -2.3529 -0.5838 -3.1610
 1440SOL    HW215954   3.301   2.193   5.692  1.9426 -0.8268  0.8295
 1441SOL     OW15955   2.378   1.293   7.849 -0.1670  0.3572 -0.2136
 1441SOL    HW115956   2.373   1.379   7.891 -0.6208 -0.5007  1.4850
 1441SOL    HW215957   2.426   1.244   7.915  0.0540  0.2858 -0.4278
 1442SOL     OW15958   2.702   2.369  14.313  0.6447  0.4418  0.5727
 1442SOL    HW115959   2.756   2.441  14.282 -0.2396  0.3333 -1.1942
 1442SOL    HW215960   2.653   2.342  14.236  1.5624  0.7456 -0.1201
 1443SOL     OW15961   1.957   2.810   6.302 -0.0924 -0.1888 -0.0063
 1443SOL    HW115962   1.979   2.818   6.209 -0.0843  3.0855  0.2961
 1443SOL    HW215963   1.888   2.876   6.306 -0.3557 -0.5449  1.3599
 1444SOL     OW15964   1.356   1.586   6.231 -0.0847  0.6810 -0.1759
 1444SOL    HW115965   1.272   1.540   6.230  0.2393  0.1026 -0.7930
 1444SOL    HW215966   1.424   1.523   6.207  1.2852  1.1601  2.4073
 1445SOL     OW15967   1.493   3.525   6.304  0.3318 -0.2330  0.1130
 1445SOL    HW115968   1.587   3.534   6.295  0.2044  0.9666  0.0257
 1445SOL    HW215969   1.482   3.524   6.399  1.9376  2.0676  0.2948
 1446SOL     OW15970   2.809   0.577   8.599  0.1622  0.2660 -0.6541
 1446SOL    HW115971   2.883   0.636   8.613  1.5786 -1.8561  0.8314
 1446SOL    HW215972   2.839   0.495   8.639 -2.5716  0.3395  1.5255
 1447SOL     OW15973   4.687   1.472  13.414  0.2073 -0.3807  0.2120
 1447SOL    HW115974   4.658   1.385  13.388  0.3279 -0.4445  0.2915
 1447SOL    HW215975   4.604   1.515  13.437  0.4314 -0.6161  1.4623
 1448SOL     OW15976   2.929   2.178   4.115 -0.1931  0.0019 -0.2135
 1448SOL    HW115977   2.887   2.226   4.186  2.3575  1.6096  0.1772
 1448SOL    HW215978   3.008   2.156   4.163 -0.9092  0.3421  1.1038
 1449SOL     OW15979   4.641   1.007   6.211  0.6014  0.6551 -0.4418
 1449SOL    HW115980   4.622   1.068   6.139 -1.3708  2.5351  1.6497
 1449SOL    HW215981   4.736   1.017   6.215  0.7022  0.0779 -1.4500
 1450SOL     OW15982   2.918   1.886   1.484 -0.0671 -0.4401 -0.3828
 1450SOL    HW115983   2.872   1.964   1.515 -0.6546 -0.1791 -1.9366
 1450SOL    HW215984   2.976   1.865   1.557 -1.3957  1.0849  1.1151
 1451SOL     OW15985   3.129   0.486   6.574 -0.1994  0.4212 -0.1211
 1451SOL    HW115986   3.165   0.565   6.613 -0.8623  0.4313  0.4765
 1451SOL    HW215987   3.077   0.525   6.505 -1.4377  1.3671  1.3650
 1452SOL     OW15988   2.438   4.639   6.731  0.2065  0.5078 -0.2773
 1452SOL    HW115989   2.393   4.722   6.721  0.1342  0.7420  1.9069
 1452SOL    HW215990   2.529   4.667   6.719 -0.3913  1.0637 -3.4117
 1453SOL     OW15991   1.033   0.826   5.958 -0.2065  0.0445  0.1737
 1453SOL    HW115992   1.016   0.920   5.945 -1.7261 -0.5595 -2.0836
 1453SOL    HW215993   1.127   0.827   5.942  0.1587 -0.5370  2.2528
 1454SOL     OW15994   2.765   0.719   4.884  0.1715  0.3141 -0.7478
 1454SOL    HW115995   2.847   0.669   4.890 -0.5460 -0.8067 -0.3206
 1454SOL    HW215996   2.769   0.754   4.796 -1.3519  0.1013 -0.8921
 1455SOL     OW15997   3.633   4.297   6.348  0.5174  0.5214 -0.1172
 1455SOL    HW115998   3.675   4.369   6.394 -0.4870 -0.1759  1.8868
 1455SOL    HW215999   3.687   4.282   6.270  2.4610  1.0154  1.1270
 1456SOL     OW16000   2.948   3.765   2.832  0.2967 -0.4758  0.0036
 1456SOL    HW116001   2.964   3.844   2.780  1.6582  1.4470  3.3586
 1456SOL    HW216002   2.952   3.692   2.771  2.1289  0.4021 -0.9350
 1457SOL     OW16003   4.016   0.772  17.233 -0.4896  0.9702  0.1747
 1457SOL    HW116004   3.949   0.770  17.164 -1.2902  0.6674  0.9654
 1457SOL    HW216005   3.970   0.820  17.302 -3.0638 -1.9840  0.4910
 1458SOL     OW16006   3.218   2.616  14.459  0.0717 -0.0616 -0.3153
 1458SOL    HW116007   3.134   2.655  14.433 -0.1747  0.0088  0.5830
 1458SOL    HW216008   3.267   2.582  14.385  0.5291  0.2847 -0.1694
 1459SOL     OW16009   3.733   4.525   6.038 -0.1373  0.9706  0.2098
 1459SOL    HW116010   3.823   4.503   6.015  0.6991  1.2848  3.2585
 1459SOL    HW216011   3.747   4.546   6.130 -1.1145 -1.3659  0.8854
 1460SOL     OW16012   1.497   0.957  11.604  0.1435  0.5846 -0.0419
 1460SOL    HW116013   1.503   0.921  11.515  2.7403  0.4421  0.1750
 1460SOL    HW216014   1.414   1.001  11.585  1.1887  1.2209 -3.2992
 1461SOL     OW16015   2.372   3.759   8.937  0.1728 -0.5670  0.6098
 1461SOL    HW116016   2.437   3.805   8.885  0.3495  0.6851  1.9346
 1461SOL    HW216017   2.308   3.831   8.933  0.3384 -0.5719 -1.6753
 1462SOL     OW16018   3.727   2.869   1.996 -0.5083 -0.2425 -0.6308
 1462SOL    HW116019   3.646   2.873   1.944 -1.1480 -2.0233  0.2354
 1462SOL    HW216020   3.793   2.904   1.937  1.2040 -0.2561  1.3025
 1463SOL     OW16021   2.883   2.754  14.640  0.0185  0.6431 -0.7073
 1463SOL    HW116022   2.929   2.684  14.686  0.9080  1.5115 -0.2828
 1463SOL    HW216023   2.900   2.724  14.550  0.2990 -0.1482 -0.3902
 1464SOL     OW16024   4.181   2.077  10.077  0.2377  0.1177  0.5413
 1464SOL    HW116025   4.106   2.084  10.137  0.8318  1.1274  1.1801
 1464SOL    HW216026   4.250   2.041  10.134  1.0985 -0.2727 -0.7476
 1465SOL     OW16027   3.035   1.714  13.624  0.2953  0.1131 -0.3211
 1465SOL    HW116028   3.007   1.798  13.659 -0.5043 -0.5866  0.7127
 1465SOL    HW216029   3.018   1.729  13.531 -1.5292  0.1413  0.0213
 1466SOL     OW16030   1.447   1.452   4.467 -0.1295 -0.4084 -0.2997
 1466SOL    HW116031   1.383   1.381   4.466 -0.8440  0.2070  0.9388
 1466SOL    HW216032   1.496   1.421   4.543 -1.0696 -1.0602  0.0475
 1467SOL     OW16033   0.710   1.523   8.619  0.0853  0.2290  0.2465
 1467SOL    HW116034   0.689   1.533   8.526 -2.1793 -1.6468  0.5616
 1467SOL    HW216035   0.683   1.609   8.653 -1.2860 -0.5357  1.0628
 1468SOL     OW16036   0.885   0.266   6.627 -0.3798 -0.2105 -0.3221
 1468SOL    HW116037   0.975   0.276   6.597 -0.2209 -1.5219 -0.3158
 1468SOL    HW216038   0.856   0.193   6.572 -0.7262  0.0157 -0.4406
 1469SOL     OW16039   3.178   1.682  15.110  0.2554  0.0078  0.0967
 1469SOL    HW116040   3.245   1.728  15.059 -0.0310  0.2077 -0.0979
 1469SOL    HW216041   3.225   1.663  15.191 -0.1036  3.7778  1.1982
 1470SOL     OW16042   2.941   4.186   2.398 -0.0544 -0.4779 -0.1066
 1470SOL    HW116043   2.940   4.092   2.375 -0.0122 -0.2781 -0.9454
 1470SOL    HW216044   2.858   4.215   2.359 -0.1114 -1.4878 -0.7622
 1471SOL     OW16045   2.837   3.387   4.843  0.0955  0.4269  0.1909
 1471SOL    HW116046   2.757   3.343   4.815  0.4657  0.2587 -0.6127
 1471SOL    HW216047   2.891   3.361   4.769  1.8403 -0.8464  1.8873
 1472SOL     OW16048   1.789   2.259   9.882  0.3054 -0.3863 -0.2221
 1472SOL    HW116049   1.789   2.263   9.786 -0.8242  1.9861 -0.1076
 1472SOL    HW216050   1.844   2.336   9.897  0.3714 -0.3860 -0.4721
 1473SOL     OW16051   1.997   1.198   3.587  0.0719 -0.5652  0.6847
 1473SOL    HW116052   1.995   1.290   3.561  0.5038 -0.0713  2.3715
 1473SOL    HW216053   2.013   1.208   3.681  0.7402  1.7297  0.3177
 1474SOL     OW16054   2.161   2.580   2.228  0.5828  0.0918 -0.0184
 1474SOL    HW116055   2.249   2.548   2.247  0.2559 -0.4511  0.5806
 1474SOL    HW216056   2.113   2.544   2.303  2.8753  0.8047  1.7838
 1475SOL     OW16057   1.766   0.758   6.114 -0.0718  0.0908 -0.1131
 1475SOL    HW116058   1.835   0.801   6.164  0.3393 -1.0214  0.2756
 1475SOL    HW216059   1.750   0.837   6.062  0.2826 -1.1511 -2.1078
 1476SOL     OW16060   0.783   2.406   4.442  0.2773  0.3520 -0.1232
 1476SOL    HW116061   0.806   2.315   4.419 -0.5350  0.5185 -1.5944
 1476SOL    HW216062   0.730   2.427   4.365 -1.1072 -0.1610  0.6904
 1477SOL     OW16063   0.567   2.543   9.629 -0.3999  0.3823  0.3410
 1477SOL    HW116064   0.546   2.591   9.549  0.3664 -0.3704 -0.3151
 1477SOL    HW216065   0.515   2.598   9.688  0.3278  1.8477 -0.3738
 1478SOL     OW16066   0.770   3.395  11.328  0.0329 -0.0468 -0.2103
 1478SOL    HW116067   0.704   3.417  11.393  1.1307  1.1649  0.4978
 1478SOL    HW216068   0.850   3.382  11.378  0.5821 -2.2677 -1.6795
 1479SOL     OW16069   1.676   0.011   6.053 -0.2797  0.6961  0.3913
 1479SOL    HW116070   1.594   4.704   6.040 -0.7716  1.9628 -1.1565
 1479SOL    HW216071   1.643   0.093   6.089 -0.7223  0.0922  1.3748
 1480SOL     OW16072   3.727   0.432  10.129 -0.7396 -0.3506 -0.0133
 1480SOL    HW116073   3.633   0.444  10.113 -0.5577  0.8263 -0.1872
 1480SOL    HW216074   3.729   0.387  10.213  1.4232  0.2167  0.2376
 1481SOL     OW16075   0.048   1.481  14.520 -0.1812  0.2640  0.0477
 1481SOL    HW116076   0.122   1.451  14.573  0.0782 -2.4465 -1.8136
 1481SOL    HW216077   4.726   1.409  14.526 -0.5146  0.6216  0.9263
 1482SOL     OW16078   2.129   1.398   0.815  0.3239  0.0475 -0.1835
 1482SOL    HW116079   2.216   1.361   0.833  1.1658  2.3370  0.5503
 1482SOL    HW216080   2.088   1.323   0.771 -1.4950  0.0502  1.5396
 1483SOL     OW16081   4.728   3.961   8.296  0.1428  0.1213 -0.9868
 1483SOL    HW116082   0.065   3.990   8.249 -0.1587  0.8056 -1.0675
 1483SOL    HW216083   4.701   4.039   8.343 -1.4088 -0.1018 -1.4843
 1484SOL     OW16084   0.048   1.169  11.984  0.3151 -0.6338 -0.1204
 1484SOL    HW116085   0.141   1.175  12.005 -0.3508  0.0302  2.6019
 1484SOL    HW216086   0.041   1.078  11.956  1.2217 -1.4040  2.1426
 1485SOL     OW16087   2.896   1.728   6.333  0.3073 -0.3947 -0.1744
 1485SOL    HW116088   2.836   1.802   6.327  2.2567  1.1418 -0.8888
 1485SOL    HW216089   2.842   1.652   6.355  0.0589 -0.2321 -0.2227
 1486SOL     OW16090   1.504   3.491  11.171 -0.0317 -0.1966 -0.2181
 1486SOL    HW116091   1.442   3.505  11.242  0.8302 -0.5246  0.5970
 1486SOL    HW216092   1.542   3.408  11.201  1.8500  1.1639  1.2047
 1487SOL     OW16093   2.268   4.412   5.446  0.2804 -0.4764  0.0746
 1487SOL    HW116094   2.315   4.388   5.366 -0.6206 -2.4077  0.1430
 1487SOL    HW216095   2.196   4.464   5.411  1.1056  0.3120 -0.4685
 1488SOL     OW16096   1.578   3.748  10.608  0.0263  0.2657  0.0753
 1488SOL    HW116097   1.600   3.669  10.657 -0.4721  0.5950  0.8308
 1488SOL    HW216098   1.566   3.709  10.521  0.7849 -1.0953  0.5868
 1489SOL     OW16099   1.788   4.672   9.234 -0.5684  0.6139 -0.0856
 1489SOL    HW116100   1.871   4.651   9.276 -1.3788  3.5654  3.0678
 1489SOL    HW216101   1.721   4.632   9.289  1.0280 -0.1949  1.2490
 1490SOL     OW16102   3.687   3.006   2.515 -0.6053  0.3139 -0.1572
 1490SOL    HW116103   3.646   3.092   2.510  0.3877  0.7263 -0.9974
 1490SOL    HW216104   3.671   2.975   2.426 -0.9789  0.5981 -0.1858
 1491SOL     OW16105   1.016   3.202   9.129  0.0091 -0.4021  0.0148
 1491SOL    HW116106   0.953   3.224   9.061  1.5865  2.8036 -0.3820
 1491SOL    HW216107   1.023   3.108   9.112  0.9652 -0.0121 -1.7022
 1492SOL     OW16108   3.714   2.921   7.614  0.1038  0.3378 -0.0730
 1492SOL    HW116109   3.781   2.983   7.642 -0.5546  0.4645  1.2576
 1492SOL    HW216110   3.650   2.918   7.686  0.0148 -0.9006 -0.1985
 1493SOL     OW16111   3.460   4.072   0.903 -0.1547  0.3474  0.1834
 1493SOL    HW116112   3.522   4.097   0.972 -0.8511  1.6544  0.3497
 1493SOL    HW216113   3.400   4.017   0.953  0.6837  0.3922  1.2509
 1494SOL     OW16114   1.021   0.005   5.907  0.4576 -0.0390 -0.1681
 1494SOL    HW116115   1.062   0.051   5.981  2.2376  0.5052 -1.4950
 1494SOL    HW216116   0.928   0.025   5.902  0.2768 -1.4386 -2.2430
 1495SOL     OW16117   1.586   1.670  12.009  0.2792 -0.1151 -0.0317
 1495SOL    HW116118   1.575   1.701  12.099  2.1567 -2.0440  0.8444
 1495SOL    HW216119   1.642   1.735  11.968  1.8366 -0.3921  1.6752
 1496SOL     OW16120   4.195   1.358   1.702  0.7253  0.4604 -0.5655
 1496SOL    HW116121   4.267   1.295   1.702 -0.7608 -1.2311  0.2321
 1496SOL    HW216122   4.149   1.326   1.779  0.2594 -0.4487 -1.2107
 1497SOL     OW16123   1.434   0.192   2.934  0.5240  0.0148 -0.2509
 1497SOL    HW116124   1.349   0.219   2.967  0.9942 -0.1881  1.1354
 1497SOL    HW216125   1.432   0.096   2.937 -1.3141  0.1010  1.1996
 1498SOL     OW16126   2.606   4.554   7.387 -0.3482  0.2714 -0.1428
 1498SOL    HW116127   2.593   4.459   7.392 -4.1185  0.7451 -1.2265
 1498SOL    HW216128   2.700   4.564   7.406 -0.4764  2.5807 -0.6819
 1499SOL     OW16129   0.352   0.133   5.618 -0.4893 -0.1488 -0.1901
 1499SOL    HW116130   0.324   0.172   5.701  0.2387 -4.3598  2.0565
 1499SOL    HW216131   0.274   0.091   5.582 -0.7343 -2.3765  2.8808
 1500SOL     OW16132   1.623   2.397   1.055 -0.5568  0.0256 -0.1840
 1500SOL    HW116133   1.553   2.439   1.105 -1.9819  0.3032 -2.4316
 1500SOL    HW216134   1.690   2.385   1.124 -0.4655  0.9879 -0.1123
 1501SOL     OW16135   3.924   1.566   3.757 -0.3865  0.1783  0.0453
 1501SOL    HW116136   3.885   1.479   3.762  1.0203 -0.5037 -0.7043
 1501SOL    HW216137   3.990   1.557   3.826  0.5403 -0.1650 -0.8789
 1502SOL     OW16138   3.718   3.103   7.221 -0.1468 -0.1832  0.0222
 1502SOL    HW116139   3.656   3.097   7.149 -0.8252  0.7791  0.5318
 1502SOL    HW216140   3.701   3.017   7.259 -0.7391  0.6545  1.6740
 1503SOL     OW16141   2.428   4.256   3.739  0.5376  0.0264 -0.1077
 1503SOL    HW116142   2.503   4.298   3.781 -1.3960  3.0175  0.4049
 1503SOL    HW216143   2.469   4.183   3.693  0.5184 -0.8977  1.3394
 1504SOL     OW16144   3.632   3.831   3.579  0.0415 -0.1824 -0.2763
 1504SOL    HW116145   3.593   3.791   3.657 -0.1524 -1.6314 -1.1280
 1504SOL    HW216146   3.720   3.794   3.586 -0.0968 -0.5934 -0.7743
 1505SOL     OW16147   3.682   2.971  16.399 -0.5217  0.3063  0.6758
 1505SOL    HW116148   3.670   2.906  16.329 -3.7826  0.7471  0.8058
 1505SOL    HW216149   3.757   3.016  16.361 -0.9595  1.3398  1.0378
 1506SOL     OW16150   2.836   3.112   6.163  0.1495 -0.3656  0.8466
 1506SOL    HW116151   2.763   3.174   6.165 -0.3658 -0.9722  0.4013
 1506SOL    HW216152   2.828   3.093   6.069 -1.1519 -0.0941  0.9010
 1507SOL     OW16153   0.426   3.182   2.768  0.0704  0.0813 -0.3725
 1507SOL    HW116154   0.363   3.136   2.824  0.3181 -0.4309 -0.5221
 1507SOL    HW216155   0.367   3.256   2.749  2.4548  2.2988  0.7839
 1508SOL     OW16156   1.636   0.698   5.139  0.4870 -0.4809 -0.2247
 1508SOL    HW116157   1.594   0.613   5.146  0.8108 -0.6390 -0.2087
 1508SOL    HW216158   1.672   0.720   5.225 -2.0266 -0.2223  0.7670
 1509SOL     OW16159   2.331   0.525   4.410 -0.0492 -0.2785 -0.4547
 1509SOL    HW116160   2.238   0.549   4.413 -0.2229 -1.5165  3.9923
 1509SOL    HW216161   2.337   0.504   4.504  0.3706 -2.0013 -0.8649
 1510SOL     OW16162   2.479   1.390   1.896 -0.3448 -0.2016  0.5199
 1510SOL    HW116163   2.384   1.387   1.909 -0.5525  2.0674 -0.6349
 1510SOL    HW216164   2.512   1.333   1.967 -0.9140 -0.9503  0.1816
 1511SOL     OW16165   2.300   0.005  10.484  0.0895 -0.0546 -0.1980
 1511SOL    HW116166   2.220   0.020  10.434  0.0594  0.2636 -0.0518
 1511SOL    HW216167   2.318   4.652  10.476  3.0081  0.5390 -0.8826
 1512SOL     OW16168   0.294   0.589   2.023 -0.2084  0.3190 -0.2965
 1512SOL    HW116169   0.340   0.645   1.960 -1.7675  2.4540  0.4565
 1512SOL    HW216170   0.207   0.589   1.982  0.0196  1.7442 -0.7844
 1513SOL     OW16171   0.105   3.461   5.793  1.1219 -0.5099  0.2762
 1513SOL    HW116172   0.067   3.411   5.865 -0.7709 -1.9326 -1.7019
 1513SOL    HW216173   0.083   3.550   5.820  1.2776 -0.2781 -0.3587
 1514SOL     OW16174   1.071   1.701   8.867 -0.0236  0.7073 -0.2448
 1514SOL    HW116175   1.061   1.627   8.927 -0.8415  0.5148 -0.6298
 1514SOL    HW216176   1.162   1.687   8.842  0.2203  2.5758 -0.4065
 1515SOL     OW16177   1.482   2.191   1.517  0.0604 -0.3882  0.5550
 1515SOL    HW116178   1.417   2.133   1.557  0.1227  0.3855  1.7726
 1515SOL    HW216179   1.439   2.201   1.432  1.0978 -2.5087 -0.2393
 1516SOL     OW16180   0.438   0.621   3.273  0.2023 -0.1317 -0.2279
 1516SOL    HW116181   0.493   0.564   3.219 -0.1860  0.5296 -1.3317
 1516SOL    HW216182   0.372   0.642   3.207  2.0492 -0.6867 -2.2651
 1517SOL     OW16183   4.114   3.723   1.586  0.1968 -0.6157 -0.5666
 1517SOL    HW116184   4.105   3.808   1.542 -4.4251 -0.3704  0.8221
 1517SOL    HW216185   4.132   3.756   1.674 -2.3069 -1.6171  0.3106
 1518SOL     OW16186   1.268   3.651  10.674  0.6625 -0.2914 -0.2433
 1518SOL    HW116187   1.295   3.742  10.669 -1.7402  0.2962 -2.4848
 1518SOL    HW216188   1.348   3.610  10.708  0.7607  0.8620  0.9045
 1519SOL     OW16189   4.548   1.248   3.487  0.1004  0.3653  0.1758
 1519SOL    HW116190   4.562   1.341   3.469  1.8588  0.0377 -0.1704
 1519SOL    HW216191   4.610   1.237   3.558  0.9953 -1.6164 -0.9086
 1520SOL     OW16192   4.465   3.889   6.118 -0.0634  1.0094 -0.0534
 1520SOL    HW116193   4.440   3.944   6.044 -1.0650  0.7859  0.1261
 1520SOL    HW216194   4.466   3.951   6.191 -0.0342  0.8395  0.0907
 1521SOL     OW16195   4.721   0.606   3.037 -0.2544  0.3542  0.3729
 1521SOL    HW116196   4.639   0.558   3.031 -0.6236  1.1785 -1.1858
 1521SOL    HW216197   4.699   0.675   2.975 -1.2789  0.3788  0.7720
 1522SOL     OW16198   0.908   3.249   4.882 -1.0148  0.5063  0.2919
 1522SOL    HW116199   0.827   3.291   4.913  1.1333  4.8197  0.0412
 1522SOL    HW216200   0.937   3.221   4.969 -0.6946 -0.5272 -0.1487
 1523SOL     OW16201   0.349   2.799   7.864  0.2436  0.1851  0.0734
 1523SOL    HW116202   0.408   2.817   7.790 -0.2747 -1.0713 -0.6532
 1523SOL    HW216203   0.361   2.704   7.862  1.0807  0.3113 -0.7704
 1524SOL     OW16204   1.140   2.740   4.186 -0.2874 -0.6894  0.4033
 1524SOL    HW116205   1.201   2.678   4.227 -1.0855 -1.2849  0.6934
 1524SOL    HW216206   1.065   2.687   4.160 -2.7276  1.5507  2.8424
 1525SOL     OW16207   4.102   4.400   0.650 -0.0091 -0.0215  0.2353
 1525SOL    HW116208   4.107   4.435   0.561  2.6801 -0.4866  0.2135
 1525SOL    HW216209   4.123   4.307   0.639  3.6719  0.9802 -1.3767
 1526SOL     OW16210   2.109   2.288   9.078 -0.1418 -0.4317  0.5946
 1526SOL    HW116211   2.082   2.289   9.170 -1.3052 -1.0250  0.2581
 1526SOL    HW216212   2.076   2.373   9.048 -0.0923 -1.3436 -2.0274
 1527SOL     OW16213   2.904   2.988   5.362  0.3570 -0.4643  0.1320
 1527SOL    HW116214   2.917   2.907   5.314 -0.3327 -0.9767  0.8115
 1527SOL    HW216215   2.959   3.045   5.308  0.2754 -0.0422  0.4893
 1528SOL     OW16216   3.504   0.820   7.074  0.5250  0.6069 -0.8244
 1528SOL    HW116217   3.599   0.814   7.065  0.4190 -1.4402 -0.4310
 1528SOL    HW216218   3.497   0.894   7.135  3.0836  0.3617 -0.2288
 1529SOL     OW16219   1.891   3.240  10.801  0.4432  0.2337  0.1629
 1529SOL    HW116220   1.800   3.215  10.781  0.8485 -1.1520  0.0420
 1529SOL    HW216221   1.884   3.331  10.830 -1.8515  0.3015 -0.5588
 1530SOL     OW16222   0.853   4.039   3.992  0.1573 -0.9814 -0.2296
 1530SOL    HW116223   0.875   4.129   3.967  1.4241 -0.5174  2.5045
 1530SOL    HW216224   0.795   4.053   4.067  0.6446  1.2262 -0.2461
 1531SOL     OW16225   1.215   0.970   8.758  0.2604 -0.4379 -0.0506
 1531SOL    HW116226   1.126   1.000   8.743  0.2045 -1.1335 -1.1039
 1531SOL    HW216227   1.210   0.929   8.844 -2.7598 -1.8377 -0.8878
 1532SOL     OW16228   0.110   0.193  14.018 -0.5122 -0.2087  0.0829
 1532SOL    HW116229   0.090   0.099  14.014  1.6940 -0.7309  1.1829
 1532SOL    HW216230   0.113   0.199  14.114  0.0331 -1.1746  0.1304
 1533SOL     OW16231   2.123   4.372   1.799 -0.4247 -0.4276 -0.4385
 1533SOL    HW116232   2.050   4.431   1.776 -0.9374 -1.1654 -0.7123
 1533SOL    HW216233   2.077   4.294   1.829 -1.1333  0.0859 -0.1659
 1534SOL     OW16234   2.547   2.473   8.173 -0.1621  0.2207  0.1435
 1534SOL    HW116235   2.486   2.447   8.104 -2.4109 -0.2480  2.3245
 1534SOL    HW216236   2.553   2.387   8.213 -0.8006  0.6188  1.0874
 1535SOL     OW16237   1.615   1.955   8.698 -0.1921  0.3461  0.3810
 1535SOL    HW116238   1.627   1.862   8.677  0.1248  0.5368 -0.2543
 1535SOL    HW216239   1.708   1.973   8.691  0.2334 -2.2488 -0.7998
 1536SOL     OW16240   0.782   1.046   7.843 -0.1213  0.0235  0.3063
 1536SOL    HW116241   0.789   1.141   7.833  1.6521 -0.2738 -1.2963
 1536SOL    HW216242   0.802   1.057   7.936  1.6596  0.7912 -0.1652
 1537SOL     OW16243   2.341   3.552  13.161  0.0266  0.3420  0.2568
 1537SOL    HW116244   2.407   3.588  13.102  0.2023  1.2096  0.9901
 1537SOL    HW216245   2.399   3.488  13.201  1.4699  1.2367 -0.4194
 1538SOL     OW16246   3.596   4.632   2.941 -0.3509  0.3274 -0.0515
 1538SOL    HW116247   3.550   4.714   2.958  1.0965  1.2325 -0.4953
 1538SOL    HW216248   3.676   4.661   2.897 -0.6266  0.6048 -0.3715
 1539SOL     OW16249   2.371   1.400   6.611 -0.5466  0.1678 -0.2549
 1539SOL    HW116250   2.337   1.334   6.671 -1.6162  1.6659  0.7675
 1539SOL    HW216251   2.352   1.478   6.662  2.5731  0.6314  0.1892
 1540SOL     OW16252   0.396   1.940  17.509  0.2595 -0.7167 -0.3324
 1540SOL    HW116253   0.308   1.917  17.480  0.3586 -1.0346 -0.3786
 1540SOL    HW216254   0.397   2.035  17.496 -1.1399 -1.1461 -3.6190
 1541SOL     OW16255   1.690   2.099  16.488  0.4108 -0.2937  0.6853
 1541SOL    HW116256   1.760   2.122  16.550  0.7902  0.2348  0.0726
 1541SOL    HW216257   1.738   2.108  16.405 -0.6559 -2.1322 -0.1176
 1542SOL     OW16258   4.680   3.031  13.203 -0.2977  0.1814 -0.2505
 1542SOL    HW116259   4.682   3.127  13.201  0.7875  0.1718  0.8441
 1542SOL    HW216260   0.031   3.020  13.183 -0.8545 -2.2770 -1.4958
 1543SOL     OW16261   3.432   1.603   8.839  0.0965 -0.3911  0.5755
 1543SOL    HW116262   3.442   1.513   8.806  0.6606 -1.1440  2.8061
 1543SOL    HW216263   3.337   1.602   8.853 -0.0581 -3.3391 -0.6213
 1544SOL     OW16264   4.512   1.079   6.448 -0.2418 -0.2325 -0.1073
 1544SOL    HW116265   4.561   1.040   6.376  0.3897 -1.5270  1.0029
 1544SOL    HW216266   4.574   1.134   6.496  0.8968  0.4453 -2.3748
 1545SOL     OW16267   3.478   3.595   6.720 -0.2132 -0.0152  0.0515
 1545SOL    HW116268   3.436   3.632   6.643 -1.7265  1.7846  1.7386
 1545SOL    HW216269   3.442   3.506   6.720 -0.4964  0.1016  1.2205
 1546SOL     OW16270   0.521   1.886   8.937 -0.5717  0.2020  0.4290
 1546SOL    HW116271   0.533   1.980   8.947  1.6431 -0.2883  2.3769
 1546SOL    HW216272   0.553   1.877   8.847  0.9125 -0.9234  1.0732
 1547SOL     OW16273   2.924   3.346   2.985  0.2773 -0.0554  0.4571
 1547SOL    HW116274   2.856   3.315   2.925 -0.1474 -0.0914  0.9546
 1547SOL    HW216275   2.988   3.276   2.975 -0.9989 -1.1311 -0.0791
 1548SOL     OW16276   0.106   3.821   7.764 -0.6321  0.0894 -0.2345
 1548SOL    HW116277   0.184   3.872   7.740 -1.2771  0.8155 -0.7892
 1548SOL    HW216278   0.114   3.737   7.719 -0.7237  0.5924 -1.1917
 1549SOL     OW16279   0.171   2.912   5.136 -0.7691 -0.2400  0.7052
 1549SOL    HW116280   0.208   2.898   5.049  0.6176  0.6435  1.1619
 1549SOL    HW216281   0.235   2.871   5.194 -1.2461  0.7209  1.9071
 1550SOL     OW16282   4.649   2.157  16.206  0.0049  0.7270 -0.0595
 1550SOL    HW116283   4.605   2.229  16.250  0.2311  0.2145  1.0075
 1550SOL    HW216284   4.699   2.207  16.142 -1.0999 -0.8262 -2.1302
 1551SOL     OW16285   2.467   0.966   4.269 -0.0339  0.0371  0.7850
 1551SOL    HW116286   2.461   0.872   4.289 -0.0464 -0.8935 -3.5989
 1551SOL    HW216287   2.413   0.970   4.191  1.0541 -1.4999 -0.0420
 1552SOL     OW16288   1.096   3.847  14.654  0.0628 -0.2542 -0.4577
 1552SOL    HW116289   1.073   3.770  14.603 -1.5236  1.0386 -1.6902
 1552SOL    HW216290   1.146   3.908  14.599  1.5343  0.7649  2.0311
 1553SOL     OW16291   2.162   3.952   3.887 -0.1393  0.7186 -1.0226
 1553SOL    HW116292   2.239   3.917   3.932  0.8566 -0.4277 -3.6195
 1553SOL    HW216293   2.126   4.003   3.960  1.3456 -0.5392  0.5936
 1554SOL     OW16294   0.267   2.591  17.732 -0.2851 -0.0640  0.2070
 1554SOL    HW116295   0.281   2.543  17.650  1.6650  1.8789 -0.6052
 1554SOL    HW216296   0.357   2.592   0.003  0.4468 -1.0670 -1.7325
 1555SOL     OW16297   3.213   2.470  12.791  0.0728 -0.6764 -0.1091
 1555SOL    HW116298   3.144   2.405  12.797 -1.1560  0.7784  1.4450
 1555SOL    HW216299   3.178   2.541  12.736 -1.4578 -1.3271  0.0212
 1556SOL     OW16300   3.471   2.698   4.920  0.5426 -0.2068  0.0046
 1556SOL    HW116301   3.506   2.732   5.003  6.2463 -0.9176 -2.0993
 1556SOL    HW216302   3.549   2.650   4.894 -0.2028 -0.9881 -0.7958
 1557SOL     OW16303   1.527   1.286   8.384 -0.0433  0.2888  0.9098
 1557SOL    HW116304   1.614   1.248   8.389 -0.3982 -0.5763  0.4540
 1557SOL    HW216305   1.473   1.246   8.453 -2.4658 -2.5309 -2.6605
 1558SOL     OW16306   1.393   3.039   1.867  0.0596 -0.3798  0.0934
 1558SOL    HW116307   1.324   2.979   1.842  0.0863 -0.2193 -0.3619
 1558SOL    HW216308   1.345   3.122   1.868  0.3302 -0.2303  1.7323
 1559SOL     OW16309   0.956   2.052   2.746 -0.1682 -0.4358 -0.0864
 1559SOL    HW116310   0.906   2.108   2.805  1.0379  0.9280 -0.3593
 1559SOL    HW216311   0.931   1.968   2.783 -1.4597  0.3611  0.8593
 1560SOL     OW16312   3.294   2.451  11.684  0.6151 -0.3958 -0.1220
 1560SOL    HW116313   3.321   2.362  11.708 -0.8675  0.1175  3.4027
 1560SOL    HW216314   3.349   2.512  11.733  0.6447 -1.1961  0.8450
 1561SOL     OW16315   3.796   4.213   0.838  0.2523 -0.2259 -0.8727
 1561SOL    HW116316   3.836   4.126   0.832  0.4908 -0.1855  0.1656
 1561SOL    HW216317   3.752   4.200   0.922  1.3559  1.6287 -0.0031
 1562SOL     OW16318   2.335   0.820   5.681  0.2111 -0.0854 -0.2217
 1562SOL    HW116319   2.390   0.861   5.615 -2.8382  3.3752 -0.5839
 1562SOL    HW216320   2.313   0.739   5.634 -1.3643 -0.2648  0.8172
 1563SOL     OW16321   2.037   2.486   8.210 -0.0717  0.0022  0.2649
 1563SOL    HW116322   2.085   2.510   8.131 -1.5075 -0.2271 -0.6744
 1563SOL    HW216323   1.954   2.452   8.175 -0.2650 -0.0015  0.7142
 1564SOL     OW16324   0.917   1.971   7.736  0.0266 -0.4070 -0.3174
 1564SOL    HW116325   0.939   1.921   7.815  1.0250  1.2220  0.4215
 1564SOL    HW216326   0.925   1.907   7.665 -1.5989 -2.6301  1.5095
 1565SOL     OW16327   3.367   2.922  17.050 -0.0699  0.0453 -0.3277
 1565SOL    HW116328   3.311   2.846  17.066 -0.2151  0.1722 -0.2262
 1565SOL    HW216329   3.425   2.926  17.126  0.9314 -4.8185 -0.8205
 1566SOL     OW16330   2.091   2.832  16.411 -0.1833 -0.6124  0.0151
 1566SOL    HW116331   2.005   2.812  16.373 -0.1445  1.3284 -1.1054
 1566SOL    HW216332   2.142   2.808  16.334  1.9988 -0.3787  1.4161
 1567SOL     OW16333   3.391   2.629   8.588  0.7019  0.2373  0.1410
 1567SOL    HW116334   3.387   2.676   8.672 -2.0479  0.4903 -0.1270
 1567SOL    HW216335   3.318   2.567   8.601  0.1941  0.2771 -2.6520
 1568SOL     OW16336   2.648   4.599   7.851  0.0399 -0.8037  0.0365
 1568SOL    HW116337   2.660   4.694   7.857 -2.2504 -0.5325  0.3174
 1568SOL    HW216338   2.636   4.569   7.941 -0.7921 -0.9577 -0.1232
 1569SOL     OW16339   0.575   4.148   9.129 -0.4481  0.3832  0.2618
 1569SOL    HW116340   0.603   4.105   9.209 -0.5041 -1.5990 -0.7749
 1569SOL    HW216341   0.643   4.212   9.111 -1.2585  1.2594  0.3008
 1570SOL     OW16342   4.271   0.660  10.730 -0.0852 -0.5324 -0.3607
 1570SOL    HW116343   4.215   0.646  10.653 -1.3260 -4.1408  1.2185
 1570SOL    HW216344   4.236   0.742  10.764  0.5623 -0.7948  0.9253
 1571SOL     OW16345   2.955   2.427  14.253  0.2594 -0.4099  0.2278
 1571SOL    HW116346   2.913   2.369  14.189  0.0833  2.4871 -2.2709
 1571SOL    HW216347   3.016   2.365  14.294  1.3335  1.2652  1.1485
 1572SOL     OW16348   1.155   2.982   4.310  0.6345  0.0618  0.5100
 1572SOL    HW116349   1.078   3.018   4.354 -0.2304 -0.1932 -0.8133
 1572SOL    HW216350   1.128   2.895   4.281 -0.0285  0.8394 -1.2259
 1573SOL     OW16351   0.868   3.576   8.457 -0.1740 -0.2083 -0.2733
 1573SOL    HW116352   0.848   3.669   8.447 -0.5121 -0.3803 -1.1666
 1573SOL    HW216353   0.921   3.576   8.536  3.2788  3.2683 -2.6220
 1574SOL     OW16354   3.076   0.926  14.620 -0.3436  0.0033  0.6166
 1574SOL    HW116355   3.170   0.932  14.607 -0.7682  1.9068 -1.6311
 1574SOL    HW216356   3.054   0.891  14.533  0.3460  0.6016  0.1983
 1575SOL     OW16357   0.358   2.612   8.285  0.0377  0.2083  0.1126
 1575SOL    HW116358   0.431   2.665   8.253  1.2029 -1.5026 -0.0482
 1575SOL    HW216359   0.297   2.678   8.318 -0.7394  0.5096 -1.8702
 1576SOL     OW16360   4.271   1.851   6.350 -0.0289 -0.7795  0.1314
 1576SOL    HW116361   4.362   1.835   6.326  0.1687  1.2102 -0.4491
 1576SOL    HW216362   4.269   1.847   6.446 -0.5802  0.7895  0.1904
 1577SOL     OW16363   3.628   0.413   7.896  0.2460  0.2529 -0.1215
 1577SOL    HW116364   3.554   0.376   7.945  0.2472  1.0092  0.4586
 1577SOL    HW216365   3.704   0.369   7.934 -0.1094  0.2144  0.5393
 1578SOL     OW16366   3.316   1.848   9.510  0.5659 -0.1596 -0.9801
 1578SOL    HW116367   3.248   1.783   9.521  1.6639 -1.5030 -2.1793
 1578SOL    HW216368   3.402   1.807   9.508  0.3989 -0.5010 -1.1537
 1579SOL     OW16369   4.505   3.548   6.439 -0.2819 -0.4646 -0.0519
 1579SOL    HW116370   4.444   3.589   6.378  0.5305  1.4256  0.4164
 1579SOL    HW216371   4.544   3.624   6.482 -2.4081  0.1488  0.8035
 1580SOL     OW16372   3.364   0.502   0.638  0.1972 -0.3742  0.4230
 1580SOL    HW116373   3.391   0.432   0.579 -3.1214  0.0887 -1.6623
 1580SOL    HW216374   3.379   0.467   0.726 -0.5500  1.2727  1.2020
 1581SOL     OW16375   0.606   3.659   4.062 -0.0043 -0.0042  0.2166
 1581SOL    HW116376   0.646   3.572   4.057 -1.7796 -0.8427  0.5751
 1581SOL    HW216377   0.611   3.681   4.155  1.0101  1.6343 -0.2291
 1582SOL     OW16378   3.404   1.221   8.297  0.0277 -0.3382 -0.6724
 1582SOL    HW116379   3.427   1.298   8.245 -2.1411 -0.7935 -2.2904
 1582SOL    HW216380   3.310   1.218   8.281 -0.2641  4.2360 -0.0531
 1583SOL     OW16381   0.994   2.099   5.411 -0.0901 -0.3419 -0.4354
 1583SOL    HW116382   0.991   2.019   5.358  0.0353 -0.4118 -0.3352
 1583SOL    HW216383   1.086   2.122   5.399 -0.2426 -0.5425 -1.9979
 1584SOL     OW16384   0.735   1.366   1.962 -0.1780  0.2447  0.1988
 1584SOL    HW116385   0.712   1.274   1.954 -1.1001  0.4309  0.7367
 1584SOL    HW216386   0.811   1.357   2.020 -0.3074  0.6434  0.4282
 1585SOL     OW16387   4.736   1.461  10.435  0.1746  0.3279  0.5089
 1585SOL    HW116388   0.078   1.425  10.467  0.9874  1.2957 -0.5269
 1585SOL    HW216389   0.016   1.554  10.448  2.9464  0.1093 -2.6906
 1586SOL     OW16390   2.577   4.112   5.747 -0.3389 -0.3676 -0.5902
 1586SOL    HW116391   2.601   4.029   5.706  1.5306 -0.7942  1.4000
 1586SOL    HW216392   2.662   4.156   5.752 -0.9306  1.0056 -2.1809
 1587SOL     OW16393   3.842   0.037   0.568 -0.6641 -0.8555 -0.1878
 1587SOL    HW116394   3.780   0.082   0.511 -0.0589 -0.5954 -0.6420
 1587SOL    HW216395   3.796   0.054   0.651  0.7904 -0.7798  0.6162
 1588SOL     OW16396   3.154   2.642   3.851 -0.6754  0.0737  0.2459
 1588SOL    HW116397   3.232   2.622   3.799 -1.8251  0.9336 -1.7677
 1588SOL    HW216398   3.164   2.736   3.864 -2.5503  0.2008  0.6848
 1589SOL     OW16399   1.185   2.659   6.855  0.1248 -0.4501  0.3025
 1589SOL    HW116400   1.262   2.713   6.839  0.2534 -0.3715  1.2062
 1589SOL    HW216401   1.170   2.609   6.774 -2.3321  0.1994  0.3438
 1590SOL     OW16402   1.987   3.197   9.638  0.2617  0.5567  0.6181
 1590SOL    HW116403   2.078   3.202   9.609  0.1508 -0.9101 -0.0191
 1590SOL    HW216404   1.976   3.277   9.688 -1.5249  1.1251 -0.6441
 1591SOL     OW16405   4.157   3.251   4.765 -0.1845  0.5679 -0.2025
 1591SOL    HW116406   4.192   3.315   4.703 -1.5987  0.3670 -1.2176
 1591SOL    HW216407   4.223   3.272   4.831 -0.3570  1.0145 -0.1667
 1592SOL     OW16408   2.288   2.335  11.813 -0.1078 -0.3467 -0.0382
 1592SOL    HW116409   2.251   2.422  11.825  0.5104 -0.3098  1.5840
 1592SOL    HW216410   2.356   2.328  11.880 -1.8425 -1.6604  1.6073
 1593SOL     OW16411   0.367   2.894   6.495  0.3281 -0.8419  0.4184
 1593SOL    HW116412   0.423   2.820   6.518  2.3782  0.9545  1.2318
 1593SOL    HW216413   0.418   2.950   6.553  2.3959 -0.9487 -1.2670
 1594SOL     OW16414   1.014   2.899   4.895  0.2490  0.4698  0.8055
 1594SOL    HW116415   1.110   2.902   4.891  0.1737 -1.2443 -2.9837
 1594SOL    HW216416   1.008   2.960   4.821 -0.8156 -1.4942 -0.7236
 1595SOL     OW16417   1.260   0.746   1.734  0.6170  0.4953 -0.5586
 1595SOL    HW116418   1.324   0.713   1.797  0.4460 -0.3931 -0.8524
 1595SOL    HW216419   1.306   0.748   1.649  0.3317  1.4373 -0.6850
 1596SOL     OW16420   4.331   0.051   7.586  0.0835 -0.4357 -0.2719
 1596SOL    HW116421   4.352   0.034   7.678  0.6786 -1.2119 -0.5564
 1596SOL    HW216422   4.408   0.101   7.557 -1.7426  2.5287 -0.0613
 1597SOL     OW16423   2.894   4.626   8.246  0.5474  0.3859 -0.0287
 1597SOL    HW116424   2.936   4.674   8.317  1.7813 -1.9672  0.8474
 1597SOL    HW216425   2.950   4.548   8.240  0.9161  0.5735  1.0612
 1598SOL     OW16426   0.897   3.666  12.083 -0.1270 -0.0894 -0.2817
 1598SOL    HW116427   0.920   3.574  12.067 -0.4362  0.0319 -1.4408
 1598SOL    HW216428   0.887   3.694  11.992 -0.3788 -0.9104 -0.5071
 1599SOL     OW16429   0.917   0.287   9.388  0.3942  0.0105 -0.0001
 1599SOL    HW116430   1.004   0.310   9.358 -0.5447  2.2721 -0.9640
 1599SOL    HW216431   0.919   0.337   9.469  2.8037  0.7905 -0.5570
 1600SOL     OW16432   0.865   3.110   2.001 -0.3760  0.4608  0.3636
 1600SOL    HW116433   0.901   3.025   2.025 -0.6279  0.1540 -0.3377
 1600SOL    HW216434   0.772   3.110   2.025  0.2923  0.3093  2.8498
 1601SOL     OW16435   4.287   0.729   1.386  0.0931  0.1503 -0.3253
 1601SOL    HW116436   4.272   0.796   1.453  2.6891  0.8973 -0.5078
 1601SOL    HW216437   4.273   0.653   1.443  3.1677  1.2163  1.7987
 1602SOL     OW16438   3.173   3.798  12.643 -0.0096 -0.0450 -0.4207
 1602SOL    HW116439   3.197   3.751  12.564  1.0084 -1.0097  0.4665
 1602SOL    HW216440   3.249   3.797  12.701  0.2231  1.1298 -0.7005
 1603SOL     OW16441   1.291   1.856   8.662 -0.5736 -0.4239  0.4056
 1603SOL    HW116442   1.306   1.878   8.754  1.1733 -1.5506  0.3997
 1603SOL    HW216443   1.377   1.819   8.642 -0.1278  0.5808  0.4647
 1604SOL     OW16444   0.832   4.168   2.737 -0.2570 -0.0640 -0.3917
 1604SOL    HW116445   0.793   4.116   2.667  0.0763 -3.2217  1.7510
 1604SOL    HW216446   0.897   4.106   2.772 -1.5427 -3.2079 -3.6052
 1605SOL     OW16447   3.806   2.336   7.750  0.4244 -0.4043  0.3041
 1605SOL    HW116448   3.812   2.271   7.820  0.1915  0.1814  0.8710
 1605SOL    HW216449   3.734   2.392   7.780  0.7049 -0.2212  0.6293
 1606SOL     OW16450   1.861   1.820  16.735 -0.1550  0.4081 -0.0885
 1606SOL    HW116451   1.768   1.837  16.726 -0.4059 -0.8633  0.0664
 1606SOL    HW216452   1.864   1.750  16.802  1.0975  2.1418  1.6855
 1607SOL     OW16453   3.103   1.939   2.670 -0.2826  0.4840  0.3113
 1607SOL    HW116454   3.153   1.879   2.614 -0.2168  0.5295  0.3215
 1607SOL    HW216455   3.066   2.005   2.611 -0.0306  0.3963  0.0526
 1608SOL     OW16456   0.339   2.422  13.018 -0.1454  0.1640 -0.2647
 1608SOL    HW116457   0.307   2.511  13.009 -1.1241 -0.2752 -1.0724
 1608SOL    HW216458   0.365   2.425  13.110 -0.8027  2.7408 -0.1717
 1609SOL     OW16459   3.869   2.099   6.870 -0.1258  0.0031  0.3434
 1609SOL    HW116460   3.843   2.188   6.895 -0.1049  0.5968 -1.7201
 1609SOL    HW216461   3.867   2.116   6.775  0.9988 -1.5147  0.0534
 1610SOL     OW16462   0.964   3.813  16.164 -0.3666 -0.3202  0.5446
 1610SOL    HW116463   1.037   3.850  16.214 -1.1550  0.0141  1.4483
 1610SOL    HW216464   0.899   3.883  16.176 -1.3293 -0.8031 -1.8705
 1611SOL     OW16465   2.595   4.670   6.245  0.0023 -0.1939  0.1569
 1611SOL    HW116466   2.637   4.633   6.323  0.3968  1.3763  0.6841
 1611SOL    HW216467   2.506   4.669   6.281 -0.0981 -2.0733 -0.1692
 1612SOL     OW16468   0.459   0.689   8.078  0.8699  0.1477 -0.1871
 1612SOL    HW116469   0.400   0.702   8.004  2.2340  0.9488 -1.1313
 1612SOL    HW216470   0.494   0.777   8.096  1.4656 -0.1990  0.3455
 1613SOL     OW16471   0.922   1.538  12.222 -0.1590 -0.4064 -0.4182
 1613SOL    HW116472   0.976   1.472  12.179 -0.6033 -1.2304  0.3107
 1613SOL    HW216473   0.865   1.570  12.151 -0.8770 -0.4898  0.1199
 1614SOL     OW16474   0.801   2.573   8.476  0.0989 -0.1658  0.2649
 1614SOL    HW116475   0.749   2.496   8.451 -0.8195  0.8048 -0.7933
 1614SOL    HW216476   0.790   2.567   8.571 -0.9833 -0.5633  0.1138
 1615SOL     OW16477   4.366   0.422   6.393  0.2599 -0.5024 -0.4095
 1615SOL    HW116478   4.328   0.360   6.331  0.2679 -1.7713  0.8569
 1615SOL    HW216479   4.447   0.385   6.427 -0.8488 -2.4509  0.0920
 1616SOL     OW16480   1.530   2.393   4.028  0.5602  0.1166 -0.2495
 1616SOL    HW116481   1.608   2.341   4.050 -1.5457 -4.0390 -2.5371
 1616SOL    HW216482   1.572   2.478   4.013 -1.1818  0.9891 -0.0932
 1617SOL     OW16483   2.306   2.152   8.755  0.3448  0.2078  0.4441
 1617SOL    HW116484   2.288   2.064   8.721 -2.5827 -0.3332  3.3370
 1617SOL    HW216485   2.277   2.199   8.677 -0.1571 -1.9311 -0.6612
 1618SOL     OW16486   0.573   0.484   3.085  0.1951 -0.1175 -0.1873
 1618SOL    HW116487   0.644   0.492   3.021  1.2100 -1.4996  0.7498
 1618SOL    HW216488   0.542   0.394   3.090  1.4808 -0.5993 -0.8869
 1619SOL     OW16489   3.476   2.495   1.478 -0.1587  1.1749  0.1056
 1619SOL    HW116490   3.420   2.419   1.462  1.5462 -0.6445  2.7299
 1619SOL    HW216491   3.555   2.483   1.426 -1.5217 -2.0651 -1.2326
 1620SOL     OW16492   2.967   2.217   5.357 -0.3248  0.0224  0.2276
 1620SOL    HW116493   2.978   2.122   5.357 -0.6677 -0.0180 -0.1337
 1620SOL    HW216494   3.001   2.235   5.444 -1.3087 -0.6924  0.7533
 1621SOL     OW16495   1.183   4.515  12.965  0.1211 -0.2612 -0.6657
 1621SOL    HW116496   1.209   4.588  13.022 -0.0034 -1.1561  0.5563
 1621SOL    HW216497   1.267   4.470  12.971  1.3081  2.0919  0.6805
 1622SOL     OW16498   4.581   2.509   5.920  0.3244 -0.5981 -0.1470
 1622SOL    HW116499   4.633   2.438   5.884 -0.0149 -1.0418  0.2321
 1622SOL    HW216500   4.638   2.541   5.990  0.3277 -1.0420  0.0523
 1623SOL     OW16501   2.573   1.339   4.881 -0.0563  0.1565  0.3373
 1623SOL    HW116502   2.564   1.253   4.923 -1.9386  0.5946  0.8550
 1623SOL    HW216503   2.485   1.375   4.897 -1.3873 -2.6258 -0.7689
 1624SOL     OW16504   0.336   4.282   9.110 -0.0911 -0.0779 -0.6093
 1624SOL    HW116505   0.344   4.366   9.154 -0.0487 -1.6277  2.3354
 1624SOL    HW216506   0.428   4.258   9.099 -0.7687 -2.2114 -1.7942
 1625SOL     OW16507   0.527   2.671   6.566 -0.2533  0.7196  0.4632
 1625SOL    HW116508   0.526   2.586   6.521  0.3644  0.4706  0.9194
 1625SOL    HW216509   0.509   2.643   6.656 -3.0696 -2.8358 -1.1888
 1626SOL     OW16510   4.168   4.044   2.759  0.0821  0.1047 -0.2132
 1626SOL    HW116511   4.075   4.023   2.765  0.0375  0.6214  0.9282
 1626SOL    HW216512   4.183   4.084   2.673 -0.0430 -1.1026 -0.7895
 1627SOL     OW16513   1.755   0.746   6.466  0.0749 -0.1360  0.0693
 1627SOL    HW116514   1.845   0.742   6.435  0.3209 -0.9684  0.8866
 1627SOL    HW216515   1.733   0.837   6.484 -3.4264 -1.0151  0.3945
 1628SOL     OW16516   0.261   1.649  10.204  0.6033  0.5179 -0.2637
 1628SOL    HW116517   0.268   1.618  10.294  0.3212 -0.3638 -0.5337
 1628SOL    HW216518   0.313   1.587  10.153  0.1576 -0.7882  0.8696
 1629SOL     OW16519   0.039   0.361   5.058 -0.1226 -0.7089 -0.5401
 1629SOL    HW116520   0.078   0.289   5.108 -0.0815 -0.2462  0.0966
 1629SOL    HW216521   0.027   0.317   4.974 -0.1985  2.3162 -2.0797
 1630SOL     OW16522   1.341   0.593   6.082 -0.5361  0.1359  0.2858
 1630SOL    HW116523   1.320   0.667   6.139 -0.7728 -0.2679  0.7222
 1630SOL    HW216524   1.260   0.542   6.079  0.6711 -1.8753  1.2542
 1631SOL     OW16525   0.821   2.938   6.210 -0.0029 -0.3824 -0.1172
 1631SOL    HW116526   0.900   2.945   6.156 -0.0503 -2.5910 -0.4672
 1631SOL    HW216527   0.810   3.033   6.222  1.1460 -0.0517 -1.6616
 1632SOL     OW16528   1.795   2.149   0.820  0.7276  0.4846  0.0636
 1632SOL    HW116529   1.823   2.236   0.794  2.5381 -0.2117 -0.3183
 1632SOL    HW216530   1.833   2.087   0.758  0.9039 -0.9351  1.5628
 1633SOL     OW16531   3.813   0.447   2.971 -0.1994  0.1699  0.5417
 1633SOL    HW116532   3.780   0.496   3.046 -1.3858  0.2328 -0.0170
 1633SOL    HW216533   3.777   0.362   2.996  2.5150 -1.0696  0.1930
 1634SOL     OW16534   1.742   3.863   7.020  0.4230  0.0834  0.5153
 1634SOL    HW116535   1.670   3.923   7.039  0.3610  0.1177  0.1613
 1634SOL    HW216536   1.822   3.914   7.032  0.7540  0.5230 -3.8986
 1635SOL     OW16537   0.329   0.612  11.790  0.3203 -0.0356  0.4115
 1635SOL    HW116538   0.266   0.562  11.738  1.1537 -2.5367  1.8231
 1635SOL    HW216539   0.407   0.613  11.735 -1.1118  0.3348 -1.6107
 1636SOL     OW16540   4.116   2.254  15.571  0.2332  0.2644 -0.0003
 1636SOL    HW116541   4.072   2.192  15.628 -1.0206  1.7538  0.6517
 1636SOL    HW216542   4.100   2.213  15.486  2.0626  0.1475 -0.2978
 1637SOL     OW16543   4.564   3.844  10.144  0.2243 -0.4858  0.3268
 1637SOL    HW116544   4.516   3.772  10.103  0.7817  0.2488 -1.6186
 1637SOL    HW216545   4.526   3.853  10.231  2.4110 -2.0448  1.4412
 1638SOL     OW16546   3.362   2.869  16.256 -0.1986  0.0658  0.3276
 1638SOL    HW116547   3.323   2.803  16.199  1.1396 -1.3475  1.0444
 1638SOL    HW216548   3.452   2.875  16.221  0.5281 -0.7696  2.0799
 1639SOL     OW16549   4.313   3.992   4.942 -0.1097  0.2339 -0.2409
 1639SOL    HW116550   4.269   3.958   4.864  2.6742  0.3203 -1.8434
 1639SOL    HW216551   4.395   3.944   4.952 -1.0238 -0.8097  2.2313
 1640SOL     OW16552   4.115   0.832   4.765 -0.0043  0.3210  0.2124
 1640SOL    HW116553   4.177   0.883   4.817 -0.4533  0.8372  0.2426
 1640SOL    HW216554   4.105   0.769   4.836 -1.7942  0.5675  0.1646
 1641SOL     OW16555   3.410   4.418  16.554 -0.3785  0.7392  0.3023
 1641SOL    HW116556   3.419   4.396  16.462  2.6964 -1.7783  1.2187
 1641SOL    HW216557   3.486   4.386  16.603 -1.5875 -1.0894  0.9908
 1642SOL     OW16558   3.789   3.526   5.528  0.1238  0.2075  0.6088
 1642SOL    HW116559   3.868   3.547   5.577  1.9682 -0.1168 -2.2392
 1642SOL    HW216560   3.710   3.545   5.579 -0.0556  0.5161  0.2097
 1643SOL     OW16561   3.885   1.912   2.868  0.0066  0.3818  0.2905
 1643SOL    HW116562   3.867   1.828   2.911 -1.5102  1.5351  1.9409
 1643SOL    HW216563   3.802   1.923   2.820 -0.9096 -1.2592  1.4679
 1644SOL     OW16564   0.132   3.049   7.223 -0.4002 -0.6699  0.2490
 1644SOL    HW116565   0.203   3.113   7.229 -0.6893 -0.3935  0.8238
 1644SOL    HW216566   0.105   3.050   7.131 -0.7133  0.5923  0.3470
 1645SOL     OW16567   1.089   3.469   2.284 -0.5993 -0.9903 -0.2684
 1645SOL    HW116568   1.152   3.483   2.355 -1.4624  0.1830  0.2689
 1645SOL    HW216569   1.062   3.381   2.310 -0.7474 -1.1147 -0.8559
 1646SOL     OW16570   2.422   0.807   5.302 -0.0178  0.6246  0.1303
 1646SOL    HW116571   2.406   0.900   5.286  0.0718  0.8589  1.3996
 1646SOL    HW216572   2.428   0.780   5.211  2.1166 -0.7446  0.6838
 1647SOL     OW16573   4.726   4.318  15.079  0.3928  0.0480  0.2703
 1647SOL    HW116574   0.033   4.384  15.129 -0.9216  0.7920  0.5484
 1647SOL    HW216575   0.048   4.272  15.023  1.6514  2.2736 -0.1425
 1648SOL     OW16576   3.360   3.825   8.065 -0.5125 -0.1215  0.1700
 1648SOL    HW116577   3.271   3.816   8.099  0.1121 -3.4798  0.8472
 1648SOL    HW216578   3.353   3.829   7.970 -1.7780  3.3894  0.3915
 1649SOL     OW16579   4.600   0.493   4.220 -0.0024 -0.3639  0.4608
 1649SOL    HW116580   4.690   0.462   4.223 -0.0081 -0.8149 -3.4794
 1649SOL    HW216581   4.601   0.523   4.129  0.4472 -1.9208 -0.0490
 1650SOL     OW16582   1.419   2.338   6.974 -0.3421  0.3752  0.3808
 1650SOL    HW116583   1.324   2.346   6.961 -0.5782 -0.8837  1.3813
 1650SOL    HW216584   1.408   2.338   7.069 -2.4592  0.2921  0.1397
 1651SOL     OW16585   1.377   0.523   0.559 -0.9822  0.0967  0.0463
 1651SOL    HW116586   1.409   0.450   0.506 -3.3092 -0.5764 -0.4309
 1651SOL    HW216587   1.345   0.468   0.631  1.4636 -0.2302  0.8820
 1652SOL     OW16588   4.103   4.559   2.759 -0.5748 -0.0872 -0.0711
 1652SOL    HW116589   4.089   4.575   2.853  0.7072  2.1472 -0.2475
 1652SOL    HW216590   4.118   4.649   2.729  0.1017  0.6406  2.4066
 1653SOL     OW16591   3.715   1.711   7.279 -0.3054  0.0497  0.0517
 1653SOL    HW116592   3.684   1.801   7.290 -0.4319 -0.0382  0.4079
 1653SOL    HW216593   3.770   1.733   7.204  0.9300 -1.3971  0.5365
 1654SOL     OW16594   3.117   1.653   7.347 -0.1967  0.5786 -0.6550
 1654SOL    HW116595   3.169   1.621   7.421  3.0503  2.6214 -2.0495
 1654SOL    HW216596   3.043   1.687   7.398  1.3574 -0.0675  2.0590
 1655SOL     OW16597   4.211   4.437   4.919  0.0884  0.3166 -0.2352
 1655SOL    HW116598   4.170   4.476   4.997  2.1835 -0.1638  1.1277
 1655SOL    HW216599   4.194   4.347   4.945  0.6043  0.0271 -0.9040
 1656SOL     OW16600   3.064   3.632   9.778  0.8299  0.0075  0.3296
 1656SOL    HW116601   3.054   3.612   9.871 -1.0906 -0.1630  0.0979
 1656SOL    HW216602   3.114   3.713   9.786 -1.5775  1.5777 -0.4898
 1657SOL     OW16603   1.657   0.990   5.923 -0.6369 -0.0182  0.0778
 1657SOL    HW116604   1.601   0.945   5.860 -0.8333  0.2191  0.0814
 1657SOL    HW216605   1.723   1.016   5.859 -2.5616 -0.1441 -1.9679
 1658SOL     OW16606   4.640   4.278  10.262 -0.4166 -0.0605  0.2004
 1658SOL    HW116607   4.571   4.339  10.236 -0.3549 -0.1176 -0.0996
 1658SOL    HW216608   4.604   4.216  10.326 -2.6858 -0.4124 -1.4312
 1659SOL     OW16609   0.290   3.583   8.021  0.2914  0.1159  0.3894
 1659SOL    HW116610   0.208   3.536   8.002  0.0206  1.1597 -1.0415
 1659SOL    HW216611   0.261   3.632   8.098  2.2822  1.7401  0.0895
 1660SOL     OW16612   0.962   2.628   8.757 -0.4464 -0.2096  0.0035
 1660SOL    HW116613   0.877   2.585   8.747  0.6903 -2.3464 -0.6032
 1660SOL    HW216614   0.941   2.697   8.819 -1.7866 -0.5112 -0.1149
 1661SOL     OW16615   3.062   3.897  11.860 -0.3824  0.3255 -0.0838
 1661SOL    HW116616   3.051   3.914  11.954  0.3307  1.2091 -0.1640
 1661SOL    HW216617   3.156   3.913  11.862 -0.1473 -0.7704 -1.9793
 1662SOL     OW16618   4.382   4.067  11.692 -0.3083 -0.4224  0.0929
 1662SOL    HW116619   4.422   3.992  11.736 -3.7292 -0.4762  3.1583
 1662SOL    HW216620   4.450   4.094  11.631  1.5117  0.3337  2.4802
 1663SOL     OW16621   1.660   1.592   7.786 -0.3199  0.0403 -0.0360
 1663SOL    HW116622   1.643   1.559   7.698  0.1765  1.5599 -0.7019
 1663SOL    HW216623   1.631   1.683   7.775  0.0134  0.0072 -1.1174
 1664SOL     OW16624   3.668   0.774   5.163  0.1855 -0.6712 -0.0147
 1664SOL    HW116625   3.631   0.827   5.093 -0.0733  0.5218  1.0252
 1664SOL    HW216626   3.661   0.825   5.244  1.2487 -0.1814 -0.2452
 1665SOL     OW16627   4.577   3.541   5.200 -0.2171  0.2401  0.2669
 1665SOL    HW116628   4.494   3.584   5.179 -0.5268 -0.2789  0.4236
 1665SOL    HW216629   4.628   3.588   5.135  0.3633 -1.0403 -0.1948
 1666SOL     OW16630   1.827   0.267   5.877 -0.0033  0.1836  0.6070
 1666SOL    HW116631   1.743   0.294   5.840 -0.1054 -1.7746 -0.5627
 1666SOL    HW216632   1.797   0.192   5.927  0.7928  0.5676  1.6646
 1667SOL     OW16633   3.429   0.484   3.270  0.2572 -0.4772 -0.2401
 1667SOL    HW116634   3.352   0.427   3.263 -0.8775  0.9943  0.2537
 1667SOL    HW216635   3.498   0.420   3.288  0.3937 -0.3342 -0.2634
 1668SOL     OW16636   2.991   3.531   7.256  0.1959  0.5712 -0.4149
 1668SOL    HW116637   2.930   3.502   7.189 -0.4306  2.9940 -0.8841
 1668SOL    HW216638   3.000   3.623   7.231  2.6174  0.5255  0.2644
 1669SOL     OW16639   4.593   3.958   4.610  0.0241 -0.5586 -0.6787
 1669SOL    HW116640   4.666   3.939   4.669  1.0502 -0.2134 -1.8336
 1669SOL    HW216641   4.562   4.025   4.670  0.6663 -0.7304 -0.1605
 1670SOL     OW16642   0.743   4.426  15.921  0.4494  0.4586 -0.0371
 1670SOL    HW116643   0.655   4.389  15.926  1.1352 -0.9692  1.6152
 1670SOL    HW216644   0.762   4.443  16.013 -1.1099 -2.1697  0.7785
 1671SOL     OW16645   1.667   3.288   5.158  0.2906  0.1851 -0.2591
 1671SOL    HW116646   1.672   3.255   5.248  2.6890  0.4126 -0.3197
 1671SOL    HW216647   1.607   3.235   5.105  0.1357  0.2321 -0.1320
 1672SOL     OW16648   1.427   1.620  17.494 -0.1499 -0.3364 -0.0909
 1672SOL    HW116649   1.369   1.586  17.563 -0.9081 -2.0417 -1.5825
 1672SOL    HW216650   1.506   1.574  17.522 -2.6459 -4.1821  0.6288
 1673SOL     OW16651   1.941   0.846  17.291  0.0153  0.2020 -0.0816
 1673SOL    HW116652   1.916   0.933  17.261  0.0396  0.7622  1.5244
 1673SOL    HW216653   1.979   0.800  17.216  0.0992  0.6935 -0.3324
 1674SOL     OW16654   2.744   0.959   5.522 -0.0119 -0.8441 -0.2160
 1674SOL    HW116655   2.785   0.926   5.602  1.2370  0.8792 -0.1355
 1674SOL    HW216656   2.655   0.987   5.546  0.2447 -1.5512  1.5504
 1675SOL     OW16657   1.753   4.038   7.856 -0.1409  0.0916  0.8125
 1675SOL    HW116658   1.753   4.027   7.761  0.0028  0.9924  0.7053
 1675SOL    HW216659   1.692   3.969   7.880  1.6969 -1.3748  1.3268
 1676SOL     OW16660   3.353   1.184   9.927 -0.0625  0.1181 -0.3513
 1676SOL    HW116661   3.281   1.192   9.864 -1.6434  2.6279  1.7921
 1676SOL    HW216662   3.335   1.265   9.975 -2.1823 -1.3013  1.2670
 1677SOL     OW16663   3.296   1.105   3.409  0.2635 -0.2971 -0.8917
 1677SOL    HW116664   3.229   1.042   3.383  1.2641 -1.2357 -1.1415
 1677SOL    HW216665   3.367   1.046   3.433  0.1789 -0.8608 -2.0557
 1678SOL     OW16666   3.535   1.999  11.869 -0.1469  0.5148  0.2852
 1678SOL    HW116667   3.579   1.995  11.954  0.1612  1.0713  0.1552
 1678SOL    HW216668   3.541   1.908  11.840  1.5438  0.7289 -0.0719
 1679SOL     OW16669   4.361   1.770   1.739  0.1670  0.1892 -0.1678
 1679SOL    HW116670   4.436   1.825   1.759 -0.1116  1.2636 -2.0377
 1679SOL    HW216671   4.366   1.727   1.824 -1.4224  3.5267  1.6135
 1680SOL     OW16672   4.428   0.192   0.736  0.3236  0.5174 -0.7495
 1680SOL    HW116673   4.431   0.227   0.647 -1.3441  0.3585 -0.8631
 1680SOL    HW216674   4.393   0.268   0.782 -2.7168 -0.5827 -1.2325
 1681SOL     OW16675   0.666   0.340   2.203 -0.5424 -0.1922  0.0325
 1681SOL    HW116676   0.691   0.431   2.186 -1.3984 -0.1627 -1.1330
 1681SOL    HW216677   0.651   0.331   2.297  0.1918 -1.7517 -0.0016
 1682SOL     OW16678   0.435   4.062   8.420 -0.8480  0.6275 -0.0743
 1682SOL    HW116679   0.494   4.106   8.359  0.7034 -1.3826 -0.0411
 1682SOL    HW216680   0.357   4.116   8.431 -0.8151  0.7971 -0.6965
 1683SOL     OW16681   3.495   0.664   6.713  0.0566  0.5446  0.4019
 1683SOL    HW116682   3.421   0.724   6.722 -1.1938 -1.0518  0.7236
 1683SOL    HW216683   3.442   0.587   6.735 -0.2660  0.2327 -1.4474
 1684SOL     OW16684   3.163   3.664   3.028  0.0816 -0.0263  0.2517
 1684SOL    HW116685   3.083   3.714   3.037 -0.3109 -0.9544  1.9946
 1684SOL    HW216686   3.207   3.672   3.113 -0.7606 -0.5171  0.7304
 1685SOL     OW16687   3.270   2.964   8.530 -0.1871 -0.1066  0.8827
 1685SOL    HW116688   3.195   2.917   8.566 -1.6613  0.4910 -1.4345
 1685SOL    HW216689   3.334   2.954   8.601  0.3578 -0.3491  0.3570
 1686SOL     OW16690   2.301   3.299   4.365  0.0099 -0.0965  0.3256
 1686SOL    HW116691   2.281   3.358   4.438 -3.2542 -0.3084 -0.4032
 1686SOL    HW216692   2.213   3.287   4.331 -0.2363  0.0526  0.9172
 1687SOL     OW16693   2.518   1.906   3.246  0.0397  0.0507 -0.2292
 1687SOL    HW116694   2.434   1.939   3.213 -0.5927 -2.5367 -1.2082
 1687SOL    HW216695   2.581   1.911   3.174 -0.8856  0.5555 -0.9967
 1688SOL     OW16696   2.249   3.718   9.539 -0.0464  0.2846 -0.7135
 1688SOL    HW116697   2.182   3.652   9.520  0.6189 -1.0922  1.7014
 1688SOL    HW216698   2.258   3.698   9.632  0.6790  0.9067 -0.6479
 1689SOL     OW16699   4.120   0.067   0.257  0.2410 -0.1993 -0.0606
 1689SOL    HW116700   4.097   0.157   0.236 -1.0973  0.1139  2.6957
 1689SOL    HW216701   4.215   0.053   0.265 -0.0222 -3.0684 -2.1554
 1690SOL     OW16702   3.725   4.092   6.647 -0.0230  0.5233  0.2827
 1690SOL    HW116703   3.675   4.073   6.568  0.9871  0.9174 -0.4507
 1690SOL    HW216704   3.773   4.009   6.647 -0.4542  0.2747  0.9993
 1691SOL     OW16705   1.806   0.814  12.056  0.0092 -0.2912  0.0058
 1691SOL    HW116706   1.763   0.846  11.977  1.0756  0.5908 -0.2185
 1691SOL    HW216707   1.735   0.828  12.119 -0.6586  1.4962 -1.1309
 1692SOL     OW16708   0.597   2.345   5.421 -0.4026 -0.3066 -0.0959
 1692SOL    HW116709   0.682   2.346   5.377  0.9439  1.0859  2.5514
 1692SOL    HW216710   0.580   2.250   5.422  0.5272 -0.4658  0.8420
 1693SOL     OW16711   3.872   4.504   7.663  0.4843 -0.0808 -1.0153
 1693SOL    HW116712   3.835   4.534   7.745  1.3528 -1.3632 -0.1505
 1693SOL    HW216713   3.962   4.502   7.695  1.4632  0.0910 -3.7022
 1694SOL     OW16714   3.208   3.003   5.689  0.1859  0.4101 -0.1474
 1694SOL    HW116715   3.127   2.960   5.718 -0.2937  1.6117  0.2954
 1694SOL    HW216716   3.228   2.950   5.612  1.9061 -1.5139  1.6201
 1695SOL     OW16717   3.153   4.163   0.988 -0.4257  0.3115 -0.3139
 1695SOL    HW116718   3.216   4.093   0.970 -0.8192  0.4849 -2.3082
 1695SOL    HW216719   3.163   4.220   0.912 -0.6310 -1.9501 -2.0410
 1696SOL     OW16720   2.955   2.067   7.018  0.0596 -0.2082 -0.4748
 1696SOL    HW116721   3.036   2.116   7.004 -0.7366  0.8430 -1.4285
 1696SOL    HW216722   2.978   1.986   6.972 -3.6369 -0.3205 -2.1083
 1697SOL     OW16723   3.605   2.249   6.767  0.1234 -0.2684 -0.4689
 1697SOL    HW116724   3.523   2.211   6.739 -0.1366  0.4232 -0.6504
 1697SOL    HW216725   3.656   2.255   6.686 -1.0146 -1.8899 -1.3054
 1698SOL     OW16726   0.491   2.188  17.424  0.2989  0.0710  0.1151
 1698SOL    HW116727   0.437   2.248  17.373  0.3809 -1.0411 -1.2734
 1698SOL    HW216728   0.572   2.195  17.374  0.4422 -0.1236  0.3258
 1699SOL     OW16729   1.433   0.707   8.093 -0.9928  0.2286 -0.2728
 1699SOL    HW116730   1.484   0.710   8.012  2.0866 -0.8707  1.5850
 1699SOL    HW216731   1.355   0.760   8.077 -1.3087  0.1539  0.9984
 1700SOL     OW16732   3.409   2.690   6.695 -0.6110 -0.2364 -0.2252
 1700SOL    HW116733   3.360   2.647   6.764 -2.1591  0.2016 -1.0290
 1700SOL    HW216734   3.368   2.777   6.703 -4.1153 -2.0328  1.2628
 1701SOL     OW16735   0.902   3.854  14.247 -0.3505 -0.1054 -0.3624
 1701SOL    HW116736   0.906   3.779  14.306 -0.2529 -1.1806 -1.7271
 1701SOL    HW216737   0.812   3.858  14.213 -0.7513 -0.2208  0.6905
 1702SOL     OW16738   3.679   1.952   8.996  0.5372  0.2041 -0.0527
 1702SOL    HW116739   3.694   2.007   9.073  1.1871  0.7149 -0.5433
 1702SOL    HW216740   3.598   1.982   8.955 -0.7998 -0.8630  1.8405
 1703SOL     OW16741   0.123   4.725   5.562  0.6324  0.4885  0.5313
 1703SOL    HW116742   0.058   4.675   5.612  1.7375  0.8162  2.3400
 1703SOL    HW216743   0.083   4.736   5.476 -0.1871 -0.3182  0.8081
 1704SOL     OW16744   0.259   1.238  12.595  0.1829 -0.4993 -0.6729
 1704SOL    HW116745   0.322   1.186  12.643 -1.0345  0.2136  1.7160
 1704SOL    HW216746   0.193   1.186  12.641  1.0516  0.2367  1.3885
 1705SOL     OW16747   3.110   4.088   8.724  0.0461 -0.0149  0.4590
 1705SOL    HW116748   3.186   4.135   8.761  0.4206  0.1250 -0.4970
 1705SOL    HW216749   3.155   4.009   8.695  1.0313  1.0985 -1.0543
 1706SOL     OW16750   2.385   1.840  16.585  0.0265  0.2453  0.2750
 1706SOL    HW116751   2.370   1.895  16.508 -0.0695  2.0406  1.5804
 1706SOL    HW216752   2.473   1.857  16.617  0.0321 -1.4567  1.1573
 1707SOL     OW16753   2.884   0.038   2.101 -0.5263 -0.2570  0.4326
 1707SOL    HW116754   2.868   0.118   2.051 -0.6733  0.1245  1.0855
 1707SOL    HW216755   2.796   0.018   2.133 -0.3839  0.3006  1.1784
 1708SOL     OW16756   1.108   3.401   6.353 -0.0055  0.2017 -0.5873
 1708SOL    HW116757   1.082   3.309   6.351  0.2288  0.1079  1.1539
 1708SOL    HW216758   1.136   3.416   6.443 -0.5844  0.1812 -0.4077
 1709SOL     OW16759   1.109   3.387   5.914  0.6611  0.1027  0.3767
 1709SOL    HW116760   1.051   3.311   5.927  0.3987  0.1580 -0.4658
 1709SOL    HW216761   1.064   3.427   5.840 -0.8128  0.2284  1.3476
 1710SOL     OW16762   4.640   1.859   2.162  0.3411 -0.3459  0.3224
 1710SOL    HW116763   4.575   1.927   2.180  1.2859  0.5828  0.2565
 1710SOL    HW216764   4.700   1.879   2.235  1.5574 -0.1929 -0.7195
 1711SOL     OW16765   0.796   4.648   2.202 -0.1451 -0.2925  0.1197
 1711SOL    HW116766   0.727   4.659   2.136  2.6156  0.3916 -2.6108
 1711SOL    HW216767   0.834   4.735   2.199  2.2527 -1.3957 -0.8964
 1712SOL     OW16768   3.742   3.328   7.644 -0.5479 -0.2193 -0.0528
 1712SOL    HW116769   3.649   3.352   7.636 -0.7303 -0.4470  1.3157
 1712SOL    HW216770   3.774   3.361   7.560 -0.5018 -0.1689 -0.0154
 1713SOL     OW16771   3.361   4.035   1.704 -0.4924 -0.0453 -0.0089
 1713SOL    HW116772   3.431   3.977   1.675 -0.3649  0.0479  0.1131
 1713SOL    HW216773   3.355   4.093   1.629 -4.4231 -1.3454 -0.7188
 1714SOL     OW16774   0.578   2.887  14.903  0.5977  0.3637 -0.0224
 1714SOL    HW116775   0.594   2.807  14.854 -0.5867  1.3913 -2.1203
 1714SOL    HW216776   0.592   2.957  14.839 -0.0125  2.1350  1.7879
 1715SOL     OW16777   1.263   1.779   2.316 -0.0179  0.3504  0.1720
 1715SOL    HW116778   1.197   1.776   2.247 -0.8048  2.7868  0.8237
 1715SOL    HW216779   1.290   1.871   2.316  0.2750  0.2555  2.0651
 1716SOL     OW16780   3.343   4.517   6.537 -0.1943 -0.4501 -0.1712
 1716SOL    HW116781   3.323   4.510   6.631 -1.2579  0.0325 -0.3547
 1716SOL    HW216782   3.434   4.545   6.537 -0.6693  1.1575  0.5510
 1717SOL     OW16783   2.645   1.179   4.267  0.0370 -0.9750  0.4325
 1717SOL    HW116784   2.585   1.105   4.260 -1.1418  0.0999 -1.0188
 1717SOL    HW216785   2.668   1.181   4.174 -0.8753  1.1599  0.2560
 1718SOL     OW16786   0.000   4.161   6.840  0.2806 -0.0626 -0.1961
 1718SOL    HW116787   0.065   4.220   6.879 -1.2291  1.7553 -0.4303
 1718SOL    HW216788   4.687   4.223   6.790  2.0541  1.3122 -0.4143
 1719SOL     OW16789   2.008   2.066   2.947 -0.0147  0.2055 -0.8441
 1719SOL    HW116790   1.946   2.099   2.881 -2.3289  0.2436  1.3372
 1719SOL    HW216791   2.083   2.123   2.929  0.3058 -0.1929 -0.7502
 1720SOL     OW16792   0.215   0.361   7.441  0.8835  0.1481  0.0921
 1720SOL    HW116793   0.272   0.340   7.514  2.1381 -1.1719 -1.2592
 1720SOL    HW216794   0.278   0.377   7.370  0.7373  0.0560 -0.0606
 1721SOL     OW16795   4.282   0.835   1.133 -0.5715  0.6209 -0.4410
 1721SOL    HW116796   4.190   0.814   1.117 -0.2022 -1.2429 -0.1559
 1721SOL    HW216797   4.291   0.782   1.213 -1.9285  0.7060 -0.2237
 1722SOL     OW16798   4.209   0.156   8.453 -0.0653  0.5835 -0.1079
 1722SOL    HW116799   4.224   0.071   8.494 -2.3525 -0.0341 -0.5428
 1722SOL    HW216800   4.223   0.126   8.363  0.2791  0.8476 -0.1415
 1723SOL     OW16801   3.547   0.196   1.311  0.4566 -0.7124  0.5710
 1723SOL    HW116802   3.553   0.261   1.242  1.3525  0.3213  1.6252
 1723SOL    HW216803   3.552   0.261   1.381 -1.7913 -0.0605  0.1230
 1724SOL     OW16804   4.704   0.684   6.547  0.5422  0.1806 -0.3327
 1724SOL    HW116805   4.706   0.777   6.570 -0.1228  0.3929 -1.1555
 1724SOL    HW216806   0.054   0.661   6.528  0.8662  3.1683 -2.3429
 1725SOL     OW16807   0.640   2.291   3.382 -0.3646 -0.3075 -0.3090
 1725SOL    HW116808   0.632   2.319   3.291 -1.1636  0.3608 -0.0387
 1725SOL    HW216809   0.634   2.196   3.373 -1.6098 -0.2108 -0.5548
 1726SOL     OW16810   3.986   2.342  11.768 -0.7334  0.2796  0.2357
 1726SOL    HW116811   3.907   2.391  11.747 -0.7598  0.2525  0.2709
 1726SOL    HW216812   3.953   2.252  11.766  0.9920 -0.3088 -1.1836
 1727SOL     OW16813   3.554   3.595  11.645  0.3323 -0.1934  0.3025
 1727SOL    HW116814   3.623   3.563  11.703 -0.0074  1.6483  1.7086
 1727SOL    HW216815   3.607   3.591  11.566 -0.0592  1.1844 -0.0368
 1728SOL     OW16816   2.499   1.218   5.827 -0.7413 -1.1332  0.1317
 1728SOL    HW116817   2.580   1.169   5.839 -0.9121 -0.6763  3.2691
 1728SOL    HW216818   2.507   1.267   5.909  2.8071 -0.2553 -0.7484
 1729SOL     OW16819   0.954   2.034  12.989 -0.1876 -0.4575  0.4841
 1729SOL    HW116820   1.005   2.100  12.943  0.9811 -1.9011 -0.2948
 1729SOL    HW216821   0.936   2.072  13.075 -1.3511 -0.8340  0.4086
 1730SOL     OW16822   2.156   4.151   4.943  0.2297 -0.3473 -0.0841
 1730SOL    HW116823   2.091   4.197   4.890  0.6072  0.7943  0.4307
 1730SOL    HW216824   2.107   4.069   4.948 -1.2429  0.4797 -0.8176
 1731SOL     OW16825   2.689   0.567  13.357  0.2058 -0.0434  0.3881
 1731SOL    HW116826   2.716   0.654  13.326  0.0843  0.5467  1.8993
 1731SOL    HW216827   2.659   0.587  13.446 -0.1198 -1.0213  0.4944
 1732SOL     OW16828   0.389   0.052  13.180 -0.3084  0.9495 -0.4711
 1732SOL    HW116829   0.459   0.108  13.214  0.5550  0.5354 -1.5618
 1732SOL    HW216830   0.437   4.713  13.157  1.4374  1.9653 -0.3896
 1733SOL     OW16831   3.357   3.720   6.507  0.4789  0.0931 -0.0124
 1733SOL    HW116832   3.321   3.631   6.502  0.2924  0.1119  1.1782
 1733SOL    HW216833   3.293   3.765   6.452  0.7941 -1.7626 -1.9159
 1734SOL     OW16834   2.125   2.131   6.478  0.4809 -0.1903  0.2462
 1734SOL    HW116835   2.119   2.167   6.566  0.2010  2.4302 -0.8352
 1734SOL    HW216836   2.052   2.069   6.479  1.6624 -1.6447 -2.9413
 1735SOL     OW16837   0.884   4.357   1.783 -0.8522 -0.0609 -0.2999
 1735SOL    HW116838   0.795   4.385   1.806 -0.5449  0.3619  0.3571
 1735SOL    HW216839   0.862   4.280   1.730  1.7445  0.6142 -2.3756
 1736SOL     OW16840   4.352   3.811   2.505 -0.3196  0.4564 -0.0402
 1736SOL    HW116841   4.385   3.744   2.564  0.7695  1.1352  0.1300
 1736SOL    HW216842   4.407   3.888   2.522 -0.6464  1.5824 -4.0264
 1737SOL     OW16843   4.132   0.698   5.279  0.4573  0.0123 -0.1997
 1737SOL    HW116844   4.054   0.644   5.288  1.2963 -1.2877 -0.6810
 1737SOL    HW216845   4.103   0.758   5.210 -0.2388  1.4702  1.3899
 1738SOL     OW16846   2.144   2.070  16.724 -0.4267 -0.0114 -0.3626
 1738SOL    HW116847   2.184   1.987  16.749 -0.9498 -0.0721  0.2732
 1738SOL    HW216848   2.183   2.122  16.793 -1.3599  0.8269 -0.4682
 1739SOL     OW16849   1.869   3.375   2.737  0.0783 -0.1799 -0.5517
 1739SOL    HW116850   1.933   3.424   2.788 -1.0324 -0.0213  0.7108
 1739SOL    HW216851   1.930   3.304   2.716 -0.5162  0.2935 -3.8083
 1740SOL     OW16852   3.939   4.062   4.508 -0.2284  0.0329 -0.2311
 1740SOL    HW116853   3.971   4.047   4.419  2.2263  2.6204  0.1970
 1740SOL    HW216854   3.976   4.150   4.517 -0.7676  0.3497 -1.1793
 1741SOL     OW16855   0.514   0.995   9.866 -0.4895  0.3127 -0.2065
 1741SOL    HW116856   0.510   0.937   9.790  1.1932  0.5252 -0.4659
 1741SOL    HW216857   0.606   1.021   9.873 -0.1926 -1.0953  1.3762
 1742SOL     OW16858   3.487   4.494   5.178  0.0680 -0.2732  0.2528
 1742SOL    HW116859   3.424   4.428   5.207  1.7463 -1.2748  1.6608
 1742SOL    HW216860   3.444   4.569   5.218 -0.0320  0.8845 -2.0395
 1743SOL     OW16861   2.785   4.107  15.574  0.1844  0.6129  0.0477
 1743SOL    HW116862   2.739   4.094  15.491  1.2367 -2.4722 -0.0739
 1743SOL    HW216863   2.874   4.127  15.546 -0.1878  0.8113 -0.9698
 1744SOL     OW16864   4.278   3.102   4.484  0.6386 -0.3812 -0.0961
 1744SOL    HW116865   4.188   3.096   4.518  0.6602 -0.4701 -0.0518
 1744SOL    HW216866   4.316   3.137   4.565 -1.3760  0.6819  0.3978
 1745SOL     OW16867   3.534   0.992   9.697  0.1445  0.3955  0.1916
 1745SOL    HW116868   3.507   1.050   9.768 -1.9834 -0.5219  0.1484
 1745SOL    HW216869   3.581   1.042   9.630  1.4830 -0.0986  0.7837
 1746SOL     OW16870   0.358   0.367   2.195  0.1309 -0.3629 -0.5824
 1746SOL    HW116871   0.450   0.347   2.179  0.5147  1.8392 -1.1332
 1746SOL    HW216872   0.348   0.427   2.121 -0.6191  0.8654  0.5215
 1747SOL     OW16873   0.206   4.574  15.102  0.3798 -0.1806  0.4844
 1747SOL    HW116874   0.244   4.509  15.043 -0.4758 -1.1235  0.9596
 1747SOL    HW216875   0.267   4.644  15.081  0.2603 -0.1275  0.3095
 1748SOL     OW16876   4.647   4.212   6.539  0.0988  0.1032 -0.6456
 1748SOL    HW116877   4.651   4.307   6.538 -1.0430  0.1433 -0.8972
 1748SOL    HW216878   4.564   4.198   6.584  0.5214 -1.7626 -0.4231
 1749SOL     OW16879   0.772   0.621   3.404 -0.6814  0.2810  0.1738
 1749SOL    HW116880   0.765   0.527   3.421  2.4752  0.3951  2.1985
 1749SOL    HW216881   0.750   0.608   3.312 -1.7296  1.4390  0.2559
 1750SOL     OW16882   1.616   1.644   4.365 -0.1873 -0.3752  0.0212
 1750SOL    HW116883   1.573   1.730   4.371 -0.0679 -0.2313 -1.1590
 1750SOL    HW216884   1.545   1.581   4.373  0.3222 -0.9727 -0.1597
 1751SOL     OW16885   4.070   0.461  10.266 -0.5053 -0.6488 -0.0534
 1751SOL    HW116886   4.069   0.515  10.186 -1.4702 -3.0602 -1.6818
 1751SOL    HW216887   4.056   0.374  10.229  0.2671 -0.2947 -1.1728
 1752SOL     OW16888   3.479   0.103   1.615  0.8118  0.0325  0.2908
 1752SOL    HW116889   3.459   0.196   1.624  0.7611 -0.0203  0.7010
 1752SOL    HW216890   3.433   0.086   1.533 -0.3163 -3.5113  1.7002
 1753SOL     OW16891   1.763   2.550   6.904  0.3893  0.2945 -0.5951
 1753SOL    HW116892   1.777   2.457   6.887  0.9320  0.3963 -0.7137
 1753SOL    HW216893   1.702   2.574   6.835 -1.0021  3.1976  1.6254
 1754SOL     OW16894   3.598   1.494   6.148 -0.5644 -0.0716 -0.4297
 1754SOL    HW116895   3.569   1.496   6.239  0.4733  1.0124 -0.1283
 1754SOL    HW216896   3.660   1.567   6.141  0.7648 -1.1862 -0.2170
 1755SOL     OW16897   4.552   0.546  14.553  0.1800 -0.4853 -0.1518
 1755SOL    HW116898   4.589   0.620  14.601 -2.8628  0.0646  1.3261
 1755SOL    HW216899   4.515   0.499  14.628  1.9617  0.7762  1.5015
 1756SOL     OW16900   1.614   1.287   1.573  0.5152  0.7564 -0.0818
 1756SOL    HW116901   1.708   1.268   1.582  0.4912  0.9070  0.5569
 1756SOL    HW216902   1.591   1.229   1.501 -0.2888  1.6272 -0.5281
 1757SOL     OW16903   3.611   2.954   2.948 -0.2012 -0.3678  0.0599
 1757SOL    HW116904   3.571   2.916   3.026  0.3214  1.5322  1.2554
 1757SOL    HW216905   3.657   2.873   2.926  0.0182  0.5275 -2.8161
 1758SOL     OW16906   0.341   4.519   5.555 -0.4930  0.4405 -0.0292
 1758SOL    HW116907   0.311   4.610   5.557 -0.8902  0.3362 -1.6222
 1758SOL    HW216908   0.271   4.474   5.509 -0.6755  1.0192 -0.3107
 1759SOL     OW16909   3.599   0.722   1.314 -0.3093  0.0702  0.2265
 1759SOL    HW116910   3.630   0.813   1.311 -2.2271  0.7865  1.5912
 1759SOL    HW216911   3.549   0.723   1.396 -0.7518  0.4669 -0.0448
 1760SOL     OW16912   2.675   1.477  11.969  0.4845 -0.7006 -0.2420
 1760SOL    HW116913   2.626   1.453  11.891  0.3142  0.9364 -0.6417
 1760SOL    HW216914   2.606   1.489  12.034  1.2274 -2.3328  0.8477
 1761SOL     OW16915   3.429   2.544   3.732 -0.6166 -0.1161  0.0197
 1761SOL    HW116916   3.483   2.622   3.723 -1.1146  0.2412  0.1331
 1761SOL    HW216917   3.398   2.537   3.642  0.2250  0.0082 -0.2810
 1762SOL     OW16918   3.453   0.741  10.406  0.3661  0.6243 -0.7060
 1762SOL    HW116919   3.446   0.836  10.408  0.7546  0.6348  0.5833
 1762SOL    HW216920   3.542   0.706  10.407 -0.2618 -0.9805 -0.9613
 1763SOL     OW16921   2.142   2.599   6.100  0.0125 -1.2315  0.1027
 1763SOL    HW116922   2.114   2.691   6.095 -0.0867 -1.2555  0.2213
 1763SOL    HW216923   2.191   2.604   6.181  0.9352  2.1454 -0.6485
 1764SOL     OW16924   2.405   2.656  11.442  0.4689 -0.2105  0.1338
 1764SOL    HW116925   2.377   2.575  11.400 -2.3326  0.3653  0.8757
 1764SOL    HW216926   2.333   2.715  11.419  0.4659 -1.0758 -2.0759
 1765SOL     OW16927   2.573   2.528  10.461 -0.0306 -0.1853 -0.0333
 1765SOL    HW116928   2.603   2.510  10.372  0.4055 -2.7572  0.6405
 1765SOL    HW216929   2.478   2.537  10.455 -0.0612 -0.2770  0.3081
 1766SOL     OW16930   3.253   0.981   7.310  0.5058 -0.4026 -0.3863
 1766SOL    HW116931   3.250   1.071   7.344  0.6309 -0.2754 -0.7146
 1766SOL    HW216932   3.332   0.982   7.256  1.5851 -0.0054  1.2026
 1767SOL     OW16933   1.652   4.659   7.998  0.2197  0.2047  0.3821
 1767SOL    HW116934   1.746   4.667   8.015  0.0553  0.3372  1.2117
 1767SOL    HW216935   1.624   4.591   8.058  1.1960 -0.2264  0.3588
 1768SOL     OW16936   3.514   3.681   8.247  0.1567  0.0938 -0.1296
 1768SOL    HW116937   3.459   3.735   8.192 -0.0512 -0.8816 -0.8784
 1768SOL    HW216938   3.601   3.688   8.209 -0.8811 -0.9255 -2.6692
 1769SOL     OW16939   3.625   1.623   9.020  0.2788  0.2242 -0.6606
 1769SOL    HW116940   3.668   1.697   8.978  1.3801 -0.7748 -1.3327
 1769SOL    HW216941   3.536   1.622   8.984 -0.3459  0.2650  0.8941
 1770SOL     OW16942   1.633   3.248   7.131 -0.1206 -0.1681  0.1902
 1770SOL    HW116943   1.636   3.344   7.137  0.3526 -0.1774  0.1099
 1770SOL    HW216944   1.637   3.228   7.038  0.4652 -1.2146  0.4496
 1771SOL     OW16945   3.045   0.478   2.054  0.2839  0.4495  0.5762
 1771SOL    HW116946   3.037   0.428   2.135  1.3695 -4.2409 -2.2476
 1771SOL    HW216947   3.127   0.442   2.021 -0.4939 -1.7834  1.1135
 1772SOL     OW16948   0.595   3.055   8.155  0.6873 -0.3775 -0.7981
 1772SOL    HW116949   0.674   3.098   8.188 -1.0899  2.2554 -0.0026
 1772SOL    HW216950   0.566   3.120   8.092 -1.6432 -0.3972  0.2578
 1773SOL     OW16951   3.301   4.194   8.396  0.0568  0.1039 -0.0583
 1773SOL    HW116952   3.267   4.128   8.456  0.1289 -0.6745 -0.8683
 1773SOL    HW216953   3.243   4.183   8.320  0.7661 -2.6850 -0.1917
 1774SOL     OW16954   1.607   4.390   1.672 -0.3392  0.1001  0.4499
 1774SOL    HW116955   1.559   4.386   1.589  0.0060  1.1298  0.1983
 1774SOL    HW216956   1.544   4.345   1.729 -2.1378 -1.0477 -2.4698
 1775SOL     OW16957   3.545   3.652  17.049 -0.1688  0.3048 -0.1010
 1775SOL    HW116958   3.519   3.693  17.131 -0.1915  0.0436  0.0237
 1775SOL    HW216959   3.475   3.587  17.043 -0.3502  0.5969 -1.1086
 1776SOL     OW16960   0.194   2.104   1.999 -0.2369 -0.3789 -0.3576
 1776SOL    HW116961   0.107   2.144   2.001 -0.2577 -0.3336 -2.0857
 1776SOL    HW216962   0.167   2.012   1.989 -1.5630  0.1217 -1.3714
 1777SOL     OW16963   3.022   2.736   4.145  0.6236  0.2019  0.2612
 1777SOL    HW116964   3.111   2.759   4.172  1.4226 -1.7988 -0.6613
 1777SOL    HW216965   3.034   2.791   4.067  0.3087 -2.4763 -1.6878
 1778SOL     OW16966   1.581   1.412   6.180  0.3356 -0.2107 -0.5386
 1778SOL    HW116967   1.632   1.357   6.120  2.5045  0.0949  0.9994
 1778SOL    HW216968   1.598   1.504   6.158  3.5545 -0.2858  1.6297
 1779SOL     OW16969   2.647   4.027   4.600 -0.4071  0.1421 -0.0578
 1779SOL    HW116970   2.724   4.073   4.632 -1.2378  1.0857  0.5868
 1779SOL    HW216971   2.615   4.081   4.527  0.8808  0.7676 -0.1557
 1780SOL     OW16972   2.395   4.050   8.023  0.2803  0.1608  0.6867
 1780SOL    HW116973   2.382   4.102   7.944  2.0435 -0.9821 -0.3692
 1780SOL    HW216974   2.308   4.068   8.058 -0.3108 -0.4641 -0.4751
 1781SOL     OW16975   0.018   2.153   5.220  0.1384 -0.2177 -0.2529
 1781SOL    HW116976   4.739   2.177   5.129  1.3042  1.3276 -0.1073
 1781SOL    HW216977   0.050   2.065   5.201 -1.0381 -0.8011  0.5163
 1782SOL     OW16978   3.723   2.409   3.052 -0.4632 -0.3271 -0.1832
 1782SOL    HW116979   3.763   2.391   2.967 -0.2443  2.0546 -0.5947
 1782SOL    HW216980   3.640   2.448   3.024 -0.0573  0.6474 -0.0322
 1783SOL     OW16981   2.052   1.998   7.163  0.3085  0.4076 -0.0072
 1783SOL    HW116982   2.120   1.942   7.126  0.3632  0.9059 -0.6703
 1783SOL    HW216983   2.065   2.086   7.126 -0.3433 -0.4926 -2.3905
 1784SOL     OW16984   1.097   4.028   6.262  0.4020  0.2934  0.0623
 1784SOL    HW116985   1.180   4.056   6.225  1.1358 -0.9861  0.7337
 1784SOL    HW216986   1.118   4.055   6.351  1.0949  2.7898 -0.8665
 1785SOL     OW16987   1.138   2.733  17.209 -0.1107  0.3529  0.1947
 1785SOL    HW116988   1.096   2.817  17.190  0.2131  1.2070  3.2990
 1785SOL    HW216989   1.228   2.757  17.185  0.0281 -0.6202 -0.2639
 1786SOL     OW16990   1.423   1.888   6.489 -0.0621  0.1763  0.3744
 1786SOL    HW116991   1.516   1.908   6.499 -0.0926  0.1013  0.8104
 1786SOL    HW216992   1.393   1.950   6.422  3.5813  1.4301 -0.0951
 1787SOL     OW16993   3.436   4.192   5.763 -0.5546  0.3100 -0.3307
 1787SOL    HW116994   3.451   4.251   5.837 -1.6845  0.1352  0.0293
 1787SOL    HW216995   3.408   4.111   5.806  2.0624 -1.2036 -1.4664
 1788SOL     OW16996   1.087   4.664   0.805  0.3695 -0.1553 -0.1998
 1788SOL    HW116997   1.041   0.001   0.773 -2.2521 -1.0824  1.2673
 1788SOL    HW216998   1.141   4.632   0.733  0.3432 -1.6942  0.4596
 1789SOL     OW16999   1.851   2.649   3.179  0.4979 -0.2411  0.0386
 1789SOL    HW117000   1.853   2.707   3.255  1.4163  0.1968 -0.3148
 1789SOL    HW217001   1.889   2.705   3.110 -0.3130  0.3481  0.0730
 1790SOL     OW17002   1.352   2.277   3.237  0.3055  0.9684  0.6274
 1790SOL    HW117003   1.399   2.245   3.315  0.7466  1.5420  0.5999
 1790SOL    HW217004   1.422   2.336   3.208 -0.4611  1.9689  0.8322
 1791SOL     OW17005   2.983   4.667   5.504  0.5187  0.0445 -0.5307
 1791SOL    HW117006   2.911   4.646   5.444  1.0506 -1.8455 -0.4843
 1791SOL    HW217007   2.940   4.732   5.559  1.6079  1.8186 -1.7647
 1792SOL     OW17008   1.299   0.111   6.619  0.1750  0.3118  0.4724
 1792SOL    HW117009   1.226   0.146   6.568  0.3001 -0.8683 -0.5266
 1792SOL    HW217010   1.367   0.179   6.616 -1.8049  2.1937 -1.9033
 1793SOL     OW17011   2.008   2.357   6.051  0.2704  0.1983 -0.0435
 1793SOL    HW117012   2.026   2.442   6.090  1.7472  0.8146 -2.0690
 1793SOL    HW217013   2.034   2.372   5.960 -0.2702  0.5592 -0.1376
 1794SOL     OW17014   1.777   2.983  13.543  0.2200 -0.2215 -0.1126
 1794SOL    HW117015   1.693   2.939  13.553 -0.7004  1.7708  0.9007
 1794SOL    HW217016   1.758   3.074  13.520 -1.0550 -0.5063 -0.1573
 1795SOL     OW17017   3.346   0.227   6.461 -0.4415  0.3916  0.3645
 1795SOL    HW117018   3.312   0.284   6.529 -1.6921  0.6119 -0.4456
 1795SOL    HW217019   3.356   0.298   6.398 -1.5426 -0.2574 -0.5456
 1796SOL     OW17020   3.455   1.701   5.280  0.0177  0.4218  0.3770
 1796SOL    HW117021   3.470   1.617   5.323 -0.0860 -0.4446 -1.3079
 1796SOL    HW217022   3.515   1.750   5.336  0.5912 -0.4776  0.5447
 1797SOL     OW17023   2.048   0.902   2.866 -0.2266  0.1693 -0.4125
 1797SOL    HW117024   2.101   0.882   2.788  2.1372 -0.8803  1.4633
 1797SOL    HW217025   2.098   0.968   2.914 -0.3421  1.6194 -2.2784
 1798SOL     OW17026   1.300   3.128   2.403  0.5961 -0.4101  0.1664
 1798SOL    HW117027   1.222   3.087   2.440 -0.2705  0.9021 -0.2430
 1798SOL    HW217028   1.314   3.077   2.323 -1.0384  1.3805 -1.2695
 1799SOL     OW17029   1.248   2.663  10.373  0.3816 -0.4853  0.0172
 1799SOL    HW117030   1.302   2.650  10.295  1.2149  1.0845  0.3234
 1799SOL    HW217031   1.250   2.574  10.407  1.2128 -0.1800  0.7684
 1800SOL     OW17032   0.966   1.154   7.540 -0.0099  0.1667 -0.2069
 1800SOL    HW117033   0.878   1.154   7.578 -0.7360  1.9568 -1.8604
 1800SOL    HW217034   1.021   1.134   7.616  1.1353  0.8965 -0.8362
 1801SOL     OW17035   0.362   1.219  11.851 -0.2451  0.0709 -0.3337
 1801SOL    HW117036   0.351   1.127  11.875  0.0581  0.1070 -0.0402
 1801SOL    HW217037   0.457   1.234  11.848 -0.2348  0.2505  0.8705
 1802SOL     OW17038   0.427   4.584   8.092 -0.0505  0.2879 -0.0948
 1802SOL    HW117039   0.428   4.627   8.007  1.3728 -2.4288 -1.4423
 1802SOL    HW217040   0.519   4.561   8.107 -0.3947 -0.3399  1.0899
 1803SOL     OW17041   2.318   1.961   6.862  0.1035 -0.4700 -0.1798
 1803SOL    HW117042   2.239   1.979   6.810  0.7454  1.0115 -0.6462
 1803SOL    HW217043   2.364   2.042   6.842 -0.8651  0.4559  1.3149
 1804SOL     OW17044   4.492   4.189  12.430 -0.0261  0.2133  0.6676
 1804SOL    HW117045   4.423   4.200  12.496  2.0185  1.0635  2.6522
 1804SOL    HW217046   4.565   4.154  12.481  1.1715  0.7557 -0.6928
 1805SOL     OW17047   1.516   0.680   2.930  0.0611 -0.1250  0.2862
 1805SOL    HW117048   1.567   0.724   2.861  0.6687  1.4472  1.7470
 1805SOL    HW217049   1.476   0.611   2.877 -2.1387  0.9712  0.5426
 1806SOL     OW17050   3.673   4.006  13.478 -1.0040 -0.2272  0.4561
 1806SOL    HW117051   3.621   4.035  13.553 -0.4862  0.1689  0.6626
 1806SOL    HW217052   3.607   3.994  13.410  2.3280 -1.0094 -2.6721
 1807SOL     OW17053   3.189   1.011   2.814  0.0570 -0.4477  0.1170
 1807SOL    HW117054   3.256   0.963   2.863 -0.4087 -0.3725  0.8161
 1807SOL    HW217055   3.131   0.938   2.794  0.1236 -0.7258  0.9436
 1808SOL     OW17056   4.116   2.218  16.160  0.0024  0.2881  0.3709
 1808SOL    HW117057   4.200   2.231  16.117  0.8386 -0.7684  1.7083
 1808SOL    HW217058   4.081   2.144  16.111 -0.9535 -1.3460  3.5168
 1809SOL     OW17059   4.385   4.169   2.548  0.0943  0.2365  0.0465
 1809SOL    HW117060   4.345   4.226   2.613 -1.6588 -1.0422  0.0984
 1809SOL    HW217061   4.430   4.109   2.607  0.4855  1.5485  1.0747
 1810SOL     OW17062   3.566   4.487   4.232  0.3015 -0.3245 -0.2101
 1810SOL    HW117063   3.584   4.410   4.178 -0.3533 -0.9270  0.4325
 1810SOL    HW217064   3.475   4.473   4.258  0.2354 -0.9339 -0.7636
 1811SOL     OW17065   0.621   0.981   6.149  0.3247  0.4192 -0.2368
 1811SOL    HW117066   0.696   0.940   6.106  3.2632  3.6171  1.8345
 1811SOL    HW217067   0.673   1.044   6.199  2.2393 -0.1750 -1.4964
 1812SOL     OW17068   2.230   4.531   8.636 -0.0073  0.2445 -0.3780
 1812SOL    HW117069   2.260   4.622   8.641  1.2753 -0.2438  0.6410
 1812SOL    HW217070   2.265   4.489   8.714 -0.8482 -1.3629 -0.8534
 1813SOL     OW17071   1.687   1.202  14.102 -0.3427 -0.5705  0.6412
 1813SOL    HW117072   1.619   1.137  14.122 -0.4136 -0.6421  0.1591
 1813SOL    HW217073   1.636   1.269  14.056 -1.4414 -2.0642 -0.3117
 1814SOL     OW17074   3.555   4.418   3.908 -0.3180  0.2331  0.3439
 1814SOL    HW117075   3.522   4.345   3.961 -2.8671 -0.3333 -2.0055
 1814SOL    HW217076   3.536   4.494   3.963  0.1389  0.1098  0.6675
 1815SOL     OW17077   3.061   0.074   4.468  0.1517  0.0623  0.1624
 1815SOL    HW117078   3.042   0.120   4.549 -0.7447 -2.5861  1.4343
 1815SOL    HW217079   3.029   0.143   4.409  0.7744 -0.9499 -1.3484
 1816SOL     OW17080   1.071   3.481   5.563 -0.2373 -0.3212 -0.3782
 1816SOL    HW117081   1.078   3.385   5.566  0.8768 -0.2625 -1.2299
 1816SOL    HW217082   1.009   3.503   5.633 -0.1921  1.5431 -0.9434
 1817SOL     OW17083   0.672   0.726   7.305 -0.1818 -0.1015 -0.1132
 1817SOL    HW117084   0.603   0.667   7.338  0.9044 -1.6175 -0.5356
 1817SOL    HW217085   0.656   0.804   7.357 -1.5954 -0.1441 -0.4646
 1818SOL     OW17086   4.535   3.794   8.391  0.1523 -1.0473 -0.2065
 1818SOL    HW117087   4.608   3.855   8.376 -0.1093 -0.8481 -0.6843
 1818SOL    HW217088   4.543   3.791   8.486  0.5488  1.6729 -0.1532
 1819SOL     OW17089   1.625   2.200  13.185 -0.1043 -0.1075  0.0228
 1819SOL    HW117090   1.646   2.121  13.135  0.6530  1.2777 -1.8358
 1819SOL    HW217091   1.546   2.167  13.230 -0.2773 -0.0547 -0.2438
 1820SOL     OW17092   0.975   0.633   8.806  0.5492  0.4062 -0.0843
 1820SOL    HW117093   0.985   0.724   8.834 -1.5332  1.3068 -2.3286
 1820SOL    HW217094   0.981   0.588   8.891 -0.8699 -0.3361 -0.3860
 1821SOL     OW17095   3.667   1.512  17.180  0.0482 -0.1229 -0.2329
 1821SOL    HW117096   3.631   1.424  17.175  2.7957 -1.0197 -4.6115
 1821SOL    HW217097   3.700   1.515  17.270 -2.2584 -0.6817  0.6330
 1822SOL     OW17098   3.290   4.404   2.192 -0.3828  0.1942  0.1385
 1822SOL    HW117099   3.347   4.481   2.196 -0.9316  0.6902 -1.6193
 1822SOL    HW217100   3.227   4.418   2.263 -0.9493 -2.6303  0.2200
 1823SOL     OW17101   2.169   3.181   3.078 -0.7087 -0.6925 -0.5627
 1823SOL    HW117102   2.247   3.227   3.047 -0.7325 -0.4890 -0.3175
 1823SOL    HW217103   2.177   3.182   3.174  2.0420  1.8492 -0.8179
 1824SOL     OW17104   1.033   0.196  16.165 -0.0609  0.0232  0.1411
 1824SOL    HW117105   1.034   0.265  16.231  0.9635  1.0516 -0.9365
 1824SOL    HW217106   1.072   0.130  16.221  0.1822  0.5343  0.5768
 1825SOL     OW17107   3.682   0.595  10.429  0.9579  0.9361 -0.0842
 1825SOL    HW117108   3.726   0.521  10.388 -0.1882  0.6280 -0.7362
 1825SOL    HW217109   3.648   0.544  10.503 -1.7793 -0.0778 -2.0560
 1826SOL     OW17110   1.667   3.756   4.785  0.7963  0.2415  0.8819
 1826SOL    HW117111   1.641   3.847   4.767 -1.6372 -0.7436 -0.4832
 1826SOL    HW217112   1.752   3.745   4.743 -0.2969 -2.0139 -0.6994
 1827SOL     OW17113   2.071   1.075   9.109 -0.0943  0.4079  0.4275
 1827SOL    HW117114   2.019   1.042   9.182 -0.6938 -0.2969 -0.3233
 1827SOL    HW217115   1.995   1.074   9.051 -0.7027  2.3695  1.2215
 1828SOL     OW17116   3.383   4.358   1.583 -0.7047 -0.2827 -0.2142
 1828SOL    HW117117   3.410   4.425   1.521 -1.6322 -0.9446 -1.3481
 1828SOL    HW217118   3.362   4.285   1.525 -2.9248  1.8097 -2.0389
 1829SOL     OW17119   2.288   1.155   5.065 -0.5664  0.2564  0.7233
 1829SOL    HW117120   2.280   1.238   5.017  0.9580  0.1831  0.3473
 1829SOL    HW217121   2.228   1.098   5.017  1.2692 -0.2104 -1.0151
 1830SOL     OW17122   1.557   1.897   5.679  0.6309  0.3549  0.3607
 1830SOL    HW117123   1.550   1.912   5.584  0.2446 -2.4829 -0.0684
 1830SOL    HW217124   1.622   1.826   5.678 -1.6881 -1.7617 -1.7674
 1831SOL     OW17125   1.767   1.694   2.568  0.1714  0.6890 -0.9571
 1831SOL    HW117126   1.811   1.752   2.631  0.0978  0.1565 -0.4089
 1831SOL    HW217127   1.743   1.758   2.501 -0.9170  1.9446  0.6407
 1832SOL     OW17128   0.553   0.878   7.851 -0.3338 -0.1069 -0.7700
 1832SOL    HW117129   0.631   0.934   7.845 -0.0733 -0.2715  1.0117
 1832SOL    HW217130   0.591   0.790   7.854  1.0754  0.5680  1.2143
 1833SOL     OW17131   4.702   3.125   1.553 -0.0100  0.0539 -0.0796
 1833SOL    HW117132   4.735   3.037   1.570 -1.3886 -0.0500  2.0451
 1833SOL    HW217133   0.001   3.122   1.466 -0.8486 -1.1251 -0.4320
 1834SOL     OW17134   4.194   2.327   8.620 -0.1632 -0.1276 -0.1397
 1834SOL    HW117135   4.182   2.422   8.623  2.0765  0.1440  0.4066
 1834SOL    HW217136   4.160   2.299   8.706  2.0227  1.6507  1.2813
 1835SOL     OW17137   2.031   2.390   1.306  0.9390 -0.1390  0.1884
 1835SOL    HW117138   2.076   2.427   1.382  0.7671 -0.8627  0.6363
 1835SOL    HW217139   2.108   2.388   1.249  1.5965  1.4363  1.0301
 1836SOL     OW17140   2.863   1.567   3.852  0.2454 -0.6883 -0.2210
 1836SOL    HW117141   2.819   1.590   3.770  0.3757 -0.7213 -0.3008
 1836SOL    HW217142   2.883   1.475   3.834  0.5829 -0.5380 -0.6285
 1837SOL     OW17143   4.102   1.246  11.433 -0.8503 -0.3503  0.1046
 1837SOL    HW117144   4.130   1.281  11.517  1.7221 -0.9422 -0.4991
 1837SOL    HW217145   4.052   1.167  11.451 -2.4019  1.0570  1.9638
 1838SOL     OW17146   1.165   4.296   3.824 -0.3078 -0.2028 -0.1147
 1838SOL    HW117147   1.111   4.268   3.750  0.4144 -0.6436 -0.4778
 1838SOL    HW217148   1.171   4.213   3.872 -1.1462  0.4788  1.1594
 1839SOL     OW17149   1.940   2.725   4.700 -0.1719  0.5044 -0.0458
 1839SOL    HW117150   2.011   2.743   4.762  0.6654  2.1115 -1.4813
 1839SOL    HW217151   1.913   2.815   4.682 -0.6575  0.2720 -0.5047
 1840SOL     OW17152   4.648   0.592  13.518 -0.0744  0.1559  0.1155
 1840SOL    HW117153   4.700   0.530  13.466  0.5886  2.0142 -1.4062
 1840SOL    HW217154   4.676   0.559  13.604 -0.3441  1.6131  0.7639
 1841SOL     OW17155   4.213   4.349  11.755 -0.6134  0.0575  0.5643
 1841SOL    HW117156   4.233   4.358  11.849  2.6914 -1.0027 -0.0336
 1841SOL    HW217157   4.205   4.255  11.738 -0.8939 -0.2823  2.4790
 1842SOL     OW17158   4.264   0.059  15.138 -0.5661  0.3969  0.3849
 1842SOL    HW117159   4.188   0.002  15.127 -0.4051  0.2187  0.1786
 1842SOL    HW217160   4.213   0.137  15.158  0.8401  1.2625  0.6105
 1843SOL     OW17161   2.507   0.072   6.035  0.1935  0.4542 -0.0602
 1843SOL    HW117162   2.570   0.030   6.095  0.4874  0.0501 -0.6551
 1843SOL    HW217163   2.499   0.001   5.971  1.5958 -2.0220  2.4882
 1844SOL     OW17164   1.395   1.674  16.328 -0.1330 -0.2978  0.0385
 1844SOL    HW117165   1.429   1.607  16.387 -0.0421  0.2825  0.6470
 1844SOL    HW217166   1.477   1.713  16.298  0.2257 -0.1290  1.2278
 1845SOL     OW17167   0.897   4.725   9.694 -0.5357 -0.2286 -0.0649
 1845SOL    HW117168   0.966   0.045   9.669  0.8265 -0.5720  2.8407
 1845SOL    HW217169   0.887   4.678   9.612  0.5229  0.7442 -0.7509
 1846SOL     OW17170   2.130   4.344   6.374  0.0510 -0.5126  0.0830
 1846SOL    HW117171   2.134   4.367   6.282  2.9205  0.2737  0.4077
 1846SOL    HW217172   2.179   4.414   6.416 -0.9413  0.2912 -0.0957
 1847SOL     OW17173   1.136   0.760   7.302 -0.5638  0.1506  0.5548
 1847SOL    HW117174   1.068   0.705   7.341 -0.3336 -0.5956 -0.1029
 1847SOL    HW217175   1.179   0.803   7.376  0.8675  1.4647 -1.0362
 1848SOL     OW17176   0.722   3.688  13.961  0.6813  0.4032  0.0534
 1848SOL    HW117177   0.730   3.615  13.899 -2.1310  1.6052 -1.7099
 1848SOL    HW217178   0.716   3.765  13.905 -0.3371 -0.4331 -0.9938
 1849SOL     OW17179   3.252   0.723   5.734  0.1506  0.5783 -0.7532
 1849SOL    HW117180   3.177   0.773   5.701 -0.5794  0.4301  0.6676
 1849SOL    HW217181   3.215   0.702   5.819  2.2895  0.7262  0.2062
 1850SOL     OW17182   3.942   0.349   6.740 -0.2611 -0.7704  0.3692
 1850SOL    HW117183   3.862   0.402   6.749 -0.3264 -0.7816 -0.1650
 1850SOL    HW217184   3.999   0.418   6.707 -0.7232 -0.0039  1.1716
 1851SOL     OW17185   3.102   3.344   9.165 -0.4098 -0.9242  0.5074
 1851SOL    HW117186   3.068   3.391   9.241 -1.6021 -1.4290  0.2844
 1851SOL    HW217187   3.183   3.395   9.153 -0.3178 -0.7149  1.9665
 1852SOL     OW17188   1.938   2.410  13.126 -0.4599 -0.1294 -0.4291
 1852SOL    HW117189   1.973   2.341  13.070  0.5481  0.0831 -0.0531
 1852SOL    HW217190   1.932   2.363  13.209  1.3005 -2.1705 -1.4611
 1853SOL     OW17191   3.277   3.520   5.515  0.8906 -0.3067 -0.1505
 1853SOL    HW117192   3.254   3.513   5.422 -1.2161 -2.1067  0.4930
 1853SOL    HW217193   3.230   3.444   5.551  0.5085 -1.8178 -3.8885
 1854SOL     OW17194   1.284   0.834   5.919  0.2102  0.3659  0.4987
 1854SOL    HW117195   1.312   0.908   5.865  1.4804  0.0502  0.7174
 1854SOL    HW217196   1.364   0.806   5.963  0.9203  0.5591 -0.6902
 1855SOL     OW17197   3.836   0.170   5.203 -0.6557 -0.1606 -0.2140
 1855SOL    HW117198   3.919   0.218   5.211 -1.0295  0.5404 -0.5041
 1855SOL    HW217199   3.785   0.206   5.276  1.9783 -0.4561  1.7528
 1856SOL     OW17200   3.033   1.628   4.536 -0.0139  0.6554 -0.3877
 1856SOL    HW117201   2.986   1.547   4.519  0.6188 -0.3045  2.4219
 1856SOL    HW217202   3.024   1.634   4.631 -0.9109 -0.8903 -0.3871
 1857SOL     OW17203   2.466   3.482   8.417  0.1172  0.0353 -0.2473
 1857SOL    HW117204   2.434   3.474   8.327  2.1803  2.4235 -1.1769
 1857SOL    HW217205   2.558   3.459   8.406  0.5937  0.8363  2.1925
 1858SOL     OW17206   4.403   1.155   5.125  0.1255  0.0889  0.5181
 1858SOL    HW117207   4.429   1.244   5.101  0.0468  0.5091  1.9935
 1858SOL    HW217208   4.484   1.107   5.142 -0.2169 -1.0466 -1.1139
 1859SOL     OW17209   3.139   2.441   4.843 -0.2469 -0.3881  0.3360
 1859SOL    HW117210   3.049   2.469   4.825  0.2671  0.8900 -0.2597
 1859SOL    HW217211   3.139   2.413   4.935 -0.4758 -2.3051 -0.2448
 1860SOL     OW17212   0.686   0.375   7.150 -0.4650  0.0598  0.6882
 1860SOL    HW117213   0.735   0.310   7.100 -2.0185  0.4552 -1.3262
 1860SOL    HW217214   0.693   0.445   7.086 -1.6150  0.6800  1.2508
 1861SOL     OW17215   2.368   1.620   2.668  0.3501 -0.0516 -0.0677
 1861SOL    HW117216   2.438   1.680   2.693  1.4667 -0.7057 -1.5800
 1861SOL    HW217217   2.389   1.625   2.575  1.6906  0.8760  0.2841
 1862SOL     OW17218   2.807   3.752   2.092  0.0702  0.5148 -0.6200
 1862SOL    HW117219   2.891   3.759   2.047 -0.8086  2.4036 -1.9248
 1862SOL    HW217220   2.755   3.756   2.012  0.7102  0.4893 -1.0328
 1863SOL     OW17221   2.424   1.515   1.013  0.2711  0.1987  0.0728
 1863SOL    HW117222   2.406   1.560   0.930  3.4640 -1.1649 -1.3352
 1863SOL    HW217223   2.435   1.426   0.981  2.0522 -0.0348  1.3366
 1864SOL     OW17224   1.917   3.045   6.619 -0.8482  0.2981  0.2902
 1864SOL    HW117225   1.902   3.056   6.526 -1.3251 -0.3836  0.2843
 1864SOL    HW217226   2.009   3.072   6.626 -1.1472  2.0062 -2.7535
 1865SOL     OW17227   3.418   0.986  11.406 -0.2683 -0.0631 -0.3879
 1865SOL    HW117228   3.402   1.078  11.386  2.7804  0.7367  0.7851
 1865SOL    HW217229   3.350   0.938  11.359  0.4061 -0.9078 -0.5070
 1866SOL     OW17230   2.975   3.859   4.681 -0.0400 -0.0037 -0.7246
 1866SOL    HW117231   3.035   3.793   4.717  0.9965  2.8421  2.7759
 1866SOL    HW217232   3.027   3.884   4.605  0.8031 -5.2888 -1.9043
 1867SOL     OW17233   2.521   0.506   0.087  0.3464  0.8059  0.4424
 1867SOL    HW117234   2.474   0.521   0.005 -0.1029  1.6507  0.8598
 1867SOL    HW217235   2.595   0.566   0.073 -0.0850  1.0215 -0.9242
 1868SOL     OW17236   4.302   3.822   4.538  0.1223  0.1733 -0.0237
 1868SOL    HW117237   4.372   3.782   4.590  1.6654  0.7652 -1.6268
 1868SOL    HW217238   4.269   3.743   4.497 -1.0487  0.8447 -0.3544
 1869SOL     OW17239   3.324   3.996   4.313  0.1279  0.4197 -0.5818
 1869SOL    HW117240   3.379   3.960   4.244 -1.6606 -2.2671 -0.6081
 1869SOL    HW217241   3.388   4.058   4.348  0.4264  1.2210 -2.5549
 1870SOL     OW17242   0.668   2.604   5.799  0.4443 -0.6666  0.5393
 1870SOL    HW117243   0.623   2.660   5.862  0.6164  0.1085 -0.0206
 1870SOL    HW217244   0.679   2.522   5.847 -0.2127 -0.6204  0.7654
 1871SOL     OW17245   1.742   2.538  12.703 -0.8192 -0.3263  0.3226
 1871SOL    HW117246   1.825   2.509  12.740  0.7488  0.9166 -2.2133
 1871SOL    HW217247   1.760   2.486  12.625 -0.2155 -1.4076  1.1819
 1872SOL     OW17248   2.502   3.952  15.917  0.5084  0.0080 -0.0365
 1872SOL    HW117249   2.590   3.927  15.946  0.8348  0.7484 -0.3762
 1872SOL    HW217250   2.517   4.045  15.897  1.9575 -0.0056  0.9687
 1873SOL     OW17251   0.901   0.511   1.948 -0.6398 -0.1759  0.4341
 1873SOL    HW117252   0.921   0.453   2.022 -1.9767 -0.0642  0.8896
 1873SOL    HW217253   0.923   0.595   1.988  1.7290  0.4382 -2.1626
 1874SOL     OW17254   0.362   1.676   8.936  0.2122  0.3036  1.5533
 1874SOL    HW117255   0.275   1.703   8.967 -0.7831 -0.6716 -0.4121
 1874SOL    HW217256   0.407   1.760   8.947  0.6989  0.3462 -0.6581
 1875SOL     OW17257   2.926   1.762   4.285  0.1881 -0.0451 -0.9363
 1875SOL    HW117258   2.970   1.729   4.363 -1.7828 -1.6458 -0.5083
 1875SOL    HW217259   2.948   1.855   4.297 -2.5864  0.3323  1.0015
 1876SOL     OW17260   3.041   2.702  13.069  0.5391  0.0317  0.7961
 1876SOL    HW117261   3.106   2.645  13.028 -1.3239 -3.5937  2.8619
 1876SOL    HW217262   3.020   2.765  13.000 -0.9005 -1.4241 -0.0744
 1877SOL     OW17263   3.010   1.416   6.382  0.0701 -0.3169  0.2309
 1877SOL    HW117264   3.045   1.456   6.302  1.4270 -1.3189  0.3066
 1877SOL    HW217265   2.922   1.453   6.377 -0.8705 -2.2975  2.1777
 1878SOL     OW17266   1.629   1.594  16.828  0.0779 -0.3970 -0.2304
 1878SOL    HW117267   1.657   1.663  16.768 -1.2009 -0.7900 -1.2839
 1878SOL    HW217268   1.536   1.583  16.807 -0.2797  1.4855  0.3937
 1879SOL     OW17269   0.569   3.180   0.456 -0.6001  0.2617  0.4104
 1879SOL    HW117270   0.620   3.115   0.505 -0.9535  1.2690  2.1080
 1879SOL    HW217271   0.560   3.248   0.523  0.2893 -0.6894  1.4864
 1880SOL     OW17272   3.691   0.510   5.118 -0.5436 -0.2698  0.1972
 1880SOL    HW117273   3.651   0.506   5.032 -0.4368 -0.5633  0.1607
 1880SOL    HW217274   3.691   0.605   5.131 -0.0180 -0.0393 -1.5878
 1881SOL     OW17275   3.171   3.992  11.224  0.5928 -0.1689 -0.2447
 1881SOL    HW117276   3.137   4.081  11.235  1.7963 -0.0294  2.3155
 1881SOL    HW217277   3.133   3.953  11.303  2.3375 -0.5161  0.4244
 1882SOL     OW17278   4.381   3.056   4.023  0.5038 -0.0905  0.1527
 1882SOL    HW117279   4.405   3.142   4.058  0.4951  0.3169 -0.8438
 1882SOL    HW217280   4.424   3.067   3.939 -1.2805  3.8265 -0.2252
 1883SOL     OW17281   0.903   0.799  12.066  0.2977  0.3072 -0.2569
 1883SOL    HW117282   0.911   0.865  12.135  0.9910 -1.4596  1.3682
 1883SOL    HW217283   0.995   0.770  12.059 -0.7457 -2.6281 -1.9579
 1884SOL     OW17284   4.439   4.478  10.189 -0.0458  0.2978 -0.6845
 1884SOL    HW117285   4.363   4.495  10.246  1.0665  3.2918 -0.1034
 1884SOL    HW217286   4.432   4.566  10.154  0.0195 -0.0476 -1.5551
 1885SOL     OW17287   1.702   4.676   7.482 -0.1018 -0.0984 -0.3383
 1885SOL    HW117288   1.767   4.657   7.414  1.2962  1.2284  0.6091
 1885SOL    HW217289   1.731   0.026   7.480  0.5029 -0.2958 -0.6664
 1886SOL     OW17290   3.952   3.561  14.547  1.1077 -0.2737  0.2462
 1886SOL    HW117291   3.873   3.591  14.592 -0.5598 -3.9662 -0.1693
 1886SOL    HW217292   3.911   3.510  14.478  0.3053  2.6148 -1.3826
 1887SOL     OW17293   0.981   4.397  15.454  0.5597  0.0399 -0.0730
 1887SOL    HW117294   1.023   4.314  15.475  1.1547  0.4575  0.3728
 1887SOL    HW217295   0.907   4.409  15.513  1.5302  1.7907  0.7822
 1888SOL     OW17296   1.692   3.488  12.663  0.3494 -0.7006  0.7968
 1888SOL    HW117297   1.674   3.489  12.757  0.2784  0.4472  0.7726
 1888SOL    HW217298   1.631   3.418  12.639 -0.1611  0.2411 -0.6688
 1889SOL     OW17299   2.684   4.281  14.515 -0.7874  0.4245  0.4175
 1889SOL    HW117300   2.760   4.329  14.480  0.4408 -1.0028  1.1265
 1889SOL    HW217301   2.657   4.325  14.595 -1.6803  3.2411 -1.4193
 1890SOL     OW17302   0.880   4.254   9.003  0.5986  0.3765 -0.0397
 1890SOL    HW117303   0.958   4.227   8.954 -0.0971 -1.3189 -0.2232
 1890SOL    HW217304   0.921   4.307   9.071  0.1784  0.0132  0.4960
 1891SOL     OW17305   1.139   0.454  12.204  0.1372 -0.2132 -0.4277
 1891SOL    HW117306   1.191   0.410  12.271  0.9367  0.0044 -0.8906
 1891SOL    HW217307   1.065   0.487  12.254 -0.2217 -0.5745 -0.7265
 1892SOL     OW17308   3.182   0.370   3.274  0.0068  0.0934 -0.4418
 1892SOL    HW117309   3.123   0.396   3.345  0.1924  1.1983 -0.6920
 1892SOL    HW217310   3.131   0.357   3.194 -0.1802  1.4011 -0.5391
 1893SOL     OW17311   3.329   2.002   6.081 -0.3372  0.0944 -0.2754
 1893SOL    HW117312   3.286   1.917   6.092  1.6354 -0.9597 -0.6280
 1893SOL    HW217313   3.423   1.990   6.070 -0.1255  1.2003  0.3855
 1894SOL     OW17314   4.666   4.707   4.096  0.1579 -0.1816 -0.0058
 1894SOL    HW117315   4.694   4.616   4.094 -1.4551 -0.6620 -1.4512
 1894SOL    HW217316   4.577   4.694   4.062  0.1059 -3.2556  1.2775
 1895SOL     OW17317   1.812   4.578  12.312  1.0433  0.7431 -0.7785
 1895SOL    HW117318   1.829   4.496  12.357  1.5113  0.4445 -1.4926
 1895SOL    HW217319   1.839   4.641  12.379 -1.3434  2.0256 -1.0126
 1896SOL     OW17320   1.236   3.428   1.560 -0.1616 -0.4924  0.5336
 1896SOL    HW117321   1.331   3.436   1.568  0.1375 -1.9133 -1.4442
 1896SOL    HW217322   1.198   3.469   1.637 -0.8437  0.7018 -0.4414
 1897SOL     OW17323   1.696   0.621   2.351  0.3247 -0.2582  0.1448
 1897SOL    HW117324   1.693   0.684   2.278  0.4068 -1.6873 -1.1082
 1897SOL    HW217325   1.727   0.545   2.301 -1.3805 -1.6100  1.1581
 1898SOL     OW17326   1.071   3.081   4.696  0.0338  0.1604 -0.5189
 1898SOL    HW117327   1.023   3.143   4.751 -0.6754 -1.5797  0.8461
 1898SOL    HW217328   1.023   3.089   4.614 -3.0513  0.1843  1.3028
 1899SOL     OW17329   3.819   4.138   8.425  0.3646  0.6849  0.1399
 1899SOL    HW117330   3.892   4.083   8.395 -1.5971 -1.1230 -1.4197
 1899SOL    HW217331   3.802   4.104   8.513 -0.8257  1.0485  0.0542
 1900SOL     OW17332   0.755   1.601  13.670  0.6419 -0.3860  0.1780
 1900SOL    HW117333   0.696   1.623  13.599  0.3653  0.2848  0.6133
 1900SOL    HW217334   0.698   1.551  13.728 -0.0328  1.5092  1.1443
 1901SOL     OW17335   2.579   3.456   5.362 -0.0347  0.5883 -0.2970
 1901SOL    HW117336   2.628   3.405   5.428  0.2945  0.3475 -0.7262
 1901SOL    HW217337   2.578   3.541   5.406  2.3483  0.6061 -0.2426
 1902SOL     OW17338   0.215   4.306   2.195 -0.6418 -0.2612 -0.5883
 1902SOL    HW117339   0.208   4.214   2.220 -0.4435 -0.2015 -0.3083
 1902SOL    HW217340   0.121   4.324   2.185 -0.9409 -0.2259  2.0902
 1903SOL     OW17341   1.627   3.230  10.755 -0.2085 -0.0125  0.2860
 1903SOL    HW117342   1.542   3.215  10.796  0.5115 -2.0416  1.0633
 1903SOL    HW217343   1.636   3.148  10.706  3.3883  0.2555  0.4777
 1904SOL     OW17344   0.212   2.083   8.552  0.0521 -0.0955 -0.1286
 1904SOL    HW117345   0.164   2.165   8.563 -1.2382 -0.4978 -2.7534
 1904SOL    HW217346   0.144   2.028   8.512  0.9289 -0.9685 -0.4218
 1905SOL     OW17347   4.603   3.255   5.594  0.8643  0.3001  0.3242
 1905SOL    HW117348   4.672   3.276   5.530  0.1209 -0.4879 -0.7411
 1905SOL    HW217349   4.649   3.197   5.655  0.6497  0.1623  0.3523
 1906SOL     OW17350   3.665   1.881  15.820 -0.3755 -0.6862  0.0565
 1906SOL    HW117351   3.622   1.868  15.735 -0.5167  0.8776 -0.1077
 1906SOL    HW217352   3.729   1.810  15.820 -0.1941 -0.5196 -0.4860
 1907SOL     OW17353   4.041   3.969   8.393  0.2237 -0.5091 -0.8244
 1907SOL    HW117354   4.017   3.915   8.319  0.9487  0.1455 -1.5364
 1907SOL    HW217355   4.100   3.912   8.442  0.7830 -1.5306 -2.7233
 1908SOL     OW17356   1.315   1.368  12.225  0.4219 -0.5108  0.4554
 1908SOL    HW117357   1.323   1.355  12.320  3.7447 -0.0266  0.2521
 1908SOL    HW217358   1.388   1.317  12.192 -1.2197 -1.5874 -1.4655
 1909SOL     OW17359   2.046   0.551  15.412 -0.0979  0.2484  0.0098
 1909SOL    HW117360   2.096   0.469  15.410 -2.3004 -1.1050  0.5586
 1909SOL    HW217361   1.963   0.527  15.371  0.4661 -0.5514 -0.6826
 1910SOL     OW17362   3.063   0.255  14.478  0.1421 -1.0287 -0.1616
 1910SOL    HW117363   3.158   0.250  14.468 -0.0650 -1.7838 -1.7727
 1910SOL    HW217364   3.063   0.306  14.559  2.3370 -0.7523 -0.3443
 1911SOL     OW17365   4.619   3.219   0.826 -0.5684  0.1832 -0.0293
 1911SOL    HW117366   4.706   3.256   0.839 -2.0031  3.9862 -1.4401
 1911SOL    HW217367   4.572   3.249   0.904 -1.9266  0.5218 -0.9762
 1912SOL     OW17368   3.393   1.716   6.048 -0.3660  0.2219 -0.1055
 1912SOL    HW117369   3.316   1.723   6.105  0.4381  2.5918  0.6880
 1912SOL    HW217370   3.464   1.717   6.112 -0.0740  0.3111 -0.4297
 1913SOL     OW17371   4.094   0.096  11.331 -1.0652 -0.0399  0.1132
 1913SOL    HW117372   4.034   0.038  11.284 -2.5619  0.7409  1.0351
 1913SOL    HW217373   4.177   0.048  11.327 -0.1949  1.6267 -1.6847
 1914SOL     OW17374   2.308   0.981  11.112  0.3874  0.0319  0.0024
 1914SOL    HW117375   2.239   0.928  11.072  0.6764 -1.7827  1.9735
 1914SOL    HW217376   2.382   0.921  11.110  0.5258  0.1596  1.5278
 1915SOL     OW17377   3.803   0.575   0.784  0.1066 -0.4353  0.2775
 1915SOL    HW117378   3.885   0.540   0.821  0.6040 -1.7934 -2.0838
 1915SOL    HW217379   3.739   0.505   0.794  0.1981 -0.7452 -1.2163
 1916SOL     OW17380   4.407   2.837   6.490  0.9394 -0.1429  0.4364
 1916SOL    HW117381   4.438   2.915   6.537 -0.8232  1.7562 -1.5159
 1916SOL    HW217382   4.475   2.775   6.514  2.0209  0.2394 -1.6661
 1917SOL     OW17383   3.417   1.267   1.572  0.3266  0.0642 -0.2547
 1917SOL    HW117384   3.371   1.338   1.616 -0.7374 -0.2481 -0.8830
 1917SOL    HW217385   3.484   1.322   1.532  1.8979 -1.0514  0.8363
 1918SOL     OW17386   3.727   2.494   7.523  0.1628 -0.1541  0.5788
 1918SOL    HW117387   3.788   2.500   7.449  1.4485  3.0873  1.9035
 1918SOL    HW217388   3.772   2.447   7.593  0.9102 -0.7673 -0.3095
 1919SOL     OW17389   3.995   4.292  17.673 -0.0365  0.5145 -0.4234
 1919SOL    HW117390   4.059   4.321  17.738 -0.1114 -0.8323  0.2628
 1919SOL    HW217391   3.930   4.265  17.739  1.0332  0.3177  0.5452
 1920SOL     OW17392   0.863   0.333   1.400  0.0954  0.5833  0.2158
 1920SOL    HW117393   0.875   0.410   1.346  0.9652  0.6240  0.4566
 1920SOL    HW217394   0.807   0.285   1.340 -0.1506 -1.6451  2.2285
 1921SOL     OW17395   3.801   0.868   7.080  0.5811  0.7603  0.9272
 1921SOL    HW117396   3.773   0.958   7.066  0.0283  0.2022 -1.5833
 1921SOL    HW217397   3.811   0.858   7.174 -1.0657  0.9455  1.1324
 1922SOL     OW17398   4.338   2.891   8.568  0.4766  0.8405 -0.0927
 1922SOL    HW117399   4.426   2.885   8.605  0.2319 -0.9107  0.1719
 1922SOL    HW217400   4.360   2.909   8.476 -0.5661  0.9054 -0.3271
 1923SOL     OW17401   4.652   3.790   1.322  0.0480 -0.0237 -0.0779
 1923SOL    HW117402   4.653   3.749   1.409 -2.1025  0.5676  0.2506
 1923SOL    HW217403   4.676   3.716   1.268 -0.4918 -1.5460  1.7575
 1924SOL     OW17404   3.802   0.270  11.368  0.3172  0.0605  0.1047
 1924SOL    HW117405   3.830   0.353  11.408 -3.3437  1.0078  0.7143
 1924SOL    HW217406   3.777   0.217  11.444 -1.2741  2.0088  0.9434
 1925SOL     OW17407   4.063   1.538   0.313 -0.0548  0.4625 -0.4995
 1925SOL    HW117408   4.118   1.460   0.324  2.2292  2.2640  0.8259
 1925SOL    HW217409   4.121   1.600   0.357  2.4609 -1.2211 -1.4450
 1926SOL     OW17410   2.957   1.140   6.678 -0.5783 -0.1911  0.0560
 1926SOL    HW117411   2.904   1.069   6.715  2.5243 -3.0457 -0.9107
 1926SOL    HW217412   2.948   1.213   6.739 -1.9425  0.2107 -0.6240
 1927SOL     OW17413   1.791   1.193   7.091  0.2411  0.1997 -0.0831
 1927SOL    HW117414   1.729   1.121   7.086  0.5763 -0.2038  1.5215
 1927SOL    HW217415   1.738   1.272   7.093 -0.6251 -0.3833 -0.1578
 1928SOL     OW17416   1.678   1.665   4.655  0.0009  0.4552  0.2603
 1928SOL    HW117417   1.765   1.706   4.658  0.2688 -0.2715  1.9826
 1928SOL    HW217418   1.679   1.643   4.562 -2.5371 -2.0222  0.8345
 1929SOL     OW17419   0.880   3.661   0.550  0.3502 -0.1070 -0.1028
 1929SOL    HW117420   0.949   3.606   0.511 -0.8210 -2.1813  0.7903
 1929SOL    HW217421   0.801   3.637   0.502  0.3119 -0.2048  0.0078
 1930SOL     OW17422   3.712   3.506   3.868 -0.3917  0.0924 -0.4788
 1930SOL    HW117423   3.672   3.455   3.798 -3.1279  1.2132  0.2467
 1930SOL    HW217424   3.703   3.443   3.939  1.0733 -0.1965 -0.5477
 1931SOL     OW17425   4.732   0.572  11.853 -0.0425  0.2499 -0.4132
 1931SOL    HW117426   4.642   0.600  11.874 -0.0063 -0.0117  0.0914
 1931SOL    HW217427   0.030   0.555  11.939 -2.1049 -2.5690 -0.0465
 1932SOL     OW17428   2.153   0.909   2.403 -0.4754  0.4451 -0.0806
 1932SOL    HW117429   2.075   0.964   2.400 -0.5054  0.3130 -1.7902
 1932SOL    HW217430   2.133   0.844   2.335  3.0269 -2.3471  1.5871
 1933SOL     OW17431   2.563   1.158   7.640  0.1719 -0.3264  0.4342
 1933SOL    HW117432   2.514   1.225   7.592 -0.2215 -0.9215  0.0119
 1933SOL    HW217433   2.511   1.152   7.720 -0.8097  1.1938 -0.0890
 1934SOL     OW17434   3.776   0.723   7.558 -0.4076  0.1004 -0.4806
 1934SOL    HW117435   3.757   0.730   7.652  1.8438 -0.8112  0.0350
 1934SOL    HW217436   3.690   0.704   7.521  0.4632  1.2212 -3.0787
 1935SOL     OW17437   3.082   2.113   0.552 -0.2780  0.4174  0.1615
 1935SOL    HW117438   3.040   2.118   0.466 -0.7453  0.9397  0.4234
 1935SOL    HW217439   3.153   2.052   0.531 -0.5753  0.6933 -1.6268
 1936SOL     OW17440   3.464   3.047  15.931  0.2727 -0.2905  0.8205
 1936SOL    HW117441   3.519   2.973  15.905  1.7313  1.2678 -0.5914
 1936SOL    HW217442   3.529   3.109  15.964 -1.9291  1.8878  1.1115
 1937SOL     OW17443   1.481   1.899   3.160 -0.2666 -0.8531  0.3545
 1937SOL    HW117444   1.411   1.963   3.145 -0.9595 -0.5768  4.5512
 1937SOL    HW217445   1.490   1.873   3.069 -1.2988  2.6684 -0.7760
 1938SOL     OW17446   3.016   3.164   0.063  0.8733  0.2212 -0.0439
 1938SOL    HW117447   2.928   3.192   0.090  0.6375 -1.7112  1.2389
 1938SOL    HW217448   3.030   3.236   0.002  2.8620 -0.7223 -0.6978
 1939SOL     OW17449   3.544   0.914   4.982 -0.9370  0.1100  0.3091
 1939SOL    HW117450   3.500   0.994   5.012  0.4649 -0.0551  2.8220
 1939SOL    HW217451   3.472   0.870   4.938 -1.4246  1.9314 -0.7095
 1940SOL     OW17452   4.048   3.896   6.988  0.1016 -0.1037  0.3943
 1940SOL    HW117453   3.996   3.826   6.948  1.2635 -1.5942  1.5122
 1940SOL    HW217454   4.131   3.853   7.005  0.7423  1.1366  0.3765
 1941SOL     OW17455   3.702   0.490   6.798 -0.2494  0.1245 -0.1542
 1941SOL    HW117456   3.716   0.501   6.892  0.7571  2.4601 -0.5651
 1941SOL    HW217457   3.662   0.573   6.770 -0.9166  0.0487  0.5529
 1942SOL     OW17458   0.594   3.096   9.105  0.0075 -0.5873  0.1070
 1942SOL    HW117459   0.581   3.018   9.052 -1.6211 -0.6167  0.5713
 1942SOL    HW217460   0.639   3.149   9.039  0.0224 -0.1225  0.4854
 1943SOL     OW17461   4.601   4.493  15.392  0.3397  0.4854  0.2453
 1943SOL    HW117462   4.623   4.549  15.318 -1.4651  0.2311 -0.4794
 1943SOL    HW217463   4.568   4.415  15.347 -1.0691  1.0186  0.3465
 1944SOL     OW17464   3.475   3.355   7.254 -0.3193  0.6524 -0.5584
 1944SOL    HW117465   3.542   3.407   7.210 -2.1179  3.1792 -0.3188
 1944SOL    HW217466   3.410   3.332   7.187  1.9187 -2.8461 -1.5382
 1945SOL     OW17467   0.025   3.672   6.019 -0.1745  0.1127 -0.1114
 1945SOL    HW117468   4.715   3.711   6.089 -2.2670 -2.8125 -0.0135
 1945SOL    HW217469   4.735   3.582   6.021 -1.6620  0.6431  0.0786
 1946SOL     OW17470   2.108   4.218   8.285 -0.2311  0.1799  0.2327
 1946SOL    HW117471   2.202   4.208   8.298 -0.2393 -1.8883 -1.1985
 1946SOL    HW217472   2.083   4.145   8.227  0.0445  1.9693 -2.1120
 1947SOL     OW17473   1.606   3.296  12.502 -0.2780 -0.1831 -0.3187
 1947SOL    HW117474   1.699   3.290  12.480 -0.7237 -3.0192 -1.4015
 1947SOL    HW217475   1.560   3.246  12.435 -0.3600 -1.4662  0.6878
 1948SOL     OW17476   1.590   0.739  14.023  0.6422 -0.1436  0.9240
 1948SOL    HW117477   1.653   0.741  14.095 -0.3783  0.5793  1.8082
 1948SOL    HW217478   1.540   0.818  14.045 -0.5087 -0.8168  0.7168
 1949SOL     OW17479   4.361   0.960  11.063 -0.0831 -0.8360  0.1811
 1949SOL    HW117480   4.446   1.002  11.064 -0.6255  0.2747 -3.8961
 1949SOL    HW217481   4.323   0.985  11.148 -2.0915 -0.1766 -0.9102
 1950SOL     OW17482   0.923   1.738   4.883 -0.5300  0.2051 -0.4738
 1950SOL    HW117483   1.017   1.724   4.871 -0.7650 -1.2012 -0.6508
 1950SOL    HW217484   0.916   1.803   4.953  1.5729  1.7570 -1.6635
 1951SOL     OW17485   2.745   0.472   0.605 -0.7667 -0.6218 -0.1392
 1951SOL    HW117486   2.787   0.497   0.523 -2.5703 -2.9410 -1.7875
 1951SOL    HW217487   2.823   0.461   0.659  0.5658  1.1762 -1.7148
 1952SOL     OW17488   0.630   0.352   2.467  0.1286  0.2803 -0.1107
 1952SOL    HW117489   0.612   0.388   2.554 -0.4519  1.5252 -0.7498
 1952SOL    HW217490   0.561   0.286   2.463 -0.0691  0.3064  2.5175
 1953SOL     OW17491   1.804   1.641  13.405  0.1198  0.0053 -0.5720
 1953SOL    HW117492   1.770   1.577  13.468 -1.4753 -0.0296 -1.4560
 1953SOL    HW217493   1.847   1.706  13.460  0.4821 -0.8830  0.1921
 1954SOL     OW17494   1.387   2.709   3.315  0.1379 -0.3506 -1.1201
 1954SOL    HW117495   1.437   2.630   3.336 -2.0432 -1.5704 -0.4596
 1954SOL    HW217496   1.318   2.709   3.382  1.1159 -0.3448 -0.1242
 1955SOL     OW17497   1.500   1.376   8.104  0.1209  0.1016 -0.0007
 1955SOL    HW117498   1.583   1.331   8.087  0.6591  1.0919 -0.0570
 1955SOL    HW217499   1.494   1.340   8.192  1.3963 -0.9677 -0.3527
 1956SOL     OW17500   0.709   4.358  11.434 -0.6009  0.5979 -0.3973
 1956SOL    HW117501   0.769   4.410  11.380  2.0625 -2.5314 -0.4149
 1956SOL    HW217502   0.700   4.293  11.364  0.5383 -0.9723  0.9469
 1957SOL     OW17503   1.572   0.945   5.032 -0.3031  0.0207  0.0131
 1957SOL    HW117504   1.588   0.857   5.066  0.7270  0.1208 -0.1906
 1957SOL    HW217505   1.484   0.944   4.996 -0.8194 -2.6101  1.3259
 1958SOL     OW17506   2.787   2.462  14.858  0.4896  0.1616  0.5860
 1958SOL    HW117507   2.716   2.403  14.833 -0.7887  1.3305  1.4485
 1958SOL    HW217508   2.848   2.455  14.785 -1.5198  0.9811 -1.1952
 1959SOL     OW17509   0.774   0.783   6.038 -0.2765  0.0468  0.3548
 1959SOL    HW117510   0.737   0.717   5.979  3.6352 -1.5012 -0.4239
 1959SOL    HW217511   0.841   0.822   5.981 -1.5006 -0.4180 -1.4186
 1960SOL     OW17512   0.532   0.109   6.529 -0.2230 -0.8012  0.3564
 1960SOL    HW117513   0.625   0.087   6.522  0.2378  1.8783 -2.1495
 1960SOL    HW217514   0.491   0.048   6.468  2.6134 -2.8670  0.4810
 1961SOL     OW17515   0.814   4.389   5.243 -0.4640 -0.1274  0.1225
 1961SOL    HW117516   0.862   4.352   5.168 -0.3914  2.5670 -1.1622
 1961SOL    HW217517   0.879   4.360   5.307 -0.9015 -1.0165  0.1670
 1962SOL     OW17518   4.496   2.612   2.010 -0.3096 -0.1015  0.0782
 1962SOL    HW117519   4.511   2.706   2.019  2.4630 -0.6872  1.4399
 1962SOL    HW217520   4.458   2.611   1.923  1.0582  0.3144 -0.5145
 1963SOL     OW17521   0.462   2.131   7.612  0.3383 -0.1619  0.5066
 1963SOL    HW117522   0.466   2.224   7.636  2.8192 -0.0539 -0.3258
 1963SOL    HW217523   0.390   2.097   7.665  1.1670 -1.0997  1.0329
 1964SOL     OW17524   3.455   2.570   5.192  0.0748 -0.2078  0.8579
 1964SOL    HW117525   3.430   2.494   5.140 -0.4120  1.5890 -1.5411
 1964SOL    HW217526   3.550   2.571   5.182 -0.0355 -3.4217 -0.6226
 1965SOL     OW17527   0.935   2.286  11.576 -0.1139  0.3789  0.4269
 1965SOL    HW117528   0.907   2.204  11.617 -3.0473  1.1616 -0.0187
 1965SOL    HW217529   0.916   2.352  11.643 -0.7695  0.0338  0.5823
 1966SOL     OW17530   2.423   0.299   5.432 -0.4015  0.2592 -0.2147
 1966SOL    HW117531   2.398   0.382   5.473  1.3412 -0.8366  3.0365
 1966SOL    HW217532   2.470   0.259   5.504  0.1183 -0.3257 -0.8747
 1967SOL     OW17533   1.475   2.453   8.400  1.0189 -0.1865  0.3132
 1967SOL    HW117534   1.494   2.391   8.471 -1.6020 -1.1928  0.1686
 1967SOL    HW217535   1.379   2.463   8.403  0.8858 -1.0088 -1.3088
 1968SOL     OW17536   3.125   1.591   4.853 -0.2948 -0.5896  0.2676
 1968SOL    HW117537   3.217   1.600   4.878 -0.6519 -0.0835  1.3640
 1968SOL    HW217538   3.149   1.514   4.802 -2.0150 -1.3749  0.6347
 1969SOL     OW17539   1.743   1.305   4.371 -0.0661 -0.5936 -0.3050
 1969SOL    HW117540   1.700   1.379   4.329  0.7444  1.0724  1.7557
 1969SOL    HW217541   1.725   1.225   4.322  0.2488 -0.6562 -0.3201
 1970SOL     OW17542   1.936   0.819   8.912  0.0673  0.8407 -0.7072
 1970SOL    HW117543   1.909   0.910   8.926 -0.1803  0.5388  0.7739
 1970SOL    HW217544   1.942   0.806   8.817  1.0820  0.8556 -0.6451
 1971SOL     OW17545   0.310   2.415  12.552 -0.3320  0.4626 -0.2526
 1971SOL    HW117546   0.323   2.372  12.468 -0.3101 -1.3039  0.6433
 1971SOL    HW217547   0.321   2.340  12.611 -1.3433 -0.0607 -0.7176
 1972SOL     OW17548   1.100   2.225   1.993  0.1960 -1.0347 -0.3471
 1972SOL    HW117549   1.192   2.247   1.980 -0.3172 -0.0825 -2.3638
 1972SOL    HW217550   1.073   2.284   2.064  0.7022 -0.0812 -0.9524
 1973SOL     OW17551   3.138   1.355   5.246  0.0248 -0.0727 -0.4110
 1973SOL    HW117552   3.169   1.336   5.334  1.6167  2.6562 -0.3888
 1973SOL    HW217553   3.096   1.275   5.214 -1.5965  0.3788  0.5988
 1974SOL     OW17554   2.758   2.891   4.581 -0.3856  0.0228  0.0895
 1974SOL    HW117555   2.751   2.816   4.521 -0.3277  1.5613 -1.8614
 1974SOL    HW217556   2.846   2.882   4.617 -1.2543  0.2953  2.2795
 1975SOL     OW17557   3.570   2.096   5.060  0.3156  0.1989 -0.0885
 1975SOL    HW117558   3.545   2.012   5.021  1.7748 -0.3453  0.1276
 1975SOL    HW217559   3.661   2.111   5.036  0.1981 -1.1293 -1.3536
 1976SOL     OW17560   2.159   2.021   3.677  0.2491  0.2040 -0.2558
 1976SOL    HW117561   2.209   1.940   3.678 -0.8327 -0.4547  1.1191
 1976SOL    HW217562   2.071   1.995   3.648 -0.4783  0.9251  1.3064
 1977SOL     OW17563   1.974   4.447   5.001  0.1501  0.6288 -0.2610
 1977SOL    HW117564   2.026   4.506   4.946  1.6811  0.6700  1.2273
 1977SOL    HW217565   1.944   4.376   4.944 -0.2892  1.7237 -1.3934
 1978SOL     OW17566   2.697   0.649  13.626 -0.1853  0.7905  0.0853
 1978SOL    HW117567   2.713   0.744  13.621 -1.3856  1.0263  0.5476
 1978SOL    HW217568   2.746   0.624  13.705  0.4331 -0.4474 -0.6929
 1979SOL     OW17569   4.143   3.447   3.354  0.0758  0.2291  0.8124
 1979SOL    HW117570   4.202   3.375   3.375  0.8367 -0.0102 -2.1008
 1979SOL    HW217571   4.100   3.466   3.437 -0.2344  0.2545  0.6454
 1980SOL     OW17572   2.114   0.851  11.000  0.0587  0.0952 -0.2866
 1980SOL    HW117573   2.109   0.910  10.925 -0.5015 -2.2870 -2.0951
 1980SOL    HW217574   2.107   0.766  10.958  0.7185  0.3367 -0.8862
 1981SOL     OW17575   0.157   2.853   6.277 -0.0908 -0.1842  0.1122
 1981SOL    HW117576   0.174   2.895   6.361 -0.0492  0.0871 -0.0308
 1981SOL    HW217577   0.064   2.872   6.264 -0.1719 -1.9709 -1.8395
 1982SOL     OW17578   0.364   4.310   5.019  0.3520  0.3984  0.0848
 1982SOL    HW117579   0.421   4.365   4.966  1.0243  0.7618  1.1714
 1982SOL    HW217580   0.435   4.259   5.057  1.7500  2.0541 -0.3234
 1983SOL     OW17581   4.692   3.943   5.860  0.0308 -0.3639 -0.0397
 1983SOL    HW117582   4.714   3.857   5.894 -0.4410 -0.5410 -0.1821
 1983SOL    HW217583   4.600   3.924   5.841  0.4459 -2.0404 -0.2853
 1984SOL     OW17584   1.986   4.653   6.233  0.2704 -0.1807  0.3476
 1984SOL    HW117585   1.952   4.565   6.243 -1.2392  0.2503 -0.9438
 1984SOL    HW217586   1.919   4.684   6.172  1.2514  0.1040 -0.5951
 1985SOL     OW17587   2.377   0.597  10.128 -0.1612  0.0505 -0.5041
 1985SOL    HW117588   2.455   0.589  10.073 -0.6775 -0.0514 -1.2075
 1985SOL    HW217589   2.346   0.685  10.107  0.3530  0.5255  0.6967
 1986SOL     OW17590   1.180   3.980  13.769  0.8072  0.5484  0.1581
 1986SOL    HW117591   1.233   3.913  13.725  0.4167 -1.4636  2.7511
 1986SOL    HW217592   1.245   4.003  13.835  0.8238 -0.3698  0.4561
 1987SOL     OW17593   2.061   4.503   5.938  0.8057 -0.4541 -0.2368
 1987SOL    HW117594   2.103   4.491   5.853  2.7468 -0.3162  0.7113
 1987SOL    HW217595   1.975   4.537   5.911  0.9016 -0.7452 -0.8991
 1988SOL     OW17596   3.698   0.092   7.751  0.2462 -0.4651  0.3845
 1988SOL    HW117597   3.779   0.093   7.803 -0.0616  1.9123  0.8201
 1988SOL    HW217598   3.633   0.083   7.821 -2.6764  2.0102 -2.0488
 1989SOL     OW17599   3.156   2.210   5.981 -0.3153 -0.4242  0.1750
 1989SOL    HW117600   3.183   2.189   5.891 -1.6350  0.8904 -0.5208
 1989SOL    HW217601   3.227   2.159   6.021 -0.0478  0.6220  1.0418
 1990SOL     OW17602   1.525   1.684   4.889  0.3292 -0.1600 -0.3815
 1990SOL    HW117603   1.545   1.595   4.920  0.6471 -0.1769 -0.6334
 1990SOL    HW217604   1.572   1.677   4.806 -2.0578  0.2989 -1.7402
 1991SOL     OW17605   2.336   3.116   6.808  0.3344 -0.4215 -0.0445
 1991SOL    HW117606   2.347   3.200   6.854  0.1902 -0.2808 -0.2642
 1991SOL    HW217607   2.317   3.059   6.882 -1.9593 -0.4443 -0.6338
 1992SOL     OW17608   4.518   1.778   6.807 -0.8356 -0.2016  0.1102
 1992SOL    HW117609   4.439   1.788   6.861 -1.0132  1.2485 -0.4089
 1992SOL    HW217610   4.580   1.727   6.858  1.0035 -0.4596 -2.3958
 1993SOL     OW17611   0.120   2.869  13.516  0.1827  0.2754  0.2457
 1993SOL    HW117612   0.062   2.944  13.529  0.5596  0.5209  0.5269
 1993SOL    HW217613   0.099   2.823  13.597 -3.1594  0.9917 -0.2206
 1994SOL     OW17614   3.553   2.801   3.759  0.0658  0.6347 -0.1515
 1994SOL    HW117615   3.493   2.859   3.806 -0.8917 -1.9851  1.8739
 1994SOL    HW217616   3.635   2.834   3.795  0.7656 -2.5188  1.0878
 1995SOL     OW17617   4.174   1.469   6.260  0.1351  0.4852  0.5958
 1995SOL    HW117618   4.242   1.534   6.280  0.6476  0.4608 -1.0023
 1995SOL    HW217619   4.203   1.392   6.308  0.4026  0.7276  0.8263
 1996SOL     OW17620   1.113   4.154   9.242  0.2145  0.0743 -0.5759
 1996SOL    HW117621   1.209   4.151   9.238  0.2050 -1.0584 -0.1071
 1996SOL    HW217622   1.095   4.237   9.198  0.5983  0.4715  0.0074
 1997SOL     OW17623   4.543   0.470  14.031 -0.1315  0.4220  0.6926
 1997SOL    HW117624   4.553   0.432  14.119  0.9562  1.6246  1.0912
 1997SOL    HW217625   4.450   0.462  14.013  1.1549 -0.8731 -5.2862
 1998SOL     OW17626   2.180   1.846  12.919  0.0553  0.6932  0.0237
 1998SOL    HW117627   2.270   1.837  12.887 -0.6039 -1.7796 -1.1945
 1998SOL    HW217628   2.151   1.919  12.863  0.7485 -1.0637 -2.6536
 1999SOL     OW17629   2.351   1.892   1.094  0.4377  0.0691  1.1818
 1999SOL    HW117630   2.352   1.812   1.146 -2.0191 -0.3954  0.4671
 1999SOL    HW217631   2.441   1.924   1.108  0.9440 -0.0217 -1.8705
 2000SOL     OW17632   1.796   0.081   1.386  0.3272 -0.3754  0.1104
 2000SOL    HW117633   1.866   0.127   1.340  0.6048 -1.1694 -0.2601
 2000SOL    HW217634   1.809   4.732   1.358  0.3441 -0.6159  0.8928
 2001SOL     OW17635   1.702   2.390   5.335  0.2003  0.3718 -0.0855
 2001SOL    HW117636   1.754   2.311   5.322  0.2674  0.4345 -0.1985
 2001SOL    HW217637   1.746   2.445   5.271  1.1732 -0.2585  0.0566
 2002SOL     OW17638   0.247   1.465   5.353  0.7817  0.0323 -0.0872
 2002SOL    HW117639   0.258   1.553   5.318 -1.7619  0.8508  1.2154
 2002SOL    HW217640   0.193   1.430   5.282 -0.1506  0.7737  0.2622
 2003SOL     OW17641   3.795   3.464  11.709 -0.0933  0.2004  0.2346
 2003SOL    HW117642   3.772   3.458  11.802 -1.9071 -0.6088 -0.2632
 2003SOL    HW217643   3.867   3.404  11.692 -0.3976 -0.2779  0.6480
 2004SOL     OW17644   1.706   1.831  17.460 -0.6995  0.4739  0.6407
 2004SOL    HW117645   1.632   1.881  17.426  0.4283 -0.2478 -2.9380
 2004SOL    HW217646   1.782   1.874  17.421 -1.5108  1.4837  0.1638
 2005SOL     OW17647   2.845   3.207   8.192 -0.3827 -0.1107  0.3866
 2005SOL    HW117648   2.781   3.263   8.236  0.6947  0.7539  0.8506
 2005SOL    HW217649   2.847   3.252   8.108  1.3479  0.0490  0.5139
 2006SOL     OW17650   0.098   1.699   7.897 -0.0138 -0.1934  0.3217
 2006SOL    HW117651   0.058   1.692   7.983  0.6301  0.6325  0.6851
 2006SOL    HW217652   0.025   1.660   7.849  0.4445  1.0472 -1.3757
 2007SOL     OW17653   2.352   1.678   1.245  0.2486  0.1202  0.1575
 2007SOL    HW117654   2.385   1.611   1.185 -4.0767 -0.5474 -1.5246
 2007SOL    HW217655   2.274   1.631   1.276  0.4849 -0.6785 -0.4486
 2008SOL     OW17656   1.486   2.639   8.697  0.1187 -0.3054  0.2184
 2008SOL    HW117657   1.396   2.608   8.704  0.1434 -0.2468  0.7639
 2008SOL    HW217658   1.492   2.681   8.610  0.3035  3.8940  2.2549
 2009SOL     OW17659   4.634   1.426   5.385  0.2757 -0.3924  0.1148
 2009SOL    HW117660   4.676   1.512   5.378  1.9104 -1.3040 -1.1334
 2009SOL    HW217661   4.547   1.459   5.409  0.5928  1.1273 -0.8334
 2010SOL     OW17662   4.503   0.025   2.593 -0.5570  0.3618  0.6713
 2010SOL    HW117663   4.560   4.697   2.558 -1.6518 -0.5428  0.6636
 2010SOL    HW217664   4.499   4.737   2.685  0.2739 -1.3038  0.1889
 2011SOL     OW17665   4.333   0.289  17.318  1.0244 -0.9027  0.3996
 2011SOL    HW117666   4.286   0.360  17.274  1.3479 -1.6095 -1.0830
 2011SOL    HW217667   4.376   0.249  17.243  0.0966 -0.2980 -0.4529
 2012SOL     OW17668   1.412   2.903  12.175  0.0695  0.1715  0.3714
 2012SOL    HW117669   1.458   2.819  12.169 -1.4129 -0.6232  0.3172
 2012SOL    HW217670   1.357   2.901  12.097 -1.1032  0.6801  1.1768
 2013SOL     OW17671   4.272   4.717   1.506 -0.0946 -0.0666 -0.0776
 2013SOL    HW117672   4.179   4.721   1.481 -0.0903 -0.4083 -0.1448
 2013SOL    HW217673   4.308   4.687   1.423  0.8501  1.4036 -0.1907
 2014SOL     OW17674   0.691   4.420  13.084 -0.3991  0.9665  0.3053
 2014SOL    HW117675   0.778   4.408  13.122 -1.1006  0.4226  1.7167
 2014SOL    HW217676   0.710   4.447  12.994  1.5564 -0.9730  0.1497
 2015SOL     OW17677   3.062   3.422  17.729 -1.1377  0.2572 -0.0480
 2015SOL    HW117678   3.008   3.465  17.662 -2.5936  1.5180  1.9192
 2015SOL    HW217679   3.149   3.455  17.709 -0.0278 -3.1802 -0.8270
 2016SOL     OW17680   4.130   4.682   6.016 -0.6647  0.2861 -0.0261
 2016SOL    HW117681   4.192   0.007   5.985 -0.9497  1.4299  1.8124
 2016SOL    HW217682   4.108   4.716   6.103  1.0023 -1.0342  0.9106
 2017SOL     OW17683   4.140   4.413   6.537 -0.3976  0.1392 -0.0792
 2017SOL    HW117684   4.142   4.443   6.627 -0.1377 -1.0732  0.3231
 2017SOL    HW217685   4.090   4.333   6.552 -0.8332  1.0622  3.3575
 2018SOL     OW17686   0.371   2.462   7.389  0.3355  0.3864  0.3452
 2018SOL    HW117687   0.366   2.556   7.409  2.2155  0.5206  0.1411
 2018SOL    HW217688   0.435   2.438   7.456 -0.0065  0.9379  0.8709
 2019SOL     OW17689   4.303   1.562   5.959  0.3218 -0.5209 -0.3496
 2019SOL    HW117690   4.317   1.487   5.900  0.6306  1.3737 -2.6980
 2019SOL    HW217691   4.359   1.536   6.032 -3.3602  1.1509  3.0461
 2020SOL     OW17692   2.193   0.190   2.755  0.4714  0.7687 -0.1744
 2020SOL    HW117693   2.223   0.276   2.784 -1.2890  1.1103  0.6258
 2020SOL    HW217694   2.222   0.188   2.664 -1.0030  0.2879 -0.6207
 2021SOL     OW17695   3.254   1.556  11.907  0.0597 -0.1493 -0.2675
 2021SOL    HW117696   3.330   1.613  11.894 -1.0444  1.8145  1.9930
 2021SOL    HW217697   3.190   1.615  11.946  1.6310  0.8884  0.7472
 2022SOL     OW17698   0.173   0.307   6.612  0.2080 -0.1283  0.3527
 2022SOL    HW117699   0.142   0.324   6.701 -1.6825  0.8422 -0.4857
 2022SOL    HW217700   0.097   0.257   6.584  0.5092 -0.8349  0.8110
 2023SOL     OW17701   2.755   2.184   3.750 -0.7425 -0.0288 -0.6880
 2023SOL    HW117702   2.794   2.146   3.829 -1.0873  4.1931  1.5225
 2023SOL    HW217703   2.808   2.147   3.680 -1.4946  0.2721 -1.4279
 2024SOL     OW17704   1.726   3.469   2.513  0.0065  0.6843 -0.1991
 2024SOL    HW117705   1.653   3.500   2.566  0.1883  0.3291  0.2550
 2024SOL    HW217706   1.788   3.447   2.582 -0.7595 -0.3781  0.1474
 2025SOL     OW17707   3.784   2.398  16.387 -0.2420  0.1201 -0.1357
 2025SOL    HW117708   3.778   2.456  16.463  1.9113 -0.2487  0.3229
 2025SOL    HW217709   3.768   2.461  16.317 -0.2748 -1.2885 -1.4089
 2026SOL     OW17710   2.988   1.377  17.413 -0.3201  0.3873 -0.0203
 2026SOL    HW117711   3.018   1.291  17.443 -1.4721  0.5006  1.4726
 2026SOL    HW217712   3.065   1.429  17.437  0.2608  0.1123 -1.2877
 2027SOL     OW17713   3.230   4.492   1.045 -0.2882  0.1102 -0.1091
 2027SOL    HW117714   3.263   4.580   1.063  0.9201 -0.5874  1.1153
 2027SOL    HW217715   3.312   4.443   1.038 -0.2517  0.3817 -1.4085
 2028SOL     OW17716   1.035   4.125  11.236 -0.3993  0.1094  0.0179
 2028SOL    HW117717   0.941   4.112  11.223 -0.3599  0.1432 -0.3066
 2028SOL    HW217718   1.068   4.069  11.166  0.7941 -0.2808  0.8916
 2029SOL     OW17719   0.674   0.520   5.269 -0.1623  0.2176 -0.0507
 2029SOL    HW117720   0.581   0.502   5.255 -0.6831  2.9797 -0.2006
 2029SOL    HW217721   0.708   0.431   5.281  1.3454  0.7016 -0.6585
 2030SOL     OW17722   0.260   3.264   8.406  0.3896 -0.4142 -0.2065
 2030SOL    HW117723   0.322   3.303   8.345  0.8611 -0.2528  0.3727
 2030SOL    HW217724   0.218   3.338   8.448  0.1391 -0.9401  0.4743
 2031SOL     OW17725   4.547   4.478   9.209 -0.1491 -0.2531  0.2143
 2031SOL    HW117726   4.531   4.419   9.282  2.1383  1.0981  1.7956
 2031SOL    HW217727   4.602   4.427   9.149 -1.5312 -2.4462  0.8323
 2032SOL     OW17728   3.264   2.076   9.682  0.0505 -0.3997  0.0002
 2032SOL    HW117729   3.295   2.047   9.768  1.0237 -2.3865 -0.9952
 2032SOL    HW217730   3.301   2.007   9.626  0.6715  0.2056 -0.3419
 2033SOL     OW17731   4.267   1.416   4.336  0.5036 -0.2398 -0.7215
 2033SOL    HW117732   4.183   1.449   4.368  2.7741  1.4580  3.4091
 2033SOL    HW217733   4.276   1.330   4.376 -2.1657 -0.6107 -0.9278
 2034SOL     OW17734   3.850   3.289   1.888  0.1810  0.3057  0.3613
 2034SOL    HW117735   3.936   3.261   1.921  0.1877 -0.3676 -0.2371
 2034SOL    HW217736   3.876   3.360   1.830 -0.5273  1.5208  1.5301
 2035SOL     OW17737   2.239   4.532   6.163 -0.1971 -0.2345  0.1190
 2035SOL    HW117738   2.189   4.605   6.199  2.3286  0.8125  1.5825
 2035SOL    HW217739   2.203   4.532   6.075 -1.0692  2.3406  0.4780
 2036SOL     OW17740   1.890   2.466   4.772 -0.3041  1.3375  0.0870
 2036SOL    HW117741   1.981   2.467   4.803 -1.2443  1.5010  2.8965
 2036SOL    HW217742   1.890   2.560   4.755  0.1517  0.9598 -2.0409
 2037SOL     OW17743   2.472   1.742   0.270  0.6408 -0.1678  0.0722
 2037SOL    HW117744   2.423   1.817   0.235 -0.3809  0.0563  1.9964
 2037SOL    HW217745   2.563   1.771   0.273  0.3953  0.6492 -0.1270
 2038SOL     OW17746   2.488   2.532  11.683 -0.4854 -0.2175  0.3267
 2038SOL    HW117747   2.479   2.562  11.593  0.0432  0.6116  0.5471
 2038SOL    HW217748   2.404   2.488  11.692 -0.3581 -0.6744 -0.7461
 2039SOL     OW17749   1.585   0.628   9.245 -0.3376  0.1400  0.0269
 2039SOL    HW117750   1.661   0.571   9.253 -2.0020 -2.1450 -0.5298
 2039SOL    HW217751   1.624   0.696   9.190 -0.8992  1.1573  0.8791
 2040SOL     OW17752   1.663   2.379   3.511 -0.7462  0.0885 -0.8621
 2040SOL    HW117753   1.735   2.338   3.560 -2.8354 -0.5903  1.6280
 2040SOL    HW217754   1.615   2.428   3.578 -0.8297 -0.0690 -0.8063
 2041SOL     OW17755   2.474   2.834  14.462 -0.1395 -0.2404 -0.2387
 2041SOL    HW117756   2.562   2.847  14.497  0.1819 -0.9059 -0.7753
 2041SOL    HW217757   2.434   2.758  14.504 -0.6677  0.4468  0.4878
 2042SOL     OW17758   4.031   3.382   3.885  0.0346 -0.4971 -0.0986
 2042SOL    HW117759   3.991   3.469   3.894  1.8668  0.2000  1.2226
 2042SOL    HW217760   4.049   3.388   3.791  0.9671  0.1245  0.1206
 2043SOL     OW17761   1.939   1.460   7.714  0.5972 -0.6345  0.0720
 2043SOL    HW117762   1.847   1.485   7.724  0.8237 -0.0351  0.6638
 2043SOL    HW217763   1.977   1.533   7.664  0.8966 -0.3057  0.7837
 2044SOL     OW17764   2.061   3.931   8.158  0.3481  0.4102  0.0032
 2044SOL    HW117765   1.984   3.887   8.194 -0.2334  0.1343 -1.5695
 2044SOL    HW217766   2.126   3.867   8.186  1.6011  0.4778 -2.6841
 2045SOL     OW17767   2.266   1.176   0.478 -0.4283  0.0358  0.1222
 2045SOL    HW117768   2.203   1.123   0.528  1.8007 -3.5278 -0.8521
 2045SOL    HW217769   2.221   1.182   0.393 -2.9473  1.0529  1.5045
 2046SOL     OW17770   2.085   0.901  14.658  0.1177  0.2321  0.0219
 2046SOL    HW117771   2.173   0.877  14.688 -0.1969  2.0354  2.3682
 2046SOL    HW217772   2.038   0.917  14.739 -0.9077  0.1697 -0.5612
 2047SOL     OW17773   1.924   3.397  12.951 -0.3901 -0.3090  0.0939
 2047SOL    HW117774   1.899   3.339  13.023 -0.8440  1.1941  1.1399
 2047SOL    HW217775   1.834   3.421  12.930  0.2672  2.0051 -0.0846
 2048SOL     OW17776   0.948   0.688  12.399 -0.4108  0.2195 -0.1490
 2048SOL    HW117777   0.920   0.598  12.382 -0.1869  0.2255 -0.5374
 2048SOL    HW217778   1.043   0.682  12.387 -0.1518 -0.5729  2.3129
 2049SOL     OW17779   3.618   1.986   7.224 -0.3558 -0.1153 -0.0563
 2049SOL    HW117780   3.539   2.031   7.254 -0.3171  0.8909 -1.4252
 2049SOL    HW217781   3.607   1.994   7.129 -0.8973 -0.5330 -0.0259
 2050SOL     OW17782   1.336   1.182   7.937  0.5311  0.0302  0.5236
 2050SOL    HW117783   1.362   1.244   8.005  2.8529  0.7379 -0.9988
 2050SOL    HW217784   1.273   1.131   7.987  0.7940 -1.9940 -1.2089
 2051SOL     OW17785   3.313   0.502   6.853 -0.0840 -0.0071  0.1361
 2051SOL    HW117786   3.281   0.488   6.941 -1.0235  0.7145 -0.0937
 2051SOL    HW217787   3.249   0.564   6.819  1.1016  0.5101 -1.1736
 2052SOL     OW17788   2.843   2.310  14.016  0.0967  0.0212  0.4628
 2052SOL    HW117789   2.910   2.242  14.018  0.9960  0.9408  0.9943
 2052SOL    HW217790   2.814   2.300  13.925 -0.1172  1.4396  0.3846
 2053SOL     OW17791   0.056   0.474  14.851  0.1583  0.2583  0.5822
 2053SOL    HW117792   0.029   0.383  14.862  0.2132  0.1956  0.1824
 2053SOL    HW217793   0.003   0.528  14.911  1.9885  1.9848  0.6622
 2054SOL     OW17794   3.051   0.375  10.724 -0.1100  0.1593  0.0518
 2054SOL    HW117795   3.007   0.298  10.759  1.2897 -1.6837 -2.2722
 2054SOL    HW217796   2.996   0.407  10.652  0.2694  0.2076 -0.2168
 2055SOL     OW17797   3.003   4.340   8.273 -0.0925  0.2957 -0.0968
 2055SOL    HW117798   3.029   4.370   8.185  1.7953  0.6652  0.5920
 2055SOL    HW217799   3.078   4.289   8.302  1.1856  1.1689 -1.8724
 2056SOL     OW17800   3.509   3.663   7.517 -0.3542 -0.3142  0.0996
 2056SOL    HW117801   3.524   3.755   7.541  0.1166 -0.4768  0.4328
 2056SOL    HW217802   3.555   3.662   7.433  0.9325 -0.2754  0.8092
 2057SOL     OW17803   2.682   1.177  12.426  0.0187  0.2743 -0.1535
 2057SOL    HW117804   2.721   1.205  12.509  2.2370  1.4524 -1.5907
 2057SOL    HW217805   2.737   1.226  12.365 -0.9512 -0.8752 -1.9647
 2058SOL     OW17806   0.704   2.986   7.219 -0.2098  0.2901 -0.1507
 2058SOL    HW117807   0.645   3.049   7.177  0.6612  1.8674  0.9930
 2058SOL    HW217808   0.750   2.959   7.140  1.0513  1.1819  0.2964
 2059SOL     OW17809   2.101   4.293  14.352 -0.2419 -0.2975  0.3728
 2059SOL    HW117810   2.091   4.222  14.415  0.1008 -1.4284 -0.8279
 2059SOL    HW217811   2.183   4.328  14.386  0.6813 -1.8618 -0.2272
 2060SOL     OW17812   2.227   4.361   1.293  0.1181 -0.2546 -0.3497
 2060SOL    HW117813   2.164   4.426   1.325 -0.8800 -1.1942 -0.3931
 2060SOL    HW217814   2.277   4.417   1.233 -0.3451  1.3834  0.8004
 2061SOL     OW17815   2.575   3.114  14.372 -0.7556 -0.3035  0.0016
 2061SOL    HW117816   2.526   3.181  14.419 -0.6481 -1.3372  1.6010
 2061SOL    HW217817   2.649   3.107  14.434 -1.4110  1.7733  1.0173
 2062SOL     OW17818   4.135   0.740   7.370  0.5908  0.2473 -0.0502
 2062SOL    HW117819   4.210   0.740   7.430 -0.0571 -1.4293  0.7587
 2062SOL    HW217820   4.150   0.656   7.328  1.1950  0.3839 -0.1132
 2063SOL     OW17821   1.620   4.558   8.793 -0.0728 -0.8211 -0.3777
 2063SOL    HW117822   1.683   4.500   8.751 -2.0615 -2.8853 -0.4905
 2063SOL    HW217823   1.653   4.553   8.883  1.1594 -1.9128 -0.8940
 2064SOL     OW17824   1.311   3.612   6.781  0.2617  0.1687 -0.1346
 2064SOL    HW117825   1.304   3.530   6.829 -1.2762 -0.0977 -0.8115
 2064SOL    HW217826   1.221   3.644   6.780  1.1910  2.6850 -2.0840
 2065SOL     OW17827   3.645   2.216   2.839 -0.1990 -0.3541  0.1194
 2065SOL    HW117828   3.586   2.205   2.913 -2.0843 -0.6049 -1.3934
 2065SOL    HW217829   3.731   2.212   2.880 -0.2227 -0.2924  0.1741
 2066SOL     OW17830   4.328   0.318   2.487 -0.1144 -0.1693 -0.3987
 2066SOL    HW117831   4.320   0.265   2.408  0.0100 -1.0103  0.1507
 2066SOL    HW217832   4.334   0.403   2.442 -1.6483 -0.8278 -1.8599
 2067SOL     OW17833   2.715   3.047   3.061  0.2806  0.3971 -1.1411
 2067SOL    HW117834   2.685   3.105   2.991 -2.1305 -1.1767 -1.4448
 2067SOL    HW217835   2.629   3.034   3.101  1.5731 -0.6112  1.2506
 2068SOL     OW17836   1.456   4.596  17.739  0.5304  0.0534 -0.3449
 2068SOL    HW117837   1.530   4.570   0.033  0.8525  1.0954 -0.2705
 2068SOL    HW217838   1.393   4.533   0.011 -1.3945  1.0895 -1.9641
 2069SOL     OW17839   4.736   1.895   0.691  0.3047  0.1580 -0.1186
 2069SOL    HW117840   0.039   1.905   0.775  1.5723  0.9214 -0.8735
 2069SOL    HW217841   0.073   1.893   0.635  0.9767 -1.4278  0.8727
 2070SOL     OW17842   0.207   0.539  14.633  0.6235 -0.4033  0.8156
 2070SOL    HW117843   0.173   0.465  14.582 -3.0844  0.8853  1.4293
 2070SOL    HW217844   0.158   0.524  14.714  0.0190  1.8171  0.8601
 2071SOL     OW17845   2.150   0.319   7.125 -0.0322 -0.1245  0.2732
 2071SOL    HW117846   2.228   0.267   7.144  0.6059  1.1671  1.2417
 2071SOL    HW217847   2.125   0.366   7.205 -0.4364 -0.9019  0.6023
 2072SOL     OW17848   3.466   2.684  13.089 -0.4456 -0.1353  0.4032
 2072SOL    HW117849   3.413   2.684  13.009  0.0231  1.6823  0.0920
 2072SOL    HW217850   3.459   2.594  13.121 -2.2085  0.2164  1.0261
 2073SOL     OW17851   1.353   4.095  13.945  0.0547  0.7133  0.6003
 2073SOL    HW117852   1.364   4.184  13.911 -0.8091  1.9084  3.3850
 2073SOL    HW217853   1.439   4.057  13.964 -0.6892 -1.8102 -1.1159
 2074SOL     OW17854   4.361   3.460  12.590  0.3510 -0.1336 -0.1161
 2074SOL    HW117855   4.457   3.468  12.585  0.4903 -0.8325  1.5509
 2074SOL    HW217856   4.361   3.384  12.648  1.4345  1.1692  1.6176
 2075SOL     OW17857   2.088   4.465   7.700 -0.0985 -0.3924  0.2465
 2075SOL    HW117858   2.048   4.428   7.779 -1.2555 -0.7176 -0.4901
 2075SOL    HW217859   2.008   4.491   7.655 -0.7706  0.7269  2.0934
 2076SOL     OW17860   2.108   1.923   4.806  0.2931  0.1003 -0.2567
 2076SOL    HW117861   2.167   1.989   4.770 -0.4552  1.2745  0.6478
 2076SOL    HW217862   2.041   1.984   4.838  0.5924  0.9929 -1.3548
 2077SOL     OW17863   3.723   0.935   2.146  0.0004 -0.1409  0.4073
 2077SOL    HW117864   3.629   0.926   2.126  0.0243 -0.3303  0.3806
 2077SOL    HW217865   3.760   0.955   2.060 -0.2475 -0.4668  0.2249
 2078SOL     OW17866   2.119   0.156   3.955  0.4661 -0.2692  0.0273
 2078SOL    HW117867   2.045   0.109   3.918 -1.1295  0.7488  1.9722
 2078SOL    HW217868   2.084   0.245   3.962 -1.2232 -0.9702  0.4017
 2079SOL     OW17869   2.922   0.329   3.805 -0.3837 -0.2705 -0.0776
 2079SOL    HW117870   2.845   0.284   3.770 -1.5932  1.0514  0.8527
 2079SOL    HW217871   2.876   0.394   3.858 -1.8085 -1.8736  0.6633
 2080SOL     OW17872   0.416   2.299   9.858 -0.0763 -0.1422  0.3150
 2080SOL    HW117873   0.353   2.278   9.927  0.2376  0.1874  0.7011
 2080SOL    HW217874   0.436   2.388   9.886 -0.6975 -0.1704  0.8519
 2081SOL     OW17875   0.738   4.060   6.681  0.0162  0.1585 -0.9228
 2081SOL    HW117876   0.665   4.027   6.630 -0.5312 -0.0373 -0.0167
 2081SOL    HW217877   0.763   3.982   6.731  0.4520  0.2604 -0.9766
 2082SOL     OW17878   3.060   1.869  10.710  0.2095 -0.4427 -0.1377
 2082SOL    HW117879   3.097   1.905  10.791  3.3547 -0.4874 -1.5866
 2082SOL    HW217880   3.107   1.927  10.651 -0.1704 -2.7105 -2.6965
 2083SOL     OW17881   1.029   3.759   7.640  0.5415  0.3178  0.0638
 2083SOL    HW117882   1.045   3.814   7.563 -0.6240 -1.5125 -1.4885
 2083SOL    HW217883   1.008   3.810   7.718 -1.1919 -0.6225  0.1991
 2084SOL     OW17884   1.948   4.118   7.102 -0.0662 -0.1514  0.4355
 2084SOL    HW117885   2.041   4.096   7.103 -0.4489 -1.8395  0.0478
 2084SOL    HW217886   1.947   4.183   7.173 -0.4289  0.9794 -0.6097
 2085SOL     OW17887   4.310   1.880  11.113 -0.1282 -0.3831  0.3047
 2085SOL    HW117888   4.370   1.866  11.186  0.2074  1.1729  0.3237
 2085SOL    HW217889   4.352   1.811  11.061 -1.0511 -2.1197  1.8571
 2086SOL     OW17890   1.326   1.738   0.171  0.8342  0.2996 -0.1040
 2086SOL    HW117891   1.380   1.815   0.155 -0.5958  1.0952 -1.0751
 2086SOL    HW217892   1.380   1.699   0.240 -1.4685  0.5649  1.8535
 2087SOL     OW17893   4.098   4.433   3.778  0.2980  0.0002  0.2742
 2087SOL    HW117894   4.006   4.415   3.796  0.3138  0.7620  1.1164
 2087SOL    HW217895   4.143   4.372   3.836 -0.4224  1.6391  2.5712
 2088SOL     OW17896   2.745   4.282  12.965 -0.1750 -0.1721  0.1516
 2088SOL    HW117897   2.784   4.202  13.000  0.5633  0.0363 -0.2034
 2088SOL    HW217898   2.771   4.271  12.874 -2.4951 -0.2657 -0.5131
 2089SOL     OW17899   3.658   3.559  16.697  0.1242  0.1905  0.0753
 2089SOL    HW117900   3.584   3.539  16.639 -0.1528 -0.6542  0.7261
 2089SOL    HW217901   3.658   3.494  16.767 -2.2505  0.6231  0.4694
 2090SOL     OW17902   1.980   3.722   7.742  0.0751  0.2475  0.1174
 2090SOL    HW117903   2.043   3.706   7.671 -0.2312 -0.4575 -0.0018
 2090SOL    HW217904   1.929   3.788   7.695 -0.8756 -0.6015 -0.0323
 2091SOL     OW17905   2.094   4.140   9.687  0.1692 -0.8036  0.5844
 2091SOL    HW117906   2.080   4.096   9.604 -1.5505  1.9053 -0.5582
 2091SOL    HW217907   2.022   4.106   9.740  0.2212 -1.4531  0.2320
 2092SOL     OW17908   2.264   0.290   1.429  0.3777  0.6789  0.1002
 2092SOL    HW117909   2.321   0.328   1.362  0.8107 -1.0959 -0.5186
 2092SOL    HW217910   2.179   0.332   1.412  1.3050  2.2306 -0.7137
 2093SOL     OW17911   1.402   4.004   8.515 -0.1096  0.7410 -0.2751
 2093SOL    HW117912   1.333   4.012   8.580 -0.5849  0.5179 -0.7578
 2093SOL    HW217913   1.347   3.999   8.437 -1.6793  3.3218  0.6589
 2094SOL     OW17914   2.659   1.911  11.338  0.2139  0.7112 -0.5890
 2094SOL    HW117915   2.697   1.934  11.253  1.4030  1.6382  0.1951
 2094SOL    HW217916   2.718   1.839  11.360 -0.4360 -0.5496 -2.9688
 2095SOL     OW17917   1.346   1.161   8.612  0.4547 -0.2499  0.4895
 2095SOL    HW117918   1.299   1.097   8.665 -1.2982 -1.5763 -2.6598
 2095SOL    HW217919   1.281   1.182   8.544 -0.1492  1.0164  1.4628
 2096SOL     OW17920   0.542   3.764   1.883 -0.1455  0.3570  0.3744
 2096SOL    HW117921   0.632   3.734   1.881 -0.0159  0.8537 -0.9751
 2096SOL    HW217922   0.517   3.791   1.794  3.0398  3.0254  0.2951
 2097SOL     OW17923   2.388   2.476   5.271  0.0751 -0.4321 -0.6038
 2097SOL    HW117924   2.314   2.455   5.328  0.0506 -0.5560 -0.6821
 2097SOL    HW217925   2.461   2.464   5.331 -0.1296 -0.0132 -0.2699
 2098SOL     OW17926   1.869   4.425  14.272  0.7585  0.0446 -0.6127
 2098SOL    HW117927   1.843   4.466  14.354  0.7907 -1.3157  0.0763
 2098SOL    HW217928   1.950   4.384  14.304  0.1641 -1.5400 -1.1365
 2099SOL     OW17929   3.151   1.546   8.526  0.1123  0.6096  0.1878
 2099SOL    HW117930   3.114   1.623   8.570  2.8512  2.6876 -1.1712
 2099SOL    HW217931   3.078   1.484   8.533 -1.0619  1.8420 -0.9445
 2100SOL     OW17932   2.994   2.092   1.291  0.1914 -0.4190 -0.6552
 2100SOL    HW117933   3.044   2.065   1.213 -0.2669 -1.4088 -0.6144
 2100SOL    HW217934   2.980   2.012   1.342  3.1049  0.8046  2.0444
 2101SOL     OW17935   0.519   3.407   1.477 -0.0956  0.0777  0.8009
 2101SOL    HW117936   0.606   3.375   1.455 -1.4751 -2.6315 -0.6194
 2101SOL    HW217937   0.462   3.330   1.479  0.3888 -0.3156 -0.5852
 2102SOL     OW17938   0.770   2.592   0.496  0.1033  0.2751 -0.0923
 2102SOL    HW117939   0.790   2.550   0.580 -0.4350  1.1060  0.4477
 2102SOL    HW217940   0.677   2.571   0.488  0.4428 -0.9610 -0.7663
 2103SOL     OW17941   0.473   1.860  13.264  0.1519 -0.1452 -0.0381
 2103SOL    HW117942   0.380   1.876  13.246 -0.3360 -0.9539  1.7433
 2103SOL    HW217943   0.508   1.947  13.241 -0.5568  0.2650  0.4174
 2104SOL     OW17944   0.940   3.591   8.188  0.4882  0.5693 -0.9629
 2104SOL    HW117945   0.976   3.503   8.180 -1.0462 -0.0248 -1.4586
 2104SOL    HW217946   0.929   3.593   8.283  0.9374 -0.5751 -0.8918
 2105SOL     OW17947   4.452   1.008  11.882 -0.2872  0.2935  0.7742
 2105SOL    HW117948   4.513   0.946  11.921 -2.5883 -2.3995  0.0765
 2105SOL    HW217949   4.368   0.964  11.895 -0.3295 -0.5402 -2.3334
 2106SOL     OW17950   1.580   4.298   7.716  0.2028 -0.2716  0.8212
 2106SOL    HW117951   1.674   4.281   7.713  0.1606 -0.2520 -0.8884
 2106SOL    HW217952   1.562   4.261   7.802 -0.7560 -1.4388  0.1218
 2107SOL     OW17953   1.272   2.278   8.695 -0.2554  0.1751 -0.4861
 2107SOL    HW117954   1.273   2.202   8.637 -0.5549 -0.1952 -0.0002
 2107SOL    HW217955   1.212   2.255   8.766  3.6537  0.9665  3.0338
 2108SOL     OW17956   0.437   4.148   5.387  0.0605 -0.0548  0.1113
 2108SOL    HW117957   0.357   4.095   5.386 -0.3188  0.5447 -1.5357
 2108SOL    HW217958   0.410   4.220   5.330  1.3108  2.1951  2.3934
 2109SOL     OW17959   3.013   3.408   5.041  0.4626 -0.1968  0.1997
 2109SOL    HW117960   2.966   3.388   4.960 -1.2593 -1.1689  1.4330
 2109SOL    HW217961   2.952   3.470   5.082 -0.0606 -0.5671 -0.0223
 2110SOL     OW17962   1.533   3.058   2.569 -0.2247 -0.7165  0.1931
 2110SOL    HW117963   1.471   3.071   2.497 -1.2505  0.4701  1.2922
 2110SOL    HW217964   1.502   3.130   2.623  1.2530  0.1841 -0.1489
 2111SOL     OW17965   0.661   3.744   2.349 -0.0877 -0.3047  0.6177
 2111SOL    HW117966   0.664   3.830   2.308 -0.6444 -1.1399 -1.2143
 2111SOL    HW217967   0.682   3.681   2.280 -0.5421 -0.1511  0.3346
 2112SOL     OW17968   1.700   3.296   8.308  0.2048 -0.1161  0.0943
 2112SOL    HW117969   1.764   3.312   8.239 -0.0617  1.3424  0.1805
 2112SOL    HW217970   1.754   3.339   8.374 -0.1574  0.0675  0.2692
 2113SOL     OW17971   1.278   0.412   8.427 -0.8051  0.3343  0.0424
 2113SOL    HW117972   1.199   0.358   8.438 -0.1167 -1.1764 -2.6286
 2113SOL    HW217973   1.247   0.488   8.476 -2.9254 -1.3141  1.2916
 2114SOL     OW17974   2.848   2.086   9.269  0.0851  0.2849  0.2745
 2114SOL    HW117975   2.869   2.068   9.177 -0.7923  0.4078  0.0527
 2114SOL    HW217976   2.937   2.080   9.304 -1.0850 -0.9159  3.0210
 2115SOL     OW17977   0.414   2.877   6.217 -0.3486 -0.2386  0.4768
 2115SOL    HW117978   0.431   2.903   6.308  0.0855 -1.1553  0.6600
 2115SOL    HW217979   0.319   2.866   6.218 -0.1967 -1.7437 -2.2495
 2116SOL     OW17980   3.364   4.284  13.541  0.0021 -0.0706  0.7450
 2116SOL    HW117981   3.372   4.233  13.621  0.2511  0.6930  1.2143
 2116SOL    HW217982   3.408   4.364  13.570 -0.6701  1.2602 -1.8588
 2117SOL     OW17983   2.044   2.145   1.940 -0.0579 -0.0086 -0.1546
 2117SOL    HW117984   2.070   2.236   1.948  1.7369 -0.4322 -1.1019
 2117SOL    HW217985   1.949   2.154   1.949 -0.1775 -0.8706 -0.5576
 2118SOL     OW17986   1.638   4.490   0.161 -0.4858 -0.0643  0.0450
 2118SOL    HW117987   1.628   4.445   0.245  0.3702 -0.0955  0.1382
 2118SOL    HW217988   1.691   4.425   0.114 -2.6124  0.7353 -3.3807
 2119SOL     OW17989   3.265   4.623   8.989 -0.1671 -0.1060 -0.4705
 2119SOL    HW117990   3.239   4.694   9.048  0.6269  0.7392 -1.1460
 2119SOL    HW217991   3.237   4.649   8.902 -1.3781 -1.5025 -0.4931
 2120SOL     OW17992   4.567   4.314   6.140 -0.2961  0.3891  0.1242
 2120SOL    HW117993   4.492   4.365   6.172  0.3368  1.3718  0.0372
 2120SOL    HW217994   4.625   4.389   6.124 -0.3970  0.9293  2.2955
 2121SOL     OW17995   3.848   3.916   7.582 -0.1581 -0.1331 -0.1381
 2121SOL    HW117996   3.925   3.861   7.571 -2.2464 -3.0187 -0.2920
 2121SOL    HW217997   3.816   3.921   7.492 -0.3157  0.3582 -0.0585
 2122SOL     OW17998   0.337   3.424   7.479 -0.0331  0.0724  0.2266
 2122SOL    HW117999   0.379   3.492   7.531  1.4225 -2.4098  2.2763
 2122SOL    HW218000   0.344   3.348   7.536  0.0678  0.4259  0.6841
 2123SOL     OW18001   0.938   3.621  15.768 -0.1580 -0.1382  0.2341
 2123SOL    HW118002   0.855   3.578  15.788 -0.7542  0.2326 -1.4361
 2123SOL    HW218003   0.948   3.596  15.676 -0.3511 -1.1161  0.4810
 2124SOL     OW18004   2.470   0.419   3.624 -0.2409  0.1453 -0.3569
 2124SOL    HW118005   2.389   0.451   3.664  0.9699 -0.9536  2.9966
 2124SOL    HW218006   2.480   0.475   3.547  0.7895  2.0861  1.1981
 2125SOL     OW18007   0.311   4.526  14.542 -0.2044 -0.5332 -0.3121
 2125SOL    HW118008   0.238   4.522  14.603 -0.0889  0.1806 -0.1299
 2125SOL    HW218009   0.257   4.533  14.463  1.1274  1.9801 -1.0288
 2126SOL     OW18010   2.208   3.639  16.271 -0.0317 -0.6984  0.3585
 2126SOL    HW118011   2.170   3.552  16.281 -0.3244 -0.5042  0.9276
 2126SOL    HW218012   2.166   3.662  16.188 -0.7500 -3.1756  0.0593
 2127SOL     OW18013   0.116   2.599   7.283 -0.3885  0.3809  0.0448
 2127SOL    HW118014   0.077   2.571   7.365 -0.6504 -2.2386 -0.9773
 2127SOL    HW218015   0.183   2.659   7.314  0.6863 -0.9989  0.3709
 2128SOL     OW18016   4.096   4.382   2.455 -0.3594 -0.4218  0.4337
 2128SOL    HW118017   4.157   4.360   2.525  1.4939 -1.4357 -1.5207
 2128SOL    HW218018   4.102   4.477   2.445  0.4058 -0.2973  2.0403
 2129SOL     OW18019   4.332   1.285   3.815  0.5596  0.3651  0.1322
 2129SOL    HW118020   4.304   1.195   3.829 -1.0634  0.6046 -1.6735
 2129SOL    HW218021   4.263   1.328   3.866 -0.1700 -1.1071  0.3868
 2130SOL     OW18022   2.457   3.576   2.971 -0.2935  0.3939 -0.1756
 2130SOL    HW118023   2.548   3.602   2.988  0.3795 -1.3581 -1.1023
 2130SOL    HW218024   2.426   3.643   2.910 -0.5650 -0.4542 -0.9541
 2131SOL     OW18025   3.016   0.315   2.854 -0.5906 -0.4623  0.0915
 2131SOL    HW118026   2.996   0.261   2.930  0.8602 -0.7688  0.2439
 2131SOL    HW218027   3.008   0.402   2.892 -0.3601 -0.9559  1.2694
 2132SOL     OW18028   2.734   0.657   6.321 -0.7340  0.4164 -0.1675
 2132SOL    HW118029   2.682   0.728   6.358 -1.1147  1.1092 -2.0317
 2132SOL    HW218030   2.770   0.703   6.244  2.0060  1.0804  1.5115
 2133SOL     OW18031   0.521   0.098   4.239  0.2137  0.4078  0.4423
 2133SOL    HW118032   0.560   0.012   4.230 -1.5582 -0.2835 -0.6916
 2133SOL    HW218033   0.480   0.099   4.326  0.2838  2.3680  0.4665
 2134SOL     OW18034   1.244   1.981   9.841 -0.2002  0.1559  0.2720
 2134SOL    HW118035   1.254   2.028   9.758 -0.7350  1.1911  0.7907
 2134SOL    HW218036   1.241   1.891   9.809 -1.8479  0.4525 -0.4425
 2135SOL     OW18037   0.234   0.774   5.713  0.5405  0.2286 -0.2171
 2135SOL    HW118038   0.197   0.826   5.642 -4.3930  0.9093  2.8723
 2135SOL    HW218039   0.193   0.824   5.784  1.4297 -1.3576  1.4163
 2136SOL     OW18040   0.263   3.153  10.760 -0.3946 -0.1603 -0.0381
 2136SOL    HW118041   0.312   3.198  10.830 -1.0331 -1.4138  1.2158
 2136SOL    HW218042   0.330   3.158  10.692 -1.0834 -0.3157 -0.7132
 2137SOL     OW18043   3.548   3.594   6.261 -0.4199 -0.2204 -0.2868
 2137SOL    HW118044   3.542   3.506   6.224  1.7530 -1.2215  1.7073
 2137SOL    HW218045   3.569   3.578   6.353  1.7980  0.8162 -0.6217
 2138SOL     OW18046   3.573   2.674   9.191 -0.6861 -0.1424 -0.6602
 2138SOL    HW118047   3.494   2.726   9.197 -0.4745  0.2065 -0.8975
 2138SOL    HW218048   3.635   2.733   9.149 -0.1884  2.4427  3.8114
 2139SOL     OW18049   2.967   0.858   8.388  0.2879  0.0946 -0.0113
 2139SOL    HW118050   2.995   0.900   8.307 -0.8979 -1.7560 -1.3689
 2139SOL    HW218051   2.915   0.784   8.357  1.1511 -0.8670  0.8328
 2140SOL     OW18052   0.575   1.564   7.352 -0.5599 -0.1917  0.1556
 2140SOL    HW118053   0.650   1.506   7.367  1.6870  2.7052  0.1141
 2140SOL    HW218054   0.569   1.578   7.447 -0.6258 -0.3187  0.1694
 2141SOL     OW18055   2.168   3.627   1.790 -0.0823  0.0500  0.2429
 2141SOL    HW118056   2.215   3.700   1.832 -0.0394  0.3670 -0.3556
 2141SOL    HW218057   2.241   3.584   1.745  0.2609 -0.3569  1.1903
 2142SOL     OW18058   2.431   2.672   7.040  0.5279 -0.3672 -0.2144
 2142SOL    HW118059   2.405   2.764   7.035  1.1676 -0.1635  0.1644
 2142SOL    HW218060   2.451   2.654   7.132  1.5861 -0.1404 -0.3984
 2143SOL     OW18061   3.445   4.475   7.696  0.1336  0.7723  0.2947
 2143SOL    HW118062   3.402   4.466   7.781 -2.2976  0.9801 -0.9232
 2143SOL    HW218063   3.461   4.569   7.687  1.0516  0.4664 -1.2766
 2144SOL     OW18064   3.155   1.672  17.365 -0.1604 -0.1880  0.4334
 2144SOL    HW118065   3.124   1.747  17.417 -3.0107 -2.2780  1.7243
 2144SOL    HW218066   3.175   1.718  17.283 -0.6135 -0.7991 -0.0164
 2145SOL     OW18067   1.014   2.184   7.501 -0.3516  0.0539  0.5762
 2145SOL    HW118068   1.089   2.188   7.560 -0.0994 -0.4374  0.2836
 2145SOL    HW218069   1.044   2.151   7.417 -0.2353  0.5226  0.4327
 2146SOL     OW18070   4.310   3.634   8.281 -0.2081  0.4264  0.3624
 2146SOL    HW118071   4.395   3.674   8.302 -2.1011  3.3010  2.5283
 2146SOL    HW218072   4.276   3.609   8.366  0.8783  0.8735  0.9386
 2147SOL     OW18073   2.119   4.510   0.632  0.5256  0.4111  0.0399
 2147SOL    HW118074   2.128   4.584   0.572  0.2856  1.5252  1.3822
 2147SOL    HW218075   2.155   4.556   0.708 -0.6304  0.6744  0.4180
 2148SOL     OW18076   2.761   0.367   2.685  0.1701  0.0871  0.0169
 2148SOL    HW118077   2.687   0.312   2.658  0.6783  0.5431 -2.3348
 2148SOL    HW218078   2.841   0.321   2.662  1.2432  1.7621  0.4018
 2149SOL     OW18079   1.288   0.675   4.248  0.0030  0.4444  0.0693
 2149SOL    HW118080   1.259   0.761   4.281  0.0784  0.6753 -0.4569
 2149SOL    HW218081   1.215   0.655   4.189  0.7429  2.3574 -1.4851
 2150SOL     OW18082   0.375   3.322   4.966  0.4786 -0.0065 -0.0054
 2150SOL    HW118083   0.329   3.344   5.047  0.0299  1.4303 -0.6364
 2150SOL    HW218084   0.340   3.386   4.903 -1.1435 -0.4859  0.4091
 2151SOL     OW18085   3.838   2.642   1.840  0.3889  0.1032 -0.3077
 2151SOL    HW118086   3.759   2.635   1.892  1.0491  4.4174  1.2608
 2151SOL    HW218087   3.834   2.733   1.810  2.1228  0.8632  1.7905
 2152SOL     OW18088   0.462   3.386   2.017  0.6111  0.7090  0.2552
 2152SOL    HW118089   0.375   3.347   2.026  1.5165 -1.4869 -0.4136
 2152SOL    HW218090   0.451   3.406   1.924 -2.0978 -2.5152 -0.1133
 2153SOL     OW18091   0.597   0.257   7.358 -0.5555  0.5359  0.4451
 2153SOL    HW118092   0.616   0.310   7.280 -0.1202 -2.2100 -1.3035
 2153SOL    HW218093   0.683   0.232   7.393 -0.4609 -2.4459 -1.9222
 2154SOL     OW18094   1.060   3.758  14.073  0.4535 -0.2075 -0.5319
 2154SOL    HW118095   0.981   3.759  14.126  0.7823  2.2628 -0.1064
 2154SOL    HW218096   1.131   3.743  14.136  0.2265  1.0165  0.0038
 2155SOL     OW18097   0.550   3.888   8.632 -0.0926 -0.1563  0.6679
 2155SOL    HW118098   0.609   3.920   8.700 -0.4646  0.9961  0.4333
 2155SOL    HW218099   0.485   3.957   8.626  0.1951  0.0619  0.0394
 2156SOL     OW18100   3.364   0.008   3.301  0.3383  0.1328  0.4887
 2156SOL    HW118101   3.273   4.737   3.274  0.5392  0.0303 -0.1458
 2156SOL    HW218102   3.364   4.702   3.384 -0.4025 -0.3341  0.2193
 2157SOL     OW18103   0.531   2.739   4.074 -0.0614  0.3438 -0.2346
 2157SOL    HW118104   0.503   2.734   4.166  0.6762  1.6400  0.0625
 2157SOL    HW218105   0.479   2.667   4.038  2.2380 -0.8466 -1.1858
 2158SOL     OW18106   2.027   2.834   3.579 -0.0543 -0.3019  0.3443
 2158SOL    HW118107   2.110   2.825   3.533 -1.0633 -1.2178 -1.3272
 2158SOL    HW218108   1.973   2.762   3.545  0.5101 -0.5591 -0.0199
 2159SOL     OW18109   4.264   2.725   2.770  0.2217  0.2080  0.2004
 2159SOL    HW118110   4.286   2.756   2.858 -2.1134  1.3740  0.3743
 2159SOL    HW218111   4.337   2.664   2.759  1.2691  2.1667 -3.6466
 2160SOL     OW18112   2.923   3.672   9.560 -0.5061  0.2318 -0.0193
 2160SOL    HW118113   2.833   3.654   9.588 -0.3707 -0.3454  0.0412
 2160SOL    HW218114   2.961   3.664   9.648  2.5534 -2.8769 -1.6203
 2161SOL     OW18115   2.171   1.375  13.245  0.0176  0.0022  0.1780
 2161SOL    HW118116   2.207   1.390  13.333  1.0120 -1.6051  0.0383
 2161SOL    HW218117   2.136   1.462  13.228 -1.8137 -0.6037  0.8639
 2162SOL     OW18118   0.424   4.176  17.633  0.1966 -0.0001 -0.3496
 2162SOL    HW118119   0.348   4.182  17.575  2.0151  0.8311 -2.6539
 2162SOL    HW218120   0.433   4.271  17.634  1.8044 -0.1947  1.6586
 2163SOL     OW18121   2.316   3.669   7.036 -0.4295 -0.6117  0.4695
 2163SOL    HW118122   2.314   3.755   7.077 -0.5262  0.3481 -1.5564
 2163SOL    HW218123   2.363   3.679   6.953  1.1832 -0.3966  1.4071
 2164SOL     OW18124   0.171   3.761  10.963  0.0154  0.1912 -0.3625
 2164SOL    HW118125   0.211   3.777  11.048 -0.6756 -1.7815  0.3445
 2164SOL    HW218126   0.212   3.825  10.905  0.0319  0.6230  0.1270
 2165SOL     OW18127   4.376   4.631   8.646  0.3325 -0.2298 -0.1541
 2165SOL    HW118128   4.312   4.566   8.618 -2.3851  1.2522  2.5681
 2165SOL    HW218129   4.334   4.685   8.713  0.6069 -0.8095  0.4905
 2166SOL     OW18130   3.977   0.259   2.562 -0.5250 -0.4892  0.2143
 2166SOL    HW118131   3.972   0.227   2.652  0.0265 -0.5303  0.2308
 2166SOL    HW218132   3.946   0.181   2.517 -1.0114  1.6219 -3.0845
 2167SOL     OW18133   2.863   2.041   7.574  0.0940 -0.1061  0.1113
 2167SOL    HW118134   2.838   2.129   7.546  0.3360 -0.1937 -0.3823
 2167SOL    HW218135   2.883   2.055   7.666  0.2327 -2.9575  0.5273
 2168SOL     OW18136   3.359   2.899   5.955 -0.7229  0.1762 -0.2400
 2168SOL    HW118137   3.344   2.963   6.025  1.5873 -0.7219  1.0560
 2168SOL    HW218138   3.329   2.954   5.883 -0.2080 -0.5119 -0.9628
 2169SOL     OW18139   0.026   0.645   6.856  0.0600 -0.3378 -0.5309
 2169SOL    HW118140   0.049   0.733   6.885  1.0224 -0.8415  0.2356
 2169SOL    HW218141   4.682   0.673   6.821 -0.4681  0.5231  1.4943
 2170SOL     OW18142   1.408   2.847   4.311 -0.8981  0.5940  0.0804
 2170SOL    HW118143   1.412   2.771   4.370 -1.5529  0.9712  0.6157
 2170SOL    HW218144   1.324   2.885   4.336 -0.6593 -0.7387  2.9705
 2171SOL     OW18145   0.078   1.007   5.496  0.8114 -0.3608 -0.0962
 2171SOL    HW118146   0.064   1.077   5.560  2.5949  0.2046 -0.3397
 2171SOL    HW218147   0.012   1.027   5.430  1.5457 -2.9320 -1.6070
 2172SOL     OW18148   2.098   4.220   5.600  0.4241 -0.0840 -0.3026
 2172SOL    HW118149   2.180   4.259   5.629  0.4042 -0.9427  0.9495
 2172SOL    HW218150   2.124   4.196   5.512  1.2094  2.8471 -0.8793
 2173SOL     OW18151   2.486   1.155   7.162 -0.5361 -0.1195  0.3401
 2173SOL    HW118152   2.435   1.094   7.108 -1.2321  2.7176 -2.1976
 2173SOL    HW218153   2.510   1.217   7.094  0.6386  1.0397  1.8364
 2174SOL     OW18154   3.451   2.167   3.027  0.2520  0.5530 -0.2394
 2174SOL    HW118155   3.374   2.174   2.970  0.2530 -0.6348 -0.4013
 2174SOL    HW218156   3.434   2.084   3.071 -1.1837  1.0826  0.1913
 2175SOL     OW18157   2.795   3.429  12.188  0.2528 -0.1965 -0.5369
 2175SOL    HW118158   2.817   3.498  12.251  0.9872  0.0247 -1.0449
 2175SOL    HW218159   2.833   3.452  12.104  0.9378  1.0422  0.1210
 2176SOL     OW18160   2.051   2.775   7.512 -0.2771  0.1708 -0.1931
 2176SOL    HW118161   2.079   2.793   7.423 -0.6662  0.4522 -0.2579
 2176SOL    HW218162   2.039   2.865   7.543  1.2733  1.0727 -2.3011
 2177SOL     OW18163   3.874   0.856   7.332 -0.1479  0.1336 -0.7514
 2177SOL    HW118164   3.835   0.815   7.409 -0.1011  0.7995 -0.3757
 2177SOL    HW218165   3.963   0.856   7.366 -0.4046  0.5266 -0.0977
 2178SOL     OW18166   0.876   1.267   4.948 -0.5651  0.4609  0.1663
 2178SOL    HW118167   0.828   1.290   5.028  0.2605 -2.7195  1.5807
 2178SOL    HW218168   0.827   1.192   4.916 -0.6946  0.8110 -0.4507
 2179SOL     OW18169   1.913   4.537   4.378 -0.1788 -0.2686  0.5792
 2179SOL    HW118170   1.938   4.460   4.327 -1.2057 -0.4108  0.2930
 2179SOL    HW218171   1.877   4.597   4.313  1.2822 -0.5467 -0.4919
 2180SOL     OW18172   0.319   0.584   4.690 -1.0303  0.1512  0.2044
 2180SOL    HW118173   0.385   0.633   4.640  1.2559 -2.7911  0.3285
 2180SOL    HW218174   0.350   0.603   4.779 -0.1879 -2.4778  0.4785
 2181SOL     OW18175   3.254   1.435  16.407 -0.2377  0.2403 -0.0512
 2181SOL    HW118176   3.234   1.360  16.464 -0.4943  2.0584  2.2801
 2181SOL    HW218177   3.296   1.499  16.465  0.4745  0.2360 -0.5717
 2182SOL     OW18178   3.233   2.712   9.316 -0.1574  0.4294 -0.1726
 2182SOL    HW118179   3.156   2.763   9.341 -1.3688 -1.2564 -0.4825
 2182SOL    HW218180   3.239   2.643   9.382 -0.2172 -0.5672 -1.2043
 2183SOL     OW18181   4.205   1.031   3.850  0.4615  0.3595 -0.2012
 2183SOL    HW118182   4.131   0.976   3.824  0.2716 -0.5187  2.1293
 2183SOL    HW218183   4.233   0.967   3.917  0.8385  2.1413  1.3437
 2184SOL     OW18184   1.511   3.363   6.070  0.0838 -0.1002 -0.1895
 2184SOL    HW118185   1.507   3.444   6.121  0.6632  0.5532 -1.1799
 2184SOL    HW218186   1.542   3.392   5.984  1.1113 -0.9384 -0.0994
 2185SOL     OW18187   0.698   0.779   5.412 -0.5322 -0.6060 -0.5434
 2185SOL    HW118188   0.700   0.700   5.358  0.6531  0.2036 -1.6815
 2185SOL    HW218189   0.758   0.839   5.367  0.1373 -1.9950 -1.4987
 2186SOL     OW18190   0.074   0.753  12.336  0.0130  0.5630 -0.2609
 2186SOL    HW118191   0.151   0.795  12.375 -1.0840  0.3906  2.0960
 2186SOL    HW218192   0.039   0.819  12.276  1.1524 -0.1195 -1.6878
 2187SOL     OW18193   4.614   3.341   7.292  0.2540 -0.3127 -0.2998
 2187SOL    HW118194   4.631   3.368   7.202  1.0843  0.9454  0.2395
 2187SOL    HW218195   4.634   3.422   7.338 -0.4465 -0.0324 -0.4930
 2188SOL     OW18196   0.942   4.255   7.219 -0.2191  0.0711  0.3886
 2188SOL    HW118197   0.865   4.304   7.191  0.9321  0.0113 -2.8607
 2188SOL    HW218198   0.912   4.175   7.263 -1.2709  0.2903  0.0680
 2189SOL     OW18199   2.295   4.330   0.350 -0.3867  0.2404  0.0835
 2189SOL    HW118200   2.325   4.310   0.262 -1.9023 -0.3308 -0.3025
 2189SOL    HW218201   2.340   4.412   0.372  0.4117  0.1649 -1.2935
 2190SOL     OW18202   3.033   2.786   9.503 -0.3057  0.0170 -0.0998
 2190SOL    HW118203   3.002   2.846   9.435 -0.8992  0.4362  0.5515
 2190SOL    HW218204   2.955   2.777   9.557 -1.2041  1.5139 -1.1407
 2191SOL     OW18205   1.269   0.317   8.000  0.2895  0.4425 -0.2086
 2191SOL    HW118206   1.275   0.376   8.075  0.0874  1.2619 -0.8311
 2191SOL    HW218207   1.340   0.344   7.942  1.9340 -0.2693  1.4692
 2192SOL     OW18208   1.998   3.450  13.872 -0.2258 -0.1430 -0.3843
 2192SOL    HW118209   2.017   3.509  13.799  1.9854  0.0264  0.3361
 2192SOL    HW218210   1.956   3.517  13.926  2.5215 -0.8299  2.5693
 2193SOL     OW18211   3.484   1.524   7.267 -0.3480  0.0136 -1.1015
 2193SOL    HW118212   3.437   1.576   7.202 -1.8496 -1.0058 -0.8204
 2193SOL    HW218213   3.554   1.585   7.293  0.1686 -1.6348  1.4057
 2194SOL     OW18214   4.157   1.965  10.740  0.0750 -0.1239  0.3230
 2194SOL    HW118215   4.137   1.885  10.788 -1.4209 -0.7346 -1.3511
 2194SOL    HW218216   4.150   1.939  10.648 -0.4039 -1.0904  0.6330
 2195SOL     OW18217   4.384   4.169   6.004 -0.0643 -0.3429 -0.0129
 2195SOL    HW118218   4.463   4.219   6.023 -0.2663  0.0518 -0.2185
 2195SOL    HW218219   4.340   4.162   6.088 -1.2784 -1.7779 -0.7638
 2196SOL     OW18220   0.722   3.694   4.303 -0.4425  0.3856 -0.3412
 2196SOL    HW118221   0.730   3.685   4.398 -1.1688  0.4389 -0.2791
 2196SOL    HW218222   0.808   3.731   4.281  0.2957 -1.3181 -0.3506
 2197SOL     OW18223   3.142   2.135   3.188  0.1205 -0.0731  0.3998
 2197SOL    HW118224   3.074   2.122   3.253 -1.4920 -0.5000 -1.3694
 2197SOL    HW218225   3.108   2.216   3.149  0.2415 -0.0675  0.3055
 2198SOL     OW18226   3.379   0.453   6.310 -0.6523  0.3844 -0.7288
 2198SOL    HW118227   3.344   0.522   6.253  0.4430  0.5669 -1.1857
 2198SOL    HW218228   3.465   0.432   6.273 -0.1080  0.9700  0.2024
 2199SOL     OW18229   3.955   2.913   3.168  0.7093  0.2898  0.3579
 2199SOL    HW118230   3.904   2.994   3.174  0.9216  0.4544 -0.0613
 2199SOL    HW218231   3.913   2.858   3.102  0.2062  1.5661 -0.3762
 2200SOL     OW18232   3.515   4.453  17.669  0.0306 -0.1716 -0.2706
 2200SOL    HW118233   3.546   4.370  17.707  0.7654  0.4179  0.4067
 2200SOL    HW218234   3.582   4.478  17.605 -1.1271  1.7911 -0.7141
 2201SOL     OW18235   4.554   2.208   5.404  0.4136 -0.1481  0.2034
 2201SOL    HW118236   4.540   2.297   5.373  2.0964 -0.1208 -0.4953
 2201SOL    HW218237   4.615   2.175   5.338 -1.3841 -2.1728 -0.4413
 2202SOL     OW18238   0.265   2.363  13.488  0.3485 -0.1327  0.8218
 2202SOL    HW118239   0.182   2.406  13.507  0.7924  1.9607 -2.0132
 2202SOL    HW218240   0.240   2.272  13.501  1.0763 -0.3103  0.9644
 2203SOL     OW18241   0.142   0.907   8.476  0.5567  0.3454 -0.4930
 2203SOL    HW118242   0.225   0.894   8.520  1.6694  3.6490 -1.6504
 2203SOL    HW218243   0.092   0.830   8.504 -1.2603  1.2897 -1.1042
 2204SOL     OW18244   3.059   4.005   6.868 -0.2779  0.6146 -0.5964
 2204SOL    HW118245   3.072   4.021   6.961 -0.3806 -3.7872  0.1910
 2204SOL    HW218246   3.122   3.933   6.859 -1.2483 -0.0344 -2.3436
 2205SOL     OW18247   0.927   4.310  17.709 -0.1966 -0.0220  0.1826
 2205SOL    HW118248   0.921   4.390  17.761  1.4456 -1.1208  2.0665
 2205SOL    HW218249   0.892   4.345  17.627 -0.4388 -2.5329 -0.8047
 2206SOL     OW18250   4.113   2.971   7.191  0.2916  0.1360  0.2058
 2206SOL    HW118251   4.204   2.971   7.219  0.3649 -0.8053 -0.0165
 2206SOL    HW218252   4.082   2.888   7.229  0.0371 -0.0008 -0.2986
 2207SOL     OW18253   2.278   4.586   1.698 -0.5322 -0.5623  0.3352
 2207SOL    HW118254   2.249   4.562   1.610  0.1514 -1.1139  0.2588
 2207SOL    HW218255   2.274   4.502   1.743  2.3268 -0.3674  0.9289
 2208SOL     OW18256   3.236   1.848   8.706 -0.1568 -0.6688 -0.0344
 2208SOL    HW118257   3.248   1.777   8.770  3.3770  1.3637  1.5437
 2208SOL    HW218258   3.147   1.833   8.675 -0.1472  0.3007 -0.5181
 2209SOL     OW18259   2.921   1.109   1.298 -0.3652  0.0831 -0.2713
 2209SOL    HW118260   2.929   1.171   1.225  3.6935  0.1855  0.2550
 2209SOL    HW218261   3.009   1.107   1.336 -0.7946 -1.7550  0.6220
 2210SOL     OW18262   2.459   4.152  14.455  0.6531  0.1106 -0.1850
 2210SOL    HW118263   2.491   4.103  14.378  0.5689 -0.8499  0.3933
 2210SOL    HW218264   2.542   4.183  14.491  0.0485  1.8369 -0.3001
 2211SOL     OW18265   3.893   1.427   5.585 -0.5843 -0.3042 -0.0282
 2211SOL    HW118266   3.856   1.339   5.588  2.7579 -1.7997 -2.1228
 2211SOL    HW218267   3.827   1.488   5.615 -0.3186  0.3832 -0.8519
 2212SOL     OW18268   0.176   4.040  16.747 -0.1033 -0.1469 -1.0909
 2212SOL    HW118269   0.091   4.071  16.776 -0.5569 -1.4462 -1.0506
 2212SOL    HW218270   0.222   4.029  16.830 -0.1304  1.2594 -0.8782
 2213SOL     OW18271   2.945   1.607  10.611  0.0851  0.3351  0.1999
 2213SOL    HW118272   2.971   1.689  10.653 -0.1570  0.6433 -0.2620
 2213SOL    HW218273   2.900   1.639  10.533  1.5159 -1.0818 -1.1897
 2214SOL     OW18274   1.854   2.435   7.256 -0.0678 -0.3117 -0.2196
 2214SOL    HW118275   1.797   2.362   7.230  0.7197 -0.7220 -0.8152
 2214SOL    HW218276   1.849   2.423   7.350 -1.6999  1.6905 -0.0582
 2215SOL     OW18277   4.615   4.092   8.016 -0.5882 -0.1370 -0.1132
 2215SOL    HW118278   4.617   4.064   7.924  0.4804 -1.2517  0.2480
 2215SOL    HW218279   4.552   4.025   8.044 -1.0480  0.8038  1.0982
 2216SOL     OW18280   3.968   1.974   6.574 -0.3074  0.2507  0.3179
 2216SOL    HW118281   4.059   1.987   6.602 -0.1253 -0.4956  0.0915
 2216SOL    HW218282   3.940   2.046   6.518 -1.2901  0.5055  1.1407
 2217SOL     OW18283   2.926   1.278   2.333 -0.5416  0.3888  0.0077
 2217SOL    HW118284   2.985   1.340   2.289  1.3876 -1.3495  0.1235
 2217SOL    HW218285   2.942   1.197   2.286 -0.9083  1.9995 -2.8650
 2218SOL     OW18286   2.328   3.707   2.783  0.8740  0.2557  0.4993
 2218SOL    HW118287   2.340   3.773   2.715  1.3041  0.8776  1.1772
 2218SOL    HW218288   2.240   3.730   2.815  1.2973  0.2559  1.6676
 2219SOL     OW18289   0.256   0.524   9.045 -0.1953  0.0771 -0.3784
 2219SOL    HW118290   0.284   0.526   8.953  2.0144  0.9060  0.3058
 2219SOL    HW218291   0.162   0.509   9.054  0.0586 -1.6240 -0.6391
 2220SOL     OW18292   3.913   1.332   7.492  0.4343  0.4245 -0.0270
 2220SOL    HW118293   3.945   1.410   7.448 -1.5128  0.5566 -1.2322
 2220SOL    HW218294   3.971   1.264   7.458 -0.8727 -0.5747 -0.2624
 2221SOL     OW18295   0.599   3.614   0.415  0.0831  0.0177  0.0453
 2221SOL    HW118296   0.650   3.568   0.349 -1.3282 -0.7559 -0.4909
 2221SOL    HW218297   0.517   3.618   0.366 -0.1202 -1.5734  0.2542
 2222SOL     OW18298   0.170   1.399  11.858  0.2391  0.4829  0.1691
 2222SOL    HW118299   0.246   1.341  11.853 -0.9331 -1.0121 -0.3333
 2222SOL    HW218300   0.103   1.338  11.888  0.1482  0.1463 -0.7316
 2223SOL     OW18301   2.289   1.612   8.628  1.0397  0.0683  0.2522
 2223SOL    HW118302   2.281   1.521   8.656 -2.7503  0.6236  0.9229
 2223SOL    HW218303   2.200   1.607   8.592  0.4573 -1.2844  1.8825
 2224SOL     OW18304   1.350   1.258  17.409 -0.2008  0.3654 -0.3281
 2224SOL    HW118305   1.423   1.203  17.381  0.7389  1.4838 -0.0744
 2224SOL    HW218306   1.399   1.319  17.464  0.9811 -0.5514 -0.3592
 2225SOL     OW18307   4.358   2.559   5.269 -0.0205 -0.2502  0.2338
 2225SOL    HW118308   4.333   2.506   5.193 -1.9858  1.2236 -0.1458
 2225SOL    HW218309   4.451   2.569   5.250  0.3707 -0.6478  1.8438
 2226SOL     OW18310   1.900   1.467   2.830 -0.4613 -0.5478  0.6634
 2226SOL    HW118311   1.981   1.433   2.791  0.3851  1.6707  0.5243
 2226SOL    HW218312   1.879   1.391   2.885  0.7920 -1.1616  0.2887
 2227SOL     OW18313   1.334   2.833  17.048 -0.3463 -0.0844 -0.1385
 2227SOL    HW118314   1.340   2.868  16.959  0.5979  0.3029  0.0809
 2227SOL    HW218315   1.418   2.787  17.049 -0.7178 -0.7520  0.3538
 2228SOL     OW18316   0.150   1.169  10.317 -0.1287  0.3024 -0.3470
 2228SOL    HW118317   0.071   1.123  10.289  0.1864 -0.0372 -0.6870
 2228SOL    HW218318   0.168   1.130  10.403 -1.5368 -2.0648 -1.1326
 2229SOL     OW18319   3.879   2.213   8.898  0.5683 -0.6789  0.0348
 2229SOL    HW118320   3.797   2.218   8.948  0.7826 -0.4258  0.3574
 2229SOL    HW218321   3.891   2.119   8.909  0.9331 -0.6867 -0.4805
 2230SOL     OW18322   3.336   1.827   1.198 -0.8126  0.8521 -0.5302
 2230SOL    HW118323   3.383   1.906   1.169 -0.6739  1.2967  0.9105
 2230SOL    HW218324   3.331   1.847   1.291  2.2545  0.0856 -0.2156
 2231SOL     OW18325   0.288   3.245   3.337  0.2520 -0.1822  0.2794
 2231SOL    HW118326   0.309   3.338   3.329 -0.1974 -0.0718  0.4158
 2231SOL    HW218327   0.368   3.204   3.371  0.1325  0.8852  1.8301
 2232SOL     OW18328   2.892   4.195  11.695 -0.2292  0.0674 -0.1873
 2232SOL    HW118329   2.825   4.259  11.721 -0.7529 -0.5804  0.0606
 2232SOL    HW218330   2.848   4.159  11.618 -0.4817  0.0283 -0.0259
 2233SOL     OW18331   2.707   2.082   2.612 -0.0205 -0.3943  0.2227
 2233SOL    HW118332   2.717   2.176   2.630 -1.2997 -0.0479 -0.8907
 2233SOL    HW218333   2.648   2.070   2.687 -0.6541 -2.3448 -0.6099
 2234SOL     OW18334   2.658   1.197   3.677 -0.2691  0.0775 -0.1716
 2234SOL    HW118335   2.583   1.143   3.704 -0.8401  2.0392  2.1320
 2234SOL    HW218336   2.666   1.177   3.584  1.0082 -2.6606  0.5299
 2235SOL     OW18337   0.944   3.571   2.648  0.4687 -0.1333 -0.0433
 2235SOL    HW118338   0.866   3.623   2.629  1.4362  1.1082 -0.5839
 2235SOL    HW218339   0.916   3.482   2.629  2.8247 -0.5504 -1.5811
 2236SOL     OW18340   2.468   1.973   6.052  0.0011  0.0327 -0.2593
 2236SOL    HW118341   2.441   2.063   6.068  1.1983  0.6791 -1.8421
 2236SOL    HW218342   2.454   1.968   5.957  2.1471  4.3401 -0.7675
 2237SOL     OW18343   1.108   3.289   8.675  0.3659  0.2648 -0.2891
 2237SOL    HW118344   1.125   3.208   8.628  0.7829  0.2221 -0.0642
 2237SOL    HW218345   1.182   3.289   8.736 -0.4722 -0.7829  0.7207
 2238SOL     OW18346   2.793   3.536   2.228 -0.1740 -0.1183  0.3091
 2238SOL    HW118347   2.787   3.610   2.167  0.5451  0.2684  0.7157
 2238SOL    HW218348   2.706   3.555   2.265 -0.4769  0.4917 -0.7064
 2239SOL     OW18349   2.424   2.308   7.411 -0.0444 -0.9752 -0.2481
 2239SOL    HW118350   2.329   2.296   7.409 -0.1723  0.3165 -2.4140
 2239SOL    HW218351   2.453   2.281   7.324 -0.8196  2.3971 -1.5825
 2240SOL     OW18352   1.823   4.258   5.596  0.4483 -0.2982  0.6940
 2240SOL    HW118353   1.918   4.261   5.603  0.4533 -0.2181  0.5841
 2240SOL    HW218354   1.801   4.165   5.589  1.8063 -0.7417  2.3380
 2241SOL     OW18355   2.091   0.363   1.673  0.8116 -0.6157 -0.0173
 2241SOL    HW118356   2.016   0.379   1.616  1.3071 -0.7741 -0.7218
 2241SOL    HW218357   2.131   0.288   1.629  0.3554  0.4815 -2.3368
 2242SOL     OW18358   1.744   3.014   4.945 -0.3564 -0.9118  0.1359
 2242SOL    HW118359   1.678   3.004   4.877  3.3881 -1.0906 -3.4698
 2242SOL    HW218360   1.818   3.055   4.899 -0.3494 -0.2457  0.7444
 2243SOL     OW18361   3.316   3.191   6.403 -0.7897  0.0887  0.2861
 2243SOL    HW118362   3.271   3.171   6.486 -0.6837 -0.8588  0.1133
 2243SOL    HW218363   3.254   3.254   6.365  0.8367  2.1962  1.1490
 2244SOL     OW18364   3.168   2.480   8.543 -0.3056  0.6080  0.5823
 2244SOL    HW118365   3.142   2.428   8.619  1.6253  1.8058  2.0536
 2244SOL    HW218366   3.083   2.508   8.510 -0.0218 -0.3956 -1.0083
 2245SOL     OW18367   1.723   4.665   6.796  0.3337 -0.3105  0.4109
 2245SOL    HW118368   1.755   4.586   6.753 -0.2166 -0.7576  0.8185
 2245SOL    HW218369   1.702   4.732   6.732  0.1242 -0.1402  0.6564
 2246SOL     OW18370   2.291   2.966   4.556 -0.1168  0.1289  0.4486
 2246SOL    HW118371   2.229   2.893   4.552  0.2723 -0.0981 -1.4123
 2246SOL    HW218372   2.283   3.004   4.469 -0.1449 -0.1737  0.3200
 2247SOL     OW18373   1.178   4.530   0.298  0.3413 -0.2865 -0.5919
 2247SOL    HW118374   1.239   4.457   0.299  0.3064 -0.3580 -3.3875
 2247SOL    HW218375   1.169   4.545   0.203  1.1782 -0.8356 -0.7568
 2248SOL     OW18376   3.769   3.438   6.526 -0.0772  0.5195 -0.0237
 2248SOL    HW118377   3.785   3.360   6.473 -1.9751  1.0553 -1.3985
 2248SOL    HW218378   3.735   3.409   6.610  2.2337 -0.0762  0.7038
 2249SOL     OW18379   3.402   4.428   9.291  0.7251  0.3075  0.7582
 2249SOL    HW118380   3.463   4.384   9.351  0.6266  1.8983  2.0138
 2249SOL    HW218381   3.325   4.440   9.345  0.0130 -1.7578  0.2041
 2250SOL     OW18382   4.082   2.691   5.911  0.2239 -0.0100 -0.7358
 2250SOL    HW118383   4.165   2.664   5.871 -0.3645 -0.1292 -1.8623
 2250SOL    HW218384   4.015   2.669   5.847  0.2150  3.6546 -1.9586
 2251SOL     OW18385   3.946   4.191   6.515 -0.0796 -0.0373  0.0631
 2251SOL    HW118386   3.890   4.164   6.442  0.0954 -1.4636  0.4618
 2251SOL    HW218387   3.897   4.151   6.586 -0.5282  1.1990  0.4545
 2252SOL     OW18388   2.699   3.765   8.585 -0.2076  0.0078 -0.4863
 2252SOL    HW118389   2.670   3.849   8.551  2.1466  1.2941  0.6418
 2252SOL    HW218390   2.619   3.723   8.615  0.8798 -0.7622  1.3811
 2253SOL     OW18391   2.330   2.785  10.576 -0.0171 -0.0385 -0.0843
 2253SOL    HW118392   2.335   2.702  10.528 -0.9052  0.8870 -1.7983
 2253SOL    HW218393   2.246   2.821  10.548 -0.0084 -0.4792 -0.6748
 2254SOL     OW18394   0.211   3.284   2.006  0.5699  0.7810  0.1715
 2254SOL    HW118395   0.153   3.347   2.047 -1.1913  0.7885 -2.3325
 2254SOL    HW218396   0.158   3.258   1.930  1.1496 -2.1614  0.7623
 2255SOL     OW18397   3.097   4.465   3.474 -0.3130 -0.1245  0.7088
 2255SOL    HW118398   3.147   4.401   3.423  0.0176 -0.1709  1.0943
 2255SOL    HW218399   3.168   4.525   3.495  0.0869 -0.2726 -0.1965
 2256SOL     OW18400   4.110   4.401   8.364  0.0782 -0.3737 -0.1548
 2256SOL    HW118401   4.019   4.392   8.336  0.6632  0.9414 -2.5700
 2256SOL    HW218402   4.114   4.493   8.390  1.2124  0.4535 -3.2390
 2257SOL     OW18403   4.520   1.877  17.302  0.2910  0.1198  0.2661
 2257SOL    HW118404   4.532   1.829  17.384  1.0228  1.8156  1.1546
 2257SOL    HW218405   4.467   1.812  17.257  0.1631  0.9854 -0.8592
 2258SOL     OW18406   2.153   1.485  16.785  0.4595  0.1671  0.1024
 2258SOL    HW118407   2.197   1.401  16.796  0.6847 -0.0441 -2.6405
 2258SOL    HW218408   2.196   1.519  16.707  0.2564  0.9854  0.3380
 2259SOL     OW18409   1.806   4.065  15.965 -0.2067  0.0201  0.7221
 2259SOL    HW118410   1.853   3.985  15.991  0.0846  0.1694  0.6591
 2259SOL    HW218411   1.878   4.124  15.943  1.0036 -2.2549 -1.5092
 2260SOL     OW18412   3.904   1.950   2.088  0.3266  0.1299  0.0905
 2260SOL    HW118413   3.898   1.889   2.162  1.3865  1.4515  1.2836
 2260SOL    HW218414   3.882   2.033   2.131  1.1623 -0.7786  2.2832
 2261SOL     OW18415   1.610   3.686   0.974  0.4827  0.3845  0.2718
 2261SOL    HW118416   1.682   3.733   0.930 -1.7679  2.2892 -1.3592
 2261SOL    HW218417   1.569   3.763   1.012  1.2200  0.8016  0.2338
 2262SOL     OW18418   3.822   2.378   3.889 -0.1701  0.4003 -0.5196
 2262SOL    HW118419   3.861   2.463   3.871  0.9392 -0.3404 -1.6006
 2262SOL    HW218420   3.739   2.383   3.842 -2.0163  1.6179  2.8383
 2263SOL     OW18421   4.475   2.336   7.921  0.0224 -0.7059  0.2988
 2263SOL    HW118422   4.537   2.403   7.950  0.4506 -1.4428  1.0490
 2263SOL    HW218423   4.393   2.386   7.924 -0.4443 -1.5072  0.8500
 2264SOL     OW18424   2.854   2.367   1.530  0.6011  0.2581  0.2143
 2264SOL    HW118425   2.878   2.445   1.479  0.0185 -0.5481 -1.2816
 2264SOL    HW218426   2.815   2.412   1.605  0.3974 -0.9879  0.8574
 2265SOL     OW18427   4.269   2.799   4.192 -0.3853  0.0201  0.1158
 2265SOL    HW118428   4.233   2.862   4.130 -0.0093  1.1072  0.9980
 2265SOL    HW218429   4.302   2.733   4.130 -1.3600 -1.4394  1.1602
 2266SOL     OW18430   0.965   1.707   2.412 -0.2003 -0.5687 -0.0441
 2266SOL    HW118431   1.021   1.765   2.463 -1.3502  0.3704  0.1344
 2266SOL    HW218432   0.881   1.751   2.417 -1.4136 -2.6599 -1.7819
 2267SOL     OW18433   1.789   3.351   4.146 -0.1719 -0.0787 -0.3554
 2267SOL    HW118434   1.739   3.381   4.222  1.4196 -1.0453  1.0803
 2267SOL    HW218435   1.769   3.257   4.150 -1.6047  0.1982 -1.0309
 2268SOL     OW18436   2.221   4.475   5.719 -0.7890  0.1467  0.4535
 2268SOL    HW118437   2.263   4.402   5.764  1.8165  1.8632  0.7814
 2268SOL    HW218438   2.247   4.458   5.629 -0.3503 -0.1383  0.6343
 2269SOL     OW18439   4.465   1.001   3.036  0.0217 -0.4369 -0.1509
 2269SOL    HW118440   4.387   1.011   2.982 -0.2902 -0.1833  0.3427
 2269SOL    HW218441   4.471   1.079   3.092  0.8284  0.2068 -1.1384
 2270SOL     OW18442   1.360   3.287   8.854 -0.4128 -0.1549  0.1368
 2270SOL    HW118443   1.413   3.359   8.888 -0.3371 -0.7919  1.4008
 2270SOL    HW218444   1.383   3.211   8.908 -0.9533  0.5686  1.4026
 2271SOL     OW18445   3.339   4.002   7.832 -0.4177 -0.3732 -0.1818
 2271SOL    HW118446   3.344   3.917   7.787  0.5841 -1.0328  1.1659
 2271SOL    HW218447   3.365   4.057   7.758 -0.2810 -1.8242 -1.2307
 2272SOL     OW18448   2.755   4.126   8.932  0.2630 -0.7074 -0.0742
 2272SOL    HW118449   2.707   4.192   8.981  1.0249  1.5045 -2.3251
 2272SOL    HW218450   2.784   4.182   8.860 -0.3263 -1.1855 -0.6896
 2273SOL     OW18451   1.639   0.706   0.226  0.2666  0.2196 -0.0769
 2273SOL    HW118452   1.569   0.753   0.271 -0.6094 -0.4859 -0.7026
 2273SOL    HW218453   1.699   0.693   0.299  2.4441 -0.4879 -1.9768
 2274SOL     OW18454   4.530   3.262   5.264 -0.4825 -1.0349  0.4129
 2274SOL    HW118455   4.578   3.188   5.228  0.3947 -0.2847  0.0601
 2274SOL    HW218456   4.539   3.334   5.203 -0.3966 -0.2791  1.3123
 2275SOL     OW18457   2.448   1.399  12.109  0.3462 -0.2557  0.2906
 2275SOL    HW118458   2.431   1.493  12.096  0.3521 -0.4975 -1.4900
 2275SOL    HW218459   2.374   1.362  12.061  0.4812  1.4480 -1.2603
 2276SOL     OW18460   2.439   3.015   8.336  0.3958  0.5790  0.1252
 2276SOL    HW118461   2.506   2.949   8.323  0.3950  0.8551 -1.3139
 2276SOL    HW218462   2.495   3.083   8.374  0.3998  0.6888 -0.0766
 2277SOL     OW18463   1.771   1.988   9.966 -0.1084 -0.3782  0.1681
 2277SOL    HW118464   1.833   2.060   9.976 -1.0424  0.4212  0.1356
 2277SOL    HW218465   1.713   2.033   9.905 -2.7869 -1.6367  1.7935
 2278SOL     OW18466   4.087   3.944   1.419 -0.3416 -0.2921 -0.5042
 2278SOL    HW118467   4.171   3.991   1.413  0.2931 -1.4776 -0.9523
 2278SOL    HW218468   4.072   3.913   1.329  1.6734  5.0021 -2.6753
 2279SOL     OW18469   2.891   1.448   8.265 -0.0651 -0.3652  0.2303
 2279SOL    HW118470   2.946   1.515   8.224 -2.0313  0.9302 -0.2512
 2279SOL    HW218471   2.893   1.452   8.361  3.6810  1.7043  0.0754
 2280SOL     OW18472   2.475   1.057   8.238 -0.1359  0.0332 -0.6832
 2280SOL    HW118473   2.556   1.007   8.230  0.2276  0.7940 -1.8538
 2280SOL    HW218474   2.509   1.133   8.285 -2.9106  0.2676  0.9973
 2281SOL     OW18475   0.056   1.416   3.128  0.0995  0.1639 -0.6064
 2281SOL    HW118476   0.138   1.465   3.124  0.6804 -0.7924 -0.2946
 2281SOL    HW218477   0.076   1.339   3.181 -2.7547  0.9980  1.7070
 2282SOL     OW18478   2.038   1.279  17.019 -0.3826 -0.2371 -0.4669
 2282SOL    HW118479   2.057   1.277  16.926  0.2942 -1.8733 -0.2902
 2282SOL    HW218480   1.948   1.311  17.028 -1.1219 -2.7162  0.9411
 2283SOL     OW18481   1.831   0.770  15.020 -0.8910  0.5373 -0.0429
 2283SOL    HW118482   1.923   0.795  15.017 -0.4740 -1.1584 -1.0549
 2283SOL    HW218483   1.783   0.832  14.965  1.0725  3.2080  1.2598
 2284SOL     OW18484   3.336   2.733   1.549  0.4680  0.5127 -0.1482
 2284SOL    HW118485   3.382   2.653   1.525  2.9759  2.3304 -1.5252
 2284SOL    HW218486   3.342   2.777   1.464 -0.1106 -0.2706 -0.5893
 2285SOL     OW18487   3.833   0.911   4.341 -0.7151  0.2323 -0.2178
 2285SOL    HW118488   3.909   0.956   4.378 -0.4622  0.8548 -1.4876
 2285SOL    HW218489   3.854   0.818   4.342  0.0334  0.4385  2.5778
 2286SOL     OW18490   2.732   2.364   5.347 -0.0059 -0.0691  0.3493
 2286SOL    HW118491   2.827   2.356   5.355  0.3015  1.9675 -1.1830
 2286SOL    HW218492   2.706   2.383   5.437  0.6027 -0.5132  0.6212
 2287SOL     OW18493   4.734   3.735  11.252  0.3286 -0.5345  0.3505
 2287SOL    HW118494   4.716   3.787  11.330 -0.2535  1.0066 -0.8018
 2287SOL    HW218495   0.085   3.758  11.243  0.2914 -0.6275 -0.2772
 2288SOL     OW18496   1.679   0.433   5.276  0.5515  0.1205  0.8806
 2288SOL    HW118497   1.729   0.506   5.312 -2.1504  2.1663  0.5566
 2288SOL    HW218498   1.741   0.383   5.223  1.5244  0.0983  2.0319
 2289SOL     OW18499   1.489   2.318  16.458 -0.0141 -0.3139  0.1241
 2289SOL    HW118500   1.525   2.367  16.532 -0.3340 -0.6318  0.4868
 2289SOL    HW218501   1.538   2.236  16.466  1.2366  0.5608  1.3494
 2290SOL     OW18502   1.843   0.253   7.922  0.0180 -0.7371 -0.1187
 2290SOL    HW118503   1.782   0.310   7.968  2.2667  1.3730  0.2050
 2290SOL    HW218504   1.869   0.195   7.994  0.8096 -0.0207  0.1667
 2291SOL     OW18505   2.824   2.393   9.353 -0.1266 -0.0038  0.4619
 2291SOL    HW118506   2.737   2.425   9.378 -0.7868 -0.9930 -0.5429
 2291SOL    HW218507   2.797   2.301   9.351  2.1828 -0.6698  0.9658
 2292SOL     OW18508   1.424   2.282  16.161 -0.0686  0.0335  0.1855
 2292SOL    HW118509   1.433   2.313  16.251 -3.9177 -0.8454  0.8719
 2292SOL    HW218510   1.418   2.369  16.121 -3.2431 -0.2152  0.1341
 2293SOL     OW18511   4.197   2.187   7.281  0.4850 -0.3208  0.2231
 2293SOL    HW118512   4.129   2.192   7.214  0.3728  0.8980  0.4296
 2293SOL    HW218513   4.141   2.204   7.357 -0.0740 -2.7095  0.3343
 2294SOL     OW18514   0.803   1.843   0.445 -0.3606 -0.7555 -0.1409
 2294SOL    HW118515   0.801   1.938   0.453 -0.0507 -0.8903  1.4745
 2294SOL    HW218516   0.883   1.834   0.394 -0.6315 -3.4316 -0.0916
 2295SOL     OW18517   3.670   4.728   3.773 -0.2774 -0.4308  0.1620
 2295SOL    HW118518   3.672   0.045   3.849  0.7470 -1.0833  0.6227
 2295SOL    HW218519   3.610   4.663   3.808 -0.6184 -0.7302 -0.9605
 2296SOL     OW18520   1.381   1.000   4.701  0.6957  0.5378  0.0468
 2296SOL    HW118521   1.389   0.950   4.782 -0.5116  0.4427  0.1187
 2296SOL    HW218522   1.290   0.991   4.670 -0.4768  0.3269  3.5541
 2297SOL     OW18523   2.785   1.681   3.608 -0.0268  0.6944  0.1772
 2297SOL    HW118524   2.868   1.719   3.580  1.0716 -1.5035  0.4594
 2297SOL    HW218525   2.728   1.747   3.570 -0.1841  0.3036 -0.2648
 2298SOL     OW18526   4.136   4.527  17.409 -0.3609  0.6704  0.0165
 2298SOL    HW118527   4.072   4.582  17.453 -0.0892  1.9401 -1.1667
 2298SOL    HW218528   4.174   4.596  17.355  1.5550  0.0122  0.5169
 2299SOL     OW18529   0.640   1.119   5.148  0.0191  0.3647 -0.3591
 2299SOL    HW118530   0.671   1.209   5.161 -0.4163  0.1718  2.0648
 2299SOL    HW218531   0.554   1.126   5.187 -0.6202 -1.5170 -1.4106
 2300SOL     OW18532   2.588   4.058   7.577  0.0584 -0.4684 -0.3534
 2300SOL    HW118533   2.576   3.974   7.534 -0.7601 -1.1259  1.1736
 2300SOL    HW218534   2.636   4.023   7.652 -1.2711 -1.1766  0.1609
 2301SOL     OW18535   2.475   0.986  10.868 -0.1445 -0.5288  0.3527
 2301SOL    HW118536   2.463   0.920  10.935 -0.0573 -0.7826  0.1182
 2301SOL    HW218537   2.514   0.935  10.797  0.9012  1.9087 -0.8529
 2302SOL     OW18538   0.260   2.561  11.738  1.0292 -0.0752  0.1396
 2302SOL    HW118539   0.312   2.640  11.751  3.0599 -1.0538 -1.9131
 2302SOL    HW218540   0.172   2.598  11.744  0.1069 -2.5096  1.3991
 2303SOL     OW18541   2.088   1.070  10.813 -0.1052  0.3092 -0.5849
 2303SOL    HW118542   2.170   1.110  10.784 -0.2498  0.3776 -0.8935
 2303SOL    HW218543   2.047   1.024  10.740  3.4093  0.0855 -2.4264
 2304SOL     OW18544   0.873   0.207   3.309 -0.1306  0.0648  0.1757
 2304SOL    HW118545   0.807   0.139   3.298 -3.0217  2.9584 -0.3278
 2304SOL    HW218546   0.817   0.267   3.359 -0.0761  1.2813 -1.2375
 2305SOL     OW18547   3.216   1.576  10.575 -0.0675  0.5638  1.0798
 2305SOL    HW118548   3.123   1.559  10.588  0.1958 -1.7185 -0.0366
 2305SOL    HW218549   3.214   1.614  10.487  1.1038 -0.1788  0.7301
 2306SOL     OW18550   1.510   3.410   1.784 -0.2398 -0.2513  0.2574
 2306SOL    HW118551   1.530   3.479   1.720  0.2870 -1.4051 -0.8102
 2306SOL    HW218552   1.566   3.338   1.754  1.9411  1.3240  0.5114
 2307SOL     OW18553   3.796   3.658  11.476 -0.2376 -0.2357  0.1635
 2307SOL    HW118554   3.831   3.729  11.529 -0.4146 -1.1961  1.5910
 2307SOL    HW218555   3.864   3.592  11.488  0.1102  0.5277  2.3444
 2308SOL     OW18556   4.524   1.305  10.482 -0.3790 -0.0279  0.2469
 2308SOL    HW118557   4.516   1.281  10.574  1.2572 -1.3460  0.0550
 2308SOL    HW218558   4.597   1.366  10.476  0.7728 -1.5210 -1.1386
 2309SOL     OW18559   1.891   0.969   9.270 -0.1184  0.5384  0.0957
 2309SOL    HW118560   1.850   0.896   9.224  0.8574  1.3778 -2.1123
 2309SOL    HW218561   1.855   0.963   9.359 -0.1217 -0.0894  0.0502
 2310SOL     OW18562   3.665   0.149   7.397  0.2500 -0.4630 -0.3468
 2310SOL    HW118563   3.724   0.090   7.350  0.8151  0.4350 -0.7695
 2310SOL    HW218564   3.725   0.184   7.463 -1.0014 -2.1137  1.6414
 2311SOL     OW18565   1.333   0.441   7.034 -0.0723  0.2114  0.2923
 2311SOL    HW118566   1.296   0.357   7.007  0.9753  0.4663 -1.9112
 2311SOL    HW218567   1.259   0.492   7.069  2.6502  2.1701  3.1915
 2312SOL     OW18568   0.444   0.008   7.409 -0.3558  0.5734 -0.1092
 2312SOL    HW118569   0.373   4.713   7.356  0.2229  0.9069 -1.1014
 2312SOL    HW218570   0.490   0.079   7.364  1.5231 -0.2022  0.5629
 2313SOL     OW18571   1.310   3.073  17.162 -0.0448  0.1452 -0.5179
 2313SOL    HW118572   1.216   3.071  17.179  0.0544 -1.7504 -0.2547
 2313SOL    HW218573   1.334   2.985  17.133 -3.2651 -1.1345  0.6565
 2314SOL     OW18574   4.354   3.414  16.223 -0.1984 -0.2003  0.1584
 2314SOL    HW118575   4.322   3.501  16.249  1.4602 -0.1503  1.9644
 2314SOL    HW218576   4.283   3.358  16.254  0.0001 -0.8164 -0.4910
 2315SOL     OW18577   3.914   1.630   9.464  0.0042 -0.3830  0.1062
 2315SOL    HW118578   3.959   1.600   9.385 -2.2806  0.6824 -1.6249
 2315SOL    HW218579   3.879   1.551   9.504  3.2348 -0.2481  3.1254
 2316SOL     OW18580   3.192   1.010   6.730 -0.1548  0.4157 -0.1426
 2316SOL    HW118581   3.106   1.045   6.707  0.1756  2.5087  1.7888
 2316SOL    HW218582   3.208   1.057   6.812 -0.7041 -0.7019  0.6046
 2317SOL     OW18583   0.090   4.293   4.691  0.0966  0.0171  0.3898
 2317SOL    HW118584   0.098   4.198   4.682 -3.1833 -0.0295 -2.2852
 2317SOL    HW218585   0.018   4.304   4.629  1.1672 -1.7265 -1.1719
 2318SOL     OW18586   2.760   2.976  13.154 -0.6238 -0.2280 -0.0555
 2318SOL    HW118587   2.797   3.051  13.202 -2.0546  2.0346 -2.4830
 2318SOL    HW218588   2.682   3.026  13.128 -0.3612 -0.7698 -1.8836
 2319SOL     OW18589   0.677   4.733   8.388  0.1843  0.5163 -0.1519
 2319SOL    HW118590   0.611   0.043   8.341  1.3255 -0.0207 -2.3643
 2319SOL    HW218591   0.641   4.726   8.476  0.1928  0.0514 -0.1889
 2320SOL     OW18592   0.882   3.409  14.057  0.0421 -0.3390  0.3670
 2320SOL    HW118593   0.795   3.369  14.046  0.5546 -2.0338  2.3844
 2320SOL    HW218594   0.900   3.399  13.964  0.3153  1.7072  0.2133
 2321SOL     OW18595   2.183   4.100   6.043  0.0840  0.1365  0.0727
 2321SOL    HW118596   2.186   4.092   6.138 -3.1912  1.2606  0.2535
 2321SOL    HW218597   2.094   4.131   6.028 -0.7443 -2.5887 -0.6507
 2322SOL     OW18598   1.145   2.132   7.268  0.1106 -0.1283 -0.3139
 2322SOL    HW118599   1.159   2.188   7.191 -1.7738 -0.2100 -0.7050
 2322SOL    HW218600   1.123   2.048   7.228 -1.3977  0.1238  0.0098
 2323SOL     OW18601   1.561   3.637  10.382  0.8927 -0.4822  0.1313
 2323SOL    HW118602   1.623   3.695  10.339  0.9463  0.6492  1.7339
 2323SOL    HW218603   1.606   3.553  10.373  0.3818 -0.6306 -1.0187
 2324SOL     OW18604   2.365   3.965   5.903 -0.1315 -0.3154  0.3667
 2324SOL    HW118605   2.307   4.033   5.938 -1.9395 -0.9899 -1.3182
 2324SOL    HW218606   2.407   4.000   5.824 -0.1932  0.8602  0.8528
 2325SOL     OW18607   2.980   1.950  17.700  0.0002  0.5414 -0.0823
 2325SOL    HW118608   2.903   1.907  17.738 -0.1703  1.0984  0.2028
 2325SOL    HW218609   3.008   1.974   0.027  1.9466 -0.8846 -0.3155
 2326SOL     OW18610   4.488   4.174   4.031 -0.5086 -0.2615 -0.0831
 2326SOL    HW118611   4.445   4.135   3.954  0.5440  0.0486 -0.8425
 2326SOL    HW218612   4.573   4.194   3.992 -0.7894 -1.6549 -1.4484
 2327SOL     OW18613   3.313   2.715   1.988  0.3897  0.0148 -0.4158
 2327SOL    HW118614   3.372   2.656   1.942  0.1893  0.2596 -0.9859
 2327SOL    HW218615   3.292   2.773   1.915 -0.0379  0.1542 -0.1880
 2328SOL     OW18616   0.648   3.146   0.005 -0.0039 -0.0560 -0.0857
 2328SOL    HW118617   0.604   3.162  17.683  2.3070 -0.7108 -1.4194
 2328SOL    HW218618   0.588   3.086   0.048 -1.5877  1.8964  0.4206
 2329SOL     OW18619   4.522   0.562   7.079 -0.3630  0.4216  0.0690
 2329SOL    HW118620   4.593   0.501   7.098  0.1350  1.1438  0.5077
 2329SOL    HW218621   4.573   0.629   7.033  0.1839 -0.3634 -0.4659
 2330SOL     OW18622   3.333   2.161   6.283  0.3333  0.1188  0.3581
 2330SOL    HW118623   3.326   2.088   6.221  1.9904 -0.6659  1.0865
 2330SOL    HW218624   3.337   2.235   6.222 -1.0906 -1.3050 -1.4556
 2331SOL     OW18625   1.726   2.352   8.760  0.1124 -0.5301 -0.1143
 2331SOL    HW118626   1.792   2.320   8.823  0.8752  3.1224  0.9344
 2331SOL    HW218627   1.715   2.443   8.787 -2.4110 -1.1949  1.1146
 2332SOL     OW18628   2.157   0.093   1.643  0.7652 -0.1033  0.4599
 2332SOL    HW118629   2.185   0.009   1.681 -0.4433 -0.3083  0.8921
 2332SOL    HW218630   2.218   0.105   1.570  0.9412  2.7345  1.0911
 2333SOL     OW18631   4.482   1.248   3.184  0.4208  0.3746 -0.0726
 2333SOL    HW118632   4.488   1.284   3.273 -1.2351  2.0920 -0.6444
 2333SOL    HW218633   4.542   1.306   3.138  0.4653  0.7750  0.4937
 2334SOL     OW18634   0.546   1.024   9.000  0.3508  0.6979 -0.1099
 2334SOL    HW118635   0.518   1.115   9.010 -0.0016  0.4030  1.5304
 2334SOL    HW218636   0.609   1.015   9.071 -0.0011  2.4362  0.4209
 2335SOL     OW18637   1.741   3.787   6.624 -0.4177  0.4639  0.1494
 2335SOL    HW118638   1.759   3.694   6.640  3.2385  1.2512  0.7183
 2335SOL    HW218639   1.824   3.810   6.583  0.6790 -2.4534  0.7204
 2336SOL     OW18640   3.771   0.533   7.047  0.2393 -0.3296 -0.1956
 2336SOL    HW118641   3.838   0.600   7.062 -1.1190  1.1110 -0.5213
 2336SOL    HW218642   3.812   0.464   7.098 -0.4146 -0.5574  0.0147
 2337SOL     OW18643   1.273   2.059   2.290  0.0599  0.0913 -0.7700
 2337SOL    HW118644   1.299   2.120   2.220  0.1309 -0.2200 -1.0144
 2337SOL    HW218645   1.183   2.090   2.304  0.0541  0.4413 -1.5827
 2338SOL     OW18646   2.216   1.832  16.818 -0.1587  0.2426 -0.4905
 2338SOL    HW118647   2.290   1.807  16.762  1.6408  2.1047  1.0537
 2338SOL    HW218648   2.176   1.748  16.838  0.2873 -0.0794 -0.9522
 2339SOL     OW18649   3.758   4.030   9.273 -0.3453 -0.1934  0.2286
 2339SOL    HW118650   3.812   3.953   9.254  0.9293  0.4159  1.4548
 2339SOL    HW218651   3.673   4.002   9.237  0.8366 -2.8233 -0.5078
 2340SOL     OW18652   4.237   1.067   1.738  0.0320  0.3112  0.3067
 2340SOL    HW118653   4.165   1.031   1.686 -0.5782  1.9176  0.0554
 2340SOL    HW218654   4.299   1.099   1.672 -0.4950  0.5008 -0.0981
 2341SOL     OW18655   3.911   3.234   6.756  0.2324  0.0477 -0.1632
 2341SOL    HW118656   3.921   3.173   6.683  1.2360  0.6513 -0.5302
 2341SOL    HW218657   3.960   3.192   6.826 -1.7246 -3.6182 -0.9618
 2342SOL     OW18658   1.999   2.593   4.459  0.2100  0.0023  0.2995
 2342SOL    HW118659   1.962   2.630   4.540 -0.1962  0.4922 -0.1099
 2342SOL    HW218660   2.022   2.506   4.492  0.6317 -0.2876 -0.7738
 2343SOL     OW18661   2.372   0.891   7.856  0.0519  0.0157  0.7011
 2343SOL    HW118662   2.306   0.960   7.844 -2.3935 -2.4286  0.1162
 2343SOL    HW218663   2.419   0.929   7.930 -1.4057  2.6104  0.3021
 2344SOL     OW18664   4.103   3.533   5.063 -0.8983 -0.0926  0.6919
 2344SOL    HW118665   4.027   3.516   5.119 -2.5658 -1.4547 -1.9768
 2344SOL    HW218666   4.066   3.591   4.996  1.8743  0.7313 -0.0989
 2345SOL     OW18667   4.128   2.416   4.242 -0.1419  0.8773 -0.0321
 2345SOL    HW118668   4.110   2.327   4.274  1.5515  0.0010 -1.5470
 2345SOL    HW218669   4.222   2.420   4.261  0.2210 -0.8624 -1.4865
 2346SOL     OW18670   4.127   4.542  14.865  0.0732 -0.5770  0.0017
 2346SOL    HW118671   4.137   4.637  14.866  1.3173 -0.7297  1.6984
 2346SOL    HW218672   4.092   4.533  14.954  1.2761 -1.8425  0.3462
 2347SOL     OW18673   2.132   2.446   7.954 -0.7269  0.4972  0.1058
 2347SOL    HW118674   2.167   2.517   7.900 -0.0772  1.1545  1.3940
 2347SOL    HW218675   2.075   2.407   7.888  0.6326 -1.2374 -0.0466
 2348SOL     OW18676   4.203   3.064   6.612 -0.6430 -0.3604  0.0230
 2348SOL    HW118677   4.242   3.008   6.679 -2.0626 -1.9600 -0.5058
 2348SOL    HW218678   4.211   3.152   6.649  0.2231 -0.4001 -0.0601
 2349SOL     OW18679   1.318   4.062   4.224 -1.1256 -0.2068  0.1762
 2349SOL    HW118680   1.316   3.979   4.175  0.3527 -1.9313  2.9895
 2349SOL    HW218681   1.275   4.038   4.306 -1.3617 -1.4932 -0.3246
 2350SOL     OW18682   0.972   2.877   2.081  0.0571  0.1242 -0.6852
 2350SOL    HW118683   1.038   2.832   2.134  0.8689  0.2430 -1.5915
 2350SOL    HW218684   0.894   2.822   2.086  0.2923 -0.2542 -1.2225
 2351SOL     OW18685   2.295   2.092   9.119 -0.1512  0.1431 -0.2255
 2351SOL    HW118686   2.347   2.142   9.182 -0.2124 -0.5825  0.3964
 2351SOL    HW218687   2.223   2.152   9.104 -0.8308 -0.1869  1.6998
 2352SOL     OW18688   3.264   3.620  13.913  0.2990  0.2963  0.1982
 2352SOL    HW118689   3.322   3.652  13.982 -0.5756 -3.5516  2.7121
 2352SOL    HW218690   3.319   3.632  13.836 -0.8511 -0.1445 -0.6993
 2353SOL     OW18691   2.891   2.822   8.434  0.5362 -0.0283 -0.2183
 2353SOL    HW118692   2.946   2.779   8.369  1.9498  1.7340 -0.2196
 2353SOL    HW218693   2.827   2.868   8.379 -0.0905  0.7104  1.1100
 2354SOL     OW18694   1.377   1.588  11.710  0.1471  0.1464 -0.0041
 2354SOL    HW118695   1.318   1.568  11.783 -0.1824  0.0215 -0.3051
 2354SOL    HW218696   1.382   1.682  11.726  0.9239  0.5221 -2.4504
 2355SOL     OW18697   2.238   4.530   3.248 -0.0869 -0.4607  0.2402
 2355SOL    HW118698   2.270   4.566   3.330  2.1047  0.8366 -1.1838
 2355SOL    HW218699   2.296   4.571   3.184  2.3385 -0.4463  2.5052
 2356SOL     OW18700   0.983   0.507   2.317  0.1350 -0.2807  0.5935
 2356SOL    HW118701   0.937   0.536   2.395 -0.7325 -2.3034  0.8366
 2356SOL    HW218702   1.027   0.427   2.346  1.8205  0.2412 -0.4945
 2357SOL     OW18703   1.539   3.423  13.184 -0.0590  0.1119  0.0956
 2357SOL    HW118704   1.448   3.445  13.167 -0.7973 -2.3705  0.7096
 2357SOL    HW218705   1.556   3.461  13.270  1.0179 -1.1355  0.4382
 2358SOL     OW18706   2.924   4.250  15.257 -0.1623  0.4398 -0.1195
 2358SOL    HW118707   2.966   4.248  15.343 -1.1534  2.6046  0.4284
 2358SOL    HW218708   2.848   4.192  15.256  0.5000 -0.4378  0.9608
 2359SOL     OW18709   1.854   2.202  16.991 -0.0914 -0.6273  0.0135
 2359SOL    HW118710   1.784   2.182  17.052 -1.8537  1.8824 -1.1796
 2359SOL    HW218711   1.915   2.128  16.995  0.0724 -0.3513  2.7199
 2360SOL     OW18712   4.051   1.077  15.118  0.4465  0.3185  0.3294
 2360SOL    HW118713   4.115   1.148  15.116  0.8966 -0.0337  1.8105
 2360SOL    HW218714   3.978   1.124  15.159 -0.4588 -1.3116  0.5886
 2361SOL     OW18715   2.354   3.170   6.032  0.1455  0.1289 -0.4053
 2361SOL    HW118716   2.379   3.147   6.122  1.3607  0.1411 -0.7369
 2361SOL    HW218717   2.369   3.092   5.978  0.9040  1.2539 -1.7948
 2362SOL     OW18718   4.629   0.167   0.122 -1.0298  0.2868  0.2319
 2362SOL    HW118719   4.669   0.237   0.174 -0.1787  1.5290 -2.0618
 2362SOL    HW218720   4.637   0.192   0.030 -1.2015  0.6355  0.3111
 2363SOL     OW18721   1.516   2.684   9.733  0.9263 -0.1326  0.4394
 2363SOL    HW118722   1.454   2.731   9.676 -0.3124 -0.2629  1.6814
 2363SOL    HW218723   1.600   2.702   9.691  0.4935  1.9510  0.4279
 2364SOL     OW18724   3.612   1.640   8.110  0.9386 -0.3421 -0.2923
 2364SOL    HW118725   3.617   1.662   8.017  0.2242 -2.4975 -0.8416
 2364SOL    HW218726   3.667   1.712   8.140  0.1320  0.0619  0.1962
 2365SOL     OW18727   4.416   4.431  17.382 -0.4374  0.5321  0.2301
 2365SOL    HW118728   4.438   4.363  17.318  0.3807  0.3829  0.6751
 2365SOL    HW218729   4.325   4.447  17.355 -0.3716  0.7372  0.1322
 2366SOL     OW18730   3.364   4.298   4.104 -0.3325  0.4921 -0.3741
 2366SOL    HW118731   3.339   4.241   4.176  0.0430 -0.7373 -1.2069
 2366SOL    HW218732   3.285   4.287   4.052 -0.8128  0.6518  0.3263
 2367SOL     OW18733   1.505   2.162  14.781  0.0877 -0.1787 -0.9131
 2367SOL    HW118734   1.594   2.172  14.813 -0.2337 -1.2906  0.3429
 2367SOL    HW218735   1.452   2.217  14.838 -0.4969 -1.4047 -0.2612
 2368SOL     OW18736   0.539   0.881   3.017 -0.1082  0.3125 -0.3440
 2368SOL    HW118737   0.606   0.821   3.051  0.0127  1.8992  2.1648
 2368SOL    HW218738   0.586   0.963   3.007 -0.7609  0.9181  1.7284
 2369SOL     OW18739   2.240   2.124   2.401  0.3235  0.4464  0.0474
 2369SOL    HW118740   2.203   2.060   2.340  0.1552  2.2175 -1.7289
 2369SOL    HW218741   2.320   2.074   2.417  0.2270  0.5030  0.7233
 2370SOL     OW18742   3.799   3.795   5.098  0.0350 -0.2341  0.5775
 2370SOL    HW118743   3.705   3.806   5.080 -0.1130 -0.4833  1.2146
 2370SOL    HW218744   3.832   3.740   5.027  0.3658 -1.5985  1.7835
 2371SOL     OW18745   1.194   4.053   9.948 -0.1442 -0.1776 -0.1574
 2371SOL    HW118746   1.115   4.084   9.904 -0.2460 -1.0769 -0.5970
 2371SOL    HW218747   1.253   4.030   9.876  0.2597 -1.7305  0.6673
 2372SOL     OW18748   1.457   1.182  11.982 -0.2095  0.4374  0.3908
 2372SOL    HW118749   1.532   1.230  11.947  1.3990 -1.0570  1.7973
 2372SOL    HW218750   1.489   1.093  11.969 -1.5380  0.2871 -1.8851
 2373SOL     OW18751   3.457   2.052   1.121 -0.5133 -0.3283 -0.3848
 2373SOL    HW118752   3.532   2.111   1.116 -1.0667  0.4852  0.9445
 2373SOL    HW218753   3.429   2.035   1.031 -3.5629 -0.7770  0.6270
 2374SOL     OW18754   4.710   1.925  16.375  0.2800  0.1624  0.2128
 2374SOL    HW118755   4.693   1.970  16.293  1.6211  0.1872 -0.0560
 2374SOL    HW218756   4.621   1.890  16.383  0.2713  0.4534  1.4589
 2375SOL     OW18757   4.334   4.581   2.308  0.1395  0.3339 -0.0453
 2375SOL    HW118758   4.297   4.519   2.245  0.9153  0.4715 -0.6378
 2375SOL    HW218759   4.405   4.530   2.347 -0.3719 -0.9166 -0.7614
 2376SOL     OW18760   0.397   0.146   6.207 -0.3948 -0.3187 -0.2744
 2376SOL    HW118761   0.326   0.199   6.244 -0.3465 -0.9821  0.7799
 2376SOL    HW218762   0.433   0.214   6.150  0.6766 -0.3704  0.3482
 2377SOL     OW18763   1.126   1.489   6.356  0.1265 -0.2196 -0.0819
 2377SOL    HW118764   1.037   1.521   6.340  1.0609  2.1641 -0.4241
 2377SOL    HW218765   1.150   1.547   6.429  0.3679  0.9408 -1.0963
 2378SOL     OW18766   1.300   3.017  16.830 -0.0365  0.3483 -0.1031
 2378SOL    HW118767   1.252   3.055  16.904  0.0317  2.4114 -1.1069
 2378SOL    HW218768   1.256   3.066  16.760 -0.7614  0.3282  0.3347
 2379SOL     OW18769   4.327   3.050   2.221  0.2423 -0.3596  0.0057
 2379SOL    HW118770   4.251   3.049   2.279 -0.6048 -0.7911 -1.0905
 2379SOL    HW218771   4.326   3.140   2.188 -0.9074 -0.3356  0.0838
 2380SOL     OW18772   4.387   4.472   5.534  0.3675 -0.3646 -0.1083
 2380SOL    HW118773   4.408   4.415   5.608  1.2019  0.5901  0.3844
 2380SOL    HW218774   4.300   4.502   5.561  0.4753  0.3711 -0.6023
 2381SOL     OW18775   3.219   0.748   4.409 -0.6119 -0.6474  0.0172
 2381SOL    HW118776   3.124   0.762   4.405 -0.2505  0.8059 -3.0638
 2381SOL    HW218777   3.234   0.800   4.488 -2.3633  0.9745 -0.7288
 2382SOL     OW18778   0.029   0.693   8.589 -0.0412 -0.1997  0.1047
 2382SOL    HW118779   0.046   0.604   8.622  1.1106  1.4686  4.0938
 2382SOL    HW218780   4.729   0.725   8.670 -0.2381  1.6477 -0.7373
 2383SOL     OW18781   0.988   4.309  10.443  0.4558 -0.6014  0.5099
 2383SOL    HW118782   0.908   4.360  10.429  2.3302  1.9473 -1.0042
 2383SOL    HW218783   1.005   4.291  10.350  1.0796  0.1921  0.4639
 2384SOL     OW18784   2.102   4.698   6.788  0.5323 -0.4422 -0.0712
 2384SOL    HW118785   2.186   4.739   6.769 -2.0077  2.4644 -4.8170
 2384SOL    HW218786   2.054   0.029   6.828 -0.7506 -1.8752  0.9572
 2385SOL     OW18787   0.291   1.892  12.087 -0.5882 -0.5568 -0.5132
 2385SOL    HW118788   0.236   1.936  12.023  1.1195  1.8487 -0.3405
 2385SOL    HW218789   0.373   1.941  12.079 -0.7290 -0.5964 -2.1155
 2386SOL     OW18790   4.658   0.142  12.272  0.3169 -0.2902  0.6391
 2386SOL    HW118791   4.606   0.210  12.315  1.3118  0.2115  1.0516
 2386SOL    HW218792   4.666   0.178  12.184 -0.3184  1.2261  1.1958
 2387SOL     OW18793   0.245   3.023   2.888  0.2828 -0.1233 -0.5534
 2387SOL    HW118794   0.254   2.963   2.962 -2.1817 -0.2327 -0.3542
 2387SOL    HW218795   0.201   3.093   2.935 -0.5682 -0.1493 -1.3072
 2388SOL     OW18796   0.363   3.449   4.306  0.3546  0.2462 -0.0317
 2388SOL    HW118797   0.433   3.435   4.243  0.7182 -2.3025  0.9509
 2388SOL    HW218798   0.298   3.385   4.277  0.5486  0.9605 -2.0593
 2389SOL     OW18799   0.499   2.958   7.498  0.1247  0.1614 -0.8916
 2389SOL    HW118800   0.453   3.031   7.541  2.1430 -0.2029  1.9148
 2389SOL    HW218801   0.552   3.006   7.435 -0.4151  2.1482  0.1489
 2390SOL     OW18802   1.830   4.452   7.595  0.0414  0.0585  0.1178
 2390SOL    HW118803   1.774   4.513   7.643 -0.5879 -1.6079  1.4770
 2390SOL    HW218804   1.816   4.484   7.506  1.6531 -1.1835 -0.5761
 2391SOL     OW18805   2.975   2.745   5.263 -0.3108 -0.3790 -0.0794
 2391SOL    HW118806   2.954   2.696   5.343  1.5390 -0.1134  0.5547
 2391SOL    HW218807   3.070   2.739   5.251 -0.1989  0.1865  0.5212
 2392SOL     OW18808   3.622   1.260   6.019  1.3539 -0.2528 -0.0164
 2392SOL    HW118809   3.641   1.342   6.065  1.5273 -1.6560  2.4244
 2392SOL    HW218810   3.572   1.214   6.087 -1.2630  1.6252 -0.6760
 2393SOL     OW18811   2.269   0.483  17.233  0.1380  0.2080 -0.0388
 2393SOL    HW118812   2.324   0.425  17.286  0.3024  1.0299  0.6901
 2393SOL    HW218813   2.262   0.568  17.278  1.8402  0.5587 -0.4056
 2394SOL     OW18814   0.778   4.418  15.649  0.4402 -0.0283  0.0969
 2394SOL    HW118815   0.763   4.416  15.744  2.6954  1.4778  0.5004
 2394SOL    HW218816   0.759   4.512  15.640 -0.1048 -0.2382 -0.9163
 2395SOL     OW18817   3.291   0.651  12.308 -0.1919 -0.1728 -0.0922
 2395SOL    HW118818   3.290   0.734  12.355 -0.2914  1.6284 -3.3182
 2395SOL    HW218819   3.322   0.588  12.373 -2.1027  0.6730  1.6290
 2396SOL     OW18820   3.332   1.475  16.144  0.1058  0.9818  0.5608
 2396SOL    HW118821   3.331   1.443  16.234 -1.1078 -0.2935  0.0829
 2396SOL    HW218822   3.286   1.557  16.163  0.3983  1.1133  0.7089
 2397SOL     OW18823   3.337   3.545   1.448  0.7167  0.0826 -0.3432
 2397SOL    HW118824   3.280   3.482   1.492 -0.4931  1.2322 -0.2527
 2397SOL    HW218825   3.287   3.549   1.366 -0.5533 -1.5666  0.3411
 2398SOL     OW18826   3.436   1.417   8.102  0.1747 -0.0548  0.1953
 2398SOL    HW118827   3.489   1.497   8.104 -0.8955  0.6865 -1.6722
 2398SOL    HW218828   3.495   1.356   8.058  0.0807 -0.8122  1.1198
 2399SOL     OW18829   4.418   0.601   4.655 -0.0646  0.0712  0.1246
 2399SOL    HW118830   4.394   0.564   4.570  1.7882 -1.4451  0.2734
 2399SOL    HW218831   4.511   0.614   4.640  0.1310 -0.5204  0.8463
 2400SOL     OW18832   3.214   1.783   2.462 -0.0459 -0.0069 -0.0925
 2400SOL    HW118833   3.285   1.727   2.495 -0.8941 -0.7498  0.4594
 2400SOL    HW218834   3.140   1.723   2.456 -0.6332  0.6228  0.8997
 2401SOL     OW18835   1.356   1.991   1.633 -0.1215  0.2618  0.3456
 2401SOL    HW118836   1.276   1.947   1.661  0.8481 -1.4772  0.4453
 2401SOL    HW218837   1.400   1.932   1.572 -2.3474  0.2075 -1.1676
 2402SOL     OW18838   4.093   0.898   4.494 -0.8462 -0.1273 -0.3543
 2402SOL    HW118839   4.108   0.862   4.582 -1.9769 -0.2876 -0.2328
 2402SOL    HW218840   4.145   0.840   4.438  2.6111  1.4093  1.3080
 2403SOL     OW18841   1.851   0.120   1.067 -0.9574  0.6962  0.4564
 2403SOL    HW118842   1.927   0.122   1.124  0.0327  2.1384 -0.9113
 2403SOL    HW218843   1.874   0.039   1.020  0.7823  1.2223  0.4119
 2404SOL     OW18844   0.316   1.664   7.337 -0.1859  0.4539  1.0213
 2404SOL    HW118845   0.411   1.669   7.331 -0.2222 -0.4252 -0.3151
 2404SOL    HW218846   0.295   1.598   7.402  1.4846  0.6453  1.7535
 2405SOL     OW18847   4.626   2.388  13.951  0.0465  0.0571  0.2133
 2405SOL    HW118848   4.659   2.384  13.862 -0.4094  3.5936 -0.0855
 2405SOL    HW218849   4.565   2.316  13.934  0.5881  0.3637 -3.0149
 2406SOL     OW18850   3.493   3.882   3.111  0.8447 -0.2544 -0.1617
 2406SOL    HW118851   3.479   3.857   3.203  0.2219  1.6954  0.2585
 2406SOL    HW218852   3.576   3.929   3.107 -0.4234  1.8949 -1.1893
 2407SOL     OW18853   2.485   1.955  10.006  0.0551  0.1553 -0.1569
 2407SOL    HW118854   2.488   2.026  10.070 -0.0741  0.1038 -0.0947
 2407SOL    HW218855   2.575   1.923   9.999  0.1045  0.1266  0.6138
 2408SOL     OW18856   4.054   4.596  11.627  0.9078  0.1823 -0.2193
 2408SOL    HW118857   4.083   4.520  11.578  0.1114  0.1685 -0.6611
 2408SOL    HW218858   4.135   4.631  11.664  0.2638  1.7799 -0.2945
 2409SOL     OW18859   1.937   2.610   0.825  0.3350 -0.1043  0.7277
 2409SOL    HW118860   1.874   2.648   0.886  0.7685  1.3169  0.2933
 2409SOL    HW218861   1.892   2.533   0.791 -0.0173  0.9136 -1.1364
 2410SOL     OW18862   0.332   4.602   6.566 -0.1452  0.4654 -0.1121
 2410SOL    HW118863   0.301   4.512   6.566 -0.2715  0.5182  0.7739
 2410SOL    HW218864   0.330   4.596   6.470  0.4577  0.4664 -0.1227
 2411SOL     OW18865   2.433   3.961   9.413  0.3694 -0.8287  0.4165
 2411SOL    HW118866   2.391   3.885   9.453 -2.2524  0.1859 -0.4292
 2411SOL    HW218867   2.363   4.022   9.393 -0.2126 -1.7413 -0.2801
 2412SOL     OW18868   0.325   2.239   2.673  0.3992 -0.1222  0.1387
 2412SOL    HW118869   0.245   2.205   2.634 -0.1607  0.2112  1.0006
 2412SOL    HW218870   0.305   2.332   2.671 -0.7263 -0.3489  0.8515
 2413SOL     OW18871   2.608   2.753   3.946  0.0612 -0.3335  0.0303
 2413SOL    HW118872   2.572   2.718   3.864 -0.2141 -2.1127  0.9203
 2413SOL    HW218873   2.692   2.707   3.945  0.9005  1.2031 -2.2131
 2414SOL     OW18874   3.861   4.016   3.986 -0.1485  0.2328  0.2022
 2414SOL    HW118875   3.793   4.077   4.015  0.1417  1.6221 -2.0228
 2414SOL    HW218876   3.853   4.007   3.891  1.0204  2.7138 -0.1376
 2415SOL     OW18877   0.963   1.035  12.651 -0.0795 -0.0534  0.3681
 2415SOL    HW118878   0.925   1.056  12.566 -0.6437 -0.1338  0.6001
 2415SOL    HW218879   0.880   1.050  12.697  1.1110 -0.1412  2.5550
 2416SOL     OW18880   3.869   1.393   9.603 -0.1407  0.6312 -0.0700
 2416SOL    HW118881   3.859   1.438   9.686  1.5070 -1.1796  1.1178
 2416SOL    HW218882   3.962   1.367   9.605  0.0457  1.2886 -0.1624
 2417SOL     OW18883   0.722   3.073   3.333  0.4544 -0.2983  0.4587
 2417SOL    HW118884   0.691   2.996   3.287 -2.2319  1.0270  0.0369
 2417SOL    HW218885   0.746   3.122   3.254 -2.3926 -0.2638 -0.3709
 2418SOL     OW18886   4.033   2.762   0.474 -0.2304  0.5823  0.2941
 2418SOL    HW118887   4.123   2.756   0.442 -0.8966  0.1321 -1.4962
 2418SOL    HW218888   4.006   2.840   0.425 -1.3129 -1.0037 -1.6406
 2419SOL     OW18889   2.722   1.871   8.630 -0.2193 -0.3600  0.6411
 2419SOL    HW118890   2.721   1.951   8.683  0.1850  1.4922 -2.1417
 2419SOL    HW218891   2.678   1.896   8.548 -0.3430 -2.4699  0.0726
 2420SOL     OW18892   3.357   4.674   1.949  0.1946 -0.6569  0.0528
 2420SOL    HW118893   3.292   4.603   1.945 -0.6931  0.1532 -0.1077
 2420SOL    HW218894   3.293   0.004   1.952  0.2979 -0.5226 -0.8288
 2421SOL     OW18895   1.479   3.272   8.154 -0.3747 -0.0588 -0.5234
 2421SOL    HW118896   1.545   3.282   8.223 -2.8486 -0.6228  1.9068
 2421SOL    HW218897   1.529   3.298   8.076  2.1000 -0.5803  0.8909
 2422SOL     OW18898   0.940   2.801   7.695 -0.8903  0.0444 -0.2401
 2422SOL    HW118899   1.013   2.843   7.648 -0.6965  1.3683  1.2353
 2422SOL    HW218900   0.864   2.847   7.658  0.8635  1.8004 -1.7027
 2423SOL     OW18901   4.497   0.082   4.836  0.2989 -0.4486 -0.2852
 2423SOL    HW118902   4.425   0.098   4.775 -0.0101 -0.8096 -0.0212
 2423SOL    HW218903   4.564   0.145   4.812  0.4005 -1.2633 -2.1384
 2424SOL     OW18904   1.178   3.529  10.080  0.5686 -0.7793 -0.7380
 2424SOL    HW118905   1.099   3.580  10.098  0.6167 -1.7082  2.2563
 2424SOL    HW218906   1.169   3.507   9.988  0.9979  1.8057 -1.4066
 2425SOL     OW18907   1.534   1.878  14.801  0.1104 -0.5600  0.1460
 2425SOL    HW118908   1.501   1.815  14.865 -0.1713 -1.0443 -0.4798
 2425SOL    HW218909   1.479   1.950  14.833 -0.2558 -0.6418 -0.3106
 2426SOL     OW18910   1.058   3.745   3.320  0.5034 -0.0836 -0.0897
 2426SOL    HW118911   1.060   3.841   3.328 -0.6881 -0.1692  1.1793
 2426SOL    HW218912   1.140   3.737   3.271 -0.5550 -2.2553 -1.4389
 2427SOL     OW18913   3.718   0.600   1.598 -0.3122  0.2697  0.2254
 2427SOL    HW118914   3.722   0.686   1.638 -1.0036 -0.7192  2.4143
 2427SOL    HW218915   3.726   0.627   1.506  0.5740  0.0741  0.2498
 2428SOL     OW18916   4.023   0.655   7.599 -0.0001 -0.2869  0.5332
 2428SOL    HW118917   3.946   0.707   7.577  0.7998  0.4343 -0.5752
 2428SOL    HW218918   4.019   0.651   7.694 -0.3978  1.3204  0.5958
 2429SOL     OW18919   0.709   0.292   5.844 -0.0722 -0.0755  0.2712
 2429SOL    HW118920   0.700   0.207   5.801 -1.0790 -0.3414  0.9996
 2429SOL    HW218921   0.727   0.360   5.779  1.5736 -0.5160  0.2522
 2430SOL     OW18922   0.447   3.580   2.463 -0.0680  0.6294  0.5030
 2430SOL    HW118923   0.517   3.641   2.440  2.5678 -2.1132  1.2723
 2430SOL    HW218924   0.402   3.634   2.528 -1.5223 -1.5846  1.3625
 2431SOL     OW18925   3.693   1.170   4.064 -0.5916 -0.3198  0.2894
 2431SOL    HW118926   3.639   1.209   3.995 -1.4497 -0.0709  1.1071
 2431SOL    HW218927   3.687   1.077   4.045 -0.9361  0.2039 -2.1967
 2432SOL     OW18928   3.469   1.620   3.244  0.1592 -0.0254 -0.1538
 2432SOL    HW118929   3.493   1.666   3.324  1.3783 -1.9092  0.5684
 2432SOL    HW218930   3.376   1.600   3.254  0.6949 -3.3168 -1.5797
 2433SOL     OW18931   4.390   1.024   3.469 -0.1975  0.4891 -0.1127
 2433SOL    HW118932   4.451   0.967   3.423 -0.7291 -0.0287 -0.1774
 2433SOL    HW218933   4.446   1.100   3.484  0.5288 -0.0329 -0.2210
 2434SOL     OW18934   2.644   3.714   7.778  0.2594 -0.1081  0.3132
 2434SOL    HW118935   2.706   3.786   7.791  0.7473 -0.8907  2.3272
 2434SOL    HW218936   2.580   3.746   7.841 -0.0495  0.4080 -0.2635
 2435SOL     OW18937   4.336   2.223  15.798  0.6519  0.5431 -0.4174
 2435SOL    HW118938   4.281   2.299  15.780  0.3768  0.4049 -0.1625
 2435SOL    HW218939   4.383   2.255  15.876  1.6379 -0.6426 -0.5231
 2436SOL     OW18940   4.294   2.609  14.886 -0.1285  0.4979 -0.1382
 2436SOL    HW118941   4.244   2.650  14.956 -0.2259  1.0985 -0.5639
 2436SOL    HW218942   4.281   2.666  14.811 -2.5755 -0.0459 -0.1311
 2437SOL     OW18943   0.910   1.460   3.894 -0.4584  0.1446  0.1767
 2437SOL    HW118944   0.997   1.420   3.886  0.4300  2.2803 -0.7962
 2437SOL    HW218945   0.861   1.378   3.889 -1.3070  0.7888 -2.1043
 2438SOL     OW18946   4.241   4.112   3.002 -0.3870 -0.1133  0.1653
 2438SOL    HW118947   4.220   4.072   2.918 -1.2310 -2.9196  1.6974
 2438SOL    HW218948   4.193   4.058   3.065 -1.8022  0.8128 -0.1071
 2439SOL     OW18949   4.602   0.734   4.383  0.1635 -0.3091  0.3175
 2439SOL    HW118950   4.595   0.782   4.300 -2.1137 -1.1986 -0.0268
 2439SOL    HW218951   4.583   0.643   4.361 -1.8947  0.0799  0.4316
 2440SOL     OW18952   4.287   0.819   5.911 -0.9776 -0.1792  0.4116
 2440SOL    HW118953   4.218   0.756   5.930 -0.1316 -0.8421  1.2406
 2440SOL    HW218954   4.267   0.862   5.828 -1.4516 -0.1792  0.5242
 2441SOL     OW18955   4.127   4.183   0.871 -0.4857  0.1852  0.0405
 2441SOL    HW118956   4.062   4.114   0.878 -3.0592  3.0064  3.7070
 2441SOL    HW218957   4.173   4.152   0.793 -0.9322 -2.8242  0.9853
 2442SOL     OW18958   1.060   3.474   0.463 -0.0609 -0.4974 -0.3222
 2442SOL    HW118959   1.022   3.389   0.442  1.3852 -1.5373  1.2595
 2442SOL    HW218960   1.144   3.454   0.505 -0.3030  0.4782  0.6398
 2443SOL     OW18961   1.594   4.364   2.043  0.0422 -0.3056 -0.2993
 2443SOL    HW118962   1.548   4.317   1.973  0.0391  0.2392 -0.6700
 2443SOL    HW218963   1.516   4.384   2.094  0.6270 -0.8866  0.8198
 2444SOL     OW18964   2.218   0.656   5.530  0.4486 -0.0590  0.2160
 2444SOL    HW118965   2.263   0.669   5.447 -0.2047 -2.4097 -0.5081
 2444SOL    HW218966   2.197   0.563   5.520  1.1148 -0.0549 -1.2397
 2445SOL     OW18967   2.940   4.659   1.488  1.0262 -0.2763 -0.1040
 2445SOL    HW118968   2.975   4.681   1.574 -1.4711 -1.1301  1.1353
 2445SOL    HW218969   2.994   4.584   1.462  1.2232 -0.9148  2.1606
 2446SOL     OW18970   2.927   1.437   1.213  0.1670 -0.2346 -0.3721
 2446SOL    HW118971   2.837   1.448   1.182  0.5052  0.0936 -1.2274
 2446SOL    HW218972   2.954   1.525   1.242 -0.9905 -0.0807  0.2242
 2447SOL     OW18973   3.480   3.644   2.737 -0.0406 -0.7396 -0.1167
 2447SOL    HW118974   3.389   3.630   2.762 -0.9829  1.0518 -2.5660
 2447SOL    HW218975   3.525   3.576   2.787  0.1293  0.3999  1.2837
 2448SOL     OW18976   1.647   0.884   3.542 -0.0779  0.0909  0.1064
 2448SOL    HW118977   1.571   0.827   3.532  0.6667 -0.5844 -1.7258
 2448SOL    HW218978   1.642   0.893   3.637 -0.2905 -1.9779  0.2964
 2449SOL     OW18979   4.134   1.005   3.006  0.4512 -0.2762  0.3805
 2449SOL    HW118980   4.142   1.098   3.027 -0.3881 -0.2539  0.6087
 2449SOL    HW218981   4.055   1.007   2.952  0.0937 -0.8622  0.8700
 2450SOL     OW18982   1.156   4.325   6.292 -0.0610 -0.3173 -0.0494
 2450SOL    HW118983   1.220   4.330   6.364  1.6117 -1.3765 -1.4711
 2450SOL    HW218984   1.204   4.280   6.222 -0.7039 -0.7991 -0.1722
 2451SOL     OW18985   4.365   0.492   6.780 -0.6990  0.0627 -0.0255
 2451SOL    HW118986   4.344   0.489   6.873  0.9357  0.8321  0.3619
 2451SOL    HW218987   4.418   0.572   6.777  0.7866 -0.8719  1.5806
 2452SOL     OW18988   0.009   0.497   0.033  0.5875  0.1758  0.1209
 2452SOL    HW118989   0.037   0.428  17.735 -2.2594 -1.3288  0.5252
 2452SOL    HW218990   0.084   0.494   0.093 -0.8152 -0.3577  1.8698
 2453SOL     OW18991   1.325   0.432  13.646  0.3733 -0.3243  0.3039
 2453SOL    HW118992   1.357   0.505  13.698  1.7480 -1.1111  0.5621
 2453SOL    HW218993   1.231   0.440  13.661  0.2394 -0.9462 -0.1888
 2454SOL     OW18994   2.305   0.437   2.802 -0.4405  0.3136  0.3812
 2454SOL    HW118995   2.214   0.458   2.825 -1.1172 -1.9405 -0.2306
 2454SOL    HW218996   2.348   0.484   2.873  1.2473  0.9342 -1.0577
 2455SOL     OW18997   4.440   0.535  16.211  0.1821 -0.5334 -0.1646
 2455SOL    HW118998   4.533   0.551  16.197 -0.1553  1.1984 -0.4099
 2455SOL    HW218999   4.442   0.461  16.272  1.5301  0.8529  1.4356
 2456SOL     OW19000   1.340   2.882  11.879  0.5531  0.3884 -0.2070
 2456SOL    HW119001   1.352   2.793  11.847 -2.0983  0.0479 -0.2386
 2456SOL    HW219002   1.258   2.905  11.835  1.0946 -1.7991 -2.3461
 2457SOL     OW19003   3.898   1.262   3.511 -0.2632  0.0100  0.4851
 2457SOL    HW119004   3.903   1.280   3.605 -0.6178 -1.3114  0.7488
 2457SOL    HW219005   3.989   1.233   3.503 -0.2331 -0.0773  1.1476
 2458SOL     OW19006   0.638   1.365   2.573 -0.2959  0.0328  0.6375
 2458SOL    HW119007   0.653   1.271   2.572 -3.2313 -0.4232  2.0561
 2458SOL    HW219008   0.693   1.386   2.497 -2.2814 -4.1104 -1.8828
 2459SOL     OW19009   2.271   2.166   1.633 -0.6247  0.5129  0.2309
 2459SOL    HW119010   2.277   2.088   1.687  0.0987  0.8263  0.6064
 2459SOL    HW219011   2.181   2.159   1.602 -0.9151 -2.4215  1.7917
 2460SOL     OW19012   3.381   3.321   3.897  0.6790  0.0372  0.2467
 2460SOL    HW119013   3.298   3.280   3.875  0.6652  0.9887 -1.4688
 2460SOL    HW219014   3.381   3.326   3.993 -0.4903  0.4475  0.2290
 2461SOL     OW19015   2.112   3.008   3.764 -0.2690 -0.0415 -0.4665
 2461SOL    HW119016   2.100   2.933   3.706  1.1297 -2.2164  2.0728
 2461SOL    HW219017   2.203   2.998   3.793 -0.6186  3.8343  2.0526
 2462SOL     OW19018   1.582   1.548   1.521  0.2591  0.2687  0.3896
 2462SOL    HW119019   1.572   1.459   1.557 -2.9528  0.5257  0.1124
 2462SOL    HW219020   1.676   1.553   1.503  0.5527  2.0607  2.4282
 2463SOL     OW19021   3.846   0.015  16.391 -0.3008  0.0708 -0.4578
 2463SOL    HW119022   3.905   4.733  16.463 -0.8580 -0.0044 -0.0269
 2463SOL    HW219023   3.769   0.007  16.448 -0.3610  0.2197 -0.5186
 2464SOL     OW19024   4.273   3.571   1.122  0.4941 -0.6984  0.7505
 2464SOL    HW119025   4.262   3.637   1.053  1.3039  0.1343  1.4170
 2464SOL    HW219026   4.277   3.629   1.198  1.7176 -1.6970  1.4382
 2465SOL     OW19027   1.430   2.789   3.663  0.0522  0.0288  0.1618
 2465SOL    HW119028   1.438   2.849   3.589  1.2348 -1.5322 -0.9937
 2465SOL    HW219029   1.407   2.846   3.736  0.6379  0.4783  0.0001
 2466SOL     OW19030   2.374   4.226   0.127 -0.0232  0.2704  0.0777
 2466SOL    HW119031   2.433   4.278   0.071  0.0577  0.5918  0.4584
 2466SOL    HW219032   2.412   4.138   0.130 -0.6732 -0.0405 -0.7167
 2467SOL     OW19033   0.446   2.239   3.870 -0.0174  0.0850 -0.4498
 2467SOL    HW119034   0.393   2.159   3.856 -2.1093  1.2618  0.7326
 2467SOL    HW219035   0.451   2.264   3.778  2.3094 -1.2376 -0.6780
 2468SOL     OW19036   2.321   1.356   4.689 -0.3123 -0.4120 -0.3406
 2468SOL    HW119037   2.307   1.369   4.782 -1.7100 -0.7378 -0.5109
 2468SOL    HW219038   2.356   1.267   4.686 -1.5166 -0.8372 -1.9806
 2469SOL     OW19039   2.190   3.543   7.461 -0.6417 -0.3560 -0.3013
 2469SOL    HW119040   2.274   3.506   7.433 -1.3056 -2.7559  0.8741
 2469SOL    HW219041   2.132   3.532   7.385 -1.6419  0.2591  0.3686
 2470SOL     OW19042   0.064   2.925  10.944  0.3590  0.9554 -0.5613
 2470SOL    HW119043   0.132   2.901  10.881  1.7265  2.9443  0.1395
 2470SOL    HW219044   0.116   2.964  11.014 -0.7012  2.8685 -0.8426
 2471SOL     OW19045   1.684   3.361   3.818  0.2679 -0.0768  0.3447
 2471SOL    HW119046   1.753   3.306   3.781  1.6113  0.2161  2.4366
 2471SOL    HW219047   1.708   3.362   3.910  2.3317 -1.5715 -0.1754
 2472SOL     OW19048   0.546   0.376   0.079 -0.3252 -0.1529  0.0910
 2472SOL    HW119049   0.498   0.370  17.758 -1.9291  0.1304  0.9982
 2472SOL    HW219050   0.467   0.353   0.129  0.2062 -0.3866  0.8095
 2473SOL     OW19051   3.046   4.142   4.051 -0.5024 -0.0978 -0.3349
 2473SOL    HW119052   2.992   4.188   3.988  0.9998  0.3987 -1.2564
 2473SOL    HW219053   3.054   4.195   4.131  0.6237 -0.9489  0.1262
 2474SOL     OW19054   4.249   0.059  10.494 -0.2508 -0.5090  0.1378
 2474SOL    HW119055   4.344   0.067  10.494 -0.3927  1.0295 -0.4968
 2474SOL    HW219056   4.230   0.004  10.571  0.3043 -1.3758 -0.3469
 2475SOL     OW19057   4.548   4.696   1.497 -0.2601  0.1705 -0.1605
 2475SOL    HW119058   4.603   4.671   1.571  0.3115 -1.2972 -1.0800
 2475SOL    HW219059   4.524   0.041   1.532 -0.9790 -0.2571  0.3807
 2476SOL     OW19060   2.330   3.106  12.176  0.3083 -0.3592 -0.2314
 2476SOL    HW119061   2.242   3.136  12.196  0.9215  0.5931  1.0363
 2476SOL    HW219062   2.307   3.029  12.124 -0.8846  0.7243 -1.3119
 2477SOL     OW19063   2.102   2.716   0.106 -0.3738  0.4082  0.2684
 2477SOL    HW119064   2.072   2.626   0.114  0.5028  0.1843  1.0287
 2477SOL    HW219065   2.157   2.717   0.027  1.6879 -1.2084  1.6613
 2478SOL     OW19066   2.544   1.870   9.659  0.4671 -0.6699  0.9489
 2478SOL    HW119067   2.569   1.929   9.588 -2.3496 -0.7489 -0.1161
 2478SOL    HW219068   2.631   1.838   9.684  0.9902 -0.1601 -0.2191
 2479SOL     OW19069   1.483   2.572   5.672  0.5864 -0.3200 -0.6672
 2479SOL    HW119070   1.475   2.634   5.600  1.0973 -1.2346 -1.5012
 2479SOL    HW219071   1.578   2.573   5.669  0.5703  0.3741 -0.8857
 2480SOL     OW19072   0.940   1.656  17.464 -0.1012 -0.2572 -0.6409
 2480SOL    HW119073   0.899   1.654  17.377 -0.9572  1.5082 -0.2746
 2480SOL    HW219074   1.023   1.698  17.442  1.2256 -1.3319  2.3427
 2481SOL     OW19075   3.164   1.562   2.961 -0.0628 -0.0937  0.2883
 2481SOL    HW119076   3.100   1.582   2.893 -0.4400 -0.0041  0.6657
 2481SOL    HW219077   3.205   1.481   2.930 -1.0862  0.1794 -1.7869
 2482SOL     OW19078   1.294   4.606   3.603  0.1848 -0.1057  0.1480
 2482SOL    HW119079   1.356   4.639   3.668 -0.0703  0.6391  0.0048
 2482SOL    HW219080   1.316   4.656   3.525  0.5223  1.1840  1.0764
 2483SOL     OW19081   0.792   0.055   1.841  0.1815 -0.0704  0.1751
 2483SOL    HW119082   0.881   0.078   1.867  0.4923 -0.8996 -0.1540
 2483SOL    HW219083   0.780   0.113   1.765 -0.2278  1.5032  1.4416
 2484SOL     OW19084   3.611   0.824   3.105  0.6899  0.4490  0.2396
 2484SOL    HW119085   3.646   0.735   3.095  0.5272  0.5317 -1.0513
 2484SOL    HW219086   3.683   0.885   3.089  0.6212  0.2677 -0.8102
 2485SOL     OW19087   4.285   2.196  10.788 -0.1248  0.2609 -0.1225
 2485SOL    HW119088   4.263   2.198  10.881 -1.7718 -0.5676 -0.4790
 2485SOL    HW219089   4.246   2.111  10.765  1.4640 -0.6367  0.4891
 2486SOL     OW19090   4.606   2.717  17.312  0.4434  0.4821  0.2504
 2486SOL    HW119091   4.600   2.639  17.366  1.1993 -1.2093 -2.1054
 2486SOL    HW219092   4.553   2.774  17.367 -1.1648 -0.7839  0.0011
 2487SOL     OW19093   2.759   3.268  11.889  0.4859  0.2805 -0.4999
 2487SOL    HW119094   2.687   3.231  11.939  3.2237 -0.4325  2.9314
 2487SOL    HW219095   2.769   3.363  11.898  0.1662  0.1962  0.6820
 2488SOL     OW19096   2.144   2.026  11.986  0.4980 -0.1371 -0.4161
 2488SOL    HW119097   2.078   1.999  12.050 -0.1617  0.0518 -1.0170
 2488SOL    HW219098   2.204   2.075  12.041 -0.7899  1.3710 -0.3674
 2489SOL     OW19099   3.869   3.152   3.937  0.3528 -0.5267 -0.5634
 2489SOL    HW119100   3.940   3.210   3.963  0.4793 -0.9129 -0.0529
 2489SOL    HW219101   3.868   3.181   3.846 -1.9193  2.0739  0.2777
 2490SOL     OW19102   3.328   3.134   9.458  0.7172  0.3296 -0.5999
 2490SOL    HW119103   3.412   3.115   9.414  2.1310 -0.2127  2.3623
 2490SOL    HW219104   3.366   3.195   9.521  4.0660 -1.2834 -1.0632
 2491SOL     OW19105   2.099   1.976   2.151  0.0187 -0.1807  0.4693
 2491SOL    HW119106   2.096   2.038   2.079  0.5051 -1.3307 -0.5550
 2491SOL    HW219107   2.047   1.904   2.114  0.6684 -0.5372  0.2548
 2492SOL     OW19108   3.570   0.161   4.277  0.2866  0.1613  0.3842
 2492SOL    HW119109   3.591   0.069   4.293  1.4617  0.4547  0.5484
 2492SOL    HW219110   3.570   0.168   4.182  0.2068 -0.6690  0.3244
 2493SOL     OW19111   3.494   4.644   9.177 -0.1212 -0.2555 -0.2997
 2493SOL    HW119112   3.485   4.624   9.084  2.7553 -0.2752 -0.5576
 2493SOL    HW219113   3.482   4.555   9.212 -4.5759  0.3077 -0.4466
 2494SOL     OW19114   2.697   4.441   8.737  0.3302 -0.0134 -0.0779
 2494SOL    HW119115   2.733   4.515   8.785 -0.1991 -0.8602  1.6115
 2494SOL    HW219116   2.776   4.394   8.712 -0.1219 -0.4658 -0.6827
 2495SOL     OW19117   3.370   3.815   7.254  0.5843  0.4808 -0.1352
 2495SOL    HW119118   3.402   3.881   7.315  1.4322 -0.4772  0.4373
 2495SOL    HW219119   3.447   3.759   7.262 -0.2914 -0.8297 -0.7524
 2496SOL     OW19120   0.924   2.734  16.489  0.1738 -0.3685 -0.0525
 2496SOL    HW119121   0.990   2.724  16.558 -0.3328 -2.0001  0.2180
 2496SOL    HW219122   0.860   2.796  16.523  0.4036 -0.7037  0.9976
 2497SOL     OW19123   0.016   0.344   7.660 -0.8880 -0.1237  0.1577
 2497SOL    HW119124   0.029   0.377   7.571 -1.3016  0.0939  0.1756
 2497SOL    HW219125   0.003   0.424   7.711 -1.5815 -0.8566  1.1284
 2498SOL     OW19126   0.859   2.043   9.185  0.1811 -0.0513  0.1898
 2498SOL    HW119127   0.932   2.078   9.235 -1.3824  0.8750  1.8500
 2498SOL    HW219128   0.845   2.111   9.118 -1.3292 -1.4379 -0.9034
 2499SOL     OW19129   3.867   3.758   1.818 -0.4657  0.0951 -0.0438
 2499SOL    HW119130   3.868   3.820   1.891  0.6851  1.1456 -0.9610
 2499SOL    HW219131   3.821   3.690   1.868 -0.6029  0.1912 -0.0416
 2500SOL     OW19132   0.586   4.215   7.526  0.4184 -0.1091  0.3667
 2500SOL    HW119133   0.554   4.287   7.472 -1.8311 -1.3718 -0.0077
 2500SOL    HW219134   0.672   4.248   7.550 -0.3794  2.3619 -0.1903
 2501SOL     OW19135   3.726   4.137  15.989  0.8923 -0.4575 -0.5963
 2501SOL    HW119136   3.719   4.149  15.895  0.9968 -0.0180 -0.5500
 2501SOL    HW219137   3.798   4.198  16.006  0.6467 -0.9398  2.3363
 2502SOL     OW19138   3.459   0.023   2.658  0.6356 -0.4423 -0.1768
 2502SOL    HW119139   3.477   4.701   2.727  0.5428  1.1292  1.2768
 2502SOL    HW219140   3.543   0.068   2.652  1.4842 -2.2001 -1.6676
 2503SOL     OW19141   1.122   0.774  10.809  0.4705 -0.3460  0.1442
 2503SOL    HW119142   1.081   0.730  10.735 -0.8174  1.3134 -0.0961
 2503SOL    HW219143   1.071   0.749  10.886 -0.1750 -1.4287 -0.6408
 2504SOL     OW19144   3.182   3.827   3.486  0.0255 -0.3129 -0.0686
 2504SOL    HW119145   3.091   3.809   3.460 -0.2244 -0.0455  0.6016
 2504SOL    HW219146   3.218   3.786   3.408  0.4050  2.5138 -1.3794
 2505SOL     OW19147   0.871   1.802   2.823  0.2503  0.2621 -0.0917
 2505SOL    HW119148   0.855   1.711   2.794  1.4191 -0.7667  2.5363
 2505SOL    HW219149   0.938   1.784   2.888  1.8929 -1.4566 -2.2502
 2506SOL     OW19150   2.362   1.042   2.280 -0.1725 -0.2428  0.0389
 2506SOL    HW119151   2.410   1.101   2.338  1.7948 -1.0907 -0.7370
 2506SOL    HW219152   2.293   1.016   2.341 -1.2162  3.2285  0.3405
 2507SOL     OW19153   0.701   2.729  15.573  0.9960 -0.4486 -0.1375
 2507SOL    HW119154   0.667   2.660  15.629 -0.0135  0.1388 -0.0229
 2507SOL    HW219155   0.773   2.759  15.629 -0.1997  2.8442 -0.3345
 2508SOL     OW19156   0.136   3.539  15.493 -0.1042 -0.3676  0.2299
 2508SOL    HW119157   0.158   3.500  15.578  1.4133 -0.3938 -0.1680
 2508SOL    HW219158   0.112   3.468  15.433  2.2941  0.3751 -1.5813
 2509SOL     OW19159   1.147   0.715   6.215 -1.1155  0.0664  0.1549
 2509SOL    HW119160   1.224   0.769   6.231 -1.3805  0.1168  1.2719
 2509SOL    HW219161   1.095   0.783   6.174 -1.4897  1.2605  2.6130
 2510SOL     OW19162   4.681   0.940  17.009 -0.0560 -0.1417  0.2580
 2510SOL    HW119163   4.711   1.011  17.066 -2.2146  1.2825 -0.4048
 2510SOL    HW219164   4.659   0.997  16.936 -0.9306  1.0152  1.4191
 2511SOL     OW19165   3.334   2.195   3.670  0.0885  0.1349  0.3481
 2511SOL    HW119166   3.250   2.237   3.692 -0.0927 -0.6575  1.1693
 2511SOL    HW219167   3.298   2.129   3.610  1.6806  0.5830 -1.1130
 2512SOL     OW19168   1.881   0.647   7.106 -0.6154  0.1302 -0.1334
 2512SOL    HW119169   1.950   0.670   7.169 -0.0007 -0.9731 -0.3950
 2512SOL    HW219170   1.908   0.688   7.024  0.3890 -0.2867 -0.0130
 2513SOL     OW19171   2.909   3.658   4.051 -0.2814 -0.2861 -0.2743
 2513SOL    HW119172   2.820   3.636   4.025 -0.4135 -0.7270  0.5494
 2513SOL    HW219173   2.900   3.753   4.051  1.7631 -0.1009 -0.0609
 2514SOL     OW19174   1.681   2.445   9.290 -0.9082 -0.0064 -0.1748
 2514SOL    HW119175   1.643   2.367   9.330 -0.4784 -0.4718 -0.6548
 2514SOL    HW219176   1.613   2.479   9.232 -2.1542 -4.2543 -1.1729
 2515SOL     OW19177   0.303   3.597   6.622 -0.1929 -0.2039  0.3539
 2515SOL    HW119178   0.331   3.539   6.551 -0.5490 -1.5550  1.3181
 2515SOL    HW219179   0.230   3.636   6.574  0.4946  0.8204  0.1369
 2516SOL     OW19180   4.513   0.341   8.636  0.3598  0.5354  0.2920
 2516SOL    HW119181   4.538   0.433   8.629 -1.5064  0.8356 -2.2155
 2516SOL    HW219182   4.425   0.340   8.673  0.1051  0.0480 -0.3399
 2517SOL     OW19183   0.436   4.604   3.211  0.2223 -0.2323 -0.1294
 2517SOL    HW119184   0.342   4.615   3.202  0.2019 -0.2543  0.0547
 2517SOL    HW219185   0.460   4.567   3.126 -1.1745  0.8655 -0.9911
 2518SOL     OW19186   3.624   0.510  13.400 -0.5774 -0.3047  0.1829
 2518SOL    HW119187   3.707   0.519  13.352  0.4806  0.8419  2.2169
 2518SOL    HW219188   3.637   0.435  13.457  2.5631  2.4352  3.0790
 2519SOL     OW19189   1.520   2.034   0.737  0.2252  0.3819  0.1282
 2519SOL    HW119190   1.425   2.044   0.740  0.2186 -0.0017  1.1387
 2519SOL    HW219191   1.555   2.123   0.747 -1.5141  0.9636  1.0079
 2520SOL     OW19192   3.995   3.505   8.204  0.3990  0.4398 -0.2440
 2520SOL    HW119193   4.044   3.456   8.270 -0.2251 -0.5104 -0.4850
 2520SOL    HW219194   3.946   3.434   8.164 -1.5875  1.5870  0.1421
 2521SOL     OW19195   3.746   0.306  10.362 -0.3460  0.5162  0.1668
 2521SOL    HW119196   3.836   0.310  10.395  0.2241  0.9001 -1.4582
 2521SOL    HW219197   3.745   0.211  10.355  0.1115  0.6486 -1.8319
 2522SOL     OW19198   2.863   1.378  10.781 -0.8236 -0.6066  0.2220
 2522SOL    HW119199   2.950   1.340  10.777 -0.9432 -0.8534  0.0273
 2522SOL    HW219200   2.867   1.451  10.719  0.0006  0.0741  1.0726
 2523SOL     OW19201   1.653   1.093   6.477 -0.5056  0.4229 -0.3551
 2523SOL    HW119202   1.657   1.053   6.564 -0.5338 -0.6567 -0.8422
 2523SOL    HW219203   1.565   1.067   6.451 -0.8663 -0.6579  1.9394
 2524SOL     OW19204   4.204   1.376  16.714  0.4387  0.2589  0.3060
 2524SOL    HW119205   4.200   1.417  16.627 -2.1793  0.2325  0.4257
 2524SOL    HW219206   4.115   1.394  16.743  0.6462  0.5789  0.7362
 2525SOL     OW19207   3.831   1.522   4.757 -0.3206 -0.2858 -0.3217
 2525SOL    HW119208   3.811   1.434   4.788  0.7457 -0.2006  0.6184
 2525SOL    HW219209   3.927   1.525   4.757 -0.3779  1.5604 -1.1967
 2526SOL     OW19210   3.096   1.713  12.502 -0.5449 -0.1232  0.4598
 2526SOL    HW119211   3.061   1.658  12.431  2.3143 -2.1984  0.6275
 2526SOL    HW219212   3.019   1.769  12.508 -1.7768 -1.6875 -0.8079
 2527SOL     OW19213   2.986   1.740   8.641  0.8159  0.2095  0.1711
 2527SOL    HW119214   2.957   1.730   8.732 -0.0143 -0.9041 -0.2090
 2527SOL    HW219215   2.925   1.806   8.609 -0.4608 -1.1397 -0.2031
 2528SOL     OW19216   2.903   1.885  12.510 -0.3153  0.0178  0.1611
 2528SOL    HW119217   2.824   1.916  12.556  0.3493  0.8176  0.7820
 2528SOL    HW219218   2.950   1.966  12.530 -0.2598  0.7404 -2.9681
 2529SOL     OW19219   1.929   3.439   4.576  0.0479  0.0926  0.7786
 2529SOL    HW119220   1.869   3.372   4.546 -0.5772  1.6104 -1.3908
 2529SOL    HW219221   1.872   3.456   4.651  2.5370  1.9580  2.2499
 2530SOL     OW19222   1.383   1.299  12.931 -0.3163  0.2787 -0.2154
 2530SOL    HW119223   1.320   1.371  12.944  1.2445  2.1595 -2.9605
 2530SOL    HW219224   1.348   1.237  12.994  0.9651 -1.2027 -0.9751
 2531SOL     OW19225   1.739   0.259   6.740  0.2104 -0.4439 -1.0161
 2531SOL    HW119226   1.793   0.327   6.699 -0.6637  1.2334  0.6089
 2531SOL    HW219227   1.706   0.312   6.813  1.5214 -0.0347 -0.7072
 2532SOL     OW19228   4.455   3.936   5.680 -1.0504 -0.0351  0.1091
 2532SOL    HW119229   4.417   3.874   5.618  1.0788 -0.4426 -0.7616
 2532SOL    HW219230   4.532   3.970   5.636 -0.5190 -3.1672 -1.3513
 2533SOL     OW19231   0.881   4.025   3.230 -0.3262  0.0097 -0.1028
 2533SOL    HW119232   0.857   4.068   3.313 -2.8397 -0.0072 -0.8121
 2533SOL    HW219233   0.969   3.996   3.254  0.1707  0.8919 -0.8854
 2534SOL     OW19234   1.767   0.626   0.864 -0.1915 -0.4632 -0.6626
 2534SOL    HW119235   1.673   0.610   0.857  0.1728 -2.2963 -1.3292
 2534SOL    HW219236   1.780   0.675   0.783 -0.5400  0.7278  0.0084
 2535SOL     OW19237   0.247   0.606   2.855  0.4672 -0.2089 -0.3805
 2535SOL    HW119238   0.269   0.673   2.791  0.6373  0.6779  0.6048
 2535SOL    HW219239   0.155   0.591   2.835  0.4294  0.0409 -0.3936
 2536SOL     OW19240   0.907   0.726   2.145 -0.2226  0.3015 -0.1123
 2536SOL    HW119241   0.998   0.755   2.156 -0.1415 -0.2178  0.5894
 2536SOL    HW219242   0.907   0.655   2.209  0.4624  0.6026  0.2282
 2537SOL     OW19243   0.813   3.708  16.442  0.4825  0.3535  0.0963
 2537SOL    HW119244   0.775   3.630  16.482 -0.0596  0.7860  0.4274
 2537SOL    HW219245   0.735   3.733  16.393  0.4803  0.6543  0.2532
 2538SOL     OW19246   1.089   1.458   2.331  0.4986 -0.2156 -0.1151
 2538SOL    HW119247   1.047   1.540   2.357 -1.0012 -1.0906  0.1867
 2538SOL    HW219248   1.099   1.421   2.418  1.8145  0.7007  0.1311
 2539SOL     OW19249   1.639   0.998   9.789  0.3042 -0.1423  0.1348
 2539SOL    HW119250   1.643   1.089   9.818  1.9662 -0.9634  2.5500
 2539SOL    HW219251   1.544   0.991   9.800  0.2351 -1.2813 -1.2898
 2540SOL     OW19252   1.596   2.886   9.208 -0.3837  1.0848  0.5132
 2540SOL    HW119253   1.581   2.814   9.146 -0.5099  0.1071  1.6871
 2540SOL    HW219254   1.565   2.851   9.292  1.1055  0.6065  0.8593
 2541SOL     OW19255   2.075   2.456   6.606  0.2603 -0.5880 -0.1272
 2541SOL    HW119256   2.069   2.512   6.683  0.3196 -0.1377 -0.4498
 2541SOL    HW219257   2.042   2.524   6.547  0.6799 -1.8988 -1.8600
 2542SOL     OW19258   4.418   2.925   9.063 -0.8363  0.5469  0.0540
 2542SOL    HW119259   4.420   2.964   9.150 -0.9720 -0.0543  0.3292
 2542SOL    HW219260   4.375   2.997   9.018 -1.5951 -0.7787 -1.3327
 2543SOL     OW19261   0.263   4.276   8.436 -0.1211 -0.0923 -0.7020
 2543SOL    HW119262   0.192   4.271   8.371  1.5425 -3.1663 -2.2755
 2543SOL    HW219263   0.275   4.371   8.433 -0.8532  0.0753  1.4176
 2544SOL     OW19264   3.037   0.863   4.605 -0.1836 -0.2686  0.7343
 2544SOL    HW119265   2.962   0.876   4.546 -0.5420  0.6691  1.4015
 2544SOL    HW219266   2.997   0.800   4.666 -0.7399  0.7928  1.4677
 2545SOL     OW19267   2.449   2.493  14.497  0.1110 -0.1829 -0.3460
 2545SOL    HW119268   2.363   2.499  14.454  0.3271  2.0168 -0.4309
 2545SOL    HW219269   2.518   2.495  14.431  0.0829  1.1774 -0.3316
 2546SOL     OW19270   1.093   3.048   3.134  0.3692 -0.5265  0.2111
 2546SOL    HW119271   1.112   3.129   3.087  0.0916  0.5378  1.9293
 2546SOL    HW219272   1.007   3.067   3.170 -0.7115 -1.5548 -1.8229
 2547SOL     OW19273   4.522   2.526  15.127 -0.5927  0.3177  0.1375
 2547SOL    HW119274   4.586   2.455  15.123 -1.4058 -0.4434  0.5918
 2547SOL    HW219275   4.580   2.599  15.146  0.4532 -0.8140  1.3262
 2548SOL     OW19276   0.401   0.058   5.018 -0.1766  0.0050  0.2071
 2548SOL    HW119277   0.428   0.149   5.008 -0.0333 -0.2339 -1.5673
 2548SOL    HW219278   0.370   0.042   4.929 -1.2337  0.6679  0.4573
 2549SOL     OW19279   3.962   3.985   0.944 -0.3238 -0.1677  0.0447
 2549SOL    HW119280   3.875   3.955   0.919 -0.4041  1.2357 -1.3978
 2549SOL    HW219281   3.944   3.975   1.037 -0.6234 -0.7117 -0.0715
 2550SOL     OW19282   2.701   2.858  10.600 -0.2557  0.0392 -0.0661
 2550SOL    HW119283   2.776   2.889  10.549  0.7489  0.9650  1.9520
 2550SOL    HW219284   2.659   2.942  10.620  0.5003  0.4092 -0.0095
 2551SOL     OW19285   3.545   3.046   3.518 -0.1419  0.0486 -0.2736
 2551SOL    HW119286   3.492   2.988   3.574 -0.6329  1.2473  0.5030
 2551SOL    HW219287   3.524   3.008   3.433 -1.7074  0.2936 -0.0110
 2552SOL     OW19288   3.426   2.952   1.223  0.3802  0.3359  1.0133
 2552SOL    HW119289   3.414   3.016   1.152 -2.6004 -0.1565  1.0449
 2552SOL    HW219290   3.338   2.915   1.234  0.5802 -0.1028  1.0997
 2553SOL     OW19291   0.071   0.776  12.773 -0.2047 -0.1788 -0.2806
 2553SOL    HW119292   4.731   0.725  12.778  0.4758 -1.2836 -0.5045
 2553SOL    HW219293   0.141   0.713  12.789  0.4649  1.0108  1.4924
 2554SOL     OW19294   3.295   3.804  12.900 -0.6862  0.4241 -0.0169
 2554SOL    HW119295   3.252   3.869  12.956  0.0390  0.6571  0.2656
 2554SOL    HW219296   3.359   3.852  12.848 -0.3647  1.1689  1.0698
 2555SOL     OW19297   4.211   1.893   2.261 -0.0348 -0.0562 -0.0308
 2555SOL    HW119298   4.198   1.951   2.187  0.0451  0.2558  0.1981
 2555SOL    HW219299   4.281   1.831   2.238 -0.2028  0.0087 -0.7074
 2556SOL     OW19300   1.331   4.311  10.636 -0.1409  0.1381  0.1136
 2556SOL    HW119301   1.388   4.363  10.692 -1.2971 -0.0126  1.4324
 2556SOL    HW219302   1.382   4.231  10.620 -1.1926 -0.9533  2.2197
 2557SOL     OW19303   3.759   3.487   3.525 -0.1516  0.5234 -0.3249
 2557SOL    HW119304   3.721   3.496   3.438 -1.2234  0.3525  0.1176
 2557SOL    HW219305   3.685   3.466   3.582  0.6034 -0.2810  0.3570
 2558SOL     OW19306   4.081   3.356   1.018 -0.0738  0.6793 -0.7412
 2558SOL    HW119307   4.165   3.351   0.972  0.7885 -2.8430  1.2403
 2558SOL    HW219308   4.094   3.429   1.078 -0.6394 -1.3258  1.8416
 2559SOL     OW19309   3.763   1.146  17.539 -0.3336  0.2715  0.0861
 2559SOL    HW119310   3.788   1.151  17.631  2.0546  2.2904 -0.6925
 2559SOL    HW219311   3.720   1.231  17.537  0.4502  0.6336 -1.0138
 2560SOL     OW19312   3.901   1.965  13.104 -0.0353 -0.4194  0.2974
 2560SOL    HW119313   3.828   1.992  13.047 -2.0913 -0.0941  3.1184
 2560SOL    HW219314   3.856   1.896  13.152 -2.9474 -0.3398 -2.3157
 2561SOL     OW19315   2.295   3.060   9.252  0.3658 -0.0300 -0.0406
 2561SOL    HW119316   2.364   3.124   9.268  0.8309 -0.7014  0.6740
 2561SOL    HW219317   2.300   3.059   9.156  0.3017 -1.2196 -0.0410
 2562SOL     OW19318   2.942   3.812   5.064  0.5752 -0.1958  0.1370
 2562SOL    HW119319   3.027   3.849   5.041  0.2499  0.8714  0.6288
 2562SOL    HW219320   2.891   3.868   5.006  1.9751 -0.3395 -1.2273
 2563SOL     OW19321   2.335   2.242  12.606 -0.6887  0.1443 -0.6389
 2563SOL    HW119322   2.421   2.202  12.596 -0.5684 -0.1255  1.4732
 2563SOL    HW219323   2.350   2.336  12.613  1.1624 -0.4218  2.9821
 2564SOL     OW19324   1.808   0.532  10.818  0.8336 -0.2894 -0.2649
 2564SOL    HW119325   1.755   0.606  10.787  0.6474 -0.4340 -0.2894
 2564SOL    HW219326   1.751   0.455  10.811 -0.4400  0.3696  2.7431
 2565SOL     OW19327   4.642   1.055  14.675 -0.1506 -0.0157  0.7172
 2565SOL    HW119328   4.683   1.053  14.589 -0.3633 -0.0463  0.6176
 2565SOL    HW219329   4.563   1.101  14.648 -1.1588 -1.9540  0.4348
 2566SOL     OW19330   3.455   0.364   2.396 -0.0568 -0.0295  0.0093
 2566SOL    HW119331   3.520   0.368   2.467  0.8008 -1.2062 -0.7178
 2566SOL    HW219332   3.388   0.423   2.430  1.3313  2.6123 -1.8281
 2567SOL     OW19333   0.605   0.733   3.607 -0.3508  0.2385  0.5132
 2567SOL    HW119334   0.666   0.692   3.545  1.2218  1.6802  1.1088
 2567SOL    HW219335   0.644   0.820   3.618 -1.2988  0.6470  0.7122
 2568SOL     OW19336   2.830   1.347   6.018 -0.4980 -0.1024  0.2320
 2568SOL    HW119337   2.854   1.314   6.105 -0.7470 -2.3748 -0.5503
 2568SOL    HW219338   2.888   1.423   6.017  1.4397 -1.5830  0.1166
 2569SOL     OW19339   2.461   2.674   0.448  0.3295 -0.1269 -0.0852
 2569SOL    HW119340   2.435   2.714   0.531 -0.7626  0.3746 -0.6691
 2569SOL    HW219341   2.378   2.672   0.401 -0.8901  1.6848  2.0209
 2570SOL     OW19342   1.660   0.577   3.747 -0.0496 -0.4697  0.0688
 2570SOL    HW119343   1.577   0.611   3.711 -0.7647 -2.0945  0.2002
 2570SOL    HW219344   1.662   0.487   3.713 -4.3616 -1.0689  1.3622
 2571SOL     OW19345   2.438   0.203   3.375  0.1855 -0.0641  0.2976
 2571SOL    HW119346   2.396   0.119   3.359  0.7497 -0.4263  0.7068
 2571SOL    HW219347   2.403   0.233   3.459  0.9683 -2.1741  1.3857
 2572SOL     OW19348   2.083   3.395   2.022  0.0688 -0.5009 -0.6167
 2572SOL    HW119349   2.172   3.412   1.993  0.1048 -0.1458 -0.2928
 2572SOL    HW219350   2.035   3.381   1.940 -1.7225 -3.1088  0.8948
 2573SOL     OW19351   4.033   2.173   0.875  0.2464  0.1575  0.1578
 2573SOL    HW119352   3.954   2.125   0.899  0.3700 -0.9573 -1.6329
 2573SOL    HW219353   4.048   2.136   0.788  0.1922  0.5674 -0.0216
 2574SOL     OW19354   1.593   2.192   2.881  0.0219 -0.5829 -0.3915
 2574SOL    HW119355   1.571   2.251   2.953  2.4231  1.1669 -1.0775
 2574SOL    HW219356   1.540   2.220   2.806 -0.2894 -1.3697 -0.4625
 2575SOL     OW19357   3.866   4.427   5.312 -0.2919 -0.0076 -0.1032
 2575SOL    HW119358   3.850   4.520   5.329  1.2633  0.2424 -0.0245
 2575SOL    HW219359   3.862   4.390   5.401 -2.4580  0.7705  0.1115
 2576SOL     OW19360   4.365   2.019  15.607  0.2089  0.2813 -0.2401
 2576SOL    HW119361   4.393   2.075  15.535  2.1659  0.0481  0.3417
 2576SOL    HW219362   4.333   2.082  15.672  0.8075  2.1854 -1.7744
 2577SOL     OW19363   0.096   2.991   6.637 -0.0693  0.4792  0.6679
 2577SOL    HW119364   0.104   3.058   6.569  0.6898 -0.0190  0.2740
 2577SOL    HW219365   0.189   2.977   6.653 -0.3403 -1.4509  0.5142
 2578SOL     OW19366   1.694   1.836  15.223 -0.2182  0.3338 -0.1311
 2578SOL    HW119367   1.708   1.741  15.229 -0.0088  0.4702  1.3941
 2578SOL    HW219368   1.693   1.847  15.128 -0.4529 -0.3349 -0.2056
 2579SOL     OW19369   4.192   2.700   4.445  0.2966 -0.5123  0.0324
 2579SOL    HW119370   4.150   2.782   4.472 -1.2149 -1.5298  0.7391
 2579SOL    HW219371   4.151   2.689   4.359 -0.5597 -0.6379  0.4563
 2580SOL     OW19372   4.561   0.719  17.709  0.5262  0.1772  0.8327
 2580SOL    HW119373   4.544   0.698  17.617  0.0885 -2.2803  1.4797
 2580SOL    HW219374   4.610   0.645  17.745 -1.6060 -1.0169  1.3085
 2581SOL     OW19375   2.568   3.897   6.724 -0.5596  0.0901 -0.1374
 2581SOL    HW119376   2.541   3.989   6.720  1.2924  0.6414 -0.2105
 2581SOL    HW219377   2.660   3.887   6.748 -0.4747 -2.6000 -1.5832
 2582SOL     OW19378   0.870   0.167   5.101  0.9472  0.1928  0.2130
 2582SOL    HW119379   0.895   0.077   5.123  2.1517  0.1646 -1.2950
 2582SOL    HW219380   0.792   0.176   5.156  0.4904 -2.2784 -0.0562
 2583SOL     OW19381   1.319   1.120   3.809  0.2074 -0.4648 -0.4210
 2583SOL    HW119382   1.340   1.213   3.818 -1.2954 -0.4192  2.5328
 2583SOL    HW219383   1.340   1.103   3.717 -0.1913  0.6413 -0.7276
 2584SOL     OW19384   4.119   3.075  11.536  0.1574 -0.1073 -0.7173
 2584SOL    HW119385   4.202   3.090  11.580 -0.9546  2.6842  0.4456
 2584SOL    HW219386   4.135   3.119  11.452  2.1692  1.5898  0.5696
 2585SOL     OW19387   1.176   2.328   4.988  0.5321  0.0574 -0.2543
 2585SOL    HW119388   1.271   2.329   5.000  0.5492  1.3992 -0.5658
 2585SOL    HW219389   1.167   2.233   4.982 -0.7520 -0.0536  3.0856
 2586SOL     OW19390   0.922   3.598   5.367  0.3048 -0.2060 -0.6301
 2586SOL    HW119391   0.920   3.686   5.406 -1.3525 -0.0315 -1.1122
 2586SOL    HW219392   0.969   3.550   5.435 -0.6579  0.5590  0.5748
 2587SOL     OW19393   0.118   4.412   5.389  0.2233 -0.0740 -0.4214
 2587SOL    HW119394   0.043   4.467   5.412  0.2265 -0.3064  0.1233
 2587SOL    HW219395   0.132   4.431   5.296  0.9513 -4.3673 -1.1747
 2588SOL     OW19396   1.766   0.670  15.828  0.4497  0.0278 -0.6327
 2588SOL    HW119397   1.858   0.660  15.801  0.8142  0.2177  0.5606
 2588SOL    HW219398   1.731   0.653  15.740 -1.4668 -0.9431  0.3183
 2589SOL     OW19399   3.991   4.204   5.515 -0.0683  0.2022 -0.1660
 2589SOL    HW119400   4.043   4.241   5.587 -0.8794 -2.2103  1.6918
 2589SOL    HW219401   3.902   4.200   5.551  0.6907  2.6901  2.0285
 2590SOL     OW19402   3.593   0.186   4.938 -0.0901 -0.1963 -0.2157
 2590SOL    HW119403   3.588   0.225   5.025  1.7671 -0.0277 -0.1701
 2590SOL    HW219404   3.686   0.163   4.926 -0.0331 -0.0529 -0.0612
 2591SOL     OW19405   1.611   1.484   2.587 -0.1247  0.1261  0.0223
 2591SOL    HW119406   1.695   1.529   2.593 -0.3821  0.5641  0.3789
 2591SOL    HW219407   1.566   1.562   2.554  0.7802  0.4864 -0.3712
 2592SOL     OW19408   0.993   2.639  10.466  0.2920  0.5994  0.2059
 2592SOL    HW119409   1.016   2.583  10.540  0.1332  0.1545 -0.0833
 2592SOL    HW219410   1.078   2.647  10.423  0.4766  0.3330  0.5194
 2593SOL     OW19411   4.253   0.228  10.962  0.4538  0.3603 -0.3507
 2593SOL    HW119412   4.211   0.251  11.045  1.0605  0.4260 -0.0645
 2593SOL    HW219413   4.231   0.296  10.899  0.0405 -0.7898 -1.4636
 2594SOL     OW19414   1.099   0.405   3.228  0.3956 -0.2854 -0.4880
 2594SOL    HW119415   1.036   0.358   3.282  1.2195 -1.3820 -0.4909
 2594SOL    HW219416   1.131   0.470   3.291 -0.6238  1.6787 -1.9802
 2595SOL     OW19417   4.667   2.720   4.321 -0.0601 -0.6736 -0.0936
 2595SOL    HW119418   4.578   2.752   4.338 -0.0840 -0.9599  0.3243
 2595SOL    HW219419   4.723   2.755   4.391 -2.3585 -0.0762  1.4890
 2596SOL     OW19420   1.701   4.420   1.092 -0.4230 -0.0378 -0.3275
 2596SOL    HW119421   1.767   4.456   1.034  0.3571  1.1167  1.2820
 2596SOL    HW219422   1.667   4.347   1.039 -0.2994  0.6998 -1.4205
 2597SOL     OW19423   2.393   2.398   2.921 -0.2370 -0.0422  0.4709
 2597SOL    HW119424   2.470   2.349   2.892  0.2355 -0.1438  1.8480
 2597SOL    HW219425   2.348   2.414   2.839 -0.0289  1.7818  0.7255
 2598SOL     OW19426   0.573   3.259   9.856 -0.4301  0.1852 -0.3632
 2598SOL    HW119427   0.524   3.341   9.861  1.3312  1.1256  1.5886
 2598SOL    HW219428   0.540   3.220   9.937  0.3186  0.9581  0.3125
 2599SOL     OW19429   1.893   2.552  15.741 -0.1009 -0.2905 -0.5423
 2599SOL    HW119430   1.952   2.536  15.815 -2.5420 -1.3313  1.1681
 2599SOL    HW219431   1.817   2.593  15.782  0.9384  0.4054  0.6555
 2600SOL     OW19432   4.564   0.711   2.182  0.2274 -0.1143  0.6292
 2600SOL    HW119433   4.614   0.638   2.217  0.7393  0.1999  0.5534
 2600SOL    HW219434   4.559   0.686   2.090  1.1087  1.3879  0.1697
 2601SOL     OW19435   0.445   2.207   8.569 -0.4171 -0.1086  0.4707
 2601SOL    HW119436   0.496   2.148   8.513 -1.8075 -2.4359  1.6334
 2601SOL    HW219437   0.365   2.169   8.533  0.3702  0.0223 -1.4521
 2602SOL     OW19438   3.292   0.035   1.377  0.0169  0.1331 -0.2099
 2602SOL    HW119439   3.212   0.069   1.336  0.3939  2.5513  1.0799
 2602SOL    HW219440   3.354   0.095   1.335  0.9659 -0.5494  0.2392
 2603SOL     OW19441   2.641   0.154   2.194  0.0390  0.0685 -0.3275
 2603SOL    HW119442   2.552   0.118   2.198 -0.7646  2.0724 -0.5682
 2603SOL    HW219443   2.642   0.248   2.207 -0.2270  0.1447 -0.8420
 2604SOL     OW19444   0.240   0.633   6.458  0.6098 -0.4893  0.2127
 2604SOL    HW119445   0.231   0.594   6.545  0.7977 -0.3462  0.2986
 2604SOL    HW219446   0.328   0.672   6.461 -0.0210  0.7248  3.1068
 2605SOL     OW19447   4.631   4.274   7.393  0.2020 -0.0297 -0.2964
 2605SOL    HW119448   4.540   4.274   7.422  0.1810 -0.1710 -0.3642
 2605SOL    HW219449   4.609   4.276   7.300 -0.3944  1.0545 -0.1369
 2606SOL     OW19450   2.371   2.061   7.994  0.3368 -0.6442 -0.0983
 2606SOL    HW119451   2.290   2.078   7.945  0.6001  1.4442  0.1810
 2606SOL    HW219452   2.412   1.989   7.946  0.1519 -0.3335 -0.7270
 2607SOL     OW19453   2.851   3.283  16.443 -0.2121 -0.2499 -0.1910
 2607SOL    HW119454   2.849   3.311  16.351 -0.7034 -1.6940 -0.6192
 2607SOL    HW219455   2.804   3.201  16.431 -2.0535  0.9428 -1.0981
 2608SOL     OW19456   0.263   0.286   4.629  0.1376  1.0383  0.2872
 2608SOL    HW119457   0.281   0.204   4.584  1.1889  3.7943 -4.3188
 2608SOL    HW219458   0.310   0.346   4.570 -0.0857  0.6852 -0.2513
 2609SOL     OW19459   3.543   3.844   5.062 -0.0061  0.1920  0.0829
 2609SOL    HW119460   3.551   3.884   4.975  3.0991  1.0415  0.7673
 2609SOL    HW219461   3.448   3.854   5.069 -0.3087 -1.7214 -1.3336
 2610SOL     OW19462   3.407   4.408   7.452  0.3168  0.4359  0.0255
 2610SOL    HW119463   3.494   4.441   7.430  0.0452  0.3930 -1.1298
 2610SOL    HW219464   3.420   4.395   7.546 -0.1485 -0.5668 -0.0557
 2611SOL     OW19465   3.990   0.450  13.631 -0.9175 -0.0817  0.5757
 2611SOL    HW119466   4.056   0.516  13.610  0.8542 -1.4617  1.7401
 2611SOL    HW219467   4.040   0.391  13.687  1.1236  1.6382  0.5464
 2612SOL     OW19468   4.584   0.166  15.309  0.2675 -0.7593  0.4550
 2612SOL    HW119469   4.528   0.175  15.232  0.4855  1.1435  0.5186
 2612SOL    HW219470   4.528   0.107  15.359 -0.4176  1.3645  2.1815
 2613SOL     OW19471   3.437   0.734   1.630 -0.5180 -0.4249  0.5977
 2613SOL    HW119472   3.499   0.714   1.700  2.3860  1.7965 -1.3169
 2613SOL    HW219473   3.440   0.830   1.631  3.1976 -0.5225  0.1275
 2614SOL     OW19474   0.459   4.551  14.066  0.1752  0.0185  0.0718
 2614SOL    HW119475   0.552   4.536  14.048  0.5344  1.2751  0.8955
 2614SOL    HW219476   0.428   4.561  13.976  1.1371  0.2438 -0.2307
 2615SOL     OW19477   2.153   0.684   3.734  0.2813  0.0912  0.1585
 2615SOL    HW119478   2.080   0.746   3.737  1.4742  1.5345 -0.4657
 2615SOL    HW219479   2.118   0.626   3.668 -1.1221  0.3202  0.7064
 2616SOL     OW19480   0.964   2.932   8.620  0.3603 -0.2659  0.6070
 2616SOL    HW119481   0.971   2.993   8.547  0.5354 -0.3921  0.5196
 2616SOL    HW219482   0.871   2.910   8.611  0.3191  0.5930 -1.1386
 2617SOL     OW19483   4.413   3.403   6.657  0.0465 -0.6528  0.0365
 2617SOL    HW119484   4.318   3.409   6.650 -0.0606  0.7486  2.6177
 2617SOL    HW219485   4.452   3.455   6.586  0.5806 -0.6011  0.3683
 2618SOL     OW19486   3.545   1.798  16.986  0.6118 -0.1606  0.7932
 2618SOL    HW119487   3.493   1.771  17.062 -2.0885  3.2527  0.1454
 2618SOL    HW219488   3.604   1.865  17.020  1.3569  0.1131 -1.0794
 2619SOL     OW19489   0.576   1.395  12.140 -0.0812 -0.3462  0.0769
 2619SOL    HW119490   0.588   1.393  12.235  0.4645 -0.2267  0.0122
 2619SOL    HW219491   0.532   1.479  12.129 -0.6128 -0.5046  0.9838
 2620SOL     OW19492   1.341   1.702  13.032  0.3601  0.0828 -0.4544
 2620SOL    HW119493   1.282   1.633  13.064  1.0658 -0.6650 -0.7499
 2620SOL    HW219494   1.371   1.727  13.119  0.4546  2.2096 -1.1129
 2621SOL     OW19495   2.733   1.839   0.297  0.2832  0.2747 -0.1751
 2621SOL    HW119496   2.697   1.916   0.339 -1.6062  0.2421 -1.7381
 2621SOL    HW219497   2.814   1.865   0.253 -0.3047  1.3038 -0.6502
 2622SOL     OW19498   0.491   3.579   6.223 -0.4498 -0.0811  0.5721
 2622SOL    HW119499   0.509   3.672   6.235  1.3905 -0.1271 -1.6176
 2622SOL    HW219500   0.429   3.582   6.150 -1.7168  0.1199  1.6824
 2623SOL     OW19501   2.706   1.944   5.507  0.6807  0.0217 -0.4562
 2623SOL    HW119502   2.683   2.004   5.577 -0.4573 -1.2431  0.2462
 2623SOL    HW219503   2.698   1.853   5.537 -1.2900 -1.0133 -4.1711
 2624SOL     OW19504   3.206   2.421   9.334 -0.5038 -0.7437 -0.5171
 2624SOL    HW119505   3.301   2.426   9.335 -0.4863 -1.1781 -0.0914
 2624SOL    HW219506   3.190   2.345   9.390 -1.3856 -0.0446  0.1969
 2625SOL     OW19507   0.056   0.378  15.281  0.3746  0.0796 -0.2476
 2625SOL    HW119508   0.081   0.409  15.368 -0.8446  0.6227 -0.0934
 2625SOL    HW219509   4.725   0.318  15.302  1.6973 -1.7873 -0.9900
 2626SOL     OW19510   1.502   3.607   3.497 -0.2093  0.0524  0.2606
 2626SOL    HW119511   1.597   3.606   3.489 -0.2702  3.5509 -0.5273
 2626SOL    HW219512   1.469   3.629   3.410 -1.0589  1.4695  0.9364
 2627SOL     OW19513   2.464   3.136   6.282  0.6221 -0.2588  0.7867
 2627SOL    HW119514   2.455   3.112   6.375  0.3465 -3.8509 -0.1728
 2627SOL    HW219515   2.527   3.208   6.278  2.9379 -2.0908  4.3179
 2628SOL     OW19516   3.633   4.375   1.752 -0.6372 -0.5246  0.2501
 2628SOL    HW119517   3.633   4.467   1.776 -1.2780  0.0545 -1.9251
 2628SOL    HW219518   3.549   4.371   1.704  0.0123 -0.8900 -0.8576
 2629SOL     OW19519   3.885   1.255  13.397 -0.3244 -0.0645 -0.3533
 2629SOL    HW119520   3.911   1.310  13.323  2.6934 -1.8444 -0.5864
 2629SOL    HW219521   3.971   1.239  13.434 -0.0934  1.7397 -0.0987
 2630SOL     OW19522   3.593   0.539   6.517 -0.1822 -0.0308 -0.4981
 2630SOL    HW119523   3.556   0.585   6.593 -1.6868  0.9339 -1.8406
 2630SOL    HW219524   3.515   0.547   6.463 -0.8901 -0.5387  0.4465
 2631SOL     OW19525   2.358   3.143   1.837  0.3578  0.2442  0.3211
 2631SOL    HW119526   2.275   3.177   1.803 -0.0029 -1.1092 -0.1193
 2631SOL    HW219527   2.321   3.087   1.905 -3.0983  2.9405  0.6641
 2632SOL     OW19528   1.019   1.946   3.811 -0.3927 -0.6230 -0.0282
 2632SOL    HW119529   1.042   1.877   3.873  0.1016  0.3276  0.8432
 2632SOL    HW219530   0.933   1.974   3.840  0.1550  0.5123  0.4918
 2633SOL     OW19531   0.284   3.950   9.326 -0.1756 -0.5414  0.1541
 2633SOL    HW119532   0.249   4.026   9.373  0.1350  0.7021 -1.6427
 2633SOL    HW219533   0.288   3.877   9.388  0.8113 -0.6966 -0.0812
 2634SOL     OW19534   0.235   1.517   2.227  0.2890  0.1270  0.5780
 2634SOL    HW119535   0.198   1.429   2.217  1.0330  0.0390 -1.4322
 2634SOL    HW219536   0.299   1.510   2.156 -1.5796  4.5373 -1.5797
 2635SOL     OW19537   1.408   1.693   8.298  0.1775 -0.1879 -0.3976
 2635SOL    HW119538   1.443   1.644   8.373  0.5400  0.4344 -0.1502
 2635SOL    HW219539   1.470   1.766   8.288 -0.1789 -0.0845 -1.8369
 2636SOL     OW19540   1.640   0.732   7.832 -0.1747 -0.2299  0.0807
 2636SOL    HW119541   1.712   0.791   7.809 -0.4052  0.2621  0.6219
 2636SOL    HW219542   1.567   0.794   7.827 -0.3761 -0.5269 -0.6459
 2637SOL     OW19543   1.855   1.127  17.219  0.2083  0.3365  0.0480
 2637SOL    HW119544   1.936   1.149  17.265  1.2848  0.3192 -1.8109
 2637SOL    HW219545   1.815   1.214  17.211 -1.2142 -0.4721 -1.5710
 2638SOL     OW19546   4.032   3.305  11.679  0.1646  0.3218  0.1090
 2638SOL    HW119547   4.045   3.218  11.642  1.7167 -0.5053  2.6122
 2638SOL    HW219548   4.123   3.334  11.684 -0.1900  1.0325  2.0601
 2639SOL     OW19549   4.483   2.709  12.843 -0.0966 -0.5142 -0.3503
 2639SOL    HW119550   4.458   2.779  12.904 -1.0078  0.7580 -2.1827
 2639SOL    HW219551   4.414   2.650  12.873 -1.6404  1.9223  0.8872
 2640SOL     OW19552   2.483   4.706   1.853  0.2467  0.4198 -0.8383
 2640SOL    HW119553   2.417   4.669   1.794 -1.1556  1.7593 -0.1097
 2640SOL    HW219554   2.428   0.026   1.902  1.0128  2.0926 -2.0417
 2641SOL     OW19555   0.712   3.480   3.486 -0.1737 -0.0550 -0.2089
 2641SOL    HW119556   0.713   3.527   3.570  0.1980  0.3113 -0.4201
 2641SOL    HW219557   0.740   3.392   3.509  0.1293 -0.7015 -3.1038
 2642SOL     OW19558   1.920   3.168   8.472 -0.0397  0.1160 -0.3715
 2642SOL    HW119559   2.015   3.169   8.485  0.3206 -2.8625 -2.6980
 2642SOL    HW219560   1.915   3.210   8.386  0.2055  1.4858  0.2863
 2643SOL     OW19561   1.068   3.099   6.594  0.6120 -0.7273 -0.2313
 2643SOL    HW119562   1.073   3.102   6.498  2.2621  0.8728 -0.0910
 2643SOL    HW219563   0.981   3.062   6.607  0.1514 -0.6632 -2.9498
 2644SOL     OW19564   2.168   2.505  14.461 -0.0168  0.0093 -0.1925
 2644SOL    HW119565   2.124   2.420  14.468 -0.6956  0.5512  2.0527
 2644SOL    HW219566   2.117   2.550  14.393  0.6595  2.4837  0.9645
 2645SOL     OW19567   2.180   3.223   7.758  0.1767 -0.3088 -0.1529
 2645SOL    HW119568   2.269   3.232   7.724  0.5290 -2.6150  0.1057
 2645SOL    HW219569   2.133   3.247   7.678 -0.5279 -2.4528 -0.4043
 2646SOL     OW19570   2.100   3.953   5.385 -0.0947 -0.2100  0.1053
 2646SOL    HW119571   2.177   4.001   5.415  0.2840 -0.9781  0.3773
 2646SOL    HW219572   2.110   3.868   5.428  2.0005 -1.6418 -3.2001
 2647SOL     OW19573   2.265   2.071  11.140  0.8256 -0.4628  0.3013
 2647SOL    HW119574   2.306   2.127  11.075 -0.1466 -0.4937 -0.3469
 2647SOL    HW219575   2.174   2.093  11.117  0.6969 -0.9994  0.3019
 2648SOL     OW19576   3.515   2.991   8.677  0.1079 -0.5654 -0.1208
 2648SOL    HW119577   3.527   3.047   8.753  0.5493  1.5029 -1.7358
 2648SOL    HW219578   3.516   3.052   8.603  1.9039 -0.7792 -0.2931
 2649SOL     OW19579   3.704   2.305   7.015 -0.4524 -0.1215 -0.5325
 2649SOL    HW119580   3.616   2.314   7.053 -0.0373 -1.1516  0.6526
 2649SOL    HW219581   3.676   2.310   6.923 -0.0567 -2.5036 -0.7766
 2650SOL     OW19582   3.963   3.501   7.194 -0.0991  0.3736  0.0915
 2650SOL    HW119583   3.978   3.593   7.172  0.1353 -0.0218 -1.3269
 2650SOL    HW219584   4.038   3.449   7.165  0.5404  1.6828 -0.5994
 2651SOL     OW19585   1.600   2.444   3.254  0.0927 -0.4663  0.1972
 2651SOL    HW119586   1.667   2.513   3.259  1.2887 -1.7578  1.8976
 2651SOL    HW219587   1.622   2.404   3.338 -1.3649  0.8880  1.2348
 2652SOL     OW19588   3.932   1.933   6.064 -0.3519  0.2538 -0.3984
 2652SOL    HW119589   3.949   1.989   5.988 -2.4158  1.5859  0.1314
 2652SOL    HW219590   3.992   1.968   6.129  1.2631 -0.8359 -1.2904
 2653SOL     OW19591   2.009   4.144   7.983 -0.0941 -0.0262  0.0278
 2653SOL    HW119592   1.973   4.092   7.912 -0.5295  0.3700 -0.0463
 2653SOL    HW219593   2.031   4.072   8.042 -0.8324 -0.4593 -0.2283
 2654SOL     OW19594   2.307   4.081   2.147  0.1782  0.3236  0.2852
 2654SOL    HW119595   2.382   4.065   2.091  1.4936 -1.4453  2.5462
 2654SOL    HW219596   2.255   4.122   2.078 -0.2506  1.1729  1.1029
 2655SOL     OW19597   1.568   0.063  10.078  0.1958 -0.2957  0.1316
 2655SOL    HW119598   1.646   0.118  10.066 -0.5867  1.0809  1.3649
 2655SOL    HW219599   1.552   0.084  10.170  0.7299 -2.5794  0.7179
 2656SOL     OW19600   4.467   1.794   7.530  0.0124  0.1045 -0.1063
 2656SOL    HW119601   4.406   1.854   7.574 -1.7432 -0.8182 -1.2500
 2656SOL    HW219602   4.461   1.828   7.441 -0.4974 -1.5920 -0.7305
 2657SOL     OW19603   1.485   3.060   8.981 -0.0662  0.3668  1.0653
 2657SOL    HW119604   1.562   3.058   8.925  0.8181 -1.2287  2.3432
 2657SOL    HW219605   1.519   3.028   9.064 -0.1860  0.5122  1.1716
 2658SOL     OW19606   0.268   2.767  15.023 -0.2023 -0.0012 -0.9190
 2658SOL    HW119607   0.273   2.738  14.932  0.2772 -0.5650 -0.7160
 2658SOL    HW219608   0.355   2.742  15.053 -0.3042 -0.2502 -0.8340
 2659SOL     OW19609   1.400   0.890   7.817 -0.3313  0.0956 -0.0556
 2659SOL    HW119610   1.314   0.931   7.806 -1.0349 -1.4256 -0.2707
 2659SOL    HW219611   1.398   0.850   7.730  0.6599  1.4707 -0.6992
 2660SOL     OW19612   0.953   4.465   5.499 -0.1733  0.6032 -0.3635
 2660SOL    HW119613   0.938   4.475   5.593  2.8759  0.5129  0.1294
 2660SOL    HW219614   1.049   4.473   5.500 -0.2020  0.5855  2.0910
 2661SOL     OW19615   1.957   3.854   8.656  0.1527  0.4433  0.4876
 2661SOL    HW119616   1.951   3.944   8.687 -1.7988  0.2675  0.6009
 2661SOL    HW219617   1.928   3.873   8.567  2.0835  2.1038  0.2151
 2662SOL     OW19618   1.333   4.295   8.737  0.4502 -0.1075  0.7453
 2662SOL    HW119619   1.340   4.390   8.726 -2.4211  0.1612  1.0753
 2662SOL    HW219620   1.415   4.277   8.691 -0.5132 -1.1797 -0.5751
 2663SOL     OW19621   3.476   4.615   2.199  0.5523 -0.4427  0.2153
 2663SOL    HW119622   3.569   4.637   2.206 -0.1069  2.1451  0.8882
 2663SOL    HW219623   3.432   4.684   2.149 -2.1635 -1.5506  1.0873
 2664SOL     OW19624   0.448   4.289  11.400 -0.2383  0.1629  0.4646
 2664SOL    HW119625   0.518   4.340  11.442 -0.6246  0.8393  0.2872
 2664SOL    HW219626   0.482   4.200  11.415 -0.0302 -0.4481 -3.6150
 2665SOL     OW19627   2.568   2.258   3.205  0.1108  0.5000 -0.1138
 2665SOL    HW119628   2.538   2.195   3.270 -1.8463  0.8927 -0.6586
 2665SOL    HW219629   2.607   2.319   3.268 -0.1853  1.6053 -1.0043
 2666SOL     OW19630   1.049   4.022   1.531 -0.0130 -0.1234 -0.0817
 2666SOL    HW119631   1.086   4.025   1.443 -1.2450 -1.4993 -0.6360
 2666SOL    HW219632   1.101   3.964   1.587 -2.7643 -0.6601  1.9046
 2667SOL     OW19633   2.553   2.402   4.165  0.3377 -0.0884  0.2258
 2667SOL    HW119634   2.622   2.366   4.221  1.5137  2.8887  0.7263
 2667SOL    HW219635   2.549   2.333   4.100  1.2186  0.9737 -0.9697
 2668SOL     OW19636   0.288   1.489   7.874  0.5077 -0.4249 -0.0127
 2668SOL    HW119637   0.229   1.438   7.818 -0.6168  0.2657  0.5405
 2668SOL    HW219638   0.275   1.579   7.844 -1.5514 -0.0328  2.0638
 2669SOL     OW19639   1.346   2.361   7.230 -0.2599 -0.1060 -0.0989
 2669SOL    HW119640   1.337   2.284   7.288  0.0918  1.1022  1.5664
 2669SOL    HW219641   1.294   2.424   7.280 -0.8180 -0.8075  0.2031
 2670SOL     OW19642   2.226   2.319  12.857 -0.1913 -0.3320 -0.0265
 2670SOL    HW119643   2.255   2.406  12.831  0.0232 -1.5772 -3.9717
 2670SOL    HW219644   2.315   2.289  12.876  0.0563  0.2118 -0.3518
 2671SOL     OW19645   4.504   2.070   3.653 -0.0116  0.0191 -0.6399
 2671SOL    HW119646   4.581   2.100   3.605  0.2432  1.0154  0.3741
 2671SOL    HW219647   4.500   1.978   3.628  3.3448 -0.5541  0.9314
 2672SOL     OW19648   2.493   0.404  13.500 -0.0242 -0.1022 -0.5725
 2672SOL    HW119649   2.563   0.348  13.533  0.2310  1.1261  0.9470
 2672SOL    HW219650   2.513   0.430  13.410 -0.8382 -0.0877 -0.7515
 2673SOL     OW19651   0.469   0.862   6.372 -0.0989 -0.4957 -0.4054
 2673SOL    HW119652   0.443   0.804   6.300  0.0036 -1.5574  0.4117
 2673SOL    HW219653   0.516   0.927   6.319 -0.0691 -1.0052 -0.9968
 2674SOL     OW19654   1.972   3.037   4.083  0.5440  0.3049 -0.1543
 2674SOL    HW119655   1.945   3.078   4.001 -0.5892 -0.0707  0.0240
 2674SOL    HW219656   1.889   3.040   4.131  1.7077 -0.5503  1.9130
 2675SOL     OW19657   1.778   2.058   0.328  0.0421 -0.3708 -0.3374
 2675SOL    HW119658   1.859   2.054   0.380  0.4974  0.6955 -0.9593
 2675SOL    HW219659   1.723   2.015   0.394 -0.3299 -0.5069 -0.7421
 2676SOL     OW19660   1.457   4.044   4.711 -0.0513  0.4172 -0.2373
 2676SOL    HW119661   1.488   3.996   4.634  2.0107  1.8888 -0.3082
 2676SOL    HW219662   1.380   3.990   4.729 -0.6414  1.0150 -0.9915
 2677SOL     OW19663   0.714   1.702  14.951 -0.1632  0.4588 -0.4596
 2677SOL    HW119664   0.682   1.649  14.877  2.3511 -0.3131 -0.9760
 2677SOL    HW219665   0.809   1.698  14.938 -0.1101  1.0298 -0.2662
 2678SOL     OW19666   3.655   2.377   1.328  0.0995 -0.0567 -0.2711
 2678SOL    HW119667   3.671   2.284   1.310 -2.1738 -0.0189 -2.4476
 2678SOL    HW219668   3.708   2.426   1.266  1.0460 -2.9931 -1.7829
 2679SOL     OW19669   0.436   0.151   2.481 -0.1961 -0.0116  0.2355
 2679SOL    HW119670   0.444   0.080   2.417  1.4910 -1.3129  1.9242
 2679SOL    HW219671   0.345   0.174   2.463  0.4707  0.9344 -1.9190
 2680SOL     OW19672   2.447   4.435   7.774 -0.2216  0.2541  0.1379
 2680SOL    HW119673   2.517   4.494   7.802 -0.5440 -0.4335  2.4573
 2680SOL    HW219674   2.367   4.457   7.822  0.4701 -0.3251  1.5633
 2681SOL     OW19675   1.002   3.663  14.441 -0.0733 -0.0131 -0.6060
 2681SOL    HW119676   1.085   3.670  14.393  0.1969 -0.8311 -0.2633
 2681SOL    HW219677   0.990   3.569  14.435 -2.7811  0.3969 -1.8098
 2682SOL     OW19678   2.721   3.615   9.732  0.5753  0.3296  0.6826
 2682SOL    HW119679   2.748   3.534   9.775 -0.3480  0.0025  0.6530
 2682SOL    HW219680   2.639   3.631   9.779 -0.2961  0.7772 -0.9817
 2683SOL     OW19681   0.735   4.492   3.952 -0.1386  0.1082 -0.2889
 2683SOL    HW119682   0.818   4.492   3.905 -0.7180 -0.5411 -1.3087
 2683SOL    HW219683   0.688   4.418   3.912 -0.0445 -0.5808  0.8708
 2684SOL     OW19684   2.065   0.224  15.043 -0.0623  0.3132  0.1083
 2684SOL    HW119685   2.014   0.294  15.084  0.7929  1.2514 -0.3956
 2684SOL    HW219686   2.002   0.153  15.036 -0.8597  1.1524 -1.2397
 2685SOL     OW19687   3.754   2.449   6.234 -0.4478 -0.7778 -0.0872
 2685SOL    HW119688   3.819   2.383   6.209  0.3338 -0.0370 -0.0066
 2685SOL    HW219689   3.688   2.449   6.165 -0.8582  2.0596  0.3118
 2686SOL     OW19690   4.688   2.073   7.856  0.5000  0.2202  0.3655
 2686SOL    HW119691   4.605   2.042   7.893 -0.2070  0.6982 -0.8075
 2686SOL    HW219692   4.718   2.117   7.935  1.0225  0.9632 -0.2499
 2687SOL     OW19693   1.531   1.007  13.388  0.0338 -0.4017  0.1898
 2687SOL    HW119694   1.557   1.088  13.345  1.3719  0.1010  1.9274
 2687SOL    HW219695   1.609   0.977  13.434 -0.7534  0.8580  2.3762
 2688SOL     OW19696   3.782   0.128   5.796  0.3654  0.6788  0.1229
 2688SOL    HW119697   3.699   0.140   5.750  1.2764  0.1117 -1.6528
 2688SOL    HW219698   3.766   0.120   5.890 -0.9140  2.1110  0.0382
 2689SOL     OW19699   0.624   4.206   6.938  0.8832  0.0732  0.0800
 2689SOL    HW119700   0.547   4.235   6.889  0.3579 -0.2697  0.7014
 2689SOL    HW219701   0.666   4.141   6.882 -1.3477 -2.1172  0.9303
 2690SOL     OW19702   1.677   2.039   5.066  0.2002 -0.0080  0.0284
 2690SOL    HW119703   1.633   1.963   5.103 -0.0184  1.5118  2.9325
 2690SOL    HW219704   1.601   2.092   5.043 -1.2538 -1.8335  0.6414
 2691SOL     OW19705   2.085   1.377   1.497  0.1879  0.7572  0.4515
 2691SOL    HW119706   2.078   1.422   1.413 -0.6441 -3.2765 -1.6195
 2691SOL    HW219707   2.150   1.434   1.538  0.1486 -0.1860  1.8645
 2692SOL     OW19708   4.179   0.535   1.551  0.5097 -0.2389  0.0439
 2692SOL    HW119709   4.105   0.569   1.500  1.5582 -1.4273 -2.2601
 2692SOL    HW219710   4.175   0.440   1.555 -0.7780 -0.1441  1.0124
 2693SOL     OW19711   1.345   2.225   5.488  0.1670 -0.7549  0.3695
 2693SOL    HW119712   1.413   2.207   5.552  0.8935  0.0796 -0.1622
 2693SOL    HW219713   1.280   2.257   5.551 -0.1310 -0.8612  0.1157
 2694SOL     OW19714   1.833   0.902   7.792 -0.2402  0.3613  0.8030
 2694SOL    HW119715   1.793   0.984   7.821 -0.6025 -0.1185  1.6649
 2694SOL    HW219716   1.902   0.941   7.738 -2.9654  0.9791 -2.1627
 2695SOL     OW19717   4.617   1.295   4.254  0.2714 -0.1067 -0.0130
 2695SOL    HW119718   4.681   1.330   4.316 -0.0902 -2.5396  1.7100
 2695SOL    HW219719   4.584   1.379   4.220 -0.1061 -0.1828  0.1577
 2696SOL     OW19720   0.875   4.538  14.405  0.1854  0.3178  0.2457
 2696SOL    HW119721   0.918   4.456  14.430 -0.9023 -0.6117 -0.9616
 2696SOL    HW219722   0.794   4.502  14.368 -1.1658  1.1444  2.3959
 2697SOL     OW19723   3.681   3.770   7.944  0.1745 -0.4808  0.2902
 2697SOL    HW119724   3.588   3.778   7.964  0.4266 -0.2106  1.3627
 2697SOL    HW219725   3.693   3.683   7.907 -0.7320  0.1157 -1.3659
 2698SOL     OW19726   3.323   0.568   8.328 -0.2761  0.1739 -0.2957
 2698SOL    HW119727   3.232   0.553   8.354 -0.2575  0.7490  0.0823
 2698SOL    HW219728   3.310   0.578   8.233 -1.1576 -1.5982 -0.3726
 2699SOL     OW19729   4.703   4.034   3.877 -0.0473  0.1893  0.0085
 2699SOL    HW119730   4.722   3.943   3.899  0.1106 -0.2704 -2.0168
 2699SOL    HW219731   4.702   4.037   3.781 -0.2257  2.3041  0.0839
 2700SOL     OW19732   0.838   1.478   3.550 -0.3438 -0.0342  0.7449
 2700SOL    HW119733   0.864   1.511   3.636 -1.2974  0.8480  0.7014
 2700SOL    HW219734   0.848   1.550   3.488  0.8056 -0.7390  0.1247
 2701SOL     OW19735   1.064   3.546   4.298 -0.7773 -0.5984  0.0815
 2701SOL    HW119736   1.079   3.551   4.393  0.0833 -0.0006 -0.0827
 2701SOL    HW219737   1.112   3.467   4.273  1.0621  1.0439 -1.6169
 2702SOL     OW19738   2.690   3.971  13.545  0.0057 -0.0568  1.0714
 2702SOL    HW119739   2.706   4.058  13.511 -0.1357 -0.4063  0.1073
 2702SOL    HW219740   2.774   3.932  13.569  0.3393  0.0526  0.0911
 2703SOL     OW19741   3.411   0.400  11.904  0.2810 -0.2494 -0.9434
 2703SOL    HW119742   3.402   0.363  11.992  1.4635  2.2591  0.2139
 2703SOL    HW219743   3.452   0.484  11.923  0.6037 -0.1254 -2.1941
 2704SOL     OW19744   2.115   3.892   7.045  0.1248  0.4468  0.5008
 2704SOL    HW119745   2.094   3.837   6.970  2.0252  0.4335 -0.0193
 2704SOL    HW219746   2.184   3.941   6.999  0.1272 -0.2378 -0.2252
 2705SOL     OW19747   0.295   3.278   7.232 -0.2767 -0.0758 -0.3501
 2705SOL    HW119748   0.356   3.296   7.303  0.2780 -0.8526 -0.6269
 2705SOL    HW219749   0.258   3.363   7.210 -2.4921 -0.5091  1.6723
 2706SOL     OW19750   1.112   3.874   6.892  0.0404 -0.2691  0.6188
 2706SOL    HW119751   1.080   3.952   6.938  1.2084  2.1454 -2.6612
 2706SOL    HW219752   1.179   3.922   6.842 -0.5721 -0.4903 -0.4080
 2707SOL     OW19753   0.093   4.128   9.111 -0.2864  0.2098  0.7135
 2707SOL    HW119754   0.181   4.148   9.078  0.0874 -1.0362  0.9370
 2707SOL    HW219755   0.111   4.054   9.169 -2.0362  0.7132  1.8977
 2708SOL     OW19756   2.091   4.474   2.923 -0.3719  0.1577  0.0948
 2708SOL    HW119757   2.039   4.554   2.922  1.2132  1.1303 -2.6717
 2708SOL    HW219758   2.175   4.515   2.902 -0.4851  0.3570  0.0294
 2709SOL     OW19759   3.310   4.594   6.809  0.0447  0.1531  0.6330
 2709SOL    HW119760   3.267   4.671   6.848 -1.7518 -0.0521 -0.9320
 2709SOL    HW219761   3.402   4.617   6.824 -0.6492  1.0915  3.5508
 2710SOL     OW19762   0.642   3.740  16.831  0.8692 -0.3773  0.6666
 2710SOL    HW119763   0.736   3.733  16.817  0.9257 -2.8887  2.3656
 2710SOL    HW219764   0.606   3.754  16.743  0.4122  0.8457  1.0429
 2711SOL     OW19765   3.615   2.593   2.867  0.2884  0.7833  0.0406
 2711SOL    HW119766   3.618   2.647   2.788 -1.0787 -0.5217 -0.9065
 2711SOL    HW219767   3.575   2.644   2.937 -1.1791  0.0986 -0.2922
 2712SOL     OW19768   1.413   2.496  11.085 -0.2393  0.2900 -0.1666
 2712SOL    HW119769   1.379   2.519  11.172  0.8738 -0.2715  0.4104
 2712SOL    HW219770   1.435   2.403  11.094  0.5267  0.3750 -1.1386
 2713SOL     OW19771   0.297   1.149  12.156 -0.4701  0.2827  0.1984
 2713SOL    HW119772   0.261   1.091  12.222 -2.3055  1.7311  0.4532
 2713SOL    HW219773   0.391   1.141  12.175 -0.7147  0.0616  1.2840
 2714SOL     OW19774   1.035   0.757   0.604 -0.1162 -0.1698  0.4346
 2714SOL    HW119775   1.018   0.812   0.527 -1.8105  0.3573  1.1963
 2714SOL    HW219776   1.006   0.669   0.580  1.6403  0.1330 -2.7779
 2715SOL     OW19777   3.955   1.353  13.990  0.5267  0.0105  0.2306
 2715SOL    HW119778   3.945   1.286  14.058  1.1153  0.7956  1.0876
 2715SOL    HW219779   3.941   1.431  14.044  0.1384  1.0673 -1.4199
 2716SOL     OW19780   2.211   3.736   5.913 -1.1494  0.6094 -0.0508
 2716SOL    HW119781   2.161   3.732   5.994 -2.9351  1.2808 -1.1419
 2716SOL    HW219782   2.237   3.828   5.907  1.3882 -0.2373 -2.1160
 2717SOL     OW19783   0.360   1.578   4.108  0.2874  0.3544  0.3793
 2717SOL    HW119784   0.411   1.638   4.161 -0.5793  1.7682 -0.3942
 2717SOL    HW219785   0.439   1.539   4.070 -0.7691  0.4953 -1.9793
 2718SOL     OW19786   1.118   4.361   7.384  0.0760  0.2675  0.1804
 2718SOL    HW119787   1.208   4.367   7.352  1.0349 -0.1634  2.7803
 2718SOL    HW219788   1.078   4.308   7.315  1.2430 -1.0503  0.5184
 2719SOL     OW19789   3.581   2.677  17.001  0.2724 -0.2314 -0.0585
 2719SOL    HW119790   3.632   2.752  17.032 -0.9219 -0.0086  1.3811
 2719SOL    HW219791   3.567   2.643  17.090 -1.4214 -0.2649 -0.3449
 2720SOL     OW19792   1.814   2.169   5.272 -0.3575  0.4984  0.2970
 2720SOL    HW119793   1.773   2.119   5.201 -1.7277  0.5689  1.0440
 2720SOL    HW219794   1.903   2.167   5.237  0.2981  2.4214  1.8468
 2721SOL     OW19795   1.532   4.300   8.489  0.0076  0.0569 -0.0232
 2721SOL    HW119796   1.496   4.331   8.406 -0.1402 -0.2279 -0.0615
 2721SOL    HW219797   1.608   4.247   8.465 -0.4679  0.1729 -1.7166
 2722SOL     OW19798   2.199   4.660   1.209 -0.5683  0.2899 -0.1498
 2722SOL    HW119799   2.290   4.661   1.240 -0.9983 -0.2852  1.1762
 2722SOL    HW219800   2.218   4.707   1.128  1.4676  2.1205  1.3926
 2723SOL     OW19801   3.869   3.646  13.424  0.2955 -0.5381 -0.3165
 2723SOL    HW119802   3.875   3.596  13.343  1.3792 -1.1880  0.1517
 2723SOL    HW219803   3.937   3.712  13.408  0.1831 -0.9560 -2.4843
 2724SOL     OW19804   1.803   1.676  12.860 -0.4250  0.4368  0.2523
 2724SOL    HW119805   1.751   1.595  12.860  3.4948 -2.0508 -0.5986
 2724SOL    HW219806   1.777   1.716  12.943  0.5587 -1.7534  1.6269
 2725SOL     OW19807   0.279   4.607   4.838 -0.4360  0.0568 -0.0385
 2725SOL    HW119808   0.341   4.547   4.794 -0.5830  1.0921 -1.6695
 2725SOL    HW219809   0.199   4.555   4.846 -0.7245  0.3728 -0.8746
 2726SOL     OW19810   4.041   0.835   3.674  0.2026 -0.4580  0.2591
 2726SOL    HW119811   4.112   0.789   3.629  1.0932  0.5929  0.5595
 2726SOL    HW219812   4.034   0.794   3.760 -0.4401 -1.4811 -0.2809
 2727SOL     OW19813   0.924   2.929  15.599 -0.0068  0.4018  0.2123
 2727SOL    HW119814   0.971   2.953  15.678  1.5637 -2.6686  0.1876
 2727SOL    HW219815   0.995   2.879  15.559 -1.5324 -1.5458 -0.0569
 2728SOL     OW19816   3.413   2.900   9.644  0.3419 -0.4378 -0.1541
 2728SOL    HW119817   3.428   2.985   9.685  1.4250 -1.2070  1.0793
 2728SOL    HW219818   3.372   2.928   9.562  0.8039 -0.5394 -0.4184
 2729SOL     OW19819   0.521   2.209  10.788  0.5535 -0.1796 -0.3657
 2729SOL    HW119820   0.466   2.237  10.861  2.0113 -0.3794  0.8105
 2729SOL    HW219821   0.566   2.133  10.824  2.1749  0.9450  0.0119
 2730SOL     OW19822   2.933   1.527  11.751 -0.2180  0.9724 -0.1347
 2730SOL    HW119823   2.841   1.548  11.735 -0.4473 -0.2671 -0.4480
 2730SOL    HW219824   2.926   1.435  11.725 -1.3999  0.9324  0.2937
 2731SOL     OW19825   0.061   0.700  16.998 -0.2879  0.3615  0.4466
 2731SOL    HW119826   4.722   0.750  16.984 -0.3064  0.4414  0.8449
 2731SOL    HW219827   0.110   0.744  17.068  1.3566 -0.5189 -0.1392
 2732SOL     OW19828   2.250   1.145   6.407  0.8340 -0.0345 -0.6172
 2732SOL    HW119829   2.214   1.076   6.463  0.4350  0.1775 -0.6070
 2732SOL    HW219830   2.166   1.189   6.389  1.0312 -0.0170 -1.4980
 2733SOL     OW19831   1.595   1.867  16.644 -0.3221 -0.1417 -0.0759
 2733SOL    HW119832   1.594   1.961  16.628  0.7061 -0.0496  0.3926
 2733SOL    HW219833   1.632   1.834  16.562 -0.0230  2.3144 -0.9361
 2734SOL     OW19834   2.914   4.342   9.253  0.1378 -0.7557  0.8415
 2734SOL    HW119835   2.980   4.286   9.293  1.1473  0.0090  0.2311
 2734SOL    HW219836   2.967   4.367   9.178  0.0002  0.2188  1.0649
 2735SOL     OW19837   1.145   0.679   6.705  0.1539  0.0497 -0.0260
 2735SOL    HW119838   1.102   0.604   6.747  0.2395  0.7214  1.2552
 2735SOL    HW219839   1.073   0.738   6.684 -0.5203 -0.8149 -0.1784
 2736SOL     OW19840   0.401   2.580   0.842 -0.1689 -0.0209  0.1165
 2736SOL    HW119841   0.322   2.633   0.854 -1.5614 -2.3840  1.3063
 2736SOL    HW219842   0.469   2.640   0.812 -1.6926  1.2618 -0.7688
 2737SOL     OW19843   0.021   3.634   5.000 -0.4194  0.1435 -0.0818
 2737SOL    HW119844   4.734   3.634   4.908  0.9181 -1.0282 -0.4869
 2737SOL    HW219845   0.116   3.641   4.996 -0.9084  5.0215 -2.6815
 2738SOL     OW19846   2.763   1.503   6.354 -0.3712 -0.0132 -0.0501
 2738SOL    HW119847   2.723   1.452   6.424 -0.1751 -1.4321 -0.9533
 2738SOL    HW219848   2.685   1.520   6.300  0.0094  0.1361 -0.5539
 2739SOL     OW19849   4.414   3.878   2.987  0.2951 -0.0714  0.6403
 2739SOL    HW119850   4.476   3.868   3.060  2.2213 -0.4649 -1.0550
 2739SOL    HW219851   4.350   3.942   3.018  0.6331 -0.0538  1.2962
 2740SOL     OW19852   2.885   0.429   7.535  0.2675  0.4517 -0.4755
 2740SOL    HW119853   2.938   0.477   7.472  1.8972  0.7423  1.1298
 2740SOL    HW219854   2.953   0.421   7.601  0.2848 -0.8912 -0.6626
 2741SOL     OW19855   2.703   0.333   5.005 -0.0696 -0.0170 -0.1734
 2741SOL    HW119856   2.686   0.393   5.079 -0.7898  0.6004 -0.8341
 2741SOL    HW219857   2.781   0.368   4.963  0.2232 -0.3642  0.0795
 2742SOL     OW19858   3.087   2.748   8.209 -0.4848  0.3630 -0.3452
 2742SOL    HW119859   3.182   2.747   8.225 -0.2054  0.1245 -2.0260
 2742SOL    HW219860   3.075   2.826   8.156  0.7643  1.3135  0.7736
 2743SOL     OW19861   0.150   0.295   6.314 -0.4305 -0.0936 -0.0524
 2743SOL    HW119862   0.105   0.375   6.286  0.0125  0.0147 -0.4422
 2743SOL    HW219863   0.152   0.312   6.409 -2.4361  3.7454 -0.6686
 2744SOL     OW19864   1.406   4.492   3.299  0.0848  0.0251 -0.1000
 2744SOL    HW119865   1.398   4.585   3.318 -0.5552 -0.4174  1.7838
 2744SOL    HW219866   1.321   4.457   3.328  0.5843 -0.3705  0.8855
 2745SOL     OW19867   0.032   3.692   2.645 -0.2860  0.4029  0.2244
 2745SOL    HW119868   0.048   3.698   2.739 -1.3053 -1.0819  0.4774
 2745SOL    HW219869   4.740   3.606   2.621 -0.4829  0.4843  0.2024
 2746SOL     OW19870   0.533   1.398  12.713  0.6253  0.6280  0.0409
 2746SOL    HW119871   0.547   1.461  12.783  0.2578  1.1983 -0.3990
 2746SOL    HW219872   0.480   1.440  12.645  3.2157  0.5725 -2.0232
 2747SOL     OW19873   4.482   2.891  13.026  0.3447  0.0619  0.1307
 2747SOL    HW119874   4.411   2.930  13.077  0.3853  1.6938 -1.0535
 2747SOL    HW219875   4.559   2.937  13.060 -0.7580  0.4249  2.1165
 2748SOL     OW19876   2.690   0.148   5.277 -0.3648  0.5583 -0.1512
 2748SOL    HW119877   2.618   0.193   5.232  1.9801  3.8644 -0.6164
 2748SOL    HW219878   2.726   0.219   5.330  1.9455 -0.2878 -0.6097
 2749SOL     OW19879   0.275   3.741   3.823  0.5099  0.0994  0.4972
 2749SOL    HW119880   0.344   3.684   3.789  0.1721  0.3646 -0.6252
 2749SOL    HW219881   0.294   3.813   3.763 -1.4222 -0.3910 -0.6987
 2750SOL     OW19882   1.515   0.838   9.432 -0.0879 -0.6083 -0.1549
 2750SOL    HW119883   1.443   0.894   9.402  1.2422  0.9565 -0.4405
 2750SOL    HW219884   1.513   0.763   9.372 -1.5955 -1.2941  0.7544
 2751SOL     OW19885   0.139   3.265  13.517  0.6835 -0.4823 -0.2523
 2751SOL    HW119886   0.207   3.203  13.493  1.5460  0.6004 -0.6321
 2751SOL    HW219887   0.172   3.304  13.598  0.3701  0.2263 -0.4643
 2752SOL     OW19888   2.830   1.343   3.182 -0.1850  0.3526  0.1797
 2752SOL    HW119889   2.789   1.417   3.137  1.9802  1.0337 -0.6934
 2752SOL    HW219890   2.843   1.385   3.267 -1.5071  0.7823  0.1648
 2753SOL     OW19891   2.146   2.058   1.225 -0.0441 -0.2783 -0.0906
 2753SOL    HW119892   2.213   2.036   1.159 -1.5765 -1.9631 -1.0606
 2753SOL    HW219893   2.158   2.152   1.236  2.0602 -0.5205 -0.2918
 2754SOL     OW19894   3.428   3.261   5.912 -0.4465  0.0796  0.1277
 2754SOL    HW119895   3.354   3.235   5.858  1.0452  1.6519 -2.6845
 2754SOL    HW219896   3.495   3.197   5.890 -2.4521 -2.7321  2.2731
 2755SOL     OW19897   0.500   1.205   8.177  0.3720 -0.2896 -0.1066
 2755SOL    HW119898   0.467   1.257   8.104 -0.9948 -2.3441 -0.9394
 2755SOL    HW219899   0.480   1.261   8.253 -1.2392 -2.8726  1.3703
 2756SOL     OW19900   4.262   3.204   6.190  0.4174 -0.5891 -0.6251
 2756SOL    HW119901   4.173   3.228   6.216  0.2114 -0.1224 -1.7399
 2756SOL    HW219902   4.258   3.109   6.185  0.6220 -0.6671  0.7498
 2757SOL     OW19903   0.537   3.082   4.106 -0.2070 -0.2847  0.3878
 2757SOL    HW119904   0.554   3.033   4.026  0.0865  0.7008 -0.1428
 2757SOL    HW219905   0.456   3.034   4.126 -0.4395 -0.3182 -0.6718
 2758SOL     OW19906   2.309   1.374   5.635 -0.3707 -0.0899  0.0567
 2758SOL    HW119907   2.365   1.366   5.558  0.3440 -0.4343  0.6175
 2758SOL    HW219908   2.381   1.368   5.698 -1.6271  1.3366  1.6142
 2759SOL     OW19909   1.061   0.620   1.609  0.3841 -0.3036  0.5917
 2759SOL    HW119910   1.126   0.652   1.671 -0.2190  2.3899 -0.1762
 2759SOL    HW219911   1.069   0.525   1.618 -1.4962 -0.4524  0.6871
 2760SOL     OW19912   1.628   3.293  12.215  0.0838  0.6215  0.5540
 2760SOL    HW119913   1.550   3.349  12.213 -1.3380 -1.3234  0.1922
 2760SOL    HW219914   1.701   3.351  12.233 -0.4205  1.9394 -1.7103
 2761SOL     OW19915   4.674   3.613  15.230 -0.4380  0.7089 -0.7114
 2761SOL    HW119916   0.016   3.660  15.237 -0.0970 -0.3452  2.3693
 2761SOL    HW219917   4.694   3.526  15.264  0.9453  1.2346 -0.1872
 2762SOL     OW19918   3.286   2.848   5.493  0.4449 -0.0648  0.0197
 2762SOL    HW119919   3.262   2.842   5.401  2.1024  2.3803 -0.5662
 2762SOL    HW219920   3.374   2.885   5.488 -0.4714  2.0410 -0.5220
 2763SOL     OW19921   3.390   0.144  12.426 -0.2586 -0.5086  0.3434
 2763SOL    HW119922   3.378   0.198  12.504 -0.0445 -0.6756  0.4947
 2763SOL    HW219923   3.304   0.105  12.414 -1.0089  0.6919  1.9004
 2764SOL     OW19924   4.361   4.205   6.686  0.4625 -0.0047 -0.5374
 2764SOL    HW119925   4.304   4.129   6.690  0.6494 -0.1005  0.2448
 2764SOL    HW219926   4.330   4.243   6.604  1.7628  0.9619 -0.5831
 2765SOL     OW19927   4.012   4.687   3.194 -0.5336  0.7416 -0.9780
 2765SOL    HW119928   4.019   4.616   3.131 -1.9733 -1.1841  1.0533
 2765SOL    HW219929   4.093   4.735   3.177 -0.7072  2.0982  1.9404
 2766SOL     OW19930   3.036   0.655   7.155 -0.7470 -0.0452 -0.1254
 2766SOL    HW119931   2.999   0.611   7.078  0.2130 -0.4481 -0.3502
 2766SOL    HW219932   3.130   0.644   7.143 -0.3402  2.5485  0.7002
 2767SOL     OW19933   0.917   1.400  12.727  0.2908 -0.3077 -0.0037
 2767SOL    HW119934   0.922   1.442  12.641  1.5103 -1.7280 -0.6224
 2767SOL    HW219935   1.003   1.360  12.737 -1.1071 -3.3095 -0.1810
 2768SOL     OW19936   4.426   2.136  17.288 -0.4972 -0.0838  0.3880
 2768SOL    HW119937   4.492   2.172  17.228  1.5313 -1.4300  1.8220
 2768SOL    HW219938   4.467   2.049  17.295 -0.2913  0.0476  0.8039
 2769SOL     OW19939   2.327   2.464  14.729 -0.0170 -0.3707 -0.4589
 2769SOL    HW119940   2.362   2.473  14.640 -2.0270 -0.9868 -1.3106
 2769SOL    HW219941   2.253   2.524  14.730  2.0984  2.3083 -3.2342
 2770SOL     OW19942   1.232   4.549   5.503  0.1679  0.0317 -0.1308
 2770SOL    HW119943   1.315   4.508   5.476  0.6370  1.0774 -0.2746
 2770SOL    HW219944   1.247   4.542   5.597 -0.9202 -2.3458 -0.1401
 2771SOL     OW19945   2.200   0.231   5.771  0.3728 -0.3278  0.1958
 2771SOL    HW119946   2.288   0.206   5.741  0.3677 -1.1541  0.8923
 2771SOL    HW219947   2.153   0.195   5.696 -0.5725  0.5558  0.3582
 2772SOL     OW19948   2.328   1.758   5.508 -1.2859  0.7208 -0.6097
 2772SOL    HW119949   2.253   1.698   5.506 -0.1723 -0.6030 -2.9842
 2772SOL    HW219950   2.323   1.808   5.426  1.7049 -0.3721 -1.4382
 2773SOL     OW19951   4.111   0.252  11.548  0.2199 -0.0930 -0.7289
 2773SOL    HW119952   4.121   0.198  11.470  3.1515  0.4050 -0.6832
 2773SOL    HW219953   4.029   0.227  11.591  0.0949  2.3084  0.4222
 2774SOL     OW19954   2.047   1.636   4.182 -0.6984 -0.1587  0.1506
 2774SOL    HW119955   1.987   1.701   4.219  0.5172  0.4268  1.1102
 2774SOL    HW219956   2.090   1.692   4.119  2.8432 -1.3218  1.5437
 2775SOL     OW19957   1.121   1.466   9.362 -0.1818  0.0369 -0.1114
 2775SOL    HW119958   1.028   1.458   9.344 -0.4552  0.2953  1.1493
 2775SOL    HW219959   1.142   1.559   9.369  2.4929 -0.6837  1.6841
 2776SOL     OW19960   2.240   4.581   0.858 -0.0274 -0.1932 -0.3014
 2776SOL    HW119961   2.282   4.530   0.927 -1.1118 -0.9223 -0.1816
 2776SOL    HW219962   2.250   4.670   0.893  0.4542 -0.3539 -0.0382
 2777SOL     OW19963   1.920   0.227  14.231 -0.3349 -0.3466  0.0185
 2777SOL    HW119964   1.979   0.302  14.235  0.9999 -1.2485 -2.0919
 2777SOL    HW219965   1.907   0.206  14.138 -0.4210  2.0915 -0.5246
 2778SOL     OW19966   4.673   2.449  17.707  0.0023  0.1564 -0.0851
 2778SOL    HW119967   4.732   2.374  17.703  0.3552  0.3432  1.5149
 2778SOL    HW219968   4.680   2.479  17.616  0.7698 -3.7407 -1.3182
 2779SOL     OW19969   2.742   3.201   0.076 -0.1675 -0.2860  0.2456
 2779SOL    HW119970   2.660   3.152   0.076  0.5748 -1.5233 -1.0316
 2779SOL    HW219971   2.732   3.251   0.157  0.5769 -2.6442  1.8018
 2780SOL     OW19972   1.770   1.530   7.363  0.0449  0.4127  0.1312
 2780SOL    HW119973   1.744   1.491   7.447 -1.0433 -3.1905 -1.8818
 2780SOL    HW219974   1.767   1.623   7.387 -1.8737  0.3975  0.0035
 2781SOL     OW19975   1.880   0.296   4.957 -0.4657  0.7783  0.0197
 2781SOL    HW119976   1.864   0.295   5.052 -2.3630  2.2105 -0.2979
 2781SOL    HW219977   1.919   0.208   4.951  0.9260  1.3538  0.5089
 2782SOL     OW19978   0.902   0.499   1.175  0.3630 -0.2552  0.4452
 2782SOL    HW119979   0.989   0.515   1.139 -0.5415  3.5564 -0.1430
 2782SOL    HW219980   0.868   0.461   1.094 -0.5195 -0.5987  0.9811
 2783SOL     OW19981   1.875   4.149   5.997  0.1505 -0.2477  0.0785
 2783SOL    HW119982   1.898   4.062   6.030  4.3093 -0.3736 -3.1021
 2783SOL    HW219983   1.890   4.127   5.905  0.5236  1.0439 -0.1736
 2784SOL     OW19984   4.556   0.952   5.805 -0.3011 -0.0134  0.0324
 2784SOL    HW119985   4.549   0.967   5.711 -0.3122 -2.6998 -0.3936
 2784SOL    HW219986   4.546   1.041   5.839 -0.4210 -0.6869  1.7505
 2785SOL     OW19987   2.164   1.118   5.714 -0.6079  0.1183 -0.1657
 2785SOL    HW119988   2.218   1.196   5.703  1.5950 -1.7045 -2.2508
 2785SOL    HW219989   2.220   1.056   5.667 -0.5184  0.9328 -1.1443
 2786SOL     OW19990   0.942   2.425  11.326  0.0947  0.1561  0.0522
 2786SOL    HW119991   0.963   2.370  11.401  1.9806 -0.3848 -0.8648
 2786SOL    HW219992   0.852   2.458  11.336  0.5496  0.8923  1.6381
 2787SOL     OW19993   3.621   1.537   3.880 -0.3391  0.0355 -0.2294
 2787SOL    HW119994   3.562   1.461   3.880 -0.1821 -0.0858 -0.2492
 2787SOL    HW219995   3.605   1.570   3.791 -0.7281  0.4643  0.0007
 2788SOL     OW19996   2.327   3.773   6.599 -0.2674  0.6566  0.1862
 2788SOL    HW119997   2.404   3.777   6.656 -1.5338 -0.2847  1.9467
 2788SOL    HW219998   2.353   3.833   6.529 -0.2453  2.1910  1.5223
 2789SOL     OW19999   4.528   4.297  17.184 -0.7074  0.1126  0.3881
 2789SOL    HW120000   4.518   4.365  17.118  3.4154  1.8559  1.5655
 2789SOL    HW220001   4.603   4.246  17.153 -1.5482 -1.4776  0.9577
 2790SOL     OW20002   2.696   3.020   6.772 -1.0491  0.7210  0.3732
 2790SOL    HW120003   2.778   2.998   6.727 -1.2740 -1.6979  1.1451
 2790SOL    HW220004   2.672   2.938   6.815 -0.5741  1.0552  1.2654
 2791SOL     OW20005   2.528   2.900   5.629  0.3834 -0.0418 -0.2558
 2791SOL    HW120006   2.477   2.980   5.638  1.0070  0.6274 -2.6098
 2791SOL    HW220007   2.527   2.895   5.533  0.0699 -0.2010 -0.2437
 2792SOL     OW20008   4.669   2.662   3.095  0.3916  0.1419  0.8827
 2792SOL    HW120009   4.613   2.733   3.128 -2.1287  0.1247 -3.4064
 2792SOL    HW220010   4.613   2.586   3.103  0.0500  0.2496 -0.5349
 2793SOL     OW20011   2.744   3.124   4.429 -1.1052 -0.4459 -0.1730
 2793SOL    HW120012   2.755   3.047   4.485 -1.4706 -0.9900 -0.8451
 2793SOL    HW220013   2.650   3.141   4.441 -1.0760 -0.4032 -0.0044
 2794SOL     OW20014   0.864   3.004   3.844 -0.1505  0.1177 -0.4206
 2794SOL    HW120015   0.855   2.942   3.916 -0.7605 -0.8754 -1.3504
 2794SOL    HW220016   0.951   2.981   3.811  0.2882  0.3278  0.5928
 2795SOL     OW20017   3.688   2.198   5.942  0.1334 -0.6356  0.3493
 2795SOL    HW120018   3.631   2.260   5.987 -0.4134  0.3520 -1.6868
 2795SOL    HW220019   3.662   2.114   5.980  0.4651 -0.8559  0.0782
 2796SOL     OW20020   0.879   1.150   5.368  0.0436  0.2205  0.0399
 2796SOL    HW120021   0.860   1.080   5.305 -0.0002 -1.2939  1.7362
 2796SOL    HW220022   0.935   1.209   5.319  0.5975 -0.6909 -0.4273
 2797SOL     OW20023   2.289   4.194   2.508  0.3774  0.1455  0.1001
 2797SOL    HW120024   2.252   4.242   2.434  0.4417  1.3094  0.8210
 2797SOL    HW220025   2.366   4.248   2.522  1.4443 -1.7049  1.3796
 2798SOL     OW20026   2.482   3.593  17.488 -0.2541  0.0511  0.4330
 2798SOL    HW120027   2.457   3.550  17.569 -2.6876  0.8682  0.1122
 2798SOL    HW220028   2.420   3.666  17.485 -0.8107 -0.4600 -0.6009
 2799SOL     OW20029   4.011   1.449  14.628  0.1827 -0.1001  0.0586
 2799SOL    HW120030   4.021   1.442  14.533 -2.8180 -1.9364 -0.1472
 2799SOL    HW220031   3.916   1.437  14.639  0.2918 -1.0398  0.0243
 2800SOL     OW20032   3.608   0.006  10.772 -0.1036 -0.2598  0.1086
 2800SOL    HW120033   3.697   4.732  10.740  0.5508  0.1050  1.7727
 2800SOL    HW220034   3.562   4.664  10.762 -0.2578 -0.2303  0.5844
 2801SOL     OW20035   1.616   3.170   7.835  0.0776 -0.0453 -0.3984
 2801SOL    HW120036   1.667   3.090   7.824 -1.8906 -1.2747 -0.5405
 2801SOL    HW220037   1.667   3.238   7.791 -0.2467  1.0562  0.9329
 2802SOL     OW20038   2.057   0.185   6.001 -0.2939 -0.1706  0.3959
 2802SOL    HW120039   1.978   0.227   5.967 -0.6605 -1.5098 -0.3942
 2802SOL    HW220040   2.113   0.189   5.923 -2.6015 -0.0208 -1.2327
 2803SOL     OW20041   3.849   1.680   7.045  0.4279 -0.1996 -0.0149
 2803SOL    HW120042   3.883   1.592   7.062 -0.4543 -0.5128  0.1169
 2803SOL    HW220043   3.909   1.704   6.975  1.2030  0.8893  1.0074
 2804SOL     OW20044   3.359   3.724   7.762 -0.3884 -0.5255  0.0378
 2804SOL    HW120045   3.408   3.707   7.681 -1.4924 -0.2214 -0.6952
 2804SOL    HW220046   3.310   3.642   7.771  0.4047 -1.1070 -0.8958
 2805SOL     OW20047   4.586   4.342  14.681  0.7172 -0.6227  0.3510
 2805SOL    HW120048   4.590   4.413  14.746  0.2860 -0.8543  0.6334
 2805SOL    HW220049   4.530   4.283  14.731 -0.4650 -0.5731 -0.8999
 2806SOL     OW20050   1.587   0.614  16.594 -0.2964 -0.1118  0.6599
 2806SOL    HW120051   1.509   0.669  16.590 -1.2506 -1.4451  0.9319
 2806SOL    HW220052   1.568   0.560  16.518  1.2552  0.7698 -0.3507
 2807SOL     OW20053   0.716   4.059   7.824  0.5270 -0.0684  0.1472
 2807SOL    HW120054   0.802   4.050   7.865  1.4090 -1.0267 -1.9135
 2807SOL    HW220055   0.667   4.108   7.890  0.4546  1.7118 -1.2051
 2808SOL     OW20056   2.232   3.568   3.139 -0.2622 -0.0637  0.1363
 2808SOL    HW120057   2.175   3.523   3.077 -3.0901  3.8373 -0.0612
 2808SOL    HW220058   2.310   3.582   3.085 -0.4439 -1.2111 -0.4307
 2809SOL     OW20059   3.745   2.920  15.663 -0.0697  0.5405 -0.1889
 2809SOL    HW120060   3.717   2.977  15.592  2.3944 -0.8699 -2.3076
 2809SOL    HW220061   3.787   2.842  15.627  0.4522  1.2606 -1.1343
 2810SOL     OW20062   1.802   0.154   3.959 -0.0357 -0.1369  0.1880
 2810SOL    HW120063   1.715   0.136   3.994 -0.1073  0.3923  0.2913
 2810SOL    HW220064   1.772   0.192   3.877 -0.1403  0.1049  0.3363
 2811SOL     OW20065   0.796   0.444   0.090 -0.9357  0.1734  0.1150
 2811SOL    HW120066   0.798   0.539   0.101 -0.7016  0.2713 -0.7257
 2811SOL    HW220067   0.701   0.427   0.086 -0.4845 -2.5399  1.0594
 2812SOL     OW20068   3.100   0.660   3.947 -0.0594 -0.0776  0.4277
 2812SOL    HW120069   3.059   0.605   4.014 -1.7253 -0.7067 -1.1143
 2812SOL    HW220070   3.185   0.615   3.944 -0.4720 -0.7485 -1.1352
 2813SOL     OW20071   3.865   0.608   6.470 -0.3593 -0.2841  0.4592
 2813SOL    HW120072   3.784   0.575   6.509 -0.4299  1.1763  1.5100
 2813SOL    HW220073   3.853   0.703   6.469  2.2944  0.0782  3.1796
 2814SOL     OW20074   0.671   1.756  14.263  0.6452  0.1044 -0.2724
 2814SOL    HW120075   0.647   1.773  14.172  1.7765  0.6214 -0.4831
 2814SOL    HW220076   0.612   1.816  14.309  0.0921  0.0369 -0.9092
 2815SOL     OW20077   1.566   3.926   3.426 -0.7162 -0.0264  0.4974
 2815SOL    HW120078   1.573   4.020   3.409 -0.4013 -0.3902 -1.3867
 2815SOL    HW220079   1.530   3.929   3.515  0.2704  0.5790  0.8786
 2816SOL     OW20080   1.751   2.065   1.074 -0.2307  0.2780 -0.0410
 2816SOL    HW120081   1.758   2.095   0.983  2.3726  1.0314  0.4147
 2816SOL    HW220082   1.756   2.145   1.127 -0.1777  1.3222 -1.6122
 2817SOL     OW20083   4.467   1.453  13.127  0.3113 -0.2003 -0.2958
 2817SOL    HW120084   4.422   1.408  13.199  1.9841 -0.6546  0.4830
 2817SOL    HW220085   4.514   1.378  13.090  0.1340  0.2677 -1.4670
 2818SOL     OW20086   3.028   0.500  11.594 -0.1451 -0.2193 -0.1555
 2818SOL    HW120087   3.065   0.537  11.674  0.0906  0.9932 -0.8243
 2818SOL    HW220088   3.062   0.411  11.584 -0.0908  0.1201 -2.9449
 2819SOL     OW20089   3.842   0.464   3.586 -0.6958  0.3561  0.1562
 2819SOL    HW120090   3.839   0.508   3.501  0.4392  0.3370  0.1159
 2819SOL    HW220091   3.936   0.451   3.598 -0.5042  1.5659 -0.0374
 2820SOL     OW20092   2.242   3.529   6.602  0.0670  0.8860  0.3461
 2820SOL    HW120093   2.274   3.618   6.585  1.9045  0.8035  3.4670
 2820SOL    HW220094   2.319   3.499   6.648  0.2379 -0.9016 -1.1246
 2821SOL     OW20095   2.828   3.464   7.043  0.4220  0.2281 -0.0718
 2821SOL    HW120096   2.810   3.420   6.959  3.3772 -2.1350  0.5176
 2821SOL    HW220097   2.738   3.480   7.071  1.0353  0.9953  1.4530
 2822SOL     OW20098   0.971   2.078   6.918 -0.1556 -0.5021  0.2826
 2822SOL    HW120099   0.886   2.119   6.933  0.1513  0.6094 -0.9952
 2822SOL    HW220100   0.965   2.068   6.823  0.1977 -0.4857  0.2600
 2823SOL     OW20101   2.494   3.261   4.130 -0.4248 -0.2482 -0.3215
 2823SOL    HW120102   2.434   3.281   4.202  0.6128  2.0511 -0.0869
 2823SOL    HW220103   2.450   3.201   4.069 -2.4016  0.2886  0.5666
 2824SOL     OW20104   2.284   3.571   0.973 -0.2737 -0.1056  0.3873
 2824SOL    HW120105   2.333   3.587   1.054 -0.9544  0.3538  0.7036
 2824SOL    HW220106   2.349   3.603   0.911 -0.3319  3.3112  2.0712
 2825SOL     OW20107   0.378   1.222   6.071 -0.8161  0.3228 -0.1924
 2825SOL    HW120108   0.397   1.312   6.047 -0.6838  0.3502  0.0141
 2825SOL    HW220109   0.467   1.203   6.099 -0.3092  0.5094 -1.7189
 2826SOL     OW20110   3.076   4.423   9.057  0.2636 -0.2321  0.0222
 2826SOL    HW120111   3.119   4.508   9.048  0.7605 -0.5810 -0.9770
 2826SOL    HW220112   3.151   4.366   9.039 -0.5465 -1.3808  0.2749
 2827SOL     OW20113   2.783   0.739   7.784  0.5808 -0.4378  0.1078
 2827SOL    HW120114   2.766   0.819   7.834 -0.9212  0.7882 -2.4095
 2827SOL    HW220115   2.872   0.751   7.750  1.1219  0.2627  1.7629
 2828SOL     OW20116   0.710   1.967   6.424  0.4559  0.2089  0.7468
 2828SOL    HW120117   0.692   1.878   6.454 -0.4880 -0.5931 -2.1772
 2828SOL    HW220118   0.697   1.964   6.329  0.6555  0.0972  0.7222
 2829SOL     OW20119   2.778   3.847  17.247 -0.2560  0.0151 -0.1338
 2829SOL    HW120120   2.825   3.782  17.195 -0.2672  0.6839 -0.9707
 2829SOL    HW220121   2.687   3.815  17.248 -0.0110 -0.7263 -2.2573
 2830SOL     OW20122   3.238   0.268   7.019 -0.1575  0.3155  0.0451
 2830SOL    HW120123   3.330   0.243   7.024 -0.6790 -1.5679  0.2647
 2830SOL    HW220124   3.204   0.182   6.994  1.8928 -0.3723 -0.3584
 2831SOL     OW20125   2.423   3.912   9.807 -0.0171  0.3837 -0.1898
 2831SOL    HW120126   2.344   3.920   9.860  0.8094  2.3492  0.7116
 2831SOL    HW220127   2.393   3.838   9.753  0.1883 -1.3654  2.1147
 2832SOL     OW20128   1.544   1.807   5.139  0.1773 -0.7104  0.3114
 2832SOL    HW120129   1.515   1.763   5.059 -0.6718  0.4446 -0.0238
 2832SOL    HW220130   1.630   1.766   5.144  0.3380 -0.7369 -2.5784
 2833SOL     OW20131   2.575   2.997   4.773  0.5706  1.1680 -0.8107
 2833SOL    HW120132   2.512   2.925   4.781  1.9979 -0.1261 -1.3171
 2833SOL    HW220133   2.626   2.952   4.706 -1.6042 -1.4215 -0.7277
 2834SOL     OW20134   2.801   4.692   8.812 -1.0555  0.4118  0.3247
 2834SOL    HW120135   2.853   4.662   8.887  1.2716 -0.2570 -1.5743
 2834SOL    HW220136   2.866   4.705   8.743  3.0040  2.3286  4.5184
 2835SOL     OW20137   4.058   3.769   8.214 -0.6584  0.2453 -0.0811
 2835SOL    HW120138   4.006   3.691   8.200  1.7389 -0.8902 -2.5842
 2835SOL    HW220139   4.145   3.731   8.222 -0.3689  1.2483  1.7530
 2836SOL     OW20140   1.790   2.874   6.781 -0.8563 -0.1154 -0.4433
 2836SOL    HW120141   1.828   2.917   6.705 -0.0396  0.6048  0.3587
 2836SOL    HW220142   1.763   2.790   6.744  1.6705 -0.4389 -1.5372
 2837SOL     OW20143   2.861   2.208   9.696 -0.3045  0.1395  0.0837
 2837SOL    HW120144   2.767   2.216   9.713 -0.2166 -1.3304  1.2248
 2837SOL    HW220145   2.886   2.300   9.693  0.9904 -0.1161  3.8962
 2838SOL     OW20146   1.382   3.959  15.727  0.9167  0.3815 -0.5185
 2838SOL    HW120147   1.453   3.987  15.784  0.4537  0.1047  0.2035
 2838SOL    HW220148   1.378   4.026  15.658 -2.2854 -0.0017 -0.7006
 2839SOL     OW20149   1.802   2.288   8.361  0.1265  0.0103  0.0139
 2839SOL    HW120150   1.714   2.260   8.386 -0.5075  1.9270 -0.0748
 2839SOL    HW220151   1.821   2.223   8.294 -2.2784  2.7865 -3.3651
 2840SOL     OW20152   0.789   2.128   1.988  0.8376  0.9006 -0.2305
 2840SOL    HW120153   0.877   2.164   1.999  1.8774 -1.9234  0.7305
 2840SOL    HW220154   0.753   2.180   1.916 -0.5908 -0.2557 -0.3448
 2841SOL     OW20155   1.528   3.639   9.885  0.0626 -0.4184  0.0609
 2841SOL    HW120156   1.550   3.577   9.955  1.9656  0.5467  0.3142
 2841SOL    HW220157   1.615   3.669   9.857  1.5298 -0.8230  4.2267
 2842SOL     OW20158   1.676   1.109   4.152  0.0872 -0.0232  0.7370
 2842SOL    HW120159   1.688   1.042   4.220 -2.8580 -1.3688 -0.0301
 2842SOL    HW220160   1.739   1.076   4.088 -1.0978  0.2432 -0.5776
 2843SOL     OW20161   4.204   1.329  16.446 -0.3981  0.1010 -0.3404
 2843SOL    HW120162   4.126   1.288  16.408  0.7432 -2.3889 -0.0054
 2843SOL    HW220163   4.274   1.280  16.402  1.2857  2.5148 -0.3440
 2844SOL     OW20164   1.830   3.363  17.350 -0.0058 -0.4538 -0.2086
 2844SOL    HW120165   1.896   3.377  17.417 -1.2356  2.1705  0.4733
 2844SOL    HW220166   1.788   3.449  17.353 -1.0235 -1.1174  3.9566
 2845SOL     OW20167   1.181   0.478  14.069 -0.7925 -0.6865 -0.0817
 2845SOL    HW120168   1.268   0.480  14.028 -0.4431 -3.2924  0.4992
 2845SOL    HW220169   1.145   0.560  14.036  2.4315  0.1220 -1.5720
 2846SOL     OW20170   2.392   2.354   3.489  0.0921 -0.0679 -0.0669
 2846SOL    HW120171   2.478   2.356   3.530  0.2384 -0.2622 -0.3578
 2846SOL    HW220172   2.398   2.423   3.423  1.8304 -0.0210  0.1556
 2847SOL     OW20173   4.176   0.890  10.852 -0.4254  0.2377  0.1635
 2847SOL    HW120174   4.096   0.934  10.881  0.9661  2.7780  0.1125
 2847SOL    HW220175   4.231   0.924  10.922  1.6055 -2.7327  0.0222
 2848SOL     OW20176   1.312   0.369   8.799 -0.0491  0.2741 -0.6023
 2848SOL    HW120177   1.307   0.452   8.752 -0.3667  0.9546  0.6301
 2848SOL    HW220178   1.392   0.388   8.848 -2.0135  1.4303  2.1663
 2849SOL     OW20179   2.387   3.397   8.164  0.0298  0.6217 -0.3850
 2849SOL    HW120180   2.436   3.314   8.169  1.3063  1.4153  0.3942
 2849SOL    HW220181   2.382   3.406   8.069 -1.4052 -0.2973 -0.3882
 2850SOL     OW20182   3.386   2.984   3.862  0.1729 -0.0649  0.0435
 2850SOL    HW120183   3.371   2.998   3.955 -1.3387  4.0133 -0.8087
 2850SOL    HW220184   3.326   3.050   3.829 -1.4533 -1.1255  0.8795
 2851SOL     OW20185   2.843   4.373   0.872 -0.1909 -0.5103 -0.9103
 2851SOL    HW120186   2.938   4.379   0.864 -0.1426  0.2968  0.2419
 2851SOL    HW220187   2.841   4.291   0.923  0.8705 -1.6822 -2.7417
 2852SOL     OW20188   0.557   4.523   2.993 -0.1161 -0.2887 -0.6144
 2852SOL    HW120189   0.573   4.532   2.899 -0.0732  0.4959 -0.5365
 2852SOL    HW220190   0.592   4.437   3.015 -2.0652 -0.6474  1.0873
 2853SOL     OW20191   0.588   1.457   6.393 -0.2737  0.0938 -0.0134
 2853SOL    HW120192   0.590   1.516   6.318 -2.9157 -1.6951 -1.4587
 2853SOL    HW220193   0.653   1.493   6.454 -2.0191  2.7055  0.2888
 2854SOL     OW20194   2.320   4.175  15.660  0.1935 -0.1510  0.1853
 2854SOL    HW120195   2.350   4.200  15.748  0.0749 -0.0434  0.1959
 2854SOL    HW220196   2.376   4.102  15.635 -0.1956  0.4866 -2.5123
 2855SOL     OW20197   2.916   2.590   3.169  0.2517  0.0043  0.0435
 2855SOL    HW120198   2.985   2.530   3.138  2.1921  3.1418 -1.7855
 2855SOL    HW220199   2.909   2.633   3.084  0.3002  2.3129  1.2176
 2856SOL     OW20200   4.498   3.446   0.678  0.3288  0.0848 -0.2858
 2856SOL    HW120201   4.516   3.370   0.733 -2.1587  0.0690  0.5382
 2856SOL    HW220202   4.570   3.456   0.617  1.3929  0.9493  1.1102
 2857SOL     OW20203   0.041   4.402   3.800  0.1645  0.3591 -0.1235
 2857SOL    HW120204   0.003   4.486   3.824 -0.5702  0.5230 -1.8091
 2857SOL    HW220205   0.065   4.419   3.709 -0.5453  2.4838  0.0856
 2858SOL     OW20206   0.317   4.115  15.497  0.3676 -0.9654  0.3110
 2858SOL    HW120207   0.317   4.154  15.584  1.6227 -1.0841  0.3748
 2858SOL    HW220208   0.273   4.033  15.519  0.7845 -1.2831 -0.0290
 2859SOL     OW20209   1.201   4.548   9.258  0.1204 -0.2866 -0.5222
 2859SOL    HW120210   1.210   4.633   9.301 -0.8904 -1.7528  2.5814
 2859SOL    HW220211   1.172   4.494   9.331 -2.8748  1.2601 -0.5766
 2860SOL     OW20212   2.832   3.278   6.833  0.1365 -0.5053 -0.2721
 2860SOL    HW120213   2.827   3.298   6.740  0.0564  0.6531 -0.0194
 2860SOL    HW220214   2.794   3.191   6.840  0.9556 -0.7430  1.2655
 2861SOL     OW20215   1.368   3.886   2.565 -0.5623 -0.2855  0.1763
 2861SOL    HW120216   1.435   3.825   2.594 -1.9778 -2.3075 -0.8034
 2861SOL    HW220217   1.286   3.836   2.572 -0.1819 -0.9646 -0.2069
 2862SOL     OW20218   1.710   1.545   8.035  0.2560 -0.4939 -0.1003
 2862SOL    HW120219   1.630   1.510   8.076  0.2552 -0.8584 -0.4117
 2862SOL    HW220220   1.679   1.559   7.946  1.3119  0.4432 -0.3119
 2863SOL     OW20221   3.657   4.482   7.375 -0.5600 -0.1261  0.5215
 2863SOL    HW120222   3.696   4.517   7.455  0.5506 -2.0581  0.8225
 2863SOL    HW220223   3.730   4.487   7.313  0.9438 -0.6915  2.2552
 2864SOL     OW20224   4.334   3.558   8.900 -0.2768 -0.0282  0.2134
 2864SOL    HW120225   4.286   3.476   8.887 -1.7853  1.0512 -0.9602
 2864SOL    HW220226   4.369   3.566   8.811  0.9768 -1.3645  0.5809
 2865SOL     OW20227   3.643   2.419   4.226 -0.1162  0.2205 -0.1859
 2865SOL    HW120228   3.694   2.341   4.205 -1.1865 -0.1718 -1.3426
 2865SOL    HW220229   3.714   2.474   4.259 -1.3576  1.8226 -0.1682
 2866SOL     OW20230   0.917   0.717   5.631  0.0861 -0.1594 -0.0055
 2866SOL    HW120231   0.922   0.645   5.695 -2.8420  0.3730  0.8343
 2866SOL    HW220232   0.862   0.783   5.673  1.5012  0.5998  0.6664
 2867SOL     OW20233   1.844   1.799   4.292  0.5717  0.6897  0.0116
 2867SOL    HW120234   1.869   1.885   4.326  0.3043  1.1647 -0.9993
 2867SOL    HW220235   1.774   1.761   4.345 -0.5877 -0.6764 -2.5128
 2868SOL     OW20236   3.916   2.024   5.235  0.2912  0.4049  0.2364
 2868SOL    HW120237   3.917   1.935   5.272  2.4125  0.8048  1.1037
 2868SOL    HW220238   3.884   2.002   5.147 -0.3172  0.5436  0.4202
 2869SOL     OW20239   0.972   0.188   0.798  0.3960  0.2517 -0.5075
 2869SOL    HW120240   0.972   0.277   0.762 -1.6882 -0.9386 -3.4115
 2869SOL    HW220241   1.065   0.168   0.791 -0.0746 -1.8167 -0.7603
 2870SOL     OW20242   3.554   0.040   1.016 -0.5390 -0.2010  0.2762
 2870SOL    HW120243   3.461   0.055   1.034 -0.7120  0.9916 -1.5328
 2870SOL    HW220244   3.548   4.688   1.039 -1.6619  0.2655  1.8455
 2871SOL     OW20245   1.727   4.418   9.783  0.3246  0.1621  0.3126
 2871SOL    HW120246   1.673   4.496   9.788  0.9755  0.6177  0.3082
 2871SOL    HW220247   1.804   4.438   9.837 -0.4189  0.3558  1.3133
 2872SOL     OW20248   2.663   2.127   8.728  0.4209  0.1741 -0.0557
 2872SOL    HW120249   2.570   2.141   8.742  0.7836  1.5249  0.9416
 2872SOL    HW220250   2.683   2.164   8.642  0.2528  0.7047  0.1377
 2873SOL     OW20251   2.761   0.517   6.620  0.2621 -0.2276 -0.1242
 2873SOL    HW120252   2.672   0.552   6.630  0.9457  1.2410  0.7940
 2873SOL    HW220253   2.763   0.517   6.524  1.0357 -1.4149 -0.1101
 2874SOL     OW20254   2.046   3.038   5.744 -0.1622 -0.7386 -1.3225
 2874SOL    HW120255   1.953   3.018   5.758 -0.2176  1.1472  1.0820
 2874SOL    HW220256   2.083   3.036   5.832 -2.6542 -1.8992 -0.2979
 2875SOL     OW20257   4.125   3.533   6.151  0.5122 -0.5315 -0.6089
 2875SOL    HW120258   4.084   3.585   6.081  0.0663  1.0633  0.8372
 2875SOL    HW220259   4.164   3.469   6.092  1.8903 -0.3417  0.1013
 2876SOL     OW20260   1.495   3.904   6.349  0.5351  0.6101 -0.3632
 2876SOL    HW120261   1.430   3.834   6.349  1.0894  0.1105 -2.4052
 2876SOL    HW220262   1.551   3.888   6.425 -1.5783 -0.9114  0.8576
 2877SOL     OW20263   2.004   4.068   5.170  0.4281  1.0246  0.3591
 2877SOL    HW120264   2.086   4.110   5.145  0.8555  1.5982  2.6543
 2877SOL    HW220265   2.035   4.003   5.233  1.2455 -0.2070 -1.3190
 2878SOL     OW20266   1.906   2.012   6.804 -0.3376  0.1436 -0.0265
 2878SOL    HW120267   1.963   2.084   6.780  1.2383 -1.2988 -0.6352
 2878SOL    HW220268   1.924   1.956   6.729 -1.1969 -0.3932  0.1593
 2879SOL     OW20269   1.917   3.025   3.042  0.2280 -0.1176 -0.2931
 2879SOL    HW120270   1.856   3.084   2.998 -0.9309 -2.8533 -2.3656
 2879SOL    HW220271   1.990   3.084   3.062  0.5616 -0.6951  0.1794
 2880SOL     OW20272   2.112   0.055   4.341 -0.2486 -0.4452  0.0986
 2880SOL    HW120273   2.185   0.073   4.400  1.8914  1.1333 -3.0285
 2880SOL    HW220274   2.149   0.005   4.268  1.8348  2.3695 -0.7741
 2881SOL     OW20275   2.253   3.838  11.861  0.2712  0.2355 -0.4348
 2881SOL    HW120276   2.338   3.794  11.870 -0.6668 -1.1232  1.9109
 2881SOL    HW220277   2.283   3.929  11.856  0.3079  0.3767  2.0577
 2882SOL     OW20278   2.884   2.711   8.727 -0.2678 -0.0187  0.5843
 2882SOL    HW120279   2.914   2.701   8.636  2.2191  0.5316  1.3557
 2882SOL    HW220280   2.790   2.706   8.711 -0.6242  1.5106  2.1462
 2883SOL     OW20281   1.328   1.076   6.355 -0.2683  0.1213 -0.3726
 2883SOL    HW120282   1.285   1.140   6.297 -1.2444  0.0768  0.3043
 2883SOL    HW220283   1.272   1.085   6.432 -1.2548 -1.4882 -0.9180
 2884SOL     OW20284   1.182   1.896   0.513 -0.4416 -0.2446  0.1708
 2884SOL    HW120285   1.217   1.868   0.598  0.0696 -0.7621 -0.2224
 2884SOL    HW220286   1.260   1.927   0.467  0.2174  0.1719  1.5626
 2885SOL     OW20287   0.372   0.074   2.878 -0.5020  0.1942  0.4396
 2885SOL    HW120288   0.461   0.042   2.895 -1.1402 -1.4182  0.6456
 2885SOL    HW220289   0.381   0.168   2.898  0.5199  0.8662 -3.2104
 2886SOL     OW20290   0.662   3.648  14.237 -0.1140  0.0704  0.3365
 2886SOL    HW120291   0.698   3.629  14.150 -0.7229  1.0843 -0.1490
 2886SOL    HW220292   0.610   3.722  14.205 -1.7306 -1.8207 -1.4272
 2887SOL     OW20293   2.532   2.939  14.157 -0.0144  0.2926  0.8768
 2887SOL    HW120294   2.579   2.935  14.073 -0.5339 -2.8715  0.7675
 2887SOL    HW220295   2.577   3.017  14.191  1.5738 -0.1646 -0.1324
 2888SOL     OW20296   0.245   1.727  16.822 -0.2150 -0.0252 -0.8469
 2888SOL    HW120297   0.325   1.695  16.864  0.1254  0.1604 -1.3618
 2888SOL    HW220298   0.233   1.801  16.882  0.1976 -1.0195  0.4631
 2889SOL     OW20299   3.534   2.125   6.460 -0.2728  0.1063 -0.1769
 2889SOL    HW120300   3.550   2.032   6.471 -1.0397  0.1042  0.8951
 2889SOL    HW220301   3.469   2.141   6.391  1.4914  2.2887 -1.3443
 2890SOL     OW20302   3.008   4.610   0.619 -0.1472  0.0681 -0.1513
 2890SOL    HW120303   2.920   4.572   0.613  0.1404 -0.4068 -1.3215
 2890SOL    HW220304   2.995   4.680   0.555 -0.6052  2.0154  2.0816
 2891SOL     OW20305   3.274   2.549   7.661 -0.5205 -0.0806  0.2487
 2891SOL    HW120306   3.235   2.591   7.738  0.4634 -0.6604  1.0554
 2891SOL    HW220307   3.349   2.607   7.643 -0.1444 -0.3642  0.9157
 2892SOL     OW20308   1.618   2.726  13.107  0.3233  0.3556 -0.1478
 2892SOL    HW120309   1.701   2.760  13.074  0.4173  1.7837  1.5480
 2892SOL    HW220310   1.645   2.635  13.106  0.6968  0.4771 -1.4548
 2893SOL     OW20311   1.469   3.985   2.040 -0.3345 -0.0128  0.2435
 2893SOL    HW120312   1.409   3.950   2.107 -0.1115 -1.8055 -0.4932
 2893SOL    HW220313   1.543   4.015   2.091 -0.1706 -1.0121  0.6003
 2894SOL     OW20314   0.018   3.327   4.564  0.2019  0.6607 -0.2930
 2894SOL    HW120315   0.006   3.239   4.528 -2.3278  1.4002 -1.2122
 2894SOL    HW220316   4.713   3.319   4.648 -0.2201 -3.9679 -0.9693
 2895SOL     OW20317   2.205   0.508   8.622  0.2598  0.1978 -0.0813
 2895SOL    HW120318   2.166   0.561   8.553 -0.4271  0.0989  0.2244
 2895SOL    HW220319   2.145   0.434   8.614 -0.9464  1.2159 -0.4302
 2896SOL     OW20320   0.467   4.735   9.625 -0.2523 -0.0147 -0.1711
 2896SOL    HW120321   0.476   0.051   9.548 -2.2920 -0.1904 -0.5497
 2896SOL    HW220322   0.395   4.673   9.610  0.8491 -1.1700 -0.6417
 2897SOL     OW20323   0.824   2.221   8.975  0.2742  0.6049 -0.1132
 2897SOL    HW120324   0.760   2.292   8.985  0.0195 -0.0576  2.8410
 2897SOL    HW220325   0.818   2.187   8.886  1.4003  0.4922 -0.1479
 2898SOL     OW20326   2.093   0.232  10.339  0.3986 -0.0260  0.1215
 2898SOL    HW120327   2.019   0.185  10.375  1.4101 -2.4507 -0.9493
 2898SOL    HW220328   2.122   0.188  10.259 -1.5065 -0.6414 -0.2221
 2899SOL     OW20329   3.015   0.392   8.882 -0.3796  0.3456 -0.0630
 2899SOL    HW120330   3.042   0.393   8.791 -1.8115  0.8861 -0.4805
 2899SOL    HW220331   2.999   0.305   8.918 -0.9101  0.4781  0.0183
 2900SOL     OW20332   3.488   0.372  14.093  0.4189 -1.0742  0.8871
 2900SOL    HW120333   3.409   0.320  14.082 -0.4807  0.4628 -0.0173
 2900SOL    HW220334   3.443   0.451  14.124  0.1366 -0.6679 -0.5762
 2901SOL     OW20335   1.152   4.282   4.784  0.4256  0.1856  0.4411
 2901SOL    HW120336   1.085   4.216   4.764 -2.7970  3.2580  1.0316
 2901SOL    HW220337   1.171   4.297   4.691  0.2932 -0.1658  0.3569
 2902SOL     OW20338   1.048   1.701   0.320  0.0643 -0.3039  0.2149
 2902SOL    HW120339   1.113   1.696   0.250 -1.0851 -4.2804 -0.5273
 2902SOL    HW220340   1.087   1.768   0.377 -0.7629 -0.0894  0.5367
 2903SOL     OW20341   0.585   1.429   7.588 -0.1780 -0.4342 -0.4691
 2903SOL    HW120342   0.556   1.339   7.577 -1.9640  0.1274 -0.3536
 2903SOL    HW220343   0.600   1.426   7.683 -0.0092  1.8733 -0.3996
 2904SOL     OW20344   1.278   4.269   0.299 -0.0554  0.4807 -0.3284
 2904SOL    HW120345   1.197   4.226   0.327  0.5898  0.6854  1.8442
 2904SOL    HW220346   1.333   4.247   0.374 -1.6506  0.1741  0.7648
 2905SOL     OW20347   2.969   3.866  10.094  0.3161  0.2560  0.6765
 2905SOL    HW120348   3.049   3.893  10.050 -0.1501  1.1436  0.3666
 2905SOL    HW220349   2.985   3.772  10.097  1.6242  0.4459 -0.6204
 2906SOL     OW20350   3.923   0.488   5.282 -0.6566  0.0740 -0.3861
 2906SOL    HW120351   3.852   0.484   5.218 -0.2535 -0.2980 -0.8188
 2906SOL    HW220352   3.871   0.454   5.354  0.1684  2.4724  1.3527
 2907SOL     OW20353   3.691   3.229  15.936  0.8296  0.1371 -0.1148
 2907SOL    HW120354   3.653   3.263  15.855 -2.4021 -1.6502  0.6674
 2907SOL    HW220355   3.698   3.300  16.000 -2.4994 -1.5147  2.0204
 2908SOL     OW20356   1.141   0.865   2.436  0.6896  0.2412  0.5968
 2908SOL    HW120357   1.175   0.853   2.525  0.4575 -1.2404  0.4859
 2908SOL    HW220358   1.086   0.941   2.455  1.0990  0.3988  1.1518
 2909SOL     OW20359   2.633   3.058   7.307  0.1032 -0.0315  0.3508
 2909SOL    HW120360   2.708   3.116   7.321 -0.2861  0.4593  0.4290
 2909SOL    HW220361   2.604   3.045   7.397 -0.4014  0.1688  0.2151
 2910SOL     OW20362   0.718   2.172   4.307 -0.1112  0.3145  0.1899
 2910SOL    HW120363   0.689   2.090   4.345 -0.8477 -0.3663 -1.8279
 2910SOL    HW220364   0.685   2.172   4.217 -1.2389 -0.0343  0.6135
 2911SOL     OW20365   4.003   4.164   5.836  0.1307 -0.1664 -0.0705
 2911SOL    HW120366   3.922   4.115   5.819 -0.9301  1.0931  1.3517
 2911SOL    HW220367   4.064   4.109   5.786 -1.8539 -1.9849 -0.4949
 2912SOL     OW20368   3.044   4.421  15.083  0.0158 -0.4853  0.5793
 2912SOL    HW120369   2.981   4.366  15.128  0.0489 -0.2493  0.9174
 2912SOL    HW220370   2.991   4.467  15.018  3.0533  0.9303 -0.8770
 2913SOL     OW20371   0.830   2.918   4.276  0.0512  0.3694 -0.3428
 2913SOL    HW120372   0.750   2.969   4.264  0.5519  0.7607 -1.9993
 2913SOL    HW220373   0.834   2.874   4.191  2.4805  0.6227 -0.3738
 2914SOL     OW20374   0.351   0.562  15.588  0.6068  0.1528  0.1730
 2914SOL    HW120375   0.294   0.487  15.609  0.3294  0.2211 -0.3289
 2914SOL    HW220376   0.285   0.622  15.552 -0.8244 -2.4391 -1.5232
 2915SOL     OW20377   0.047   1.253   4.829 -0.0819 -0.3287  0.5074
 2915SOL    HW120378   0.051   1.160   4.849  0.6475  0.1408  2.5533
 2915SOL    HW220379   0.135   1.288   4.844  0.6289 -1.7123 -0.4500
 2916SOL     OW20380   1.625   3.518   7.177 -0.0112 -0.0345  0.2474
 2916SOL    HW120381   1.586   3.526   7.264 -0.3110 -1.1437  0.2254
 2916SOL    HW220382   1.568   3.578   7.129 -1.7409 -0.9004  1.2087
 2917SOL     OW20383   2.092   1.198   6.733  0.3030  0.0582 -0.4827
 2917SOL    HW120384   2.002   1.185   6.762  0.2195  0.9349 -0.3322
 2917SOL    HW220385   2.116   1.115   6.692  0.9895  0.7892 -1.5886
 2918SOL     OW20386   2.055   2.259   7.053 -0.5539  0.4292 -0.8980
 2918SOL    HW120387   1.991   2.323   7.085  0.0866  0.3398  0.5818
 2918SOL    HW220388   2.035   2.256   6.960 -1.4510  0.4492 -0.7087
 2919SOL     OW20389   4.600   4.067   5.495 -0.4145 -0.1478 -0.1416
 2919SOL    HW120390   4.556   4.152   5.487  1.4924  0.7598 -0.9633
 2919SOL    HW220391   4.578   4.016   5.417  3.0699 -1.3249 -0.3502
 2920SOL     OW20392   3.226   0.098  15.793  0.0857 -0.3295  0.1910
 2920SOL    HW120393   3.266   0.179  15.824  0.0808  0.2995 -1.4272
 2920SOL    HW220394   3.145   0.140  15.765  2.0103  2.7765 -0.6546
 2921SOL     OW20395   1.276   1.093  13.104  0.4523  0.0260 -0.0862
 2921SOL    HW120396   1.325   1.020  13.143  1.8766  1.1816  0.2932
 2921SOL    HW220397   1.244   1.130  13.186 -0.3687  0.4776 -0.6191
 2922SOL     OW20398   0.071   2.563  13.701 -0.5971 -0.0242  0.0397
 2922SOL    HW120399   4.722   2.574  13.669 -1.8172 -1.3646  3.0603
 2922SOL    HW220400   0.061   2.468  13.704 -0.8834 -0.0880 -2.6543
 2923SOL     OW20401   1.038   1.494   2.719 -0.2792 -0.2492 -0.1726
 2923SOL    HW120402   1.075   1.446   2.793 -0.4144  0.3356  0.2758
 2923SOL    HW220403   1.066   1.432   2.652  2.1612 -0.3135  0.9099
 2924SOL     OW20404   3.825   1.755   8.897  0.3002  0.0789  0.0773
 2924SOL    HW120405   3.797   1.835   8.941  1.6127  0.5992 -0.0439
 2924SOL    HW220406   3.819   1.779   8.804  0.5694 -0.8828 -0.1876
 2925SOL     OW20407   0.588   2.797   8.217  0.0952  0.4364  0.4006
 2925SOL    HW120408   0.664   2.797   8.275  0.4128 -1.9293 -0.0235
 2925SOL    HW220409   0.579   2.892   8.209  0.8532  0.2946 -1.9706
 2926SOL     OW20410   2.507   0.334   6.059 -0.1629  0.2342 -0.7365
 2926SOL    HW120411   2.491   0.240   6.068  0.6319  0.0633 -1.1246
 2926SOL    HW220412   2.562   0.354   6.134  3.2522 -0.5875 -3.0431
 2927SOL     OW20413   4.645   3.852   1.935  0.5945  0.1490  0.4019
 2927SOL    HW120414   4.703   3.776   1.938 -0.1266 -0.4312 -0.2524
 2927SOL    HW220415   4.608   3.847   2.023 -1.2699 -0.3686 -0.4110
 2928SOL     OW20416   1.213   1.698   6.535  0.1094  0.0898  0.1787
 2928SOL    HW120417   1.296   1.714   6.489  0.6354 -2.7208  0.1845
 2928SOL    HW220418   1.175   1.786   6.535  2.3364  1.0689  1.6296
 2929SOL     OW20419   0.037   3.832   4.336  0.0758  0.0658 -0.5455
 2929SOL    HW120420   4.701   3.830   4.280  0.1610  1.0673 -0.6905
 2929SOL    HW220421   0.037   3.744   4.374 -2.8690 -0.1640 -1.0729
 2930SOL     OW20422   4.665   2.149  12.760  0.0880  0.1298 -0.1911
 2930SOL    HW120423   4.733   2.194  12.811 -0.8299  1.2268  0.0611
 2930SOL    HW220424   4.622   2.224  12.718 -0.7517 -0.1384  0.2017
 2931SOL     OW20425   2.017   2.376   9.813 -0.4655  0.1008  0.7237
 2931SOL    HW120426   2.081   2.437   9.850 -0.0480  0.2053 -0.1775
 2931SOL    HW220427   2.054   2.295   9.849  1.3104 -0.9098 -3.4138
 2932SOL     OW20428   4.409   1.781   2.675  0.7642 -0.3214 -0.3047
 2932SOL    HW120429   4.409   1.854   2.614  3.4468  1.4802  1.8234
 2932SOL    HW220430   4.317   1.759   2.663  1.5545 -2.6724 -1.9883
 2933SOL     OW20431   4.086   1.268  13.195  0.0183 -0.1366 -0.6377
 2933SOL    HW120432   4.126   1.184  13.177 -0.0063 -0.3092  0.1140
 2933SOL    HW220433   4.166   1.317  13.213 -0.0630 -0.3409  0.2501
 2934SOL     OW20434   0.990   1.236   6.579  0.5689 -0.4264  0.0560
 2934SOL    HW120435   0.994   1.288   6.499 -1.9149 -1.5790 -0.8226
 2934SOL    HW220436   0.914   1.178   6.570  0.9884 -1.1790  1.4122
 2935SOL     OW20437   0.575   0.507   6.399  0.3485  0.0643 -0.2258
 2935SOL    HW120438   0.503   0.542   6.346 -0.0244 -2.2047 -1.2142
 2935SOL    HW220439   0.534   0.459   6.470  0.3217 -0.5726 -0.6689
 2936SOL     OW20440   1.896   4.385  12.454  0.1874 -0.3740  0.0815
 2936SOL    HW120441   1.948   4.344  12.524  0.4831 -2.4352 -1.3559
 2936SOL    HW220442   1.840   4.312  12.430 -0.9527  0.7410 -0.6653
 2937SOL     OW20443   2.263   3.099   4.103  0.0546 -0.0589 -0.4348
 2937SOL    HW120444   2.332   3.062   4.158  1.7737  0.8656 -1.9259
 2937SOL    HW220445   2.190   3.039   4.114  0.0393 -0.0615 -0.5471
 2938SOL     OW20446   0.828   4.560   7.773  0.4444  0.0169  0.2265
 2938SOL    HW120447   0.904   4.512   7.741  1.6102  2.5056 -0.7218
 2938SOL    HW220448   0.764   4.550   7.703 -2.1176  0.6558  2.4682
 2939SOL     OW20449   4.434   4.592  16.476 -0.2519  0.0941  0.4010
 2939SOL    HW120450   4.366   4.628  16.419  0.6032  0.4134 -0.4143
 2939SOL    HW220451   4.405   4.501  16.472  1.6111 -0.3771 -2.1778
 2940SOL     OW20452   3.326   3.049   7.858 -0.7101  0.4088 -0.1820
 2940SOL    HW120453   3.303   3.129   7.905 -3.2454  0.7257 -1.9786
 2940SOL    HW220454   3.319   2.982   7.926  0.1821 -0.4214 -0.9129
 2941SOL     OW20455   3.782   4.050   6.326  0.7805 -0.1722  0.0110
 2941SOL    HW120456   3.725   3.973   6.327 -0.6823  0.8867 -2.5886
 2941SOL    HW220457   3.755   4.076   6.238 -0.2314 -0.2792  0.2884
 2942SOL     OW20458   0.564   3.455   8.798 -0.1845  0.1514 -0.4180
 2942SOL    HW120459   0.638   3.435   8.739  0.4181 -0.0073  0.3944
 2942SOL    HW220460   0.518   3.510   8.734 -3.0003 -0.3001  1.2644
 2943SOL     OW20461   2.282   2.415   1.755 -0.3936 -0.3517 -0.0009
 2943SOL    HW120462   2.294   2.326   1.723  2.2090 -0.5436  1.4645
 2943SOL    HW220463   2.250   2.400   1.844  3.6518 -2.6587  1.0768
 2944SOL     OW20464   0.776   3.794   8.923  0.3139  0.1695 -0.1353
 2944SOL    HW120465   0.818   3.856   8.983 -0.9494  1.1572 -0.2543
 2944SOL    HW220466   0.686   3.799   8.957 -0.3907 -0.5330 -1.9091
 2945SOL     OW20467   4.389   0.202  14.941 -0.0192  0.2016 -0.1547
 2945SOL    HW120468   4.371   0.157  15.024 -1.7362 -0.8688 -1.1296
 2945SOL    HW220469   4.352   0.141  14.878  2.3052 -0.2049 -1.1381
 2946SOL     OW20470   1.300   3.304   7.620  0.2403  0.2884 -0.0718
 2946SOL    HW120471   1.393   3.283   7.608 -0.1160 -1.0076 -0.5035
 2946SOL    HW220472   1.262   3.274   7.538 -1.7000  2.8683 -0.1209
 2947SOL     OW20473   2.887   1.254  11.097  0.0455 -0.1264 -0.0194
 2947SOL    HW120474   2.944   1.308  11.042 -1.0571  0.0246 -1.0277
 2947SOL    HW220475   2.823   1.217  11.036  0.1839  0.1204 -0.3184
 2948SOL     OW20476   2.796   2.174   4.728  0.1675 -0.3586 -0.1172
 2948SOL    HW120477   2.880   2.146   4.764  0.1815 -2.8799 -2.0674
 2948SOL    HW220478   2.799   2.259   4.772  2.2916  0.2745 -1.4597
 2949SOL     OW20479   2.640   0.329   4.425  0.1007 -0.2428 -0.6223
 2949SOL    HW120480   2.724   0.370   4.443 -0.2085 -0.7952  2.0225
 2949SOL    HW220481   2.631   0.285   4.510  1.0874  0.5481 -0.1126
 2950SOL     OW20482   3.480   3.717   9.445 -0.2936 -0.5862  0.0004
 2950SOL    HW120483   3.435   3.790   9.401  0.7163  0.4949  0.7427
 2950SOL    HW220484   3.410   3.677   9.497 -2.9110  1.6416 -1.7845
 2951SOL     OW20485   2.980   0.193   6.438 -0.0434 -0.3607  0.2235
 2951SOL    HW120486   3.004   0.244   6.515  0.5609 -0.5480  0.1569
 2951SOL    HW220487   3.035   0.115   6.446 -0.0232 -0.2835  0.8636
 2952SOL     OW20488   1.090   3.213   3.481 -0.6364  0.0241  0.3109
 2952SOL    HW120489   1.154   3.233   3.549 -0.7390 -0.8421  0.6754
 2952SOL    HW220490   1.118   3.268   3.408  0.4582  2.0237  2.2314
 2953SOL     OW20491   0.537   1.942   0.576  0.0757 -0.6026 -0.3502
 2953SOL    HW120492   0.543   1.874   0.510  0.2090  1.3681 -2.3589
 2953SOL    HW220493   0.443   1.958   0.573  0.0123 -0.9306 -0.0384
 2954SOL     OW20494   0.781   0.802   2.407  0.1418  0.3711  0.2047
 2954SOL    HW120495   0.821   0.870   2.352 -1.3970  0.5506 -0.7247
 2954SOL    HW220496   0.723   0.760   2.343 -0.9862  1.6028  0.3975
 2955SOL     OW20497   3.917   4.610   9.282 -0.1109 -0.5647 -0.8004
 2955SOL    HW120498   3.915   4.569   9.369  0.1152  0.5457 -0.2763
 2955SOL    HW220499   3.865   4.688   9.299  0.6728 -0.4228  1.0219
 2956SOL     OW20500   1.472   0.126   8.054 -0.2456  0.2254  0.2281
 2956SOL    HW120501   1.404   0.188   8.027  0.0208  1.1168  1.5606
 2956SOL    HW220502   1.488   0.073   7.976  0.2064 -2.0974  1.9066
 2957SOL     OW20503   0.988   3.190   0.413 -0.6485 -0.8521 -0.1587
 2957SOL    HW120504   0.921   3.199   0.481  1.7246 -0.5335  2.1150
 2957SOL    HW220505   0.940   3.158   0.337 -1.7154  0.6248 -0.1079
 2958SOL     OW20506   0.018   2.788   4.886  0.3899 -0.0472  0.3323
 2958SOL    HW120507   4.727   2.770   4.974 -0.0513  1.3175  0.4429
 2958SOL    HW220508   0.106   2.749   4.891 -0.3221 -1.4205  2.0093
 2959SOL     OW20509   3.842   1.817  17.375 -0.1777 -0.0763  0.0311
 2959SOL    HW120510   3.908   1.826  17.443  0.9213  0.5312 -1.1149
 2959SOL    HW220511   3.885   1.852  17.296  0.7515 -1.8057 -0.2314
 2960SOL     OW20512   1.445   0.729   2.391  0.1833  0.2579 -0.7396
 2960SOL    HW120513   1.401   0.712   2.308 -1.4550  1.6507 -0.1637
 2960SOL    HW220514   1.522   0.673   2.394  1.2970  1.7776 -1.2198
 2961SOL     OW20515   3.807   2.738   6.135  0.0971 -0.1691 -0.2010
 2961SOL    HW120516   3.752   2.666   6.164 -0.3795  0.1132 -0.3988
 2961SOL    HW220517   3.750   2.769   6.064 -0.8483  0.0495  0.6559
 2962SOL     OW20518   3.819   4.144   2.102 -0.2722 -0.2698  0.0026
 2962SOL    HW120519   3.782   4.177   2.021  1.5305  2.8244  0.4706
 2962SOL    HW220520   3.848   4.226   2.142 -0.9012  0.7666 -1.6871
 2963SOL     OW20521   2.693   4.357   6.891  0.4389  0.1626  0.0798
 2963SOL    HW120522   2.725   4.323   6.975  1.5248  1.9123  0.3735
 2963SOL    HW220523   2.775   4.375   6.845 -0.5253 -0.3122 -1.8074
 2964SOL     OW20524   3.799   4.664   8.000  0.0459 -0.0966 -0.0171
 2964SOL    HW120525   3.889   4.644   8.028 -0.7797 -1.5273  1.6154
 2964SOL    HW220526   3.765   4.578   8.026  0.2905 -0.6005 -1.3509
 2965SOL     OW20527   1.998   3.346   6.964 -0.1840 -0.3900  0.1875
 2965SOL    HW120528   2.000   3.440   6.950  2.7163 -0.1545  2.1879
 2965SOL    HW220529   1.929   3.314   6.906  1.3401 -2.6737 -0.3722
 2966SOL     OW20530   3.443   1.090  14.405 -0.0147 -0.6743  0.2293
 2966SOL    HW120531   3.372   1.058  14.350  2.0436 -1.8822 -1.7109
 2966SOL    HW220532   3.424   1.040  14.485 -0.0818 -0.3334  0.4252
 2967SOL     OW20533   2.382   2.545   3.303 -0.2189 -0.4931 -0.0343
 2967SOL    HW120534   2.450   2.563   3.237  0.6257 -0.4544  0.8563
 2967SOL    HW220535   2.308   2.524   3.245 -1.7685  1.9779  1.0716
 2968SOL     OW20536   0.179   1.326  10.649 -0.2318 -0.6610 -0.1919
 2968SOL    HW120537   0.107   1.343  10.711 -0.9558 -1.2728 -0.8506
 2968SOL    HW220538   0.163   1.234  10.628 -2.9015 -0.1447 -0.4231
 2969SOL     OW20539   0.843   2.020  11.660 -0.0834  0.1953 -0.8279
 2969SOL    HW120540   0.784   1.992  11.731 -0.8458  1.1952 -1.0597
 2969SOL    HW220541   0.915   1.958  11.660 -0.1773  0.0834 -0.5282
 2970SOL     OW20542   1.906   1.249   3.005 -0.2283 -0.6235  0.0670
 2970SOL    HW120543   1.853   1.170   3.017 -0.9398 -0.0833  0.5156
 2970SOL    HW220544   1.983   1.234   3.059 -0.2098 -1.6637 -0.2601
 2971SOL     OW20545   0.665   4.321   3.621  0.0532 -0.1848 -0.0212
 2971SOL    HW120546   0.585   4.359   3.585  0.7461  2.0578  0.8211
 2971SOL    HW220547   0.725   4.394   3.604 -0.0630  0.2798  1.5997
 2972SOL     OW20548   1.713   0.862   8.661  0.3680  0.4321  0.4786
 2972SOL    HW120549   1.709   0.952   8.629  1.8451  1.3354  2.8747
 2972SOL    HW220550   1.808   0.859   8.655  0.4957  0.4695  2.5640
 2973SOL     OW20551   1.537   0.451  17.337 -0.0082 -0.0730  0.0575
 2973SOL    HW120552   1.605   0.514  17.360  0.5294 -0.2494 -1.0514
 2973SOL    HW220553   1.508   0.417  17.422 -0.1013  1.9188  0.8102
 2974SOL     OW20554   2.755   2.823   7.258 -0.2027 -0.0845  0.0804
 2974SOL    HW120555   2.841   2.857   7.283 -1.8827  4.7678 -0.6914
 2974SOL    HW220556   2.701   2.902   7.269 -1.8159 -1.1933  0.0253
 2975SOL     OW20557   0.552   2.088   2.672  0.0944 -0.0525 -0.0799
 2975SOL    HW120558   0.470   2.138   2.675  1.0450  1.5130  0.2464
 2975SOL    HW220559   0.542   2.062   2.580  2.4058 -0.7538 -0.1103
 2976SOL     OW20560   2.509   0.614   2.958 -0.0582 -0.3972 -0.2839
 2976SOL    HW120561   2.573   0.547   2.982  0.2785  0.6747  1.7810
 2976SOL    HW220562   2.570   0.672   2.913 -0.9317  1.2350  0.6329
 2977SOL     OW20563   1.937   4.521  17.393 -0.5053 -1.0032  0.2437
 2977SOL    HW120564   1.940   4.550  17.484 -2.6017 -2.7566  0.8764
 2977SOL    HW220565   2.021   4.543  17.353 -1.0390 -0.8110 -0.7629
 2978SOL     OW20566   0.044   0.153   7.386 -0.4388  0.0157  0.6230
 2978SOL    HW120567   0.094   0.233   7.406  2.0334 -0.6457 -3.0214
 2978SOL    HW220568   0.109   0.089   7.357 -1.9692 -1.1309 -0.2267
 2979SOL     OW20569   4.446   1.143   4.101  0.7344  0.0972  0.4718
 2979SOL    HW120570   4.358   1.179   4.113 -0.0333 -1.4980 -0.4229
 2979SOL    HW220571   4.505   1.186   4.163  1.0280 -1.5339  1.3306
 2980SOL     OW20572   3.835   3.775   3.351  0.5294  0.5266 -0.7453
 2980SOL    HW120573   3.765   3.709   3.346  0.2768  0.7662 -0.3807
 2980SOL    HW220574   3.821   3.828   3.273  0.6751  0.9284 -0.5002
 2981SOL     OW20575   0.996   0.310   7.361  0.4674 -0.2571 -0.0286
 2981SOL    HW120576   1.063   0.249   7.329  0.7159  0.7829 -1.4822
 2981SOL    HW220577   0.928   0.253   7.397 -0.0508 -0.6475 -1.6009
 2982SOL     OW20578   2.337   1.821  15.904 -0.9254 -0.4618  0.0892
 2982SOL    HW120579   2.258   1.796  15.857 -1.3052 -0.7189  0.8807
 2982SOL    HW220580   2.371   1.879  15.836 -0.4115 -0.0155  0.7226
 2983SOL     OW20581   2.763   4.015   1.879  0.0993 -0.2152  0.4465
 2983SOL    HW120582   2.844   4.025   1.928  0.5809 -0.5112 -0.2935
 2983SOL    HW220583   2.784   3.938   1.827 -3.1736  0.1865 -1.5590
 2984SOL     OW20584   1.140   1.769  16.282 -0.6117 -0.3927 -0.2851
 2984SOL    HW120585   1.087   1.748  16.359  1.3466 -0.0929  1.1584
 2984SOL    HW220586   1.222   1.734  16.315 -0.6884  0.8703  1.3216
 2985SOL     OW20587   1.695   4.369   6.698 -1.2265 -0.1617 -0.2748
 2985SOL    HW120588   1.743   4.359   6.617 -0.9034  2.1391 -0.3675
 2985SOL    HW220589   1.749   4.322   6.762 -0.9587 -0.9394 -1.0784
 2986SOL     OW20590   1.538   0.911   0.414  0.1908 -0.7953  0.2394
 2986SOL    HW120591   1.621   0.958   0.408 -0.6482  0.3827 -2.3977
 2986SOL    HW220592   1.504   0.938   0.499  0.6833 -2.2144  0.8856
 2987SOL     OW20593   3.072   1.368  13.677  0.4268 -0.3628  0.1464
 2987SOL    HW120594   3.088   1.388  13.585 -0.1752  0.0321  0.1307
 2987SOL    HW220595   2.992   1.316  13.682 -0.4869  1.1184  0.8368
 2988SOL     OW20596   1.820   0.059  10.272  0.3399  0.2384  0.2935
 2988SOL    HW120597   1.743   0.090  10.320  0.2013 -0.8478  0.7850
 2988SOL    HW220598   1.817   0.127  10.205  2.3884  2.0301  2.0691
 2989SOL     OW20599   3.175   2.878   3.612 -0.4615  0.2192  0.2614
 2989SOL    HW120600   3.181   2.972   3.628  1.6038 -0.0616  1.2143
 2989SOL    HW220601   3.109   2.871   3.543 -0.3687  0.7464  0.1195
 2990SOL     OW20602   3.094   2.914   3.931  0.3404 -0.4659  0.2644
 2990SOL    HW120603   3.089   2.989   3.990 -2.1680  0.8609 -1.6116
 2990SOL    HW220604   3.118   2.958   3.849  1.7091  0.6877  1.2855
 2991SOL     OW20605   0.744   3.198   8.903 -0.0218  0.3201  0.2003
 2991SOL    HW120606   0.816   3.151   8.862 -0.1476  1.2858 -1.1429
 2991SOL    HW220607   0.717   3.259   8.833 -1.0495 -0.5721 -0.1731
 2992SOL     OW20608   3.358   1.032   3.942  0.3957  0.2351  0.6651
 2992SOL    HW120609   3.378   1.097   3.874 -1.9225  0.5943  0.3364
 2992SOL    HW220610   3.291   0.974   3.907  1.6444  0.4395 -2.0786
 2993SOL     OW20611   3.103   2.850   8.718 -0.1128 -0.4035 -0.2445
 2993SOL    HW120612   3.015   2.812   8.722 -0.7549  1.0940 -0.0588
 2993SOL    HW220613   3.076   2.942   8.727  0.0614 -0.3769  0.0023
 2994SOL     OW20614   1.850   3.322   6.713  0.7532  0.0656 -0.0328
 2994SOL    HW120615   1.803   3.239   6.706  0.5794  0.2798 -1.5223
 2994SOL    HW220616   1.895   3.324   6.628  0.7293 -0.2403 -0.0549
 2995SOL     OW20617   1.612   3.244   9.577 -0.0465 -0.1420 -0.5272
 2995SOL    HW120618   1.666   3.324   9.577  1.8590 -1.4298 -0.1203
 2995SOL    HW220619   1.559   3.267   9.653  1.3610  0.1685  0.3719
 2996SOL     OW20620   2.277   4.065   6.922  0.0354 -0.3742 -0.3706
 2996SOL    HW120621   2.362   4.109   6.923  0.2073 -0.6988 -0.9605
 2996SOL    HW220622   2.216   4.133   6.952 -2.2517 -2.1962 -0.8030
 2997SOL     OW20623   1.152   1.232   8.445  0.1055  0.1990  0.1635
 2997SOL    HW120624   1.143   1.327   8.438  0.3835  0.4887  3.6600
 2997SOL    HW220625   1.079   1.203   8.500 -1.1354 -1.3072 -2.2666
 2998SOL     OW20626   2.643   0.469  16.616  0.0701 -0.3992 -0.6617
 2998SOL    HW120627   2.638   0.561  16.643 -0.4308 -0.5182 -0.3338
 2998SOL    HW220628   2.556   0.458  16.577  1.2379 -2.2044 -2.7517
 2999SOL     OW20629   2.375   3.389   2.024  0.6574  0.9955 -0.3455
 2999SOL    HW120630   2.426   3.463   1.993 -0.7886  2.4216  0.6275
 2999SOL    HW220631   2.373   3.320   1.958  1.1468 -0.0033  0.6816
 3000SOL     OW20632   2.286   2.614   6.339 -0.4499 -0.0564  0.2639
 3000SOL    HW120633   2.298   2.630   6.432 -0.2594 -1.1282  0.4270
 3000SOL    HW220634   2.272   2.520   6.344  1.3976 -0.3177  0.5408
 3001SOL     OW20635   0.942   4.738   0.232  0.0767 -0.1093  0.4252
 3001SOL    HW120636   0.847   0.004   0.241  0.2159 -0.6325  2.3784
 3001SOL    HW220637   0.964   4.726   0.324 -2.3769 -1.7010  0.7936
 3002SOL     OW20638   2.096   1.501   6.549 -0.7955  0.4707  0.1333
 3002SOL    HW120639   2.026   1.440   6.573 -1.7246  1.4958  0.0681
 3002SOL    HW220640   2.098   1.556   6.628 -1.0084  0.2733  0.2774
 3003SOL     OW20641   4.485   3.505  11.600  0.3469 -0.6814 -0.0535
 3003SOL    HW120642   4.400   3.471  11.627 -0.3516  0.8957 -0.2768
 3003SOL    HW220643   4.548   3.452  11.649  1.1962 -0.0659 -0.4790
 3004SOL     OW20644   0.799   0.044  15.855  0.1661  0.2628  0.0473
 3004SOL    HW120645   0.754   4.717  15.806  1.2861 -1.1961  1.0415
 3004SOL    HW220646   0.739   0.117  15.839 -1.2168 -0.4672  1.9658
 3005SOL     OW20647   4.133   0.062  14.817  0.5053  0.1239 -0.1945
 3005SOL    HW120648   4.103   0.068  14.727  1.0035 -1.0182 -0.4483
 3005SOL    HW220649   4.110   0.151  14.844 -0.5255 -0.2905  0.3081
 3006SOL     OW20650   2.913   1.787   7.779  0.3605  0.0075 -0.2568
 3006SOL    HW120651   2.891   1.740   7.860 -1.5436  0.2762 -0.6148
 3006SOL    HW220652   2.940   1.870   7.817 -0.2911 -0.2661  0.8416
 3007SOL     OW20653   1.851   4.072   6.388  0.6814 -0.2402  0.4326
 3007SOL    HW120654   1.812   4.154   6.416  0.7258 -0.4834  1.1984
 3007SOL    HW220655   1.933   4.062   6.435  1.0504  2.9316  0.4662
 3008SOL     OW20656   4.299   2.463   2.235  0.2477  0.2004 -0.0492
 3008SOL    HW120657   4.273   2.530   2.298 -0.8883 -0.9331  0.6884
 3008SOL    HW220658   4.230   2.468   2.169 -0.1145 -0.7332  0.2621
 3009SOL     OW20659   3.926   0.866   1.365 -0.5299 -0.6570 -0.3510
 3009SOL    HW120660   3.955   0.778   1.391 -0.0429 -0.7602 -1.2529
 3009SOL    HW220661   4.008   0.914   1.362 -1.7190  1.2520 -2.7337
 3010SOL     OW20662   2.774   2.310   4.318 -0.3470 -0.2033 -0.2910
 3010SOL    HW120663   2.852   2.312   4.373  0.0646 -0.8131 -0.8602
 3010SOL    HW220664   2.711   2.264   4.373 -2.7978  1.1969 -1.8535
 3011SOL     OW20665   2.000   2.674   7.108 -0.4579  0.2947  0.2167
 3011SOL    HW120666   1.967   2.610   7.172 -0.5774 -0.1526 -0.2930
 3011SOL    HW220667   2.087   2.634   7.114 -1.7554 -2.1172  3.0072
 3012SOL     OW20668   2.448   0.910  17.578 -0.1278 -0.2984  0.2560
 3012SOL    HW120669   2.449   0.968  17.654 -1.1720 -1.0543  0.8466
 3012SOL    HW220670   2.357   0.920  17.547 -0.1456 -1.0872  0.0511
 3013SOL     OW20671   3.293   0.956   6.232  0.0443 -0.7774 -0.0317
 3013SOL    HW120672   3.343   0.914   6.302 -0.5922 -0.3116  0.7094
 3013SOL    HW220673   3.208   0.912   6.238 -0.9062  1.2935  1.5460
 3014SOL     OW20674   1.964   3.570   6.513 -0.1337 -0.5688  0.2248
 3014SOL    HW120675   1.983   3.664   6.502 -0.8668 -0.4946 -0.4327
 3014SOL    HW220676   2.050   3.551   6.550  0.7562 -0.5594 -1.7901
 3015SOL     OW20677   4.469   0.380   3.842 -0.0410 -0.1613 -0.2990
 3015SOL    HW120678   4.422   0.446   3.792 -1.6882  0.0891  1.5911
 3015SOL    HW220679   4.547   0.385   3.787 -1.2089 -3.2833 -2.2446
 3016SOL     OW20680   4.564   1.960   0.478  0.0657 -0.0743  0.7340
 3016SOL    HW120681   4.611   1.921   0.552 -1.4581 -1.7298  0.8442
 3016SOL    HW220682   4.572   1.888   0.415  0.1929 -1.0973  1.9108
 3017SOL     OW20683   0.269   1.957  16.402  0.2710  0.2765 -0.4466
 3017SOL    HW120684   0.312   1.991  16.481  0.7038 -0.8361 -0.1970
 3017SOL    HW220685   0.355   1.926  16.373  0.5976 -1.4933  2.3625
 3018SOL     OW20686   2.401   2.096  11.708  0.3775  0.7647 -0.4474
 3018SOL    HW120687   2.479   2.129  11.752  0.2706 -1.5023  1.4403
 3018SOL    HW220688   2.331   2.151  11.744 -0.4731 -0.7812  0.2634
 3019SOL     OW20689   2.013   3.441   9.775 -0.1897 -0.6980  0.0213
 3019SOL    HW120690   2.094   3.455   9.727 -0.7493 -0.4284 -0.8473
 3019SOL    HW220691   2.031   3.495   9.853 -0.6852  0.1100 -0.4185
 3020SOL     OW20692   2.853   1.805   2.771 -0.3218  0.7448 -0.1661
 3020SOL    HW120693   2.927   1.857   2.739  1.0931  0.1652  2.1955
 3020SOL    HW220694   2.899   1.722   2.753 -3.1587 -0.7327 -0.5690
 3021SOL     OW20695   4.394   0.911  12.985 -0.0783  0.2829  0.0361
 3021SOL    HW120696   4.375   0.923  12.892  2.2174  0.8663 -0.3559
 3021SOL    HW220697   4.489   0.923  12.990 -0.0555 -1.0146  2.4987
 3022SOL     OW20698   4.396   4.538  15.121 -0.0851  0.0235  0.0188
 3022SOL    HW120699   4.342   4.601  15.169  0.8967  0.4348  0.5948
 3022SOL    HW220700   4.483   4.556  15.157 -0.0181 -0.1012 -0.0820
 3023SOL     OW20701   1.360   1.857  11.754  0.0262  0.2218 -0.4424
 3023SOL    HW120702   1.443   1.896  11.726 -0.1464  0.4124 -0.6854
 3023SOL    HW220703   1.307   1.912  11.697 -0.1397  1.1167  0.5635
 3024SOL     OW20704   2.351   3.840   7.366  0.4820  0.2921 -0.6253
 3024SOL    HW120705   2.396   3.854   7.283 -2.5722 -0.1228 -2.3422
 3024SOL    HW220706   2.423   3.799   7.414 -0.0247  2.7136  2.2356
 3025SOL     OW20707   1.924   1.410   5.454 -0.0057 -0.6733 -0.0148
 3025SOL    HW120708   1.902   1.388   5.545 -1.1685  2.1855  0.4098
 3025SOL    HW220709   1.839   1.423   5.411  1.4551  0.9595 -2.4017
 3026SOL     OW20710   4.093   3.160   6.963 -0.0017 -0.6406  0.0983
 3026SOL    HW120711   4.184   3.135   6.948 -0.3775 -0.9498 -1.6834
 3026SOL    HW220712   4.056   3.082   7.004  2.0717 -0.3521  2.4918
 3027SOL     OW20713   1.026   0.237   2.407 -0.2025  0.3378 -0.0183
 3027SOL    HW120714   1.110   0.192   2.405 -0.1077  0.4962  0.5626
 3027SOL    HW220715   0.998   0.223   2.497 -0.4107  0.8613 -0.0004
 3028SOL     OW20716   1.029   2.559  11.097 -0.3281  0.4466  0.4936
 3028SOL    HW120717   1.080   2.485  11.064 -1.9859 -0.7537  0.6234
 3028SOL    HW220718   0.996   2.535  11.184 -1.4007  3.7587  0.9842
 3029SOL     OW20719   0.221   1.495  13.407  0.1905 -0.0937 -0.1509
 3029SOL    HW120720   0.132   1.467  13.386 -0.4188 -0.0998  2.3625
 3029SOL    HW220721   0.269   1.462  13.331  0.3238  0.4272 -0.2949
 3030SOL     OW20722   1.755   2.790   7.529  0.0709  0.8272 -0.4273
 3030SOL    HW120723   1.843   2.826   7.524  0.8951 -1.2758 -0.7689
 3030SOL    HW220724   1.720   2.819   7.445 -0.9807 -2.3535 -1.1036
 3031SOL     OW20725   0.831   3.378   9.746  0.1079  0.0616 -0.1288
 3031SOL    HW120726   0.841   3.345   9.657 -0.9971  0.3198 -0.3562
 3031SOL    HW220727   0.760   3.324   9.781  1.0115 -1.3034 -0.4074
 3032SOL     OW20728   0.745   1.494   5.706 -0.2876 -0.5670 -0.1232
 3032SOL    HW120729   0.676   1.440   5.667 -0.3209 -1.3588  1.0320
 3032SOL    HW220730   0.744   1.573   5.651  1.4458  0.1980  0.9442
 3033SOL     OW20731   2.833   2.561   4.028 -0.2489  0.1355 -0.3590
 3033SOL    HW120732   2.872   2.480   4.061  0.7508  0.5777 -0.4448
 3033SOL    HW220733   2.896   2.615   4.075  0.1256  0.2883 -1.0259
 3034SOL     OW20734   1.734   1.142   8.542  0.1038  0.1417 -0.1091
 3034SOL    HW120735   1.730   1.097   8.457 -3.5970 -0.1257  0.2111
 3034SOL    HW220736   1.825   1.154   8.567  0.4856  0.0824 -1.4761
 3035SOL     OW20737   3.744   3.711  15.449  0.3155 -0.2846  0.4788
 3035SOL    HW120738   3.745   3.779  15.383  0.2214  1.4647  2.2774
 3035SOL    HW220739   3.664   3.660  15.434  1.0457 -1.9682  2.2995
 3036SOL     OW20740   2.446   2.813   6.561  0.2694  0.3764 -0.5902
 3036SOL    HW120741   2.496   2.876   6.612 -0.6280  0.0735  0.6669
 3036SOL    HW220742   2.393   2.858   6.495 -1.0037 -2.3439 -1.4267
 3037SOL     OW20743   3.987   1.952   7.134  0.2722  0.0062 -0.1571
 3037SOL    HW120744   3.969   2.046   7.138 -2.3768 -0.5095 -0.0349
 3037SOL    HW220745   3.941   1.912   7.061  1.5423  0.5391 -1.2400
 3038SOL     OW20746   2.915   2.932   9.308 -0.0640  0.3469  0.0587
 3038SOL    HW120747   2.907   2.898   9.219  0.5477  2.0798 -0.6682
 3038SOL    HW220748   2.839   2.990   9.317 -0.5345 -0.0558 -1.3212
 3039SOL     OW20749   4.119   0.742   6.593 -0.9933 -0.8229 -0.4716
 3039SOL    HW120750   4.203   0.735   6.548 -0.9594  1.3946 -0.7475
 3039SOL    HW220751   4.068   0.669   6.556 -0.9928  0.4435 -2.9762
 3040SOL     OW20752   4.723   4.353   2.529 -0.4211  0.6929 -0.0760
 3040SOL    HW120753   0.063   4.404   2.521  1.4146 -2.4726 -1.4203
 3040SOL    HW220754   0.001   4.283   2.591 -0.9720 -1.2923 -2.1274
 3041SOL     OW20755   1.672   1.316  13.351 -0.5026  0.1111  0.0851
 3041SOL    HW120756   1.708   1.366  13.278 -2.6050  2.6534  0.7806
 3041SOL    HW220757   1.579   1.337  13.344 -0.3648  0.6347 -0.1644
 3042SOL     OW20758   0.051   2.857  10.399 -0.4625  0.0460  0.1666
 3042SOL    HW120759   0.117   2.811  10.451 -1.9406 -1.3426  0.8616
 3042SOL    HW220760   0.107   2.924  10.361  0.0413 -1.1708 -1.2447
 3043SOL     OW20761   1.180   4.010   7.914 -0.4164 -0.1156  0.0247
 3043SOL    HW120762   1.253   3.992   7.854 -0.6713 -1.3007  0.0795
 3043SOL    HW220763   1.176   3.931   7.968  1.4882 -0.4138 -0.2604
 3044SOL     OW20764   2.165   3.241   8.270 -0.2639 -0.1363 -0.2317
 3044SOL    HW120765   2.200   3.245   8.180 -0.3612 -1.4390 -0.3347
 3044SOL    HW220766   2.233   3.187   8.311  0.0464 -1.8848 -2.9823
 3045SOL     OW20767   1.850   2.530   3.760 -0.0544 -0.1008 -0.2156
 3045SOL    HW120768   1.861   2.536   3.855 -1.9989 -0.2894  0.0382
 3045SOL    HW220769   1.799   2.449   3.760  0.9853 -0.7600  0.9555
 3046SOL     OW20770   0.719   2.014  16.513  0.2074 -0.1641 -0.1097
 3046SOL    HW120771   0.781   2.071  16.559  0.3303  0.1931 -0.7116
 3046SOL    HW220772   0.783   1.999  16.442  0.3502  0.2581 -0.0693
 3047SOL     OW20773   4.165   3.342   5.387  0.2403  0.1837 -0.3605
 3047SOL    HW120774   4.115   3.260   5.387 -0.6971  0.7432 -0.4294
 3047SOL    HW220775   4.248   3.307   5.419 -0.3981 -0.1394  0.9622
 3048SOL     OW20776   4.134   2.302   2.817 -0.2317 -0.3389  0.3504
 3048SOL    HW120777   4.185   2.223   2.795 -0.2176 -0.3782  0.5217
 3048SOL    HW220778   4.049   2.267   2.845 -1.2519  0.7235 -1.3991
 3049SOL     OW20779   4.709   1.990   6.782 -0.7977 -0.2178 -0.1237
 3049SOL    HW120780   4.637   1.929   6.795 -1.2838  0.4233  0.1629
 3049SOL    HW220781   0.033   1.966   6.848 -1.3354  4.1735  2.0499
 3050SOL     OW20782   3.560   4.258   8.440  0.2342 -0.5535  0.4918
 3050SOL    HW120783   3.621   4.196   8.398  0.2495 -0.3322  0.1880
 3050SOL    HW220784   3.478   4.241   8.393 -0.3739 -2.1442  2.1328
 3051SOL     OW20785   2.228   0.198   3.714 -0.1923 -0.1511  0.7197
 3051SOL    HW120786   2.304   0.140   3.709 -0.2507 -0.1226 -0.5789
 3051SOL    HW220787   2.213   0.196   3.808  0.3750 -0.7028  0.7991
 3052SOL     OW20788   0.777   4.166   1.072  0.2300 -0.2846 -0.9004
 3052SOL    HW120789   0.858   4.157   1.122  0.4329  0.1154 -1.1610
 3052SOL    HW220790   0.769   4.085   1.022 -1.7536 -0.5153 -0.2084
 3053SOL     OW20791   0.760   0.151  12.607  0.5347  0.0220 -0.6123
 3053SOL    HW120792   0.834   0.193  12.650  0.0206 -0.5776  0.8710
 3053SOL    HW220793   0.808   0.077  12.570  1.2674 -0.4130  1.1622
 3054SOL     OW20794   1.504   0.428  17.600 -0.3325  0.1139  0.0498
 3054SOL    HW120795   1.564   0.404  17.671 -0.4973  1.1589  0.5478
 3054SOL    HW220796   1.431   0.465  17.651  2.2304  2.7557  1.7717
 3055SOL     OW20797   3.355   0.322  12.166 -0.0385  0.1035  0.2926
 3055SOL    HW120798   3.298   0.251  12.138  0.2249 -0.6556  1.6672
 3055SOL    HW220799   3.407   0.279  12.234  1.1198  1.3019  0.1766
 3056SOL     OW20800   2.652   2.744   6.875  0.5692 -0.4508 -0.4253
 3056SOL    HW120801   2.725   2.736   6.936  0.6146 -0.9142 -0.5359
 3056SOL    HW220802   2.576   2.720   6.929 -0.8880  1.5673 -1.5805
 3057SOL     OW20803   2.570   2.147  12.544  0.1963  0.4043 -0.4018
 3057SOL    HW120804   2.570   2.229  12.493 -0.7504  1.8122  1.8657
 3057SOL    HW220805   2.565   2.090  12.467 -1.1728  0.5276 -0.4093
 3058SOL     OW20806   2.106   3.189  10.655  0.0101 -0.1887 -0.3529
 3058SOL    HW120807   2.042   3.201  10.726 -0.9683  0.1323 -1.2853
 3058SOL    HW220808   2.052   3.192  10.576 -0.4397  4.6135  0.1477
 3059SOL     OW20809   4.709   4.379   8.671 -0.4371 -0.2955  0.0719
 3059SOL    HW120810   0.011   4.440   8.731 -2.3495  0.1692  0.9854
 3059SOL    HW220811   0.001   4.292   8.694  1.6670  0.4968 -0.0070
 3060SOL     OW20812   1.124   4.143  17.733 -0.1242  0.0348 -0.0679
 3060SOL    HW120813   1.192   4.200  17.697 -1.2176  1.7517  0.5881
 3060SOL    HW220814   1.049   4.203  17.737 -0.7176 -0.7314  0.3775
 3061SOL     OW20815   3.972   3.655   7.864  0.0983 -0.1468 -0.0711
 3061SOL    HW120816   4.002   3.663   7.954 -0.1159  0.5550 -0.0586
 3061SOL    HW220817   3.885   3.616   7.876 -1.0208  2.1362 -0.6283
 3062SOL     OW20818   2.239   1.762   8.884  0.2337 -0.1532  0.2444
 3062SOL    HW120819   2.242   1.750   8.789 -1.0701 -3.4570  0.6112
 3062SOL    HW220820   2.327   1.726   8.899  0.5037 -0.1914 -1.3980
 3063SOL     OW20821   1.596   3.133   7.368 -0.5016 -0.4809 -0.2487
 3063SOL    HW120822   1.661   3.065   7.349  1.1901  0.7593  1.0546
 3063SOL    HW220823   1.599   3.194   7.294  1.3359  0.1146  0.3292
 3064SOL     OW20824   3.851   1.870   5.598  0.3605 -0.4974  0.3611
 3064SOL    HW120825   3.930   1.907   5.558  0.0190 -1.0829 -0.8629
 3064SOL    HW220826   3.788   1.943   5.601  1.1763  0.1753  1.0782
 3065SOL     OW20827   2.399   2.145   8.273 -0.1856 -0.3578 -0.0369
 3065SOL    HW120828   2.378   2.096   8.194 -1.1127  0.3056 -0.1924
 3065SOL    HW220829   2.325   2.204   8.287  0.4140  0.9366 -2.3944
 3066SOL     OW20830   1.069   0.635   4.091  0.3930  0.6996 -0.7345
 3066SOL    HW120831   1.004   0.704   4.078 -0.5972  0.0535  0.8759
 3066SOL    HW220832   1.093   0.602   4.004  0.7950 -0.8166 -0.0442
 3067SOL     OW20833   1.280   3.578   7.561  0.9371  0.5484 -0.1344
 3067SOL    HW120834   1.283   3.496   7.612 -0.2884  1.6899  1.7789
 3067SOL    HW220835   1.254   3.633   7.635  1.8273  0.5600  0.1598
 3068SOL     OW20836   0.249   3.828  13.825  0.3223 -0.9190  0.7740
 3068SOL    HW120837   0.188   3.853  13.895 -0.9954  0.1268 -0.7484
 3068SOL    HW220838   0.304   3.905  13.835 -2.2709  0.9767  0.6146
 3069SOL     OW20839   3.777   2.374  10.416 -0.8757 -0.1821 -0.3826
 3069SOL    HW120840   3.690   2.379  10.454  0.4992  0.4473  2.6417
 3069SOL    HW220841   3.823   2.412  10.491  0.8429 -0.1331 -1.4659
 3070SOL     OW20842   4.204   2.321   3.966 -0.0471 -0.6815 -0.1148
 3070SOL    HW120843   4.164   2.391   4.019  0.9785 -0.4537  0.3454
 3070SOL    HW220844   4.186   2.234   4.003 -0.8161 -1.2357 -1.7970
 3071SOL     OW20845   4.370   4.669   0.678 -0.3946 -0.1500 -0.5295
 3071SOL    HW120846   4.394   0.016   0.709  1.8664 -0.0844 -2.4922
 3071SOL    HW220847   4.289   4.679   0.629 -0.3007  1.3841 -0.3764
 3072SOL     OW20848   2.297   1.336  17.092  0.1906 -0.6243 -0.0281
 3072SOL    HW120849   2.337   1.348  17.006  2.2315 -1.0104  0.8623
 3072SOL    HW220850   2.206   1.322  17.065  0.2945 -0.2716 -0.5641
 3073SOL     OW20851   2.718   4.667   4.983 -0.5606  0.2029 -0.3209
 3073SOL    HW120852   2.669   0.006   5.002 -1.3310  0.0142 -1.5035
 3073SOL    HW220853   2.648   4.606   4.960  0.1614 -0.8278  0.2418
 3074SOL     OW20854   0.830   1.215   4.517  0.1593  0.1815  0.0557
 3074SOL    HW120855   0.872   1.266   4.447  0.6073 -1.2191 -0.6808
 3074SOL    HW220856   0.801   1.136   4.471  0.8354  0.2714 -0.5246
 3075SOL     OW20857   3.070   2.939  17.657  0.1573 -0.2342 -0.0440
 3075SOL    HW120858   3.034   3.015  17.702 -1.7051 -0.9839 -0.2507
 3075SOL    HW220859   3.113   2.896  17.730 -0.2696  0.5032  0.6425
 3076SOL     OW20860   4.379   0.692  13.582  0.1706  0.2357 -0.1048
 3076SOL    HW120861   4.457   0.671  13.529  0.9007  1.1777  0.6100
 3076SOL    HW220862   4.412   0.725  13.665 -3.5596  1.4296  0.9095
 3077SOL     OW20863   0.608   4.239   6.300  0.0732 -0.4780 -0.3020
 3077SOL    HW120864   0.636   4.193   6.220 -1.0468 -1.4066 -0.1629
 3077SOL    HW220865   0.690   4.230   6.349  0.5024 -0.3189 -0.9853
 3078SOL     OW20866   4.037   0.002   1.118 -0.0631  0.2333  0.3076
 3078SOL    HW120867   4.017   4.691   1.040  1.4555 -0.0464  0.1119
 3078SOL    HW220868   3.953   0.045   1.135  0.0930  1.0346 -0.9140
 3079SOL     OW20869   0.013   0.305   5.743  0.1720  0.2167 -0.7924
 3079SOL    HW120870   4.708   0.222   5.728 -2.9120  1.9219 -0.7649
 3079SOL    HW220871   4.704   0.348   5.813 -1.4429  0.6195 -2.1983
 3080SOL     OW20872   0.358   2.480   5.319  0.0944 -0.0629 -0.3228
 3080SOL    HW120873   0.314   2.396   5.328 -2.3744  1.2899  0.2919
 3080SOL    HW220874   0.438   2.459   5.366 -1.6809 -2.3978  1.6639
 3081SOL     OW20875   0.700   3.818   3.860 -0.0932 -0.1608  0.1569
 3081SOL    HW120876   0.744   3.879   3.920  1.0044  0.1674 -0.9721
 3081SOL    HW220877   0.621   3.800   3.910 -0.5712 -2.1290 -1.3106
 3082SOL     OW20878   3.126   2.956  15.357 -0.3670 -0.0841  0.0048
 3082SOL    HW120879   3.091   2.983  15.442  2.4395 -1.2997  1.5361
 3082SOL    HW220880   3.045   2.930  15.312  0.3627 -1.1727 -0.6533
 3083SOL     OW20881   0.737   4.105   5.359 -0.0706  0.2322 -0.2424
 3083SOL    HW120882   0.742   4.198   5.382  1.0163  0.0106  0.4119
 3083SOL    HW220883   0.644   4.088   5.376 -0.3488 -0.8665 -2.7631
 3084SOL     OW20884   3.441   2.254   4.184  0.0972  0.5218  0.0750
 3084SOL    HW120885   3.503   2.327   4.190  2.9968 -1.7214 -2.4622
 3084SOL    HW220886   3.461   2.204   4.263  0.2007  0.6206  0.1099
 3085SOL     OW20887   3.876   3.416   8.991 -0.1609  0.0547 -0.1526
 3085SOL    HW120888   3.848   3.422   9.082  0.2890  2.9293 -0.2108
 3085SOL    HW220889   3.888   3.321   8.983 -1.1312 -0.0911  0.0276
 3086SOL     OW20890   4.203   1.453   5.115 -0.0520 -1.0143 -0.1330
 3086SOL    HW120891   4.297   1.442   5.126 -0.0689  2.0791  2.9622
 3086SOL    HW220892   4.172   1.404   5.191  2.4489 -0.4614  1.2217
 3087SOL     OW20893   2.472   0.587   7.498 -0.2974 -0.4681 -0.2132
 3087SOL    HW120894   2.412   0.651   7.460 -0.6841  0.0588  1.2940
 3087SOL    HW220895   2.557   0.629   7.488 -0.7025  0.4640  0.2168
 3088SOL     OW20896   1.741   4.646  15.766  0.2793  0.1846 -0.0203
 3088SOL    HW120897   1.703   4.633  15.853 -1.6862 -0.9451 -1.0353
 3088SOL    HW220898   1.802   4.572  15.769 -0.3955 -0.3877 -0.3767
 3089SOL     OW20899   3.911   1.628  16.485 -0.6870  0.1946 -0.0868
 3089SOL    HW120900   3.893   1.722  16.489  1.2403  0.6600 -2.5415
 3089SOL    HW220901   3.820   1.603  16.467 -0.9506  0.7537  0.4691
 3090SOL     OW20902   3.925   3.587   1.133 -0.1967 -0.0302 -0.3989
 3090SOL    HW120903   3.837   3.567   1.100 -1.4189  0.3266  2.5874
 3090SOL    HW220904   3.928   3.516   1.197 -2.0904  1.2990  1.1754
 3091SOL     OW20905   3.671   2.541   4.834 -0.8069  0.3588  0.1992
 3091SOL    HW120906   3.609   2.480   4.795  0.1003 -1.0405  0.9376
 3091SOL    HW220907   3.741   2.514   4.775 -0.4906  0.6932  0.4224
 3092SOL     OW20908   3.774   4.299   9.317 -0.1117  0.0637 -0.3852
 3092SOL    HW120909   3.844   4.317   9.379  1.3801 -0.7494 -1.8250
 3092SOL    HW220910   3.771   4.205   9.300 -2.0361  0.2346 -1.0534
 3093SOL     OW20911   4.626   1.402  15.163 -0.3124 -0.3219 -0.5650
 3093SOL    HW120912   4.696   1.448  15.209 -1.8566  1.4600 -0.0157
 3093SOL    HW220913   4.570   1.479  15.154  0.3694  0.0851 -1.4034
 3094SOL     OW20914   2.806   4.235   7.092  0.1244 -0.6109  0.3094
 3094SOL    HW120915   2.901   4.240   7.082  0.3052 -0.0191  2.2978
 3094SOL    HW220916   2.797   4.281   7.175  3.2424 -0.0667  0.3447
 3095SOL     OW20917   0.717   3.817   5.084  0.0001  0.3335  0.0282
 3095SOL    HW120918   0.673   3.792   5.002  0.5327 -1.5128  0.3174
 3095SOL    HW220919   0.656   3.811   5.157 -0.0402 -0.7580 -0.0865
 3096SOL     OW20920   2.014   4.482   6.949  1.0016 -0.2399  0.3672
 3096SOL    HW120921   2.068   4.551   6.912  0.5894  0.6489  1.4182
 3096SOL    HW220922   1.953   4.528   7.007 -0.7518 -1.0901 -0.7966
 3097SOL     OW20923   2.594   1.182  13.437 -0.2097 -0.0135  0.4703
 3097SOL    HW120924   2.509   1.214  13.466  0.7077  0.9421  2.1864
 3097SOL    HW220925   2.602   1.220  13.349  0.5187  1.7373  1.2818
 3098SOL     OW20926   0.061   4.293   3.320 -0.1714  1.1981 -0.2484
 3098SOL    HW120927   0.070   4.255   3.232  1.9257  1.3122 -0.0842
 3098SOL    HW220928   4.706   4.299   3.325 -0.2482  0.2474 -0.5438
 3099SOL     OW20929   3.072   0.571   5.551  0.0345 -0.4992 -0.1143
 3099SOL    HW120930   3.011   0.507   5.588 -0.3732 -1.1881 -1.9274
 3099SOL    HW220931   3.153   0.537   5.590 -1.1190 -1.6584  1.2747
 3100SOL     OW20932   0.721   3.509  12.841 -0.7674 -0.6361  0.1062
 3100SOL    HW120933   0.784   3.488  12.911 -0.3274 -0.7694 -0.3287
 3100SOL    HW220934   0.775   3.520  12.763 -0.1538  0.1112  0.6299
 3101SOL     OW20935   3.299   0.611   8.740 -0.0593  0.4875 -0.1413
 3101SOL    HW120936   3.345   0.655   8.669  2.8819 -0.1390  1.3814
 3101SOL    HW220937   3.236   0.556   8.693  0.1525  1.1944 -1.2544
 3102SOL     OW20938   2.950   4.370   4.889 -0.7478 -0.0104  0.3715
 3102SOL    HW120939   2.883   4.313   4.928  0.4050 -1.1524  0.6773
 3102SOL    HW220940   3.000   4.406   4.962 -1.2525  0.5917  0.4224
 3103SOL     OW20941   0.053   3.554   3.402 -0.5598 -0.3054  0.0624
 3103SOL    HW120942   0.118   3.503   3.450 -1.5738 -0.7869  0.9325
 3103SOL    HW220943   4.717   3.537   3.457  0.3873 -0.1080  1.4552
 3104SOL     OW20944   2.963   4.086   2.054  0.4706 -0.3117 -0.4379
 3104SOL    HW120945   2.949   4.011   2.113  2.7969  0.3214  0.9202
 3104SOL    HW220946   3.053   4.115   2.069  0.1632  0.0160  0.7806
 3105SOL     OW20947   4.292   2.959   3.693  0.2176  0.1362  0.5751
 3105SOL    HW120948   4.324   3.049   3.687 -1.7840  0.7923 -0.6345
 3105SOL    HW220949   4.215   2.953   3.635  1.2908 -1.1852 -0.7107
 3106SOL     OW20950   2.169   1.127   7.868 -0.0984  0.3068  0.5078
 3106SOL    HW120951   2.127   1.111   7.783  0.7326  0.4226  0.0707
 3106SOL    HW220952   2.248   1.173   7.839  0.7630 -0.5603  1.4897
 3107SOL     OW20953   4.516   2.591   2.717 -0.0621  0.0566  0.1210
 3107SOL    HW120954   4.521   2.539   2.798  1.0769 -0.4675 -0.2837
 3107SOL    HW220955   4.533   2.525   2.649  0.2716 -1.1908  1.4076
 3108SOL     OW20956   4.269   4.084  14.686 -0.9408  0.1617  0.3579
 3108SOL    HW120957   4.344   4.083  14.626  0.1848  0.2056  1.7512
 3108SOL    HW220958   4.259   4.173  14.717  2.0098  0.0221  1.7286
 3109SOL     OW20959   2.481   3.570   3.313  0.1131 -0.2248  0.4267
 3109SOL    HW120960   2.416   3.553   3.382 -1.1026 -0.0873 -0.6681
 3109SOL    HW220961   2.424   3.605   3.244  1.2433 -0.2949 -0.5428
 3110SOL     OW20962   3.050   2.324   4.422 -0.3146 -0.2488 -0.3899
 3110SOL    HW120963   3.013   2.398   4.470  1.1945 -0.0254  0.4449
 3110SOL    HW220964   3.107   2.286   4.489  0.9463  1.2872 -0.5900
 3111SOL     OW20965   0.830   0.118   7.440 -0.0237  0.2596  0.5221
 3111SOL    HW120966   0.871   0.108   7.526  0.7067  0.8214  0.2403
 3111SOL    HW220967   0.759   0.056   7.456 -0.7298  0.1571 -2.9218
 3112SOL     OW20968   3.169   1.631   8.902 -0.0472 -0.2990 -0.5806
 3112SOL    HW120969   3.157   1.549   8.949  0.0420 -0.7449 -1.3382
 3112SOL    HW220970   3.078   1.662   8.898 -0.4918 -1.5707 -0.3071
 3113SOL     OW20971   0.699   4.353   7.152  0.1768 -0.1466 -0.4605
 3113SOL    HW120972   0.625   4.346   7.211 -0.2138  0.7666 -0.8466
 3113SOL    HW220973   0.683   4.278   7.095  0.4133 -0.3558 -0.2533
 3114SOL     OW20974   4.644   0.588   5.014 -0.6451 -0.1432 -0.2056
 3114SOL    HW120975   4.714   0.651   4.997 -0.5806 -0.4816 -1.1405
 3114SOL    HW220976   4.703   0.514   5.032  1.0899  0.6666 -2.6388
 3115SOL     OW20977   1.048   0.913   1.828  0.1193 -0.2046 -0.1284
 3115SOL    HW120978   0.988   0.883   1.760  0.6603  0.3201 -0.8417
 3115SOL    HW220979   1.131   0.868   1.814 -0.6377 -0.6640 -3.1442
 3116SOL     OW20980   0.917   2.594   4.733 -0.3837  0.3448  0.2769
 3116SOL    HW120981   0.882   2.594   4.822 -1.4629 -1.2280 -0.1309
 3116SOL    HW220982   0.869   2.674   4.710  2.8426  2.1887  0.0250
 3117SOL     OW20983   0.667   4.511   9.148 -0.1017  0.1374  0.3325
 3117SOL    HW120984   0.617   4.576   9.197 -0.8684  1.4946 -2.2784
 3117SOL    HW220985   0.645   4.532   9.057  2.3534  2.1219  0.1936
 3118SOL     OW20986   2.468   4.607   8.747 -0.5522  0.4635 -0.2863
 3118SOL    HW120987   2.543   4.548   8.733  0.6738  2.2332 -1.1608
 3118SOL    HW220988   2.517   4.688   8.765 -1.7629  1.0295  0.4839
 3119SOL     OW20989   1.322   3.487   5.468  0.1003 -0.3714 -0.8138
 3119SOL    HW120990   1.233   3.513   5.495  0.7468  0.8006  0.1866
 3119SOL    HW220991   1.364   3.563   5.506 -1.3353 -0.2564  0.5535
 3120SOL     OW20992   2.497   3.489  17.739 -0.0065 -0.0188  0.6442
 3120SOL    HW120993   2.535   3.409  17.702 -2.0368  0.8819 -3.3819
 3120SOL    HW220994   2.561   3.509   0.046  1.3473 -0.5067 -0.4662
 3121SOL     OW20995   1.692   4.101   8.125  0.3709 -0.4823  0.2761
 3121SOL    HW120996   1.736   4.111   8.041 -0.3243  1.3749  0.1174
 3121SOL    HW220997   1.636   4.026   8.110 -3.2492  2.8479 -2.7203
 3122SOL     OW20998   2.464   2.135  12.889 -0.0106 -0.6748  0.2935
 3122SOL    HW120999   2.552   2.101  12.903  0.5481  0.3291 -0.6873
 3122SOL    HW221000   2.434   2.084  12.814  1.8202 -0.9838 -0.2093
 3123SOL     OW21001   4.514   1.839  11.278 -0.0252  0.0137 -0.2574
 3123SOL    HW121002   4.589   1.784  11.260 -1.1742 -1.4367 -0.5855
 3123SOL    HW221003   4.553   1.910  11.329 -0.6330  0.6191 -0.6310
 3124SOL     OW21004   3.485   4.498   3.228  0.3471  0.3006 -0.3450
 3124SOL    HW121005   3.461   4.589   3.246  1.5754  0.9352 -1.8994
 3124SOL    HW221006   3.445   4.457   3.304  1.7037 -1.7165 -0.7397
 3125SOL     OW21007   2.430   1.742   9.847 -0.0052  0.0919 -0.4069
 3125SOL    HW121008   2.413   1.814   9.906 -1.2627 -0.6896  0.1946
 3125SOL    HW221009   2.460   1.802   9.779  2.1494  0.1134  0.5776
 3126SOL     OW21010   2.638   1.116   1.375  0.5010  0.1241  0.0981
 3126SOL    HW121011   2.586   1.131   1.297  0.8521 -0.3270 -0.2179
 3126SOL    HW221012   2.727   1.129   1.343 -0.3485  2.9424 -1.1054
 3127SOL     OW21013   2.127   3.687  16.030  0.0565  0.1818 -0.3218
 3127SOL    HW121014   2.206   3.712  15.982  0.8498  1.5399  1.6805
 3127SOL    HW221015   2.083   3.625  15.971 -2.5072  3.6772 -2.1126
 3128SOL     OW21016   3.663   3.331   4.075  0.0306  0.2439  0.4481
 3128SOL    HW121017   3.733   3.326   4.141  1.3018  0.2053 -0.9017
 3128SOL    HW221018   3.585   3.326   4.130  0.1946  0.2294  0.6801
 3129SOL     OW21019   2.795   0.752   3.679 -0.1522 -0.1394  0.4327
 3129SOL    HW121020   2.721   0.763   3.619 -0.1461  1.3502  0.7094
 3129SOL    HW221021   2.841   0.835   3.688 -4.5144  2.1450  1.6767
 3130SOL     OW21022   2.734   0.961  17.582  0.0505  0.5124 -0.4036
 3130SOL    HW121023   2.741   0.870  17.553  0.0986 -0.3094  2.1374
 3130SOL    HW221024   2.640   0.967  17.565 -0.0184  0.8659  0.1228
 3131SOL     OW21025   2.996   2.465   9.132  0.1425  0.3875  0.2398
 3131SOL    HW121026   2.940   2.484   9.207  1.4870  1.8131  0.8835
 3131SOL    HW221027   3.066   2.409   9.166  0.5245  0.3325 -0.6339
 3132SOL     OW21028   0.793   0.288   3.910  0.0160  0.1653  0.0430
 3132SOL    HW121029   0.868   0.249   3.956  1.2334  2.2022 -0.2105
 3132SOL    HW221030   0.723   0.279   3.975  0.2137 -0.8399  0.1140
 3133SOL     OW21031   1.635   0.926   6.681 -0.1861  0.2148  0.4286
 3133SOL    HW121032   1.551   0.951   6.719 -0.4032  1.1981 -0.7063
 3133SOL    HW221033   1.610   0.835   6.666  0.4532 -0.1408  1.4853
 3134SOL     OW21034   2.079   4.078   2.683 -0.1381 -0.2058  0.6804
 3134SOL    HW121035   2.011   4.079   2.615  1.1690 -0.3264 -0.6325
 3134SOL    HW221036   2.133   4.150   2.650  0.6741 -1.1921 -0.1087
 3135SOL     OW21037   1.447   4.415   5.384  0.2205  0.1558  0.2453
 3135SOL    HW121038   1.466   4.322   5.399 -1.2700 -0.5333 -2.1862
 3135SOL    HW221039   1.434   4.421   5.290 -1.5739 -2.7248  0.2833
 3136SOL     OW21040   0.211   4.029   0.090 -0.2238  0.0955  0.2926
 3136SOL    HW121041   0.296   4.054   0.053 -1.2734  2.0624 -0.7720
 3136SOL    HW221042   0.243   3.947   0.129 -0.6793 -0.2139  0.0047
 3137SOL     OW21043   0.271   4.140  17.345  0.0885  0.2611  0.1981
 3137SOL    HW121044   0.244   4.191  17.269  1.0215  0.4531 -0.0132
 3137SOL    HW221045   0.182   4.129  17.378  1.1363 -2.0246  2.3321
 3138SOL     OW21046   0.384   4.528   3.731  0.0457 -0.4046  0.2081
 3138SOL    HW121047   0.334   4.488   3.660  1.5861 -0.8437 -0.6083
 3138SOL    HW221048   0.412   4.455   3.786  1.6017 -0.7910 -1.1194
 3139SOL     OW21049   1.045   1.779  11.701 -0.4040 -0.1012 -0.5429
 3139SOL    HW121050   1.013   1.751  11.787 -0.2150  1.0699 -0.0900
 3139SOL    HW221051   1.031   1.696  11.656  1.2041  0.4596 -2.0512
 3140SOL     OW21052   4.721   2.726   7.063 -0.4003 -0.6786 -0.2441
 3140SOL    HW121053   0.048   2.792   7.049 -0.1433 -0.9909 -0.4876
 3140SOL    HW221054   0.017   2.681   7.140 -1.2371  0.2548  0.7041
 3141SOL     OW21055   3.956   2.130   5.871 -0.2019  0.1149  0.0826
 3141SOL    HW121056   3.866   2.159   5.887 -0.0010 -0.6693  2.6172
 3141SOL    HW221057   4.004   2.208   5.899 -0.3709  0.4105 -0.4626
 3142SOL     OW21058   1.834   3.598   2.021 -0.4343  0.3299  0.0503
 3142SOL    HW121059   1.903   3.554   2.071 -0.2645 -0.7818 -1.1476
 3142SOL    HW221060   1.763   3.534   2.012 -0.2736 -0.2455  2.9151
 3143SOL     OW21061   1.696   0.528  15.042  0.2586 -0.0258 -0.6556
 3143SOL    HW121062   1.731   0.615  15.026  2.0801 -0.5011  0.7755
 3143SOL    HW221063   1.629   0.518  14.974 -0.8189  2.3274  0.0906
 3144SOL     OW21064   3.065   0.125   8.928 -1.0142 -0.0394  0.2573
 3144SOL    HW121065   3.111   0.178   8.993 -0.1833  0.6220 -0.8636
 3144SOL    HW221066   3.057   0.047   8.983  0.3755  0.4791  1.1893
 3145SOL     OW21067   2.746   1.902   9.985  0.0793 -0.1185  0.1098
 3145SOL    HW121068   2.753   1.878   9.893  1.2812  0.5762  0.0172
 3145SOL    HW221069   2.803   1.838  10.029 -0.5387 -1.5144 -1.0902
 3146SOL     OW21070   0.308   0.657  10.885  0.0383  0.2636 -0.2671
 3146SOL    HW121071   0.369   0.665  10.811  0.6688  0.2726  0.2609
 3146SOL    HW221072   0.259   0.576  10.871 -0.1073  0.0744  1.4310
 3147SOL     OW21073   4.248   4.181   8.190 -0.2603 -0.3616 -0.0624
 3147SOL    HW121074   4.282   4.134   8.266 -0.2169  0.8639  0.6725
 3147SOL    HW221075   4.228   4.264   8.233 -0.2904 -0.8539  0.8881
 3148SOL     OW21076   0.588   4.097   9.716 -0.0618 -0.2369  0.1083
 3148SOL    HW121077   0.649   4.169   9.703 -1.5928  0.8508 -1.1411
 3148SOL    HW221078   0.504   4.126   9.679  0.1681  1.0565  0.6270
 3149SOL     OW21079   0.579   0.941   1.304 -0.2978 -0.2622 -0.1328
 3149SOL    HW121080   0.658   0.926   1.356  1.0091 -0.6312 -2.2099
 3149SOL    HW221081   0.525   0.882   1.357  0.5927 -0.3206  0.7091
 3150SOL     OW21082   3.752   1.724   3.619 -0.0178 -0.1275 -0.4868
 3150SOL    HW121083   3.794   1.640   3.634  0.3391 -0.1909 -1.8294
 3150SOL    HW221084   3.786   1.779   3.690 -1.3102  0.1677 -0.0941
 3151SOL     OW21085   2.235   3.773   8.636 -0.1446  0.4439 -0.5901
 3151SOL    HW121086   2.140   3.777   8.623  0.1092 -1.3904 -3.1165
 3151SOL    HW221087   2.245   3.817   8.720  1.2256  1.9182 -1.5284
 3152SOL     OW21088   2.772   4.303  10.942  0.0041 -0.3781 -0.1549
 3152SOL    HW121089   2.865   4.291  10.959 -0.0348 -0.8020 -0.2554
 3152SOL    HW221090   2.767   4.240  10.870  0.7386  1.1407 -1.5504
 3153SOL     OW21091   0.837   2.315   5.311 -0.6702 -0.6850  0.2529
 3153SOL    HW121092   0.868   2.339   5.223  0.2734  1.8099  1.2622
 3153SOL    HW221093   0.899   2.250   5.343  0.4447 -0.1846 -0.9074
 3154SOL     OW21094   4.703   2.672   6.773  0.3531 -0.0219 -0.2022
 3154SOL    HW121095   0.052   2.685   6.805  0.5850 -2.6252  0.1877
 3154SOL    HW221096   4.659   2.636   6.850 -4.4097  0.2281 -2.7889
 3155SOL     OW21097   2.721   4.396   2.541  0.1201  0.0621 -0.3246
 3155SOL    HW121098   2.761   4.322   2.586 -1.1426  0.4758  1.5091
 3155SOL    HW221099   2.766   4.399   2.457  1.7657  0.6776  0.5653
 3156SOL     OW21100   1.452   1.471   9.555 -0.0829  0.1951  0.1945
 3156SOL    HW121101   1.472   1.534   9.624  0.3943 -2.3856  2.3701
 3156SOL    HW221102   1.515   1.508   9.493  1.8498 -2.0007  0.8835
 3157SOL     OW21103   4.475   4.312   0.616 -0.4541 -0.0699  0.2950
 3157SOL    HW121104   4.538   4.272   0.676  0.0753  1.1032  0.5139
 3157SOL    HW221105   4.513   4.397   0.596  1.9065 -1.3563 -0.7022
 3158SOL     OW21106   2.897   2.966  10.461 -0.0746  0.1821  0.0756
 3158SOL    HW121107   2.965   3.032  10.472  1.5903 -1.3098 -1.2667
 3158SOL    HW221108   2.937   2.915  10.391 -1.4525 -0.1329 -0.4951
 3159SOL     OW21109   0.661   0.082   6.864  0.1259 -0.0628 -0.5531
 3159SOL    HW121110   0.627   0.048   6.782 -0.0489 -2.8205  0.6521
 3159SOL    HW221111   0.683   4.738   6.902  1.1261  0.5192  0.1629
 3160SOL     OW21112   1.407   0.669   3.718  0.0057  0.6471  0.9308
 3160SOL    HW121113   1.334   0.608   3.730  0.8802 -0.9412 -1.8237
 3160SOL    HW221114   1.376   0.749   3.676  0.1974 -0.0756 -0.5675
 3161SOL     OW21115   0.201   0.823  13.094 -0.2148 -0.1938 -0.4862
 3161SOL    HW121116   0.198   0.753  13.160 -1.4384 -0.4341 -0.7908
 3161SOL    HW221117   0.232   0.774  13.018 -1.4346  0.3882 -1.3582
 3162SOL     OW21118   2.405   0.701   4.223 -0.1213  0.6784 -0.1432
 3162SOL    HW121119   2.361   0.671   4.302  0.1325  1.7733  0.4160
 3162SOL    HW221120   2.339   0.691   4.154 -1.2133  1.5317  0.7823
 3163SOL     OW21121   4.669   0.685   3.482 -0.2317  0.0641 -0.4306
 3163SOL    HW121122   4.695   0.655   3.569  1.0583 -0.5442 -1.0282
 3163SOL    HW221123   0.008   0.656   3.440  1.0552  2.8449  0.1011
 3164SOL     OW21124   4.042   4.413   6.798  0.0834  0.0976 -0.2102
 3164SOL    HW121125   4.007   4.326   6.779 -0.0767  0.0184  0.4243
 3164SOL    HW221126   4.022   4.415   6.892  2.3653 -1.9400  0.3322
 3165SOL     OW21127   1.333   1.532  11.997 -0.3713  0.2375  0.1647
 3165SOL    HW121128   1.340   1.481  12.078  1.3803 -1.3275 -0.9757
 3165SOL    HW221129   1.419   1.570  11.983 -1.5648  2.5570 -0.8487
 3166SOL     OW21130   3.118   1.304   3.517  0.4206  0.0497  0.0149
 3166SOL    HW121131   3.119   1.275   3.608  2.4153 -0.1631 -0.0760
 3166SOL    HW221132   3.168   1.230   3.480 -0.6304  0.9723 -3.2762
 3167SOL     OW21133   4.642   3.492   4.094 -0.5998  0.2174  0.2559
 3167SOL    HW121134   4.680   3.508   4.008  0.1911 -1.5778  0.2706
 3167SOL    HW221135   4.571   3.555   4.102  1.6419  2.6173  1.3217
 3168SOL     OW21136   2.999   3.538   8.009 -0.5203  0.0476  0.5807
 3168SOL    HW121137   3.025   3.527   8.100  1.1092  0.3330  0.1365
 3168SOL    HW221138   3.030   3.627   7.994 -0.5245  0.3719  2.4848
 3169SOL     OW21139   1.480   2.108   6.787 -0.1696  0.5509  0.1858
 3169SOL    HW121140   1.425   2.150   6.853 -0.6377  0.1410  0.0466
 3169SOL    HW221141   1.531   2.048   6.841 -1.4691 -0.9601 -0.3037
 3170SOL     OW21142   1.730   4.685   3.375  0.1309  0.1246  0.1131
 3170SOL    HW121143   1.682   4.716   3.298 -0.7471  0.3722  0.7509
 3170SOL    HW221144   1.752   4.595   3.352 -3.3947 -0.0964 -2.4246
 3171SOL     OW21145   3.830   3.132   8.352 -0.3092  0.2613 -0.2257
 3171SOL    HW121146   3.921   3.110   8.330 -0.8700 -1.4154 -0.8543
 3171SOL    HW221147   3.798   3.172   8.272 -2.2664 -0.1954  0.3472
 3172SOL     OW21148   4.037   2.935   7.662  0.2048  0.4066  0.3466
 3172SOL    HW121149   4.007   3.012   7.613  2.1534  1.8193  1.3612
 3172SOL    HW221150   4.133   2.937   7.655  0.2281 -1.4596  0.1564
 3173SOL     OW21151   2.296   1.556   1.592  0.5096  0.0964  0.1290
 3173SOL    HW121152   2.310   1.641   1.549  0.6547 -0.3067 -0.6278
 3173SOL    HW221153   2.390   1.549   1.609  0.6750 -0.3613 -0.9459
 3174SOL     OW21154   0.420   1.330   2.768  0.6574  0.1807 -0.5696
 3174SOL    HW121155   0.471   1.363   2.842 -1.3463  0.4291  0.7166
 3174SOL    HW221156   0.482   1.348   2.697  0.9846  0.8697 -0.1103
 3175SOL     OW21157   2.331   3.814  17.568 -0.6939 -0.6158 -0.1320
 3175SOL    HW121158   2.238   3.793  17.572 -0.8350 -0.0033 -0.2303
 3175SOL    HW221159   2.321   3.906  17.542  1.2668 -0.6268 -0.9874
 3176SOL     OW21160   0.537   1.405   4.971  0.4339 -0.0441  0.1044
 3176SOL    HW121161   0.608   1.445   5.021  1.0036 -0.2793 -0.5088
 3176SOL    HW221162   0.572   1.385   4.884 -2.0064 -0.1163 -0.8578
 3177SOL     OW21163   1.801   0.013   2.000 -0.4973  0.3512  0.1770
 3177SOL    HW121164   1.840   0.047   1.920 -3.6688  1.0998 -1.0536
 3177SOL    HW221165   1.843   0.066   2.067 -0.1235  0.5121 -0.1858
 3178SOL     OW21166   3.464   0.480  13.792 -0.3455 -0.2903  0.2968
 3178SOL    HW121167   3.481   0.477  13.886  0.2984  0.8948  0.2103
 3178SOL    HW221168   3.417   0.564  13.785  1.1254  0.4247 -0.9081
 3179SOL     OW21169   3.923   3.017   4.189  0.4643  0.2195  0.0748
 3179SOL    HW121170   3.942   2.935   4.143 -0.0879  0.3823 -0.4490
 3179SOL    HW221171   3.900   3.072   4.114 -1.6988  0.3848  0.8553
 3180SOL     OW21172   3.487   2.200  11.716 -0.5242 -0.2106  0.1589
 3180SOL    HW121173   3.532   2.270  11.765 -2.3904 -0.9860  2.9573
 3180SOL    HW221174   3.519   2.133  11.777 -0.1797 -1.3258 -1.2587
 3181SOL     OW21175   2.907   1.904  13.794  0.3778 -0.3871  0.0133
 3181SOL    HW121176   2.831   1.903  13.736  0.1868 -1.8702  0.3045
 3181SOL    HW221177   2.870   1.897  13.882 -0.7380  1.0063 -0.3448
 3182SOL     OW21178   2.686   2.934  14.665 -0.2224 -0.0067  0.2444
 3182SOL    HW121179   2.735   2.854  14.648  0.1330  0.3292 -0.3209
 3182SOL    HW221180   2.746   2.990  14.615  0.3781 -0.2227  0.7349
 3183SOL     OW21181   1.142   3.517   4.976  0.3741  0.0666  0.1627
 3183SOL    HW121182   1.186   3.462   5.040 -1.2748  0.2065  1.3956
 3183SOL    HW221183   1.065   3.547   5.025 -0.1527  1.6784 -1.6300
 3184SOL     OW21184   1.276   2.036  10.103  0.0302  0.4310 -0.1954
 3184SOL    HW121185   1.274   2.024  10.008 -0.9428  0.8090 -0.2173
 3184SOL    HW221186   1.221   2.114  10.097  0.5219  0.7392 -0.7068
 3185SOL     OW21187   1.647   3.185   8.566  0.4386 -0.1207  0.5974
 3185SOL    HW121188   1.735   3.202   8.534  0.0498  0.7923  0.0275
 3185SOL    HW221189   1.596   3.213   8.490 -0.4310 -3.3103 -0.0128
 3186SOL     OW21190   3.386   4.453   4.909 -0.0208 -0.3377  0.5032
 3186SOL    HW121191   3.412   4.458   5.001  0.3888  1.2855  0.2939
 3186SOL    HW221192   3.321   4.523   4.907  0.6984  0.3137  0.0895
 3187SOL     OW21193   1.837   1.112   8.917 -0.0711  0.3987 -0.0421
 3187SOL    HW121194   1.797   1.030   8.891  0.5703 -0.0914  0.5296
 3187SOL    HW221195   1.755   1.156   8.941 -0.5927 -0.9086  0.5517
 3188SOL     OW21196   4.491   1.526   2.579 -0.1222  0.3855  0.0322
 3188SOL    HW121197   4.479   1.615   2.613  0.2622 -0.6108  2.8373
 3188SOL    HW221198   4.461   1.463   2.644  0.5436  0.0832  0.0425
 3189SOL     OW21199   0.947   1.349   2.097 -0.1947 -0.4592 -0.6234
 3189SOL    HW121200   1.013   1.385   2.156 -2.7877  2.0643  0.7775
 3189SOL    HW221201   0.977   1.259   2.083  2.0346  0.3126 -0.7198
 3190SOL     OW21202   1.205   0.371   1.416  0.2986  0.0408 -0.2746
 3190SOL    HW121203   1.166   0.369   1.504  0.4262  1.6031 -0.1640
 3190SOL    HW221204   1.131   0.375   1.357 -0.3468  1.1072  0.5976
 3191SOL     OW21205   4.074   3.594   5.703  0.0989 -0.4103 -0.2380
 3191SOL    HW121206   4.159   3.557   5.728  0.7259  0.3240 -1.2772
 3191SOL    HW221207   4.068   3.667   5.765 -0.4766 -0.1415 -0.6076
 3192SOL     OW21208   3.596   3.735   5.428 -0.3394 -0.0287 -0.3589
 3192SOL    HW121209   3.558   3.781   5.352  0.5188  2.6053  0.7876
 3192SOL    HW221210   3.524   3.681   5.460  0.8591 -1.1442  0.4045
 3193SOL     OW21211   1.331   4.262  13.549  0.2968 -0.6359  0.0611
 3193SOL    HW121212   1.350   4.298  13.636 -0.0555 -1.7418  0.5917
 3193SOL    HW221213   1.372   4.177  13.538 -1.1215 -1.1552 -1.2327
 3194SOL     OW21214   4.526   4.234   9.377 -0.2080  0.0857  0.5874
 3194SOL    HW121215   4.478   4.218   9.295  1.2994 -2.9041  0.2640
 3194SOL    HW221216   4.562   4.145   9.380  1.0492  0.5725 -0.1467
 3195SOL     OW21217   3.667   0.363   4.447  0.0570 -0.1612  0.0536
 3195SOL    HW121218   3.604   0.308   4.403  1.2557 -0.6990 -0.9894
 3195SOL    HW221219   3.616   0.444   4.455 -0.1838 -0.3937  0.8389
 3196SOL     OW21220   4.529   3.620   5.469  0.4588  0.2373 -0.3705
 3196SOL    HW121221   4.480   3.700   5.453  0.6585  0.3061 -0.6479
 3196SOL    HW221222   4.549   3.581   5.383  0.7003 -1.3080  0.3848
 3197SOL     OW21223   2.051   2.105   8.859 -0.4396  0.0734 -1.0048
 3197SOL    HW121224   2.043   2.153   8.941 -0.6153  0.3506 -1.1849
 3197SOL    HW221225   2.142   2.114   8.831 -0.1550 -0.6597 -0.3218
 3198SOL     OW21226   1.287   1.258   9.434 -0.7911 -0.2462 -0.5813
 3198SOL    HW121227   1.226   1.325   9.402  0.7460 -0.0248 -3.0123
 3198SOL    HW221228   1.326   1.302   9.510 -1.5837  0.7672 -0.7561
 3199SOL     OW21229   1.869   3.006  13.049  0.1253 -0.0836 -0.0839
 3199SOL    HW121230   1.904   2.917  13.046  2.5911  0.8648  1.3525
 3199SOL    HW221231   1.915   3.050  12.977  0.0257 -0.8073 -0.5972
 3200SOL     OW21232   1.031   3.617   6.715 -0.6431 -0.0271 -0.1950
 3200SOL    HW121233   1.039   3.650   6.625  1.3181  1.1559  0.4098
 3200SOL    HW221234   1.025   3.524   6.694  0.7574 -0.2562  0.4149
 3201SOL     OW21235   0.498   2.095   5.498 -0.7185  0.4592  0.1208
 3201SOL    HW121236   0.421   2.146   5.523  0.0102  1.5106  0.2428
 3201SOL    HW221237   0.472   2.006   5.475 -0.3676  0.4978 -0.4172
 3202SOL     OW21238   3.516   0.165   6.147  0.0281 -0.3548 -0.1339
 3202SOL    HW121239   3.537   0.117   6.227 -2.2251  1.0625  1.3077
 3202SOL    HW221240   3.569   0.244   6.152 -1.0577  0.2721  1.4786
 3203SOL     OW21241   4.115   0.754   3.112  0.3574 -0.1404  0.5665
 3203SOL    HW121242   4.070   0.716   3.037 -0.5577  0.2528  0.9111
 3203SOL    HW221243   4.116   0.848   3.091  1.0713 -0.7005 -1.9235
 3204SOL     OW21244   3.148   1.805   2.180 -0.1250  0.2728 -0.0516
 3204SOL    HW121245   3.166   1.805   2.274 -3.4265  0.7804  0.5920
 3204SOL    HW221246   3.229   1.774   2.139  0.2017 -1.3906  1.8436
 3205SOL     OW21247   2.242   4.313  15.452 -0.0072  0.7191  0.9224
 3205SOL    HW121248   2.201   4.255  15.387 -1.3336  1.1479  1.3685
 3205SOL    HW221249   2.265   4.254  15.524  0.7534  0.8636  0.7959
 3206SOL     OW21250   0.141   0.743   1.831 -0.0361  0.7019  0.3765
 3206SOL    HW121251   0.118   0.668   1.775  2.7467  0.7326 -0.8212
 3206SOL    HW221252   0.235   0.758   1.818 -0.3363  1.2569 -1.1646
 3207SOL     OW21253   3.767   1.561  17.418 -0.0812 -0.4016 -0.4630
 3207SOL    HW121254   3.852   1.519  17.431  0.7986  1.6471  0.3364
 3207SOL    HW221255   3.787   1.655  17.414  1.0669 -0.5638  1.1062
 3208SOL     OW21256   3.184   0.733   6.698 -0.1710  0.2615  0.0134
 3208SOL    HW121257   3.099   0.735   6.743 -0.8557  1.5779 -1.3072
 3208SOL    HW221258   3.194   0.828   6.688 -1.0428  0.1469 -1.9120
 3209SOL     OW21259   1.568   4.329   3.890 -0.1512  0.3967  0.7671
 3209SOL    HW121260   1.543   4.366   3.806  1.1756 -2.1800 -0.7760
 3209SOL    HW221261   1.582   4.237   3.867 -0.8994  0.9843 -2.0744
 3210SOL     OW21262   2.311   2.544  10.428 -0.2418  0.1496  0.2749
 3210SOL    HW121263   2.224   2.527  10.465 -0.4694  1.2228  0.2168
 3210SOL    HW221264   2.289   2.513  10.340 -0.8634  0.8456  0.1840
 3211SOL     OW21265   1.123   2.736   8.493  0.5225 -0.0023  0.3949
 3211SOL    HW121266   1.102   2.686   8.571 -4.1159  0.9208 -0.2474
 3211SOL    HW221267   1.093   2.824   8.517  2.0497  1.0841 -1.6923
 3212SOL     OW21268   4.388   4.047   8.388 -0.3526  0.0127 -0.3880
 3212SOL    HW121269   4.380   3.976   8.452 -0.8274 -0.0985 -0.5650
 3212SOL    HW221270   4.472   4.088   8.407 -0.2914 -0.1300 -0.3474
 3213SOL     OW21271   2.523   1.489   5.129 -0.3815  0.1211  0.2801
 3213SOL    HW121272   2.470   1.482   5.209 -0.0703  0.0091  0.4783
 3213SOL    HW221273   2.602   1.450   5.165  0.0242  0.2833 -0.4430
 3214SOL     OW21274   2.698   1.893   2.243  0.0309  0.4761 -0.3254
 3214SOL    HW121275   2.770   1.892   2.181  1.7285  0.5206  1.6421
 3214SOL    HW221276   2.684   1.807   2.281  3.0184  0.0382 -0.2153
 3215SOL     OW21277   1.604   1.521   3.931 -0.1285  0.0943  0.1660
 3215SOL    HW121278   1.624   1.603   3.884 -2.6968 -0.0798 -1.2504
 3215SOL    HW221279   1.692   1.511   3.967  0.5374 -0.7394 -1.6883
 3216SOL     OW21280   2.670   1.559  11.682  0.2070 -0.2052 -0.4459
 3216SOL    HW121281   2.643   1.569  11.591  1.1237 -0.3109 -0.7281
 3216SOL    HW221282   2.617   1.481  11.702  0.1284 -0.3103 -1.0575
 3217SOL     OW21283   3.009   0.223   0.136 -0.3158  0.0968 -0.1049
 3217SOL    HW121284   3.023   0.280   0.061  0.3504  2.4764  1.8279
 3217SOL    HW221285   3.013   0.132   0.106 -0.0565  0.3264 -0.7595
 3218SOL     OW21286   4.259   2.598   2.455  0.1564 -0.9654 -0.3836
 3218SOL    HW121287   4.296   2.563   2.537 -1.3041  0.1160  0.7494
 3218SOL    HW221288   4.164   2.595   2.468  0.2052  0.8679  0.3365
 3219SOL     OW21289   1.150   4.445   9.500 -0.1151  0.4193 -0.0888
 3219SOL    HW121290   1.064   4.486   9.504 -0.3026  0.0995 -0.8137
 3219SOL    HW221291   1.124   4.355   9.523  0.3647  0.1804 -0.4889
 3220SOL     OW21292   0.981   3.718  13.773 -0.3230  0.1876 -0.5473
 3220SOL    HW121293   1.021   3.736  13.858 -1.8150  1.2121 -0.0541
 3220SOL    HW221294   0.949   3.629  13.788  0.9619 -0.4090 -1.3668
 3221SOL     OW21295   0.131   2.482   8.215  0.2225  0.2086  0.0262
 3221SOL    HW121296   0.223   2.511   8.210  0.2594  0.2091  0.7311
 3221SOL    HW221297   0.109   2.502   8.306  1.9121  0.7101  0.3385
 3222SOL     OW21298   0.749   4.052   9.349 -0.2973  0.5680  0.0548
 3222SOL    HW121299   0.735   3.998   9.427 -1.5052  0.9002  0.0701
 3222SOL    HW221300   0.801   3.991   9.297 -2.4642 -0.9725 -0.2829
 3223SOL     OW21301   3.053   1.176  14.467  0.5210 -0.1595 -0.6223
 3223SOL    HW121302   3.017   1.098  14.510  0.9017  0.6647  1.1777
 3223SOL    HW221303   3.124   1.135  14.418  0.2677 -0.9033 -0.3710
 3224SOL     OW21304   4.063   3.746   7.619  0.0543 -0.1280  0.1848
 3224SOL    HW121305   4.045   3.714   7.707  0.0897 -1.8022 -0.4179
 3224SOL    HW221306   4.017   3.676   7.572 -0.6941  1.2125 -1.1090
 3225SOL     OW21307   3.126   3.466   7.752 -0.7893  0.8650  0.2574
 3225SOL    HW121308   3.064   3.465   7.680 -0.1224  0.4690 -0.3204
 3225SOL    HW221309   3.074   3.454   7.831 -0.5982  1.4254  0.4732
 3226SOL     OW21310   4.044   2.700   3.336  0.2717  0.3665  0.1760
 3226SOL    HW121311   4.001   2.770   3.286 -0.6577 -1.4050 -1.5233
 3226SOL    HW221312   4.021   2.622   3.284 -0.3093  1.3423 -1.0423
 3227SOL     OW21313   3.401   0.578   5.275  0.8329 -0.0352  0.0295
 3227SOL    HW121314   3.486   0.557   5.236  0.2300  1.1857 -1.9830
 3227SOL    HW221315   3.427   0.605   5.363 -0.1672 -0.8503  0.5710
 3228SOL     OW21316   0.575   1.561   1.735 -0.3386  0.3855 -0.0181
 3228SOL    HW121317   0.541   1.487   1.685 -0.4247 -1.2548  2.4461
 3228SOL    HW221318   0.644   1.519   1.787 -0.0771  2.7614  1.5518
 3229SOL     OW21319   2.378   1.839  11.193 -0.0533  0.0199 -0.7549
 3229SOL    HW121320   2.313   1.909  11.189  0.9995  1.0856  0.9159
 3229SOL    HW221321   2.425   1.848  11.110 -1.4507 -2.3729 -1.8212
 3230SOL     OW21322   3.906   3.051  15.844 -0.4613 -0.4172  0.4533
 3230SOL    HW121323   3.873   3.140  15.858 -0.6652 -0.8238  2.5281
 3230SOL    HW221324   3.842   3.015  15.782  0.4533 -1.6282  0.2169
 3231SOL     OW21325   4.385   1.930  12.502 -0.7120  0.8463 -0.4100
 3231SOL    HW121326   4.476   1.947  12.476 -0.6202  1.8904  0.5936
 3231SOL    HW221327   4.388   1.837  12.524  0.1043  0.6185 -1.4750
 3232SOL     OW21328   4.169   2.531  13.566  0.5182 -0.0432 -0.3677
 3232SOL    HW121329   4.100   2.523  13.500 -0.7321  0.3969  0.8851
 3232SOL    HW221330   4.119   2.538  13.648  1.4192 -0.9689  0.2514
 3233SOL     OW21331   4.674   3.959   3.601 -0.6991  0.2107 -0.0767
 3233SOL    HW121332   4.621   3.996   3.530 -1.7356 -1.8270 -0.3604
 3233SOL    HW221333   4.623   3.881   3.620  1.3867 -1.0434  0.2749
 3234SOL     OW21334   3.474   3.724   1.158 -0.2206  0.5299 -0.5082
 3234SOL    HW121335   3.488   3.668   1.235 -0.5782  1.2235  0.0560
 3234SOL    HW221336   3.555   3.774   1.152  0.4784 -0.6882 -1.3239
 3235SOL     OW21337   0.805   3.274  15.668  0.1966 -0.5214  0.1712
 3235SOL    HW121338   0.761   3.350  15.706  2.7857  0.1279  1.8995
 3235SOL    HW221339   0.726   3.224  15.651 -0.5353  0.2891  1.1560
 3236SOL     OW21340   4.056   0.747  11.447  0.4209  0.2409  0.0222
 3236SOL    HW121341   4.008   0.721  11.369  0.7899  1.2937 -0.5531
 3236SOL    HW221342   4.145   0.753  11.410  0.4118 -1.2733 -0.2411
 3237SOL     OW21343   4.340   3.866   6.925  0.1015  0.0984 -0.4084
 3237SOL    HW121344   4.391   3.827   6.854 -0.1535  0.5054 -0.8142
 3237SOL    HW221345   4.300   3.942   6.883  2.2531  1.7295  0.5141
 3238SOL     OW21346   3.960   2.849  11.426  0.3541  0.5484 -0.2507
 3238SOL    HW121347   4.019   2.779  11.401  0.6643  0.4121  0.8621
 3238SOL    HW221348   4.022   2.906  11.471 -0.7023  0.7877  0.9075
 3239SOL     OW21349   0.054   0.518  11.316 -0.2999 -0.0954 -0.3341
 3239SOL    HW121350   4.731   0.480  11.376  0.9590 -1.6588  0.0199
 3239SOL    HW221351   0.005   0.541  11.237  3.0007  3.2523 -1.3819
 3240SOL     OW21352   3.160   0.393  17.640  0.1868  0.0232 -0.1351
 3240SOL    HW121353   3.231   0.427  17.694  1.5366 -1.5323 -0.9429
 3240SOL    HW221354   3.204   0.309  17.634 -0.3513 -0.1814 -1.2966
 3241SOL     OW21355   4.251   3.419  12.305  0.2348 -0.0805 -0.1055
 3241SOL    HW121356   4.263   3.440  12.397  0.4635 -0.7832  0.0235
 3241SOL    HW221357   4.250   3.324  12.316 -0.8433 -0.0965 -0.3285
 3242SOL     OW21358   1.255   1.151  11.804  0.2339  0.0204  0.5436
 3242SOL    HW121359   1.243   1.063  11.767 -2.1675 -0.4138  2.3464
 3242SOL    HW221360   1.309   1.135  11.881  1.6917 -0.4583 -0.5766
 3243SOL     OW21361   3.932   0.448  13.363 -0.4069 -0.1397  0.6411
 3243SOL    HW121362   3.933   0.542  13.350 -1.5370 -0.5872 -2.5362
 3243SOL    HW221363   3.942   0.451  13.459  0.9126 -0.0239  0.5046
 3244SOL     OW21364   4.533   3.692  16.831 -0.5398  0.2150  0.1568
 3244SOL    HW121365   4.483   3.773  16.819  0.7660  0.7775 -1.6095
 3244SOL    HW221366   4.619   3.698  16.788  0.4959 -3.1017  1.7633
 3245SOL     OW21367   2.146   2.750   4.912 -0.0932 -0.0198  0.0833
 3245SOL    HW121368   2.207   2.823   4.902 -1.5405  1.2090  0.1652
 3245SOL    HW221369   2.127   2.742   5.005 -1.3064  0.3396 -0.1344
 3246SOL     OW21370   1.931   2.265   5.547  0.5239 -0.5849 -0.3233
 3246SOL    HW121371   1.912   2.207   5.474 -2.8255  0.4691 -0.2823
 3246SOL    HW221372   1.881   2.218   5.614  1.6238 -1.2388  0.0447
 3247SOL     OW21373   4.678   2.186   1.957  0.2946  0.3914 -0.3373
 3247SOL    HW121374   4.674   2.224   1.869 -0.8087  0.2170 -0.3570
 3247SOL    HW221375   4.607   2.233   2.001  1.4365  1.2000  0.6316
 3248SOL     OW21376   4.061   3.497   1.925 -0.1882  0.1514  0.0710
 3248SOL    HW121377   4.066   3.579   1.974  1.9245  1.3383 -2.1454
 3248SOL    HW221378   4.153   3.472   1.935 -0.9682 -3.0189 -0.7198
 3249SOL     OW21379   4.090   2.078   4.083  0.6630  0.1161  0.6800
 3249SOL    HW121380   4.090   2.001   4.026 -0.4411  1.9926 -1.8772
 3249SOL    HW221381   4.112   2.054   4.173 -0.3409  0.2573  0.9708
 3250SOL     OW21382   0.010   1.324   7.338 -0.1907 -0.1706 -0.1593
 3250SOL    HW121383   0.081   1.275   7.380 -0.1493  0.2955  0.3323
 3250SOL    HW221384   4.727   1.272   7.262 -1.0326  1.8781 -1.3160
 3251SOL     OW21385   1.614   0.681   7.426  0.0868  0.0929  0.1903
 3251SOL    HW121386   1.557   0.645   7.358  0.6715  0.4656 -0.4928
 3251SOL    HW221387   1.652   0.600   7.461  0.5607  0.9207  1.5616
 3252SOL     OW21388   0.671   1.986   6.154  0.0317  0.0945 -0.3286
 3252SOL    HW121389   0.749   1.980   6.098 -1.0165 -0.8235 -1.6743
 3252SOL    HW221390   0.608   1.964   6.085  0.4306  2.9381 -1.6320
 3253SOL     OW21391   0.034   1.702   5.269 -0.4112  0.0895  0.0710
 3253SOL    HW121392   0.020   1.724   5.361 -1.5429 -1.2581  0.2258
 3253SOL    HW221393   0.047   1.792   5.238 -1.4020 -0.5264 -2.1650
 3254SOL     OW21394   3.823   4.666   5.038  0.0223  0.1323  0.1188
 3254SOL    HW121395   3.902   4.718   5.055 -0.6556  0.9282  0.8886
 3254SOL    HW221396   3.758   4.703   5.099  2.0618  0.7786  1.9126
 3255SOL     OW21397   1.973   0.397   1.391 -0.2865 -0.0412 -0.2181
 3255SOL    HW121398   1.884   0.430   1.391 -0.7064 -1.1936  1.0538
 3255SOL    HW221399   2.028   0.453   1.336 -0.7578  0.6469  0.0100
 3256SOL     OW21400   0.106   1.676  14.093  0.3341  0.1059 -0.2541
 3256SOL    HW121401   0.024   1.645  14.131  0.6079 -0.1271  0.1452
 3256SOL    HW221402   0.169   1.636  14.153  1.2174 -0.9686 -1.8646
 3257SOL     OW21403   4.046   0.730   1.083 -0.2007  0.5014  0.2847
 3257SOL    HW121404   3.994   0.809   1.069  0.1230  0.6636  0.0165
 3257SOL    HW221405   4.027   0.681   1.004 -0.4029  0.3039  0.4542
 3258SOL     OW21406   1.671   1.905   7.800  0.0163  0.6133  0.4164
 3258SOL    HW121407   1.680   1.964   7.875  1.1472  0.9190  0.0395
 3258SOL    HW221408   1.578   1.901   7.779 -0.1799  1.3215  1.1414
 3259SOL     OW21409   2.511   1.623   6.989 -0.7338 -0.5638 -0.5549
 3259SOL    HW121410   2.581   1.586   7.042 -2.9886 -2.5309  1.0379
 3259SOL    HW221411   2.512   1.716   7.011 -2.5567 -0.9274  1.0010
 3260SOL     OW21412   4.085   2.463  16.294 -0.7405  0.0743 -0.0938
 3260SOL    HW121413   3.992   2.485  16.305 -0.7123 -0.1086  0.4896
 3260SOL    HW221414   4.092   2.370  16.313 -1.8104 -0.0357 -0.2408
 3261SOL     OW21415   2.010   0.121   2.179 -0.5357  0.5367 -0.0182
 3261SOL    HW121416   2.076   0.063   2.141  0.4597  1.0367  0.9621
 3261SOL    HW221417   2.038   0.202   2.137  0.3478 -0.0462 -0.5749
 3262SOL     OW21418   2.137   4.267   0.587  0.0501 -0.6074  0.0550
 3262SOL    HW121419   2.190   4.286   0.510 -1.5174  3.2148 -0.0690
 3262SOL    HW221420   2.122   4.356   0.617 -2.4246 -0.1500 -2.5560
 3263SOL     OW21421   0.059   0.803   8.080  0.4994  0.0183  0.3404
 3263SOL    HW121422   0.028   0.720   8.116 -5.0746  2.5824  1.4586
 3263SOL    HW221423   0.119   0.793   8.006  1.7747 -1.1641  1.5403
 3264SOL     OW21424   2.164   3.198   6.598  0.1526  0.4382 -0.1380
 3264SOL    HW121425   2.214   3.171   6.675  1.5332 -0.7925 -1.4711
 3264SOL    HW221426   2.215   3.278   6.580  1.0864 -0.4058 -1.2741
 3265SOL     OW21427   2.042   3.807   2.730  0.3367 -0.3316  0.0109
 3265SOL    HW121428   2.047   3.740   2.662  0.5717  0.0319 -0.3261
 3265SOL    HW221429   2.072   3.888   2.690  1.5786 -0.3561  0.8994
 3266SOL     OW21430   1.103   3.168   1.520 -0.0382  0.3856 -0.5233
 3266SOL    HW121431   1.075   3.138   1.606  0.8504  0.0940 -0.3337
 3266SOL    HW221432   1.156   3.245   1.537  1.2629 -0.1228 -2.2855
 3267SOL     OW21433   0.399   2.392   4.102  0.1912 -0.1428 -0.7953
 3267SOL    HW121434   0.365   2.475   4.068  0.6630  1.5029  2.7204
 3267SOL    HW221435   0.407   2.337   4.024  0.2837 -0.3518 -0.6374
 3268SOL     OW21436   0.732   0.498   6.632  0.0723  0.0458  0.1366
 3268SOL    HW121437   0.783   0.423   6.661  1.5357  0.9348 -0.1687
 3268SOL    HW221438   0.696   0.462   6.552 -1.3451  2.5158 -0.3602
 3269SOL     OW21439   0.352   3.114  15.147  0.2465  0.5828 -0.0141
 3269SOL    HW121440   0.382   3.043  15.092 -0.3814  0.2825  0.0255
 3269SOL    HW221441   0.296   3.160  15.085 -1.6173 -0.7946  0.6387
 3270SOL     OW21442   3.209   3.230  16.099  0.2123  0.2785  0.1710
 3270SOL    HW121443   3.158   3.306  16.128  0.2596 -0.7702  2.9420
 3270SOL    HW221444   3.193   3.243  16.006 -0.6584 -0.3710  0.2359
 3271SOL     OW21445   0.723   3.280  16.766 -0.0517 -0.3485  0.1207
 3271SOL    HW121446   0.818   3.272  16.768  0.0335  0.6983  0.2943
 3271SOL    HW221447   0.704   3.353  16.825  1.5827  0.6667 -0.5971
 3272SOL     OW21448   4.257   2.213   6.769  0.0256 -0.1356  0.1670
 3272SOL    HW121449   4.350   2.231   6.758 -0.5747  1.4406 -2.1950
 3272SOL    HW221450   4.218   2.297   6.745  1.4687 -0.6241 -3.8335
 3273SOL     OW21451   0.915   0.006   9.273 -0.8723  0.6662 -0.4072
 3273SOL    HW121452   0.953   0.019   9.186 -0.9139  0.9565 -0.3798
 3273SOL    HW221453   0.920   0.095   9.307  0.3553  0.5217 -0.1970
 3274SOL     OW21454   2.474   2.370   6.541 -0.1135 -0.5819  0.5779
 3274SOL    HW121455   2.482   2.463   6.562  0.0490 -0.4995  0.1456
 3274SOL    HW221456   2.546   2.369   6.478  0.6808 -0.7592  1.4790
 3275SOL     OW21457   4.236   0.388   3.182 -0.3100  0.2231 -0.4061
 3275SOL    HW121458   4.144   0.412   3.192  0.2835  1.3801  2.2483
 3275SOL    HW221459   4.264   0.462   3.129 -1.8681  0.7499 -0.4873
 3276SOL     OW21460   1.497   1.559   6.614  0.5235 -0.1698 -0.1587
 3276SOL    HW121461   1.566   1.495   6.596  1.4150  1.2075 -1.5495
 3276SOL    HW221462   1.493   1.605   6.531 -1.4457  1.6183  0.9075
 3277SOL     OW21463   4.448   3.188  15.660 -0.0577  0.2885 -0.6199
 3277SOL    HW121464   4.468   3.099  15.689 -0.4193  1.5816  3.5730
 3277SOL    HW221465   4.355   3.200  15.679 -0.3961 -1.6070 -1.0902
 3278SOL     OW21466   4.202   2.049  17.393  0.0185 -0.3046 -0.3538
 3278SOL    HW121467   4.241   2.020  17.476  0.5989 -0.6453 -0.7465
 3278SOL    HW221468   4.270   2.111  17.365 -1.3698  0.6322 -1.6502
 3279SOL     OW21469   1.030   0.568   3.031  0.2412 -0.0452  0.2165
 3279SOL    HW121470   1.036   0.531   3.118  1.6615  0.4670  0.3453
 3279SOL    HW221471   1.110   0.620   3.038 -0.4866  0.4303  4.9772
 3280SOL     OW21472   0.831   4.258   9.646  0.7509  0.1412  0.0493
 3280SOL    HW121473   0.781   4.318   9.590  2.1598  0.3893 -0.9356
 3280SOL    HW221474   0.902   4.223   9.593  1.5762 -0.8997  1.8518
 3281SOL     OW21475   0.710   0.850   1.938  0.0484 -0.5780  0.1928
 3281SOL    HW121476   0.787   0.842   1.994 -0.4056 -0.5871  0.8202
 3281SOL    HW221477   0.753   0.828   1.856 -0.4517 -0.3913 -0.1230
 3282SOL     OW21478   4.230   3.859  15.260 -0.3407  0.0413  0.7684
 3282SOL    HW121479   4.217   3.915  15.184 -1.4253 -1.8442 -0.4267
 3282SOL    HW221480   4.315   3.820  15.238  0.9472  1.6767  2.7869
 3283SOL     OW21481   4.502   2.203   4.811 -0.3949 -0.5268 -0.0393
 3283SOL    HW121482   4.588   2.244   4.823  0.5385 -2.2618 -0.6662
 3283SOL    HW221483   4.469   2.241   4.730  3.3851 -0.6623 -1.6762
 3284SOL     OW21484   2.816   3.093   3.542 -0.5407  0.1174 -0.3656
 3284SOL    HW121485   2.802   3.139   3.459  1.3611  0.5644 -0.4470
 3284SOL    HW221486   2.800   3.163   3.605 -0.4323 -1.2145  1.1567
 3285SOL     OW21487   1.684   3.013   5.883 -0.0830  0.0743 -0.6752
 3285SOL    HW121488   1.693   2.943   5.819 -0.1114  0.2346 -0.8572
 3285SOL    HW221489   1.691   3.085   5.820  0.7214  0.2835 -0.3454
 3286SOL     OW21490   0.029   1.626  16.191 -0.1316 -0.1575 -0.2645
 3286SOL    HW121491   0.077   1.543  16.192 -2.1338 -1.3623 -3.3207
 3286SOL    HW221492   4.680   1.598  16.208 -0.8489  2.5033  0.2652
 3287SOL     OW21493   4.108   1.418   3.951 -0.5727  0.3960  0.1733
 3287SOL    HW121494   4.060   1.366   4.015 -0.3073  1.1495  0.9902
 3287SOL    HW221495   4.142   1.484   4.011  2.0715  1.6919 -2.7148
 3288SOL     OW21496   3.465   4.602   8.636  0.3688  0.0603 -0.8515
 3288SOL    HW121497   3.442   4.679   8.688  0.5887  1.0307 -2.1937
 3288SOL    HW221498   3.509   4.545   8.699  0.2019 -0.0483 -0.8328
 3289SOL     OW21499   1.875   1.343   1.881  0.1587 -0.1956 -0.2146
 3289SOL    HW121500   1.853   1.289   1.806  1.7646 -2.7172  1.1266
 3289SOL    HW221501   1.928   1.416   1.847 -1.0578  0.8226  0.0809
 3290SOL     OW21502   0.392   0.874   8.608 -0.3284 -0.0266 -0.1323
 3290SOL    HW121503   0.380   0.855   8.701  1.3665  2.4609  0.5900
 3290SOL    HW221504   0.457   0.942   8.622 -1.1907  1.1224 -1.6666
 3291SOL     OW21505   4.191   1.032  11.257 -0.7976  0.0174 -0.2659
 3291SOL    HW121506   4.096   1.026  11.261 -0.7285 -0.4005  0.7325
 3291SOL    HW221507   4.195   1.110  11.312 -0.0432 -0.5661  0.5054
 3292SOL     OW21508   4.064   0.088  14.561 -0.3707  0.2082 -0.4049
 3292SOL    HW121509   4.058   0.118  14.470 -1.5407  1.0740 -0.0449
 3292SOL    HW221510   4.123   0.013  14.553 -0.5924 -0.0344  0.2492
 3293SOL     OW21511   1.752   3.049   3.626 -0.0092 -0.2046 -0.1217
 3293SOL    HW121512   1.757   2.973   3.684  1.3904 -0.4846 -0.6189
 3293SOL    HW221513   1.786   3.118   3.684  0.5241  1.3671 -2.3240
 3294SOL     OW21514   1.198   1.702   7.197  0.4163  1.2023  0.4057
 3294SOL    HW121515   1.179   1.771   7.133  1.3606  0.1568 -0.9870
 3294SOL    HW221516   1.146   1.733   7.272  1.8669 -0.6904  2.2079
 3295SOL     OW21517   2.142   2.839   9.121 -0.3075 -0.8145  0.1694
 3295SOL    HW121518   2.061   2.819   9.167  2.0967 -3.8509  3.1062
 3295SOL    HW221519   2.189   2.901   9.176 -1.0780  0.1531 -0.2718
 3296SOL     OW21520   4.507   3.304   6.897  0.5359  0.3240  0.1179
 3296SOL    HW121521   4.602   3.293   6.890  0.8217  1.2811  2.9855
 3296SOL    HW221522   4.485   3.372   6.833  1.1631  0.9810  0.6086
 3297SOL     OW21523   1.973   4.011   9.416 -0.6138  0.1896  0.6336
 3297SOL    HW121524   1.980   3.920   9.387 -0.3561 -0.1385  1.7151
 3297SOL    HW221525   1.882   4.029   9.394 -0.5916  0.0646  0.4377
 3298SOL     OW21526   2.708   1.107   5.294 -0.6208 -0.4582 -0.2221
 3298SOL    HW121527   2.731   1.072   5.380  2.4462  0.0132 -0.8315
 3298SOL    HW221528   2.643   1.042   5.267 -0.1816 -0.2961 -1.6930
 3299SOL     OW21529   3.174   4.726   7.003  0.1482 -0.3393  0.0086
 3299SOL    HW121530   3.081   4.706   7.015  0.2643  0.7247  2.5500
 3299SOL    HW221531   3.223   4.675   7.067 -0.3003 -0.1120  0.5256
 3300SOL     OW21532   0.863   3.352   0.026 -0.0188  0.6370 -0.2528
 3300SOL    HW121533   0.849   3.419  17.721 -0.4082  0.3431 -0.4605
 3300SOL    HW221534   0.800   3.290  17.751  1.5069 -0.4529 -1.0341
 3301SOL     OW21535   1.494   2.050   4.649 -0.5095 -0.8908  0.1273
 3301SOL    HW121536   1.497   2.103   4.570  1.5230 -0.8985  0.1897
 3301SOL    HW221537   1.584   2.066   4.679 -0.9457 -1.0392  1.5339
 3302SOL     OW21538   3.498   3.336   4.840 -1.0443  0.1982  0.1660
 3302SOL    HW121539   3.441   3.411   4.856 -1.3832  0.6515 -3.2915
 3302SOL    HW221540   3.586   3.370   4.851 -1.5114  1.7792 -1.0301
 3303SOL     OW21541   1.959   0.326  17.138  0.1118 -0.1080 -0.2058
 3303SOL    HW121542   1.993   0.409  17.105  0.3671  0.5294  1.6330
 3303SOL    HW221543   1.892   0.348  17.203  0.7653 -1.0345  0.7788
 3304SOL     OW21544   2.752   3.485  13.340  0.4785 -0.3670  0.5518
 3304SOL    HW121545   2.795   3.477  13.254  1.6654  0.2097  1.0990
 3304SOL    HW221546   2.764   3.577  13.361 -1.9831  0.0543  0.1198
 3305SOL     OW21547   0.781   1.097  12.434 -0.2231  0.0636 -0.3555
 3305SOL    HW121548   0.729   1.141  12.501  1.1584  2.1498 -0.6708
 3305SOL    HW221549   0.712   1.065  12.375  0.8396 -2.1349 -0.3823
 3306SOL     OW21550   4.207   2.675  13.855  0.1314  0.0139 -0.6461
 3306SOL    HW121551   4.125   2.652  13.811 -1.2949 -0.2349  2.1278
 3306SOL    HW221552   4.258   2.594  13.856 -0.7043 -0.4975  0.3088
 3307SOL     OW21553   1.436   0.404  13.398 -0.9296  0.9433  0.3915
 3307SOL    HW121554   1.392   0.414  13.482  0.7915  0.4908  1.3386
 3307SOL    HW221555   1.441   0.500  13.390  0.8257  0.8978  0.9169
 3308SOL     OW21556   0.947   0.096   6.232 -0.5459 -0.6078 -0.4859
 3308SOL    HW121557   0.986   0.009   6.224  1.0061  0.1612 -1.2598
 3308SOL    HW221558   0.902   0.099   6.316  1.1378 -0.6369  0.4207
 3309SOL     OW21559   4.168   2.931   1.951  0.7077 -0.6209  0.3670
 3309SOL    HW121560   4.185   2.856   2.008 -1.3724 -1.0760  0.3697
 3309SOL    HW221561   4.125   2.888   1.878  1.2083 -2.2563  1.0215
 3310SOL     OW21562   2.222   1.101   2.936 -0.1637 -0.0670  0.1007
 3310SOL    HW121563   2.196   1.149   3.015 -2.5288 -1.2399  0.0298
 3310SOL    HW221564   2.305   1.058   2.955 -0.4275 -1.3715 -1.6906
 3311SOL     OW21565   4.563   1.433  16.224 -0.5034  0.0957 -0.5156
 3311SOL    HW121566   4.494   1.424  16.158 -0.2371  0.9021 -0.9097
 3311SOL    HW221567   4.559   1.354  16.278 -2.5463  2.1591  2.3430
 3312SOL     OW21568   1.615   3.544   8.050  0.0708  0.0397  0.4413
 3312SOL    HW121569   1.551   3.500   7.994  1.8928 -1.8776 -0.1543
 3312SOL    HW221570   1.681   3.571   7.987  0.6730 -0.9267  0.6482
 3313SOL     OW21571   3.763   1.655  16.955  0.5962  0.7655  0.0597
 3313SOL    HW121572   3.727   1.590  17.015 -0.4146  1.7899  0.5663
 3313SOL    HW221573   3.693   1.720  16.945  0.9717  1.1856  0.1691
 3314SOL     OW21574   1.154   1.226   6.228  0.5751  0.1020  0.0198
 3314SOL    HW121575   1.171   1.243   6.136  1.2874 -0.0986  0.1151
 3314SOL    HW221576   1.122   1.314   6.251  2.1514  0.6353  0.1284
 3315SOL     OW21577   1.390   0.163   4.296  0.4224  0.0519 -0.0959
 3315SOL    HW121578   1.340   0.235   4.333  1.9993  0.7438  0.7115
 3315SOL    HW221579   1.462   0.161   4.360 -0.1739  1.7507  0.6186
 3316SOL     OW21580   1.250   2.511   3.004 -0.2299 -0.5299  0.5039
 3316SOL    HW121581   1.224   2.529   3.095  1.3007  1.0636  0.6269
 3316SOL    HW221582   1.236   2.597   2.964  0.1168 -0.3072  0.8662
 3317SOL     OW21583   2.175   3.938   2.329  0.7762  0.1427  0.1782
 3317SOL    HW121584   2.209   3.995   2.260  0.2645  1.4721  1.0118
 3317SOL    HW221585   2.170   4.000   2.402 -0.0332 -0.0584  0.2930
 3318SOL     OW21586   1.532   2.818   6.481  0.3424  0.4502 -0.4613
 3318SOL    HW121587   1.471   2.882   6.517 -0.0094 -1.6003  2.5896
 3318SOL    HW221588   1.585   2.867   6.419  1.5644 -1.3428 -0.8552
 3319SOL     OW21589   0.775   4.519   3.457 -0.2841  0.0099  0.0642
 3319SOL    HW121590   0.835   4.545   3.527 -1.0063  1.3153  0.2071
 3319SOL    HW221591   0.817   4.537   3.373 -0.2563  0.0242  0.0813
 3320SOL     OW21592   2.652   2.390   3.590 -0.3268  0.3543 -0.4290
 3320SOL    HW121593   2.705   2.324   3.636 -1.1369 -0.6769 -0.9878
 3320SOL    HW221594   2.696   2.395   3.505 -1.8964 -0.4944 -1.2815
 3321SOL     OW21595   3.108   1.078   1.989 -0.3614  0.0257 -0.7134
 3321SOL    HW121596   3.185   1.122   2.025 -1.2614  0.4152  0.7341
 3321SOL    HW221597   3.061   1.048   2.066 -2.4891 -0.0271 -2.0297
 3322SOL     OW21598   4.668   3.976   8.949  0.3074  0.0982 -0.5958
 3322SOL    HW121599   4.722   4.026   9.010  2.0800 -2.5894  0.0594
 3322SOL    HW221600   4.705   3.889   8.933  1.0275  0.1864  0.6011
 3323SOL     OW21601   0.908   1.996   2.350  0.2322 -0.2883  0.2829
 3323SOL    HW121602   0.964   2.052   2.404  1.9451 -1.5589 -0.1452
 3323SOL    HW221603   0.844   1.973   2.416  0.3328  0.1916  0.5449
 3324SOL     OW21604   1.029   2.976   5.178  0.0504 -0.0243 -0.2725
 3324SOL    HW121605   0.947   3.022   5.159 -0.5997 -0.2802  1.9706
 3324SOL    HW221606   1.044   2.940   5.091 -2.1408  0.8916 -1.0321
 3325SOL     OW21607   2.644   4.010   8.076  0.1728 -0.9649  0.2603
 3325SOL    HW121608   2.562   4.026   8.028  0.3327 -1.0432 -0.0397
 3325SOL    HW221609   2.647   4.075   8.146  1.5055 -1.1208  0.3503
 3326SOL     OW21610   2.038   1.834   8.352  0.3527  0.1489 -0.1015
 3326SOL    HW121611   2.034   1.762   8.414  1.9207  0.4290  0.3325
 3326SOL    HW221612   1.984   1.805   8.279 -0.1527  0.8328 -0.0048
 3327SOL     OW21613   2.531   4.265   7.406  0.2929 -0.1892 -0.1544
 3327SOL    HW121614   2.438   4.254   7.386  0.3001  0.7500 -0.7008
 3327SOL    HW221615   2.542   4.203   7.478 -0.4798 -0.4662 -0.2761
 3328SOL     OW21616   4.379   3.825   1.315  1.0096  0.1094 -0.0499
 3328SOL    HW121617   4.473   3.819   1.295  0.3926 -0.1364 -2.8367
 3328SOL    HW221618   4.376   3.919   1.293 -0.1487 -0.0194 -0.4281
 3329SOL     OW21619   4.647   1.811   9.524  0.0882 -0.0001  0.1568
 3329SOL    HW121620   4.639   1.716   9.514  0.6881  0.0949 -1.2636
 3329SOL    HW221621   4.640   1.836   9.432 -2.4699 -0.0754  0.3358
 3330SOL     OW21622   3.913   2.170   2.964  0.1222 -0.8830  0.5813
 3330SOL    HW121623   3.883   2.165   3.055 -4.2855 -1.0859 -0.9111
 3330SOL    HW221624   3.919   2.078   2.937 -0.4336 -0.3306 -1.4016
 3331SOL     OW21625   0.353   0.647   7.429  0.2171  0.4558  0.1678
 3331SOL    HW121626   0.342   0.711   7.359 -0.8325  0.5699  0.4468
 3331SOL    HW221627   0.342   0.571   7.371 -0.1654  1.9869 -1.7413
 3332SOL     OW21628   0.549   2.105  12.718 -0.1712  0.1760 -0.1130
 3332SOL    HW121629   0.541   2.102  12.813 -2.0134  2.4211 -0.2123
 3332SOL    HW221630   0.496   2.182  12.701  2.1980  1.2900 -2.3952
 3333SOL     OW21631   4.523   2.163  13.484 -0.2064 -0.0261  0.5568
 3333SOL    HW121632   4.437   2.133  13.454 -0.4462  1.4259 -0.2029
 3333SOL    HW221633   4.560   2.076  13.494  0.7502 -0.0581 -3.2489
 3334SOL     OW21634   3.985   1.578   0.030 -0.5765 -0.0221  0.3645
 3334SOL    HW121635   4.032   1.500   0.002  1.1664  1.0603  0.3014
 3334SOL    HW221636   3.996   1.570   0.125 -0.3660 -0.8302  0.2761
 3335SOL     OW21637   3.485   3.832  11.445 -0.0437  0.1619 -0.2239
 3335SOL    HW121638   3.555   3.825  11.380  0.0194 -2.6092  0.1636
 3335SOL    HW221639   3.414   3.788  11.398  0.4774  0.3219 -1.1627
 3336SOL     OW21640   1.917   3.941   6.162  0.8352  0.2367  0.2634
 3336SOL    HW121641   1.870   3.997   6.224  0.2502 -0.3909  0.3805
 3336SOL    HW221642   1.989   3.909   6.216  0.0903  0.1043  1.1843
 3337SOL     OW21643   1.639   4.254   9.397 -0.1025  0.0021 -0.4930
 3337SOL    HW121644   1.560   4.276   9.446 -0.3406  0.7546 -1.2055
 3337SOL    HW221645   1.614   4.173   9.354 -1.7122  0.2655 -0.0564
 3338SOL     OW21646   1.087   1.682  13.468 -0.1788  0.2202  0.0366
 3338SOL    HW121647   1.164   1.688  13.411  0.4729  4.2023  1.3964
 3338SOL    HW221648   1.022   1.737  13.426  0.5255  1.6828  0.8686
 3339SOL     OW21649   0.986   3.458  16.512  0.5661  0.0151  0.5435
 3339SOL    HW121650   1.007   3.548  16.488  0.2454  0.5904  2.4356
 3339SOL    HW221651   0.959   3.418  16.429 -0.6426  2.4916 -0.2499
 3340SOL     OW21652   4.587   1.234  13.341 -0.1930  0.2986  0.2959
 3340SOL    HW121653   4.621   1.149  13.368 -1.0194 -0.6383 -1.5911
 3340SOL    HW221654   4.597   1.236  13.246 -2.5141 -3.1457  0.0196
 3341SOL     OW21655   0.207   1.369   6.791  0.4316  0.2538  0.5186
 3341SOL    HW121656   0.259   1.315   6.731 -1.6306 -0.2487 -0.8191
 3341SOL    HW221657   0.271   1.411   6.848  2.5468 -0.5015 -1.2870
 3342SOL     OW21658   3.954   1.000  17.385  0.6967 -0.2328 -0.0262
 3342SOL    HW121659   3.888   1.066  17.404  0.2268 -0.2963 -1.4792
 3342SOL    HW221660   4.017   1.032  17.450 -2.1113  2.4352  1.3178
 3343SOL     OW21661   4.171   1.799   2.906  0.1714 -0.2873  0.3932
 3343SOL    HW121662   4.144   1.713   2.875 -4.2862  0.3770  2.4296
 3343SOL    HW221663   4.096   1.853   2.880  1.3606  1.1222 -0.0770
 3344SOL     OW21664   1.422   2.507   1.208  0.5090 -0.0457 -0.0343
 3344SOL    HW121665   1.403   2.422   1.247  1.4436 -0.3185 -0.1607
 3344SOL    HW221666   1.397   2.557   1.285 -3.0485 -1.5040 -0.2360
 3345SOL     OW21667   3.606   2.602  16.645  0.7295  0.5630 -0.5583
 3345SOL    HW121668   3.521   2.572  16.677  1.4012 -1.4011 -0.5682
 3345SOL    HW221669   3.608   2.697  16.651 -2.1062  0.6510 -1.1169
 3346SOL     OW21670   3.289   2.771   3.266 -0.7577 -0.5287  0.3604
 3346SOL    HW121671   3.202   2.732   3.271 -0.6625 -0.3606  3.5504
 3346SOL    HW221672   3.317   2.763   3.357 -0.3439  0.0462  0.2800
 3347SOL     OW21673   4.203   3.644  14.442 -0.1941  0.2319  0.9475
 3347SOL    HW121674   4.156   3.604  14.368  1.5126  2.0680 -1.1223
 3347SOL    HW221675   4.134   3.644  14.508 -0.1433  0.5539  1.0038
 3348SOL     OW21676   1.704   4.568   5.022  0.3340 -0.1796  0.0815
 3348SOL    HW121677   1.700   4.606   4.934 -1.6444 -2.7638 -0.9313
 3348SOL    HW221678   1.786   4.518   5.013  0.2510 -0.1191 -1.0677
 3349SOL     OW21679   4.053   3.883   4.686  0.2417 -0.1458  0.7293
 3349SOL    HW121680   4.136   3.853   4.650 -0.5910 -1.9846  0.3727
 3349SOL    HW221681   4.020   3.950   4.626 -2.7500 -0.3966  2.0912
 3350SOL     OW21682   1.368   2.885   7.440 -0.2120 -0.3065  0.0008
 3350SOL    HW121683   1.394   2.812   7.384  1.6416  0.4571 -0.1072
 3350SOL    HW221684   1.453   2.913   7.474 -1.3339  0.3963  2.2596
 3351SOL     OW21685   1.427   4.380   9.153 -0.0038  0.3301  0.0046
 3351SOL    HW121686   1.490   4.439   9.110 -1.1080  0.6108 -1.2313
 3351SOL    HW221687   1.368   4.438   9.200 -0.5502  1.7318 -2.4303
 3352SOL     OW21688   2.909   0.767   3.028  0.2593  0.3902 -0.0471
 3352SOL    HW121689   2.934   0.677   3.046 -0.8563 -0.1747 -1.3414
 3352SOL    HW221690   2.922   0.770   2.933 -0.4382 -2.5450 -0.2335
 3353SOL     OW21691   3.686   4.729   1.451  0.2365  0.0980  0.0823
 3353SOL    HW121692   3.656   0.058   1.393  1.7989 -1.0863 -2.1794
 3353SOL    HW221693   3.678   0.025   1.539  2.4283  0.7938 -0.0104
 3354SOL     OW21694   3.580   1.921  13.235  0.0728  0.2724  0.1774
 3354SOL    HW121695   3.632   1.840  13.237 -1.2739 -0.5957 -0.2057
 3354SOL    HW221696   3.518   1.911  13.307 -0.8620 -0.5141 -0.7372
 3355SOL     OW21697   3.861   3.336  14.859 -0.0461 -0.6897  0.0363
 3355SOL    HW121698   3.846   3.300  14.772 -0.0307  3.3778 -1.6348
 3355SOL    HW221699   3.948   3.307  14.885 -0.0695  1.5913  2.6211
 3356SOL     OW21700   0.137   4.677   3.721 -0.0462 -0.3563 -0.0444
 3356SOL    HW121701   0.205   4.620   3.756 -1.0618 -0.3384  1.9316
 3356SOL    HW221702   0.182   4.710   3.643  0.9145 -0.9598  0.2589
 3357SOL     OW21703   1.287   3.685   7.198 -0.3672  0.4338 -0.1934
 3357SOL    HW121704   1.302   3.592   7.184  1.1144  0.6920 -0.3146
 3357SOL    HW221705   1.209   3.694   7.144 -1.6569 -1.7508  1.2852
 3358SOL     OW21706   0.355   4.206   6.752  0.4568  0.1732 -0.6059
 3358SOL    HW121707   0.300   4.239   6.681  0.0149 -0.5018 -0.5867
 3358SOL    HW221708   0.431   4.188   6.698  0.5181 -2.6708  0.3948
 3359SOL     OW21709   3.842   3.673   6.404  0.3406 -0.4127 -0.2051
 3359SOL    HW121710   3.809   3.597   6.451  0.3411 -0.0297  0.4225
 3359SOL    HW221711   3.840   3.642   6.313  0.4721  0.7802 -0.6151
 3360SOL     OW21712   4.627   1.731   0.327  0.0990 -0.5189 -0.2788
 3360SOL    HW121713   4.699   1.672   0.351 -1.3405 -0.8367  3.2293
 3360SOL    HW221714   4.544   1.688   0.347  0.4254 -1.0916 -0.1637
 3361SOL     OW21715   2.041   0.156   5.567 -0.3137  0.5816 -0.3340
 3361SOL    HW121716   2.068   0.100   5.494  0.2989 -0.5520  0.7570
 3361SOL    HW221717   1.973   0.096   5.598 -0.3010  0.6932 -0.0910
 3362SOL     OW21718   3.570   0.091   5.450 -0.0494  0.0183  0.0093
 3362SOL    HW121719   3.593   0.004   5.483  1.1242  0.5172  0.4835
 3362SOL    HW221720   3.475   0.097   5.464  0.1325 -0.2105  1.3507
 3363SOL     OW21721   3.028   3.846  17.040  0.1681 -0.8694 -0.5604
 3363SOL    HW121722   3.034   3.941  17.039  2.0994 -0.9558  0.9145
 3363SOL    HW221723   2.951   3.846  16.984 -0.0898 -2.9028 -0.2157
 3364SOL     OW21724   0.542   0.844   8.328  0.1712 -0.4056  0.3053
 3364SOL    HW121725   0.508   0.858   8.416 -0.9838 -2.3551  0.1594
 3364SOL    HW221726   0.462   0.856   8.277  0.8920  2.2340 -0.2089
 3365SOL     OW21727   4.452   2.475  11.687 -0.2825  0.0994 -0.1472
 3365SOL    HW121728   4.429   2.522  11.607 -0.6658 -2.3893 -1.4865
 3365SOL    HW221729   4.545   2.460  11.669 -0.7267  0.2179 -2.5756
 3366SOL     OW21730   3.293   1.847   6.746 -0.1411 -0.0709 -0.0927
 3366SOL    HW121731   3.259   1.883   6.828  0.9024  0.3416  0.1583
 3366SOL    HW221732   3.215   1.863   6.694  0.0776  2.9632  0.5000
 3367SOL     OW21733   1.207   2.115   9.601  0.3173 -0.2798  0.0088
 3367SOL    HW121734   1.164   2.030   9.592 -2.0334  0.9837 -0.6511
 3367SOL    HW221735   1.294   2.090   9.568  0.5378 -1.9401  1.8499
 3368SOL     OW21736   0.390   2.773   5.244 -0.4494 -0.0345 -0.0918
 3368SOL    HW121737   0.361   2.702   5.301  0.3821 -1.3949 -1.3557
 3368SOL    HW221738   0.460   2.721   5.205 -2.0350 -1.6634 -0.7614
 3369SOL     OW21739   0.045   4.360   8.265  0.2435  0.1688  0.0222
 3369SOL    HW121740   0.109   4.431   8.274 -0.0396  0.2058  1.7700
 3369SOL    HW221741   0.056   4.347   8.171  1.7917  0.1277  0.2014
 3370SOL     OW21742   3.694   1.352   5.088  0.2979 -0.0629 -0.5501
 3370SOL    HW121743   3.764   1.310   5.037  0.1734  0.8001 -1.4415
 3370SOL    HW221744   3.740   1.431   5.116 -2.8595  1.9265 -0.9390
 3371SOL     OW21745   0.565   2.773   0.747 -0.4816  0.5251 -0.2461
 3371SOL    HW121746   0.600   2.818   0.670  4.0354  0.8465  1.9801
 3371SOL    HW221747   0.620   2.804   0.819 -0.2582  0.6967 -0.4894
 3372SOL     OW21748   2.448   1.661  14.778 -0.3358 -0.3904 -0.0723
 3372SOL    HW121749   2.403   1.729  14.727  0.0418 -0.0148  0.1005
 3372SOL    HW221750   2.431   1.580  14.731 -2.6680 -0.5457  1.0240
 3373SOL     OW21751   1.091   4.228  10.673  0.7697 -0.5015 -0.1735
 3373SOL    HW121752   1.180   4.250  10.646 -0.2814  2.1667 -1.3820
 3373SOL    HW221753   1.044   4.258  10.595  1.2044  0.1293 -0.1910
 3374SOL     OW21754   2.598   2.567   2.744 -0.2626 -0.2595  0.4915
 3374SOL    HW121755   2.515   2.557   2.699  1.0202 -0.1865 -1.8901
 3374SOL    HW221756   2.612   2.659   2.724 -0.7770 -0.0522  1.0944
 3375SOL     OW21757   3.186   3.994  14.585  0.3247 -0.0525  0.3252
 3375SOL    HW121758   3.181   4.089  14.581  0.8569  0.1623  4.0944
 3375SOL    HW221759   3.278   3.978  14.563  0.9737 -0.0435  2.9395
 3376SOL     OW21760   3.551   0.013   7.970  0.1741  0.0428  0.1430
 3376SOL    HW121761   3.644   4.731   7.980  0.7191  1.7152 -1.2087
 3376SOL    HW221762   3.514   4.692   8.033 -1.6332  1.5216  0.5317
 3377SOL     OW21763   1.713   0.806   4.793  0.1439  0.0937  0.1502
 3377SOL    HW121764   1.784   0.743   4.804  0.7613  0.4849 -1.6357
 3377SOL    HW221765   1.731   0.846   4.878  1.3820  1.5004 -0.7830
 3378SOL     OW21766   2.427   1.332   7.433 -0.1338  0.2419  0.4091
 3378SOL    HW121767   2.512   1.316   7.393 -0.0754 -1.6100  1.2777
 3378SOL    HW221768   2.373   1.355   7.357  0.2278  0.2426  0.1534
 3379SOL     OW21769   3.230   3.590   6.196 -0.3035  0.0507  0.0445
 3379SOL    HW121770   3.323   3.599   6.220  0.2328 -1.8670 -1.3786
 3379SOL    HW221771   3.196   3.678   6.212  0.6868  0.8128 -2.1068
 3380SOL     OW21772   0.823   2.726   4.978 -0.4230 -0.5257 -0.0927
 3380SOL    HW121773   0.759   2.797   4.977 -0.6357 -0.7053  0.6215
 3380SOL    HW221774   0.895   2.778   4.942  0.5559 -3.2803 -2.1294
 3381SOL     OW21775   2.011   0.550   3.557  0.0768  0.2796 -0.1398
 3381SOL    HW121776   1.973   0.466   3.579 -0.0610  0.3538 -0.0973
 3381SOL    HW221777   1.958   0.577   3.482 -0.0869  3.0396  0.9409
 3382SOL     OW21778   1.167   1.475   1.041  0.0844 -0.0598  0.0494
 3382SOL    HW121779   1.237   1.492   1.103 -0.8475  1.5244  0.6890
 3382SOL    HW221780   1.186   1.551   0.985 -1.3255  0.8186  0.7504
 3383SOL     OW21781   3.146   4.644   3.150  0.7249 -0.5016  0.0175
 3383SOL    HW121782   3.206   4.570   3.162 -1.5370 -2.2331  0.4860
 3383SOL    HW221783   3.148   4.648   3.055  2.0761  2.0400  0.1365
 3384SOL     OW21784   0.906   3.142  14.409  0.2907  1.2740  0.2499
 3384SOL    HW121785   0.912   3.115  14.501 -2.3407  2.5509  0.7792
 3384SOL    HW221786   0.924   3.058  14.366 -0.2174  2.1029 -1.5510
 3385SOL     OW21787   2.186   2.861   1.532 -0.3944  0.1259  0.4917
 3385SOL    HW121788   2.257   2.855   1.469 -2.4029 -1.1045 -1.6383
 3385SOL    HW221789   2.227   2.866   1.619  0.7937  0.5489 -0.0929
 3386SOL     OW21790   0.573   2.412   2.125  0.0911  0.1552 -0.8924
 3386SOL    HW121791   0.538   2.502   2.126  1.2477  0.6100 -1.6264
 3386SOL    HW221792   0.538   2.389   2.040  1.2891  0.9579 -1.6008
 3387SOL     OW21793   4.448   3.986   1.086 -0.2727 -0.2693 -0.3762
 3387SOL    HW121794   4.454   3.939   1.003 -2.5776  4.0055 -2.9597
 3387SOL    HW221795   4.386   4.055   1.063 -0.2509 -0.9863 -2.6383
 3388SOL     OW21796   0.279   2.685   4.937  0.3164  0.6542  0.2788
 3388SOL    HW121797   0.314   2.598   4.959 -3.2993  0.1767  4.2014
 3388SOL    HW221798   0.351   2.717   4.883  1.4269 -0.7017  0.9336
 3389SOL     OW21799   0.223   3.068  10.353  0.5936  0.2741 -0.4835
 3389SOL    HW121800   0.175   3.136  10.400  1.8945 -0.5538  2.0780
 3389SOL    HW221801   0.314   3.080  10.379  1.1495 -1.0229 -1.7957
 3390SOL     OW21802   2.154   3.230  13.271 -0.2427 -0.0775 -0.1796
 3390SOL    HW121803   2.239   3.221  13.315 -0.1039  0.7073 -0.2824
 3390SOL    HW221804   2.129   3.321  13.290 -1.1160 -0.0268 -1.5732
 3391SOL     OW21805   2.234   1.593  15.613 -0.0755 -0.3149 -0.5087
 3391SOL    HW121806   2.265   1.509  15.577  0.0915  0.3633 -1.9254
 3391SOL    HW221807   2.320   1.631  15.633 -0.0563 -0.2827 -0.6546
 3392SOL     OW21808   2.835   2.855   9.061  0.0722  0.4604  0.2489
 3392SOL    HW121809   2.801   2.766   9.066  0.5016  0.1042 -3.2699
 3392SOL    HW221810   2.754   2.902   9.039 -0.3539 -1.0826 -1.4876
 3393SOL     OW21811   3.623   1.445   3.133  0.3823  0.1587  0.4081
 3393SOL    HW121812   3.561   1.499   3.183 -2.5854 -2.8764  0.0337
 3393SOL    HW221813   3.675   1.424   3.211  0.9514  0.1191  0.0098
 3394SOL     OW21814   3.215   3.517   5.244  0.1907 -0.5846 -0.2867
 3394SOL    HW121815   3.162   3.442   5.219 -0.7262  0.6135 -1.9835
 3394SOL    HW221816   3.249   3.535   5.156  1.0544  1.1249  0.4022
 3395SOL     OW21817   2.416   1.205  12.332  0.4212  0.1178 -0.4846
 3395SOL    HW121818   2.507   1.192  12.359  0.2021  1.7235  0.9569
 3395SOL    HW221819   2.447   1.242  12.249 -1.3087 -0.4093 -1.3742
 3396SOL     OW21820   3.593   2.585   0.582 -0.4071  0.1204  0.1593
 3396SOL    HW121821   3.579   2.530   0.504  0.3372  0.2608 -0.0703
 3396SOL    HW221822   3.511   2.635   0.583  0.4444  1.5576 -0.8013
 3397SOL     OW21823   0.852   0.891   6.848 -0.4804 -0.1119 -0.3851
 3397SOL    HW121824   0.845   0.818   6.910  1.7682 -0.1192 -0.1606
 3397SOL    HW221825   0.846   0.850   6.762  0.2519 -3.5487  1.2036
 3398SOL     OW21826   2.853   3.328  17.261 -0.3894  0.2262  0.8045
 3398SOL    HW121827   2.917   3.377  17.209 -0.7925 -0.8869 -0.7027
 3398SOL    HW221828   2.819   3.402  17.313  2.4681  2.5574 -0.6478
 3399SOL     OW21829   2.669   1.406   8.101  0.4037 -0.0324 -0.2450
 3399SOL    HW121830   2.637   1.340   8.163 -1.5341  0.7777 -0.3949
 3399SOL    HW221831   2.741   1.455   8.141 -1.0167 -0.0214  2.3125
 3400SOL     OW21832   1.115   3.391   0.153 -0.1676 -0.0540  0.2819
 3400SOL    HW121833   1.039   3.378   0.096 -0.3718  3.6913 -0.2827
 3400SOL    HW221834   1.138   3.482   0.138 -1.4841  0.4220  1.1629
 3401SOL     OW21835   0.394   1.401   8.369 -0.0660 -0.0025  0.0639
 3401SOL    HW121836   0.391   1.335   8.438 -1.8542  0.5720  0.5247
 3401SOL    HW221837   0.311   1.395   8.323 -0.0147 -1.6609  0.2016
 3402SOL     OW21838   3.978   4.222  11.840 -0.3193 -0.3689 -0.2298
 3402SOL    HW121839   4.042   4.293  11.849 -1.0858  0.4034 -0.9185
 3402SOL    HW221840   3.909   4.266  11.791 -0.7659  0.2914  1.0078
 3403SOL     OW21841   1.439   4.242   1.878 -0.0790 -0.2110 -0.0790
 3403SOL    HW121842   1.352   4.277   1.856 -0.2126  1.6276  3.4128
 3403SOL    HW221843   1.417   4.151   1.901  0.7926 -0.7619 -1.4165
 3404SOL     OW21844   4.416   1.188   0.510  0.0996 -0.2827  0.1188
 3404SOL    HW121845   4.386   1.105   0.546 -0.1923 -1.1279 -2.0687
 3404SOL    HW221846   4.470   1.206   0.587 -2.9006  1.1930  1.9006
 3405SOL     OW21847   3.890   3.551   9.699 -0.0952 -0.1470 -0.4032
 3405SOL    HW121848   3.846   3.618   9.646 -1.3716 -0.6718 -0.0064
 3405SOL    HW221849   3.820   3.532   9.762 -1.5265  0.2019 -1.8963
 3406SOL     OW21850   3.275   3.837   6.777  0.1224 -0.6376  0.0136
 3406SOL    HW121851   3.340   3.880   6.832 -0.2298 -3.3993  2.5979
 3406SOL    HW221852   3.315   3.859   6.693 -0.9871 -2.7139 -1.0603
 3407SOL     OW21853   4.006   3.410   3.617 -0.2302 -0.0333  0.1548
 3407SOL    HW121854   3.934   3.440   3.563  0.1929  0.2143 -0.2728
 3407SOL    HW221855   3.987   3.317   3.620  1.1782 -0.3610 -0.8671
 3408SOL     OW21856   3.209   1.030   4.695  0.3874 -0.4598  0.2143
 3408SOL    HW121857   3.290   0.980   4.680  0.1909 -0.3642 -1.1522
 3408SOL    HW221858   3.146   0.976   4.648 -1.9492 -0.0798  2.9527
 3409SOL     OW21859   2.415   2.232   9.443 -0.0786  0.5870  0.1599
 3409SOL    HW121860   2.442   2.142   9.423  0.7455  1.5486 -3.1569
 3409SOL    HW221861   2.483   2.275   9.392  0.8718  1.2618  1.9932
 3410SOL     OW21862   1.701   1.624   5.682  0.6383  0.3247  0.8064
 3410SOL    HW121863   1.626   1.610   5.740  0.3804  2.0019  0.8738
 3410SOL    HW221864   1.736   1.535   5.684 -0.8462 -0.2276  2.3040
 3411SOL     OW21865   3.595   2.237   8.938  0.1607 -0.0379  0.6417
 3411SOL    HW121866   3.520   2.235   8.996  0.1215  0.7697  0.6156
 3411SOL    HW221867   3.556   2.178   8.874  3.2912 -0.8986 -0.5059
 3412SOL     OW21868   2.819   3.805   8.167  0.0089  0.8667  1.0678
 3412SOL    HW121869   2.747   3.863   8.141  0.5421  1.0535  0.0298
 3412SOL    HW221870   2.775   3.720   8.163 -2.8823  2.5316 -2.3255
 3413SOL     OW21871   3.625   0.343   1.900  0.2061 -0.0651  0.0548
 3413SOL    HW121872   3.623   0.259   1.854 -1.1203  0.5353 -0.9696
 3413SOL    HW221873   3.616   0.309   1.989  1.2118 -0.4776 -0.0050
 3414SOL     OW21874   3.811   3.738   4.300  0.1334  0.0734 -0.6727
 3414SOL    HW121875   3.770   3.708   4.381  1.1459  2.0905  0.5718
 3414SOL    HW221876   3.867   3.807   4.335  1.8430 -1.9944  0.6868
 3415SOL     OW21877   4.441   3.900   8.146  0.1142  0.5784 -0.5823
 3415SOL    HW121878   4.506   3.879   8.213 -1.3135  0.4830  0.7811
 3415SOL    HW221879   4.375   3.949   8.195  0.1288  1.8381 -1.8120
 3416SOL     OW21880   0.413   0.859   2.448 -1.0426  0.2314 -0.0456
 3416SOL    HW121881   0.346   0.845   2.381 -1.5086  0.3091  0.4030
 3416SOL    HW221882   0.441   0.772   2.476 -2.3737  0.5358  2.2202
 3417SOL     OW21883   2.159   3.996   0.720 -0.2460 -0.5393  0.7507
 3417SOL    HW121884   2.104   3.988   0.798 -0.8593 -2.2742  0.1297
 3417SOL    HW221885   2.133   4.080   0.681  0.4548  0.1163  1.6921
 3418SOL     OW21886   0.494   4.473   0.807  0.0521  0.3111  0.4683
 3418SOL    HW121887   0.586   4.451   0.793 -0.3416 -0.5265 -0.8639
 3418SOL    HW221888   0.466   4.506   0.722 -1.4496  1.0368  1.2528
 3419SOL     OW21889   2.762   0.604   2.281  0.2504  0.0496  0.3448
 3419SOL    HW121890   2.714   0.544   2.223 -2.4247  1.3760  1.1667
 3419SOL    HW221891   2.723   0.579   2.365  1.9616 -0.5212  0.9728
 3420SOL     OW21892   4.136   2.193   1.897 -0.1708  0.0857 -0.1813
 3420SOL    HW121893   4.042   2.212   1.895 -0.2980 -0.3589  1.5757
 3420SOL    HW221894   4.139   2.113   1.950 -3.2450 -0.5015 -0.8948
 3421SOL     OW21895   1.224   2.101  16.099 -0.4281  0.4083 -0.5154
 3421SOL    HW121896   1.305   2.146  16.124 -0.3158 -0.0862  0.0152
 3421SOL    HW221897   1.219   2.136  16.010 -0.1688 -2.1579 -1.5532
 3422SOL     OW21898   4.053   2.608   8.080 -0.0867 -0.3342  0.0304
 3422SOL    HW121899   3.972   2.562   8.099  1.0594 -1.5233  2.0514
 3422SOL    HW221900   4.068   2.657   8.161 -0.4989 -1.6638  0.9032
 3423SOL     OW21901   1.982   4.347   2.286 -0.1768  0.2937 -0.2495
 3423SOL    HW121902   2.074   4.372   2.276 -0.0301 -0.8077 -1.7008
 3423SOL    HW221903   1.945   4.393   2.210 -3.4937 -1.1557  0.4716
 3424SOL     OW21904   0.556   0.265  16.416 -0.0684 -0.6561  0.1558
 3424SOL    HW121905   0.588   0.352  16.392  0.8270 -0.8687  0.5479
 3424SOL    HW221906   0.581   0.267  16.509 -2.4664 -0.9898  0.8010
 3425SOL     OW21907   2.667   1.569  16.777 -0.0796 -0.3025  0.4578
 3425SOL    HW121908   2.629   1.535  16.696 -1.0285 -0.5784  1.0268
 3425SOL    HW221909   2.755   1.541  16.802 -0.0790 -2.5309 -1.9759
 3426SOL     OW21910   2.943   3.430  15.664 -0.4272  0.0987  0.0887
 3426SOL    HW121911   3.025   3.480  15.657  0.4092 -1.0094  1.9040
 3426SOL    HW221912   2.943   3.370  15.589 -1.9800  1.7760 -1.2255
 3427SOL     OW21913   0.326   3.063  13.452  0.1614 -0.1133 -0.3668
 3427SOL    HW121914   0.306   3.015  13.533  0.4693 -0.1909 -0.3343
 3427SOL    HW221915   0.421   3.054  13.464  0.2755  0.1594 -1.0871
 3428SOL     OW21916   1.492   1.663   8.671  0.3819  0.2029  0.1039
 3428SOL    HW121917   1.535   1.612   8.602 -0.2512 -0.5913  0.3086
 3428SOL    HW221918   1.533   1.628   8.750 -0.6576 -1.8745 -0.2782
 3429SOL     OW21919   0.634   3.161  15.894 -0.0350 -0.2698  0.3643
 3429SOL    HW121920   0.645   3.119  15.809  0.5075  0.6299 -0.0134
 3429SOL    HW221921   0.558   3.108  15.919 -0.3838 -0.7524 -1.7541
 3430SOL     OW21922   0.436   3.112   5.432  0.5550 -0.0501  0.5176
 3430SOL    HW121923   0.373   3.050   5.396  0.3900 -1.1533  2.7244
 3430SOL    HW221924   0.393   3.152   5.507 -0.6084  1.6468 -1.0263
 3431SOL     OW21925   2.398   3.924   2.640 -0.1724 -0.7054 -1.1625
 3431SOL    HW121926   2.479   3.974   2.650  0.5211 -1.9804 -0.4787
 3431SOL    HW221927   2.348   3.981   2.581  0.2347  1.2759  0.4094
 3432SOL     OW21928   3.662   4.114   1.849  0.6074  0.2677  0.2547
 3432SOL    HW121929   3.669   4.207   1.826 -0.8339 -0.0321 -1.4354
 3432SOL    HW221930   3.611   4.082   1.774 -1.1149  1.9145  0.7302
 3433SOL     OW21931   2.533   4.105   9.646 -0.4913 -0.4144  0.5201
 3433SOL    HW121932   2.479   4.047   9.699 -0.9374 -0.8355 -0.3870
 3433SOL    HW221933   2.506   4.085   9.556  1.3635 -0.5408 -0.0150
 3434SOL     OW21934   3.680   0.383   8.235 -0.0799 -0.0663  0.4969
 3434SOL    HW121935   3.739   0.378   8.160  0.2043 -0.4150  0.7452
 3434SOL    HW221936   3.683   0.474   8.263 -1.1407  0.3772 -0.8754
 3435SOL     OW21937   1.324   0.751   0.429 -0.0530 -0.3741 -0.0589
 3435SOL    HW121938   1.347   0.678   0.487 -1.6730 -1.9024 -1.3382
 3435SOL    HW221939   1.409   0.795   0.425 -1.0360  1.7101  1.6486
 3436SOL     OW21940   2.911   1.716   8.903 -0.2102  0.4008  0.3818
 3436SOL    HW121941   2.844   1.687   8.965  0.7077 -1.5327  0.4755
 3436SOL    HW221942   2.912   1.810   8.917  2.2298  0.4378  0.0145
 3437SOL     OW21943   0.208   2.498   5.767 -0.0982 -0.2039 -0.1924
 3437SOL    HW121944   0.136   2.435   5.773 -0.8626  0.5782 -1.1032
 3437SOL    HW221945   0.208   2.547   5.850  1.4528  0.9360 -0.8552
 3438SOL     OW21946   2.785   4.570  13.751 -0.3840 -0.5795 -0.4714
 3438SOL    HW121947   2.735   4.575  13.669 -0.9827 -1.7192 -0.1811
 3438SOL    HW221948   2.763   4.487  13.794  0.2435 -0.1209  0.7042
 3439SOL     OW21949   4.175   2.500  11.658 -0.7302  0.3367 -0.0954
 3439SOL    HW121950   4.095   2.452  11.681  0.1697 -1.3356 -0.4952
 3439SOL    HW221951   4.239   2.459  11.716  0.3989  2.7440  0.3530
 3440SOL     OW21952   2.973   1.225   4.047 -0.4018  0.1708 -0.0324
 3440SOL    HW121953   2.980   1.231   3.952 -1.3527 -0.1541 -0.1241
 3440SOL    HW221954   2.879   1.208   4.048 -0.2889 -0.5793 -2.2202
 3441SOL     OW21955   0.722   4.095   3.474 -0.2261  0.0046 -0.3934
 3441SOL    HW121956   0.714   4.170   3.532 -0.1464 -0.1519 -0.1758
 3441SOL    HW221957   0.701   4.019   3.528 -3.6444  1.1784 -0.1049
 3442SOL     OW21958   2.527   3.626   1.970  0.2576  0.4593  0.2915
 3442SOL    HW121959   2.477   3.683   1.912 -1.2481 -0.3339  0.8012
 3442SOL    HW221960   2.616   3.635   1.935  0.1103  1.9154  0.2977
 3443SOL     OW21961   2.093   3.292   5.938 -0.7445 -0.0441 -0.4506
 3443SOL    HW121962   2.076   3.219   5.998 -0.0354  0.1716  0.0041
 3443SOL    HW221963   2.184   3.308   5.961 -0.0632 -2.3455 -1.5241
 3444SOL     OW21964   2.980   1.517  12.050  0.0989 -0.0287  0.1237
 3444SOL    HW121965   2.968   1.518  11.955 -0.0951  1.5433  0.1589
 3444SOL    HW221966   2.950   1.427  12.062  2.4582 -1.4634 -4.5409
 3445SOL     OW21967   4.390   4.544   5.896 -0.1404  0.3899 -0.3797
 3445SOL    HW121968   4.412   4.530   5.988  2.6313 -0.7026 -1.1943
 3445SOL    HW221969   4.311   4.599   5.896 -0.6675 -0.3746 -3.4921
 3446SOL     OW21970   4.267   1.253   6.393 -0.2977  0.3033  0.0638
 3446SOL    HW121971   4.363   1.261   6.392 -0.2455 -0.2734  0.2864
 3446SOL    HW221972   4.257   1.174   6.446  0.2078  0.2743  0.1167
 3447SOL     OW21973   4.486   0.220  12.559 -0.2113  0.4653 -0.2823
 3447SOL    HW121974   4.553   0.269  12.606  1.4686  0.3279 -2.5726
 3447SOL    HW221975   4.531   0.137  12.548 -1.4296 -0.4667  1.7823
 3448SOL     OW21976   0.112   2.659   3.790 -0.6476 -0.9163 -0.0964
 3448SOL    HW121977   0.168   2.638   3.715  1.1607  0.3998  0.9018
 3448SOL    HW221978   0.069   2.740   3.761  0.6013 -0.5778 -0.9888
 3449SOL     OW21979   1.243   2.636   1.709  0.0209  0.2815 -0.1106
 3449SOL    HW121980   1.160   2.618   1.753 -0.6832  1.7450 -0.8116
 3449SOL    HW221981   1.244   2.732   1.716  2.3913  0.2130  0.5058
 3450SOL     OW21982   2.459   1.036  15.216 -0.0688 -0.2613  0.1543
 3450SOL    HW121983   2.408   0.962  15.247 -3.4962  2.2134  0.4233
 3450SOL    HW221984   2.519   1.072  15.281  1.1522  0.3864 -1.3357
 3451SOL     OW21985   1.919   2.212  12.605  0.1595  0.1787 -0.6108
 3451SOL    HW121986   1.874   2.290  12.572 -1.6469 -1.0240 -0.9806
 3451SOL    HW221987   1.875   2.138  12.564 -0.5711 -0.2701  0.9767
 3452SOL     OW21988   0.533   4.585   8.885  0.1432  0.0243  0.0752
 3452SOL    HW121989   0.449   4.539   8.893  0.3493 -0.6944 -1.8797
 3452SOL    HW221990   0.506   4.669   8.923 -0.0139  0.7666 -1.6311
 3453SOL     OW21991   4.324   0.485  12.148  0.2180 -0.5337  0.1653
 3453SOL    HW121992   4.231   0.480  12.129 -0.1054  0.8192  1.3474
 3453SOL    HW221993   4.316   0.406  12.201  0.0031 -0.0031  0.9367
 3454SOL     OW21994   0.243   2.688  13.337 -0.7874 -0.1522 -0.2444
 3454SOL    HW121995   0.272   2.634  13.411  0.8400  1.3445  0.2079
 3454SOL    HW221996   0.240   2.775  13.377 -1.5419 -0.7098  0.9071
 3455SOL     OW21997   2.731   1.375   5.736  0.3285  0.2129 -0.1770
 3455SOL    HW121998   2.758   1.454   5.783  1.2478 -0.0853 -0.2162
 3455SOL    HW221999   2.748   1.308   5.802  1.6234  1.0395  0.3314
 3456SOL     OW22000   4.095   4.539   7.800  0.3473 -0.2774 -0.0350
 3456SOL    HW122001   4.191   4.540   7.804  0.2809  2.8692  1.1818
 3456SOL    HW222002   4.075   4.519   7.892 -2.3007 -2.6726 -1.1616
 3457SOL     OW22003   3.141   0.107   2.017 -0.2713 -0.0284  0.5276
 3457SOL    HW122004   3.063   0.097   2.071  1.4586  0.3691  3.0762
 3457SOL    HW222005   3.112   0.161   1.944 -0.7031  1.3035  1.6954
 3458SOL     OW22006   4.366   3.532  13.849  0.4638 -0.1280  0.0669
 3458SOL    HW122007   4.388   3.625  13.857  0.0698  0.0022 -0.3904
 3458SOL    HW222008   4.289   3.543  13.794  1.3025  1.2842 -0.8366
 3459SOL     OW22009   1.105   1.961   4.148 -0.5876  0.5625  0.3072
 3459SOL    HW122010   1.073   1.875   4.119  3.4816 -1.6183  2.2173
 3459SOL    HW222011   1.197   1.950   4.124 -0.6866 -3.1036  1.5231
 3460SOL     OW22012   0.471   0.144   8.281  0.5960  0.1187 -0.3640
 3460SOL    HW122013   0.478   0.132   8.187  0.4056  0.1762 -0.3854
 3460SOL    HW222014   0.521   0.225   8.292 -0.1768  0.5629 -0.0872
 3461SOL     OW22015   4.332   2.600   3.991  0.4190 -0.3462  0.5565
 3461SOL    HW122016   4.396   2.653   3.942 -0.3390 -0.0067 -0.0617
 3461SOL    HW222017   4.364   2.512   3.971 -0.6929 -0.7695  0.6410
 3462SOL     OW22018   0.369   1.653   5.838 -0.0691  0.2704 -0.1165
 3462SOL    HW122019   0.435   1.596   5.878 -0.8238 -0.3911  0.1802
 3462SOL    HW222020   0.293   1.612   5.878  0.7702 -2.1076 -0.9862
 3463SOL     OW22021   2.430   3.053  10.491  0.3244 -0.3207 -0.3084
 3463SOL    HW122022   2.473   3.097  10.564  0.3593  0.1821 -0.6338
 3463SOL    HW222023   2.431   2.958  10.505  0.4368  0.0071  1.8135
 3464SOL     OW22024   0.440   1.020   1.708  0.3646  0.3654 -0.3652
 3464SOL    HW122025   0.459   0.955   1.641  1.4311 -1.1697  1.4360
 3464SOL    HW222026   0.354   1.053   1.682 -0.1855  0.1711  1.1896
 3465SOL     OW22027   1.658   2.835   0.616 -0.0383  0.3067  0.1766
 3465SOL    HW122028   1.619   2.769   0.673 -2.2382  0.9788 -0.5626
 3465SOL    HW222029   1.704   2.888   0.681  1.1435 -0.5732  0.0585
 3466SOL     OW22030   2.324   2.659   8.473  0.8770 -0.5813 -0.1706
 3466SOL    HW122031   2.378   2.694   8.402  0.5146 -0.5526 -0.4303
 3466SOL    HW222032   2.358   2.570   8.465  0.5131 -0.8007  0.7387
 3467SOL     OW22033   4.417   0.766  12.384 -0.0804 -0.2954 -0.1236
 3467SOL    HW122034   4.470   0.838  12.417  0.6629  0.3603 -2.7623
 3467SOL    HW222035   4.338   0.801  12.344 -0.6709 -0.9206  0.5028
 3468SOL     OW22036   3.744   1.755  16.217 -0.3177 -0.1372  0.0396
 3468SOL    HW122037   3.796   1.769  16.138 -0.8127  0.3724 -0.1833
 3468SOL    HW222038   3.798   1.787  16.290  0.1880 -1.6274  0.3402
 3469SOL     OW22039   3.817   4.260   2.813 -0.2397 -0.7442 -0.2703
 3469SOL    HW122040   3.743   4.297   2.860  0.2207  0.4654 -0.5195
 3469SOL    HW222041   3.808   4.165   2.821 -2.3350 -0.5779 -0.5130
 3470SOL     OW22042   0.066   2.635   2.522 -0.3250 -0.3499  0.5363
 3470SOL    HW122043   0.045   2.727   2.503  0.1488 -0.3905 -0.1575
 3470SOL    HW222044   4.719   2.598   2.517 -0.3509 -0.0041 -1.4490
 3471SOL     OW22045   0.935   1.279   8.838 -0.2273 -0.5583 -0.1214
 3471SOL    HW122046   0.950   1.335   8.762 -0.8994  0.2118  0.3109
 3471SOL    HW222047   0.937   1.194   8.793 -1.0000  1.2217 -3.4883
 3472SOL     OW22048   0.287   1.567   2.720  0.3121  0.3164  0.7309
 3472SOL    HW122049   0.240   1.534   2.644  2.8623 -1.0478 -0.2579
 3472SOL    HW222050   0.335   1.491   2.753 -0.1940  0.3022  1.4389
 3473SOL     OW22051   2.032   0.842   3.388 -0.0507  0.1645 -0.3944
 3473SOL    HW122052   1.963   0.785   3.422  1.9377 -0.4127  2.7546
 3473SOL    HW222053   2.024   0.826   3.294  3.0229 -2.6735 -0.2008
 3474SOL     OW22054   2.427   0.649   0.589  0.3529 -0.4193  0.3232
 3474SOL    HW122055   2.399   0.581   0.528 -2.1415  0.5272  0.4072
 3474SOL    HW222056   2.517   0.667   0.561  1.1124  0.4223  3.2702
 3475SOL     OW22057   3.830   3.576   5.826 -0.3786 -0.4697 -0.6596
 3475SOL    HW122058   3.925   3.589   5.820 -0.3706 -0.1963  0.0237
 3475SOL    HW222059   3.834   3.487   5.860  1.0738 -0.6786 -1.3629
 3476SOL     OW22060   0.931   1.810   6.725  0.3228  0.1414  0.0810
 3476SOL    HW122061   0.841   1.845   6.726  0.1628 -0.2254 -1.7184
 3476SOL    HW222062   0.983   1.875   6.677  0.4081  1.9403  2.5901
 3477SOL     OW22063   4.101   2.979   5.847 -0.0489  0.1130  0.3408
 3477SOL    HW122064   4.186   2.998   5.808 -0.5012  0.8882 -0.2676
 3477SOL    HW222065   4.104   2.901   5.902 -1.2063 -1.1350 -1.3790
 3478SOL     OW22066   2.696   3.994   2.162  0.0255 -0.2958 -0.3253
 3478SOL    HW122067   2.743   3.916   2.192  1.8069  1.0781  0.3763
 3478SOL    HW222068   2.705   3.985   2.067 -2.3553 -0.8849 -0.5168
 3479SOL     OW22069   0.127   3.362   7.915 -0.0959  0.0579 -0.3522
 3479SOL    HW122070   0.179   3.304   7.971 -0.6953 -0.0888  0.0648
 3479SOL    HW222071   0.057   3.301   7.890 -1.3170  2.9105 -3.8723
 3480SOL     OW22072   0.885   1.594   6.277  0.2774 -0.1143 -0.3541
 3480SOL    HW122073   0.863   1.602   6.184 -1.6525 -3.6748 -0.2040
 3480SOL    HW222074   0.940   1.668   6.302  0.0753  0.9740 -3.1593
 3481SOL     OW22075   0.784   1.968  11.944 -0.7069  0.0287  0.2508
 3481SOL    HW122076   0.692   1.980  11.968 -0.4954 -0.2431  1.1890
 3481SOL    HW222077   0.801   1.877  11.968  0.9705  0.3095  0.1604
 3482SOL     OW22078   0.258   3.453  10.710 -0.1101  0.3543  0.0076
 3482SOL    HW122079   0.290   3.430  10.797 -0.1965 -0.2902 -0.1351
 3482SOL    HW222080   0.335   3.457  10.653 -0.0775 -0.0277  0.0262
 3483SOL     OW22081   3.924   2.423   8.694  0.7861 -0.1045 -0.4617
 3483SOL    HW122082   3.898   2.343   8.739  0.9550  0.3699  0.4729
 3483SOL    HW222083   3.835   2.453   8.679  0.7692  0.2312  0.3156
 3484SOL     OW22084   0.448   0.380  13.877 -0.6119 -0.0218 -0.2630
 3484SOL    HW122085   0.394   0.437  13.931 -0.0813  0.5935 -0.3780
 3484SOL    HW222086   0.442   0.306  13.937  2.3650  0.8257  1.1002
 3485SOL     OW22087   4.293   2.283  12.876 -0.3572 -0.3038 -0.2981
 3485SOL    HW122088   4.375   2.299  12.829 -0.8449 -1.3736 -1.5245
 3485SOL    HW222089   4.252   2.368  12.864  1.5054  0.3826 -1.7802
 3486SOL     OW22090   4.021   0.981  11.844 -0.0191 -0.0063  0.5455
 3486SOL    HW122091   4.023   0.985  11.748 -0.2372 -0.2947  0.5297
 3486SOL    HW222092   3.975   1.060  11.870 -0.8330  0.0806 -1.1936
 3487SOL     OW22093   2.327   3.200  14.201  0.5370 -0.1801  0.3704
 3487SOL    HW122094   2.286   3.267  14.256  1.9338 -2.0265  3.6088
 3487SOL    HW222095   2.337   3.249  14.119  0.0825  1.2983  1.1969
 3488SOL     OW22096   4.159   1.287  11.732 -0.1416  0.1058 -0.3781
 3488SOL    HW122097   4.197   1.266  11.817 -1.3486 -0.2312  0.0772
 3488SOL    HW222098   4.075   1.322  11.763 -0.3270 -1.3768  0.7545
 3489SOL     OW22099   2.457   4.438   2.509 -0.5771  0.4183  0.0918
 3489SOL    HW122100   2.548   4.420   2.535 -1.0757 -3.4137 -0.8499
 3489SOL    HW222101   2.473   4.532   2.503  0.5527  0.2506  0.4262
 3490SOL     OW22102   2.713   0.038   1.742  0.0621  0.9904 -0.0698
 3490SOL    HW122103   2.623   0.017   1.766  0.2314  0.9909  0.5660
 3490SOL    HW222104   2.755   4.695   1.762  0.9928  1.8423  1.5517
 3491SOL     OW22105   2.214   3.648   3.840 -0.3419 -0.3065 -0.4136
 3491SOL    HW122106   2.167   3.587   3.896  0.9136 -1.2283 -0.3744
 3491SOL    HW222107   2.162   3.728   3.848  3.6642  2.1806  0.8697
 3492SOL     OW22108   4.706   0.212   4.007  0.1601 -0.2674  0.5226
 3492SOL    HW122109   4.656   0.279   4.053 -1.6535 -1.2123 -0.0977
 3492SOL    HW222110   4.691   0.134   4.060 -0.0048 -0.5872  0.0134
 3493SOL     OW22111   3.367   3.231   4.421  0.1389 -0.5049  0.1709
 3493SOL    HW122112   3.437   3.296   4.423  1.9985 -2.4756 -0.2951
 3493SOL    HW222113   3.374   3.218   4.516  0.7827 -1.8529 -0.0615
 3494SOL     OW22114   1.699   0.776  17.692 -0.5664 -0.8560  1.0094
 3494SOL    HW122115   1.649   0.724  17.755  0.1412 -0.2643  2.0535
 3494SOL    HW222116   1.761   0.818  17.752 -1.8841  0.5765  1.4021
 3495SOL     OW22117   2.599   3.403   0.873  0.4261 -0.0419 -0.2330
 3495SOL    HW122118   2.615   3.495   0.891 -0.1272  0.0973 -0.4342
 3495SOL    HW222119   2.572   3.377   0.961 -0.1211  0.7079 -0.1799
 3496SOL     OW22120   2.680   1.888  12.688  0.2193  0.4014 -0.0227
 3496SOL    HW122121   2.712   1.851  12.771  0.3709 -0.7163 -0.5781
 3496SOL    HW222122   2.696   1.981  12.700 -0.9858  0.6402 -0.3181
 3497SOL     OW22123   0.004   2.902   7.742  0.1189  0.2809 -0.5394
 3497SOL    HW122124   4.721   2.813   7.769  0.6069  0.2917 -0.0758
 3497SOL    HW222125   0.022   2.944   7.826 -3.1082 -3.1212  1.8452
 3498SOL     OW22126   0.001   1.979   7.251  0.6851  0.1581  0.8824
 3498SOL    HW122127   0.039   1.998   7.338 -0.1550  0.9119  1.0904
 3498SOL    HW222128   4.695   2.061   7.238  1.7750  0.4327 -1.2489
 3499SOL     OW22129   0.234   0.780   7.859  0.1773 -0.0360 -0.0354
 3499SOL    HW122130   0.245   0.695   7.818 -0.4114 -0.8240  1.4600
 3499SOL    HW222131   0.300   0.831   7.811 -0.0983  0.2202 -0.1474
 3500SOL     OW22132   4.689   4.604  15.174  0.1301 -0.0536  0.1312
 3500SOL    HW122133   0.041   4.588  15.156 -0.0817 -1.7927  0.6107
 3500SOL    HW222134   4.677   4.697  15.158 -1.0863  0.1677  2.4031
 3501SOL     OW22135   0.854   4.008   7.320 -0.0400 -0.4933  0.2530
 3501SOL    HW122136   0.810   4.016   7.405  2.2681  1.3530  1.2666
 3501SOL    HW222137   0.859   3.914   7.307 -1.5972 -0.7856  1.7684
 3502SOL     OW22138   3.089   2.668  12.631  0.3138 -0.0219 -0.1637
 3502SOL    HW122139   3.047   2.753  12.636 -0.9613 -0.8089  2.7213
 3502SOL    HW222140   3.078   2.643  12.539 -0.2375  0.0737 -0.1188
 3503SOL     OW22141   3.190   1.771   3.147 -0.5589 -0.2605 -0.5809
 3503SOL    HW122142   3.184   1.693   3.091 -2.3847 -1.0603  0.7647
 3503SOL    HW222143   3.198   1.831   3.072 -1.5117  1.4175  0.6648
 3504SOL     OW22144   3.489   0.946   2.503 -0.2827 -0.5886  0.3235
 3504SOL    HW122145   3.409   0.996   2.514 -0.4629 -1.3865  2.6453
 3504SOL    HW222146   3.538   0.973   2.581  0.7548 -0.4656 -0.3678
 3505SOL     OW22147   4.187   4.397  12.763  0.3924 -0.8018  0.3567
 3505SOL    HW122148   4.203   4.448  12.842  0.2147  0.8433 -0.6716
 3505SOL    HW222149   4.211   4.447  12.685 -0.5016 -1.8246 -0.5714
 3506SOL     OW22150   2.799   3.239   2.170  0.0207  0.1753  0.3416
 3506SOL    HW122151   2.812   3.214   2.261 -1.0832  1.1274  0.7653
 3506SOL    HW222152   2.716   3.287   2.175 -0.6824 -1.1651  1.3974
 3507SOL     OW22153   0.646   4.286   3.235  0.4820 -0.0396 -0.0419
 3507SOL    HW122154   0.622   4.273   3.327 -0.5121 -1.1313 -0.4693
 3507SOL    HW222155   0.630   4.196   3.207 -0.9433  0.1720  0.1195
 3508SOL     OW22156   1.307   1.530  17.729 -0.1130 -0.0299 -0.2587
 3508SOL    HW122157   1.323   1.470   0.041 -1.4395 -0.3903 -0.2665
 3508SOL    HW222158   1.292   1.611   0.016 -0.2088 -0.0547 -0.2458
 3509SOL     OW22159   3.634   1.550   5.742  0.1581 -0.5936 -0.2840
 3509SOL    HW122160   3.702   1.593   5.793 -2.0038  0.9976  1.2400
 3509SOL    HW222161   3.547   1.559   5.781 -0.1687  0.6021 -1.2637
 3510SOL     OW22162   1.874   0.556  17.297 -0.3003  0.0626 -0.1124
 3510SOL    HW122163   1.796   0.575  17.350  0.3061  1.6927  0.1770
 3510SOL    HW222164   1.884   0.647  17.270  0.7552  0.0905  0.3991
 3511SOL     OW22165   0.517   1.250   9.953  0.4138 -0.2954 -0.1467
 3511SOL    HW122166   0.474   1.303   9.886 -0.5003  0.7973  1.2944
 3511SOL    HW222167   0.500   1.160   9.923  1.7511 -1.3086  2.1307
 3512SOL     OW22168   4.112   1.244  16.088 -0.3041  0.5612  0.1855
 3512SOL    HW122169   4.136   1.156  16.061 -1.3204  0.6217 -0.8957
 3512SOL    HW222170   4.062   1.222  16.167 -1.2427  0.0674 -0.5519
 3513SOL     OW22171   3.434   3.637   3.872 -0.3356 -0.1352  0.0112
 3513SOL    HW122172   3.510   3.639   3.929  0.2515 -1.5650 -0.7256
 3513SOL    HW222173   3.424   3.542   3.863  0.5669 -0.3232  1.0186
 3514SOL     OW22174   3.884   0.438   4.943 -0.2173  0.4460 -0.2457
 3514SOL    HW122175   3.822   0.445   5.016  0.4075  0.3330  0.2973
 3514SOL    HW222176   3.831   0.460   4.866 -1.1271  2.0593  0.8206
 3515SOL     OW22177   4.579   4.524   6.468 -0.1626  0.2605  0.1388
 3515SOL    HW122178   4.541   4.612   6.466 -1.3062 -0.2124  0.8773
 3515SOL    HW222179   4.655   4.526   6.410 -0.5513  1.2207 -0.3465
 3516SOL     OW22180   1.840   2.292   6.520  0.3988 -0.3665  0.1668
 3516SOL    HW122181   1.897   2.369   6.521 -0.6755  0.4209  2.3305
 3516SOL    HW222182   1.785   2.307   6.597  1.1580 -0.8645  0.8070
 3517SOL     OW22183   0.255   3.476   2.993  0.1860  0.0556  0.5489
 3517SOL    HW122184   0.178   3.525   3.021  0.5349  1.8541 -1.5916
 3517SOL    HW222185   0.271   3.397   3.046 -0.7619  0.2756  1.1555
 3518SOL     OW22186   1.909   0.567   5.804  0.0789 -0.0757  0.0577
 3518SOL    HW122187   1.851   0.496   5.777  0.4093 -0.4746  0.4135
 3518SOL    HW222188   1.876   0.593   5.890 -1.8555  0.5261 -0.8646
 3519SOL     OW22189   3.098   0.715   0.623  0.0598  0.0497 -0.0319
 3519SOL    HW122190   3.188   0.743   0.635 -0.2927  0.7454  0.9649
 3519SOL    HW222191   3.104   0.646   0.557  0.1730  1.8272 -1.8945
 3520SOL     OW22192   0.799   1.639  10.430 -0.5039  0.3457  0.3128
 3520SOL    HW122193   0.846   1.614  10.510 -2.3485  0.1156  1.3408
 3520SOL    HW222194   0.868   1.611  10.371 -0.0661  1.2178  0.4161
 3521SOL     OW22195   1.922   4.739   8.703 -0.3652  0.3314 -0.1500
 3521SOL    HW122196   1.994   0.039   8.751 -1.3651  0.8233  0.9353
 3521SOL    HW222197   1.851   4.729   8.767  0.7139 -2.1150  0.6863
 3522SOL     OW22198   4.540   4.374   2.348  0.4630 -0.9335  0.3677
 3522SOL    HW122199   4.615   4.365   2.406  1.0860 -1.1031 -0.4638
 3522SOL    HW222200   4.495   4.292   2.366 -0.4108 -0.6592 -0.5378
 3523SOL     OW22201   1.580   0.659   6.280  0.1061 -0.0026 -0.7623
 3523SOL    HW122202   1.638   0.695   6.212  0.0591  1.6977  0.0900
 3523SOL    HW222203   1.633   0.669   6.359 -2.3149 -1.9136  1.0784
 3524SOL     OW22204   4.149   2.433  10.795  0.4287  0.0919  0.7796
 3524SOL    HW122205   4.224   2.381  10.767  2.2961  2.8750  0.5809
 3524SOL    HW222206   4.074   2.373  10.790  2.0406 -1.7884 -0.8142
 3525SOL     OW22207   0.154   3.283   4.253 -0.1237 -0.5751 -0.0545
 3525SOL    HW122208   0.133   3.235   4.173  1.1251  0.0663 -0.7695
 3525SOL    HW222209   0.168   3.212   4.316  2.3781  1.6724  1.9141
 3526SOL     OW22210   1.735   3.740  10.221  0.3555  0.2575 -0.6055
 3526SOL    HW122211   1.778   3.819  10.252  0.3879 -0.3145  0.8508
 3526SOL    HW222212   1.711   3.784  10.140  0.4029 -0.0878 -0.8088
 3527SOL     OW22213   4.655   0.616  13.108  0.2047  0.1375 -0.6216
 3527SOL    HW122214   4.580   0.647  13.059  1.1582  2.4160 -0.6263
 3527SOL    HW222215   4.709   0.567  13.046 -0.8102 -1.0181 -0.5964
 3528SOL     OW22216   2.541   0.130   5.031  0.2456  0.0581 -0.3896
 3528SOL    HW122217   2.456   0.173   5.036  0.8342  1.0507  1.1135
 3528SOL    HW222218   2.603   0.198   5.005 -2.1787  2.3635 -0.1861
 3529SOL     OW22219   2.615   2.641   5.944  0.5942 -0.1593  0.8644
 3529SOL    HW122220   2.650   2.552   5.943 -0.6428 -0.6433  0.1020
 3529SOL    HW222221   2.523   2.627   5.966 -0.4974  3.0567 -1.6492
 3530SOL     OW22222   4.495   2.348   3.333  0.0832  0.8746 -0.2223
 3530SOL    HW122223   4.468   2.371   3.245 -2.3553 -2.4816 -0.3776
 3530SOL    HW222224   4.569   2.408   3.337 -0.0527  1.0756 -0.7439
 3531SOL     OW22225   0.408   3.847   6.315  0.1886 -0.4669 -0.2253
 3531SOL    HW122226   0.348   3.792   6.366  0.1582 -1.9206 -1.8307
 3531SOL    HW222227   0.345   3.912   6.283 -0.4278 -0.3051  1.2625
 3532SOL     OW22228   2.216   0.185   7.848 -0.1439  0.2963 -0.0751
 3532SOL    HW122229   2.251   0.259   7.798  1.3214 -0.5044 -0.2272
 3532SOL    HW222230   2.228   0.113   7.787  2.7209 -0.0460  0.9021
 3533SOL     OW22231   1.508   2.711   9.408 -0.1443 -0.2401 -0.1942
 3533SOL    HW122232   1.494   2.650   9.335 -1.0340  0.3350 -0.5059
 3533SOL    HW222233   1.422   2.726   9.449 -0.0694  1.4302 -0.6432
 3534SOL     OW22234   2.633   2.737   7.832 -0.1102 -0.1118  0.0942
 3534SOL    HW122235   2.691   2.722   7.757 -0.1802 -1.5977  0.3268
 3534SOL    HW222236   2.565   2.675   7.804 -0.9940 -0.1476  2.3613
 3535SOL     OW22237   4.678   4.666   1.007  0.7728 -0.2941  0.0405
 3535SOL    HW122238   0.013   4.608   1.008  1.2154  0.2961  0.7794
 3535SOL    HW222239   4.612   4.613   0.964 -0.5859  0.9170  0.6295
 3536SOL     OW22240   0.626   4.519   6.510  0.0364  0.6147 -0.0359
 3536SOL    HW122241   0.601   4.495   6.421 -0.0438 -1.1424  0.4630
 3536SOL    HW222242   0.679   4.445   6.539  1.1982  0.4292 -2.5737
 3537SOL     OW22243   4.117   1.078  14.047  0.3831 -0.5946 -0.0174
 3537SOL    HW122244   4.065   1.117  14.117  2.2419  1.7366  0.0675
 3537SOL    HW222245   4.076   0.992  14.038 -3.4224  1.0851  1.4066
 3538SOL     OW22246   2.625   0.866   1.503  0.2185 -0.0336 -0.4085
 3538SOL    HW122247   2.705   0.833   1.464  0.0982 -0.8449  0.0492
 3538SOL    HW222248   2.633   0.958   1.478  0.9390 -0.4227 -1.5811
 3539SOL     OW22249   0.302   2.939   4.144  0.3463 -0.2028  0.0670
 3539SOL    HW122250   0.326   2.849   4.168 -2.7508 -1.2970 -0.9174
 3539SOL    HW222251   0.258   2.963   4.226  1.0847  2.6931 -0.4156
 3540SOL     OW22252   3.481   2.207   7.609 -0.5684  0.8521  0.3235
 3540SOL    HW122253   3.558   2.181   7.558 -1.2922  0.3743 -0.5291
 3540SOL    HW222254   3.438   2.240   7.531 -0.6418 -2.1704 -0.9364
 3541SOL     OW22255   4.380   0.782   7.875  0.0974  0.1035  0.4459
 3541SOL    HW122256   4.459   0.812   7.920  0.9550 -0.6952 -0.5313
 3541SOL    HW222257   4.315   0.843   7.908 -1.0278 -1.8735  1.8421
 3542SOL     OW22258   4.049   4.623   0.443 -0.3402  0.2868 -0.1895
 3542SOL    HW122259   3.983   4.673   0.491 -0.4918  1.5119 -1.6738
 3542SOL    HW222260   4.055   4.679   0.366  0.9937  0.4333  0.0288
 3543SOL     OW22261   4.543   1.404   6.990 -0.3616  0.1139 -0.4737
 3543SOL    HW122262   4.458   1.430   7.026  1.2775  0.3368  3.3227
 3543SOL    HW222263   4.589   1.486   6.972  0.2685 -1.1807 -4.7362
 3544SOL     OW22264   3.266   1.471   4.171  0.1742  0.3498  0.8378
 3544SOL    HW122265   3.284   1.520   4.251 -0.3434  0.8393  0.6617
 3544SOL    HW222266   3.306   1.386   4.185  1.1749  0.4766 -1.1795
 3545SOL     OW22267   1.292   4.410  14.883  0.1125  0.7951  0.1383
 3545SOL    HW122268   1.214   4.417  14.937 -0.8059  0.2036 -1.1137
 3545SOL    HW222269   1.260   4.379  14.798  1.7273  0.3710 -0.3103
 3546SOL     OW22270   0.755   2.705   2.575  0.2186  0.3044 -0.0277
 3546SOL    HW122271   0.784   2.782   2.623 -1.0395  0.9568 -0.3041
 3546SOL    HW222272   0.660   2.718   2.572 -0.0082 -1.3120  0.0279
 3547SOL     OW22273   2.134   1.082  10.053 -0.3941  0.3907  0.4831
 3547SOL    HW122274   2.171   1.150   9.997  0.8998 -0.2845  0.5271
 3547SOL    HW222275   2.204   1.029  10.091  0.7890  1.4327 -0.2531
 3548SOL     OW22276   2.014   2.537   7.664  0.6802  0.3095 -0.3994
 3548SOL    HW122277   1.942   2.586   7.705 -0.6261 -2.1082  0.2017
 3548SOL    HW222278   2.035   2.607   7.602 -1.0135  1.3923  0.2556
 3549SOL     OW22279   1.051   2.459   7.461 -0.1992  0.0955 -0.3888
 3549SOL    HW122280   1.046   2.364   7.460  3.4580 -0.0929  0.2273
 3549SOL    HW222281   1.080   2.477   7.550  0.7209  1.0625 -0.8909
 3550SOL     OW22282   4.597   0.775   5.339 -0.7122 -0.2995  0.7311
 3550SOL    HW122283   4.506   0.774   5.368 -1.1497  2.1814 -0.4796
 3550SOL    HW222284   4.606   0.851   5.280 -1.4809 -2.7707 -2.5825
 3551SOL     OW22285   1.611   3.148   6.600  0.7357  0.1603  0.0677
 3551SOL    HW122286   1.664   3.171   6.524  4.9331 -0.1943  2.8503
 3551SOL    HW222287   1.540   3.108   6.549  0.0652 -0.4249  1.4344
 3552SOL     OW22288   0.598   4.635   2.010 -0.0410 -0.4567 -0.5669
 3552SOL    HW122289   0.611   4.677   1.925  0.9045  1.8239  0.6873
 3552SOL    HW222290   0.506   4.657   2.027  0.7007  0.4936  2.3332
 3553SOL     OW22291   3.303   4.033   2.401  0.0729  0.1440 -0.0051
 3553SOL    HW122292   3.298   3.942   2.432 -2.7260  0.9543  1.9244
 3553SOL    HW222293   3.358   4.067   2.472  0.9138 -0.6566 -0.2711
 3554SOL     OW22294   4.619   3.441  12.532 -0.4504  0.4522  0.6140
 3554SOL    HW122295   4.676   3.366  12.546 -0.4696 -0.0065 -1.7670
 3554SOL    HW222296   4.674   3.519  12.545 -1.5004  1.1504  0.9107
 3555SOL     OW22297   3.126   0.903  11.953  0.0855  0.1290 -0.3060
 3555SOL    HW122298   3.183   0.937  12.022  3.5207 -1.8257 -2.2222
 3555SOL    HW222299   3.164   0.952  11.880  2.5188  1.3545  1.7904
 3556SOL     OW22300   1.386   3.810   4.071  0.3719  0.3544 -0.1376
 3556SOL    HW122301   1.395   3.715   4.076 -0.5713  0.3081  0.5063
 3556SOL    HW222302   1.432   3.822   3.988  1.0671 -1.2309  0.0222
 3557SOL     OW22303   4.595   4.529   3.390  0.0028 -0.2231  0.3780
 3557SOL    HW122304   4.572   4.550   3.480 -1.2178 -1.2497  0.2985
 3557SOL    HW222305   4.639   4.613   3.372 -3.2925  1.1345 -1.2963
 3558SOL     OW22306   0.536   0.220   3.139 -0.1966 -0.1974  0.0194
 3558SOL    HW122307   0.596   0.166   3.089 -1.4539 -1.2098 -0.3786
 3558SOL    HW222308   0.516   0.167   3.217 -2.2591  1.6554  0.7464
 3559SOL     OW22309   3.038   0.964   5.994 -0.0178 -0.5253 -0.4226
 3559SOL    HW122310   3.017   0.973   6.087  1.7787  0.2286 -0.0786
 3559SOL    HW222311   3.075   0.876   5.993 -0.4673 -0.6757 -3.3474
 3560SOL     OW22312   3.872   1.715   1.087  0.4854  0.2114  0.1217
 3560SOL    HW122313   3.948   1.657   1.093 -0.8929 -1.4841  1.0235
 3560SOL    HW222314   3.836   1.679   1.006 -0.4243 -1.2195  1.1663
 3561SOL     OW22315   1.901   1.021   5.788  0.0814  0.1501 -0.3498
 3561SOL    HW122316   1.937   0.933   5.800 -0.6966  0.0291  1.0415
 3561SOL    HW222317   1.978   1.068   5.756 -0.5209  1.2661 -0.1695
 3562SOL     OW22318   0.902   4.631   5.166 -0.0683  0.5422  0.2462
 3562SOL    HW122319   0.865   4.547   5.193  0.4619  0.6876  1.4324
 3562SOL    HW222320   0.874   4.639   5.074  2.1408  0.7900 -0.4138
 3563SOL     OW22321   1.281   0.157   1.983  0.2248  0.0976 -0.2197
 3563SOL    HW122322   1.373   0.182   1.991  0.0995  0.1160  1.1549
 3563SOL    HW222323   1.287   0.064   1.962 -1.4515  0.1207 -0.8056
 3564SOL     OW22324   4.628   1.481   1.659 -0.0166  0.3766 -0.2486
 3564SOL    HW122325   4.567   1.478   1.586  0.1656  1.7434 -0.4552
 3564SOL    HW222326   4.680   1.401   1.652 -1.5891 -0.8249  1.8537
 3565SOL     OW22327   0.055   0.092   6.174  0.5060 -0.1766  0.2392
 3565SOL    HW122328   0.089   0.160   6.231  2.1345 -1.1849  0.4771
 3565SOL    HW222329   4.708   0.120   6.148  1.1074  1.3820 -0.0942
 3566SOL     OW22330   3.659   0.821   9.365  0.5961 -0.6927 -0.3914
 3566SOL    HW122331   3.677   0.915   9.364 -0.1435 -0.5488  0.1277
 3566SOL    HW222332   3.685   0.799   9.455  1.3495 -0.7707 -0.6287
 3567SOL     OW22333   0.189   0.911   3.602 -0.0224 -0.2620 -0.7984
 3567SOL    HW122334   0.242   0.984   3.634  1.0531 -1.8885  1.1130
 3567SOL    HW222335   0.220   0.903   3.512 -0.4202 -0.3900 -0.9240
 3568SOL     OW22336   2.487   2.809  16.440  0.4045 -0.3491 -0.2861
 3568SOL    HW122337   2.412   2.815  16.499 -0.3630  0.0815 -1.3078
 3568SOL    HW222338   2.557   2.786  16.501  1.6250  0.5342 -1.3595
 3569SOL     OW22339   1.218   4.354   4.541  0.0627  0.6800 -0.2311
 3569SOL    HW122340   1.310   4.338   4.561 -0.7791 -2.4434  1.3541
 3569SOL    HW222341   1.223   4.415   4.468 -1.1758 -0.9169 -1.6739
 3570SOL     OW22342   2.377   1.685   4.664 -0.3923  0.2990 -0.2501
 3570SOL    HW122343   2.421   1.697   4.748 -2.2788 -2.0894  1.0848
 3570SOL    HW222344   2.375   1.590   4.672 -1.1448  0.3750  0.4228
 3571SOL     OW22345   2.021   3.147  12.878  0.1772 -0.2026  0.4960
 3571SOL    HW122346   1.996   3.238  12.895  1.3590  0.0956  0.6294
 3571SOL    HW222347   2.057   3.160  12.791  0.8743 -0.8515  0.6844
 3572SOL     OW22348   3.725   0.891  11.015 -0.1681 -0.6911 -0.4184
 3572SOL    HW122349   3.687   0.860  10.933 -0.6856 -0.4438 -0.2752
 3572SOL    HW222350   3.663   0.842  11.070 -0.9839 -1.1559 -1.7397
 3573SOL     OW22351   4.327   3.235   3.428  0.0566  0.9249 -0.1342
 3573SOL    HW122352   4.263   3.164   3.429  1.0941  0.0214  1.4409
 3573SOL    HW222353   4.397   3.200   3.373  0.0003  0.0881  0.3198
 3574SOL     OW22354   2.266   3.477  15.842 -0.4646 -0.3294  0.4576
 3574SOL    HW122355   2.179   3.468  15.802  0.0613 -1.8674 -0.3318
 3574SOL    HW222356   2.289   3.570  15.842 -2.7167  0.2378 -2.4380
 3575SOL     OW22357   1.149   0.089   4.679  0.0039 -0.3334  0.1796
 3575SOL    HW122358   1.102   0.050   4.754  0.7350 -0.7037  0.4463
 3575SOL    HW222359   1.237   0.103   4.715 -0.1407 -0.1867  0.4747
 3576SOL     OW22360   3.329   2.933  13.044 -0.6175  0.5732  0.6806
 3576SOL    HW122361   3.305   2.884  12.966 -1.4178  1.3036  0.4613
 3576SOL    HW222362   3.406   2.884  13.072 -0.3742  0.3196 -0.4577
 3577SOL     OW22363   1.592   2.914  11.872  0.8391 -0.2516 -0.2564
 3577SOL    HW122364   1.623   3.000  11.900  0.7209 -0.6191  1.0144
 3577SOL    HW222365   1.497   2.930  11.868  1.0604  1.2023  0.2799
 3578SOL     OW22366   3.110   1.822   9.889 -0.1016 -0.0842  0.2446
 3578SOL    HW122367   3.191   1.862   9.922 -1.6057  2.7076  0.5594
 3578SOL    HW222368   3.092   1.881   9.816 -0.1096 -0.1016  0.2326
 3579SOL     OW22369   3.998   3.430  11.423  0.0970  0.3403  0.4834
 3579SOL    HW122370   4.006   3.415  11.518 -1.8636  0.4376  0.6547
 3579SOL    HW222371   4.048   3.354  11.393 -0.1921  0.3618 -0.0364
 3580SOL     OW22372   0.557   4.653  16.065 -0.6654 -0.0894  0.2302
 3580SOL    HW122373   0.637   4.698  16.035 -0.9100  0.7803  0.8950
 3580SOL    HW222374   0.598   4.573  16.098  1.4646  1.5536  1.5695
 3581SOL     OW22375   2.637   0.696  17.216 -0.1443  0.4119 -0.4082
 3581SOL    HW122376   2.629   0.702  17.311  0.4428 -0.1883 -0.3172
 3581SOL    HW222377   2.731   0.690  17.197  0.1184  1.1064  0.6850
 3582SOL     OW22378   3.697   0.998   1.301 -0.6277 -0.1110  0.6336
 3582SOL    HW122379   3.692   1.070   1.364  2.3050  1.4607 -0.9661
 3582SOL    HW222380   3.792   0.989   1.304 -0.5332  1.1553  1.4667
 3583SOL     OW22381   2.652   3.599   3.941  0.0374  0.5282  0.8399
 3583SOL    HW122382   2.604   3.604   4.023 -2.0274  2.9857 -0.5284
 3583SOL    HW222383   2.587   3.623   3.875 -0.8194 -1.3923  0.9834
 3584SOL     OW22384   2.626   0.313   7.122 -0.6862 -0.3597 -0.4859
 3584SOL    HW122385   2.616   0.284   7.213  0.3841  0.0471 -0.2385
 3584SOL    HW222386   2.593   0.403   7.131 -0.4626 -0.4468  1.3438
 3585SOL     OW22387   2.796   1.439  14.323  0.2892 -0.7038 -0.2992
 3585SOL    HW122388   2.807   1.451  14.229  2.8971  0.2205  0.1254
 3585SOL    HW222389   2.703   1.425  14.338  0.1840  0.1950 -0.0743
 3586SOL     OW22390   2.336   3.058  14.739 -0.0048  0.0399  0.3641
 3586SOL    HW122391   2.271   2.989  14.751  0.5260 -0.1793  1.9819
 3586SOL    HW222392   2.413   3.007  14.766 -0.8891 -1.3875  0.1672
 3587SOL     OW22393   3.952   4.267   4.754 -0.1079  0.0704  0.1937
 3587SOL    HW122394   4.024   4.259   4.816  1.2991  0.4097 -1.3905
 3587SOL    HW222395   3.886   4.319   4.799 -1.0277 -1.0116  0.0869
 3588SOL     OW22396   2.777   1.955   6.163  0.0300 -0.3178  0.5313
 3588SOL    HW122397   2.811   2.001   6.240  2.3458 -0.5569 -0.3343
 3588SOL    HW222398   2.698   2.005   6.141 -0.4998 -1.8277 -0.9944
 3589SOL     OW22399   2.155   1.097  17.199  0.5985 -0.2937  0.5092
 3589SOL    HW122400   2.240   1.083  17.157  0.7606 -0.4827  0.8998
 3589SOL    HW222401   2.114   1.163  17.143  1.9360  0.4895  0.4472
 3590SOL     OW22402   4.347   1.106   4.685  0.1695 -0.3869 -0.1851
 3590SOL    HW122403   4.391   1.041   4.630 -0.0080 -1.6994  1.2473
 3590SOL    HW222404   4.391   1.071   4.763 -1.4759 -0.5790  0.6481
 3591SOL     OW22405   4.559   0.658  12.830 -0.8460 -0.6193  0.7330
 3591SOL    HW122406   4.521   0.725  12.774  1.4374 -0.8486 -1.0828
 3591SOL    HW222407   4.485   0.599  12.844 -0.1343 -1.4819  0.8723
 3592SOL     OW22408   1.425   2.158   5.223 -0.8609  0.4535  0.6785
 3592SOL    HW122409   1.446   2.241   5.181 -0.4231  0.3063  0.6028
 3592SOL    HW222410   1.412   2.197   5.309  0.7017 -0.3019  1.2678
 3593SOL     OW22411   4.716   2.362   2.270  0.5344 -0.0071 -0.6374
 3593SOL    HW122412   0.036   2.354   2.196  0.9533  1.0786 -0.4129
 3593SOL    HW222413   4.626   2.366   2.237 -0.2017  0.4760  1.4756
 3594SOL     OW22414   3.303   0.382   7.887  0.3972  0.1877  0.2611
 3594SOL    HW122415   3.228   0.376   7.828  0.8433 -2.0649 -0.0827
 3594SOL    HW222416   3.326   0.289   7.899  2.9426  0.8896  0.7287
 3595SOL     OW22417   0.261   1.998   7.105 -0.0091  0.4155  0.9094
 3595SOL    HW122418   0.172   2.033   7.106 -0.1384  0.1471 -1.3080
 3595SOL    HW222419   0.300   2.057   7.040 -0.5729 -0.3079 -0.0776
 3596SOL     OW22420   0.547   2.974   2.620 -0.3450  0.7334 -0.0755
 3596SOL    HW122421   0.496   3.041   2.665 -0.3167  0.5196  0.2677
 3596SOL    HW222422   0.482   2.948   2.554 -0.6400 -2.4258  1.4315
 3597SOL     OW22423   3.273   2.883   2.248 -0.0352 -0.7003  0.3311
 3597SOL    HW122424   3.257   2.814   2.312 -2.8943 -0.0015  0.3554
 3597SOL    HW222425   3.202   2.865   2.187 -1.8642  1.9338  1.6818
 3598SOL     OW22426   2.066   4.257  15.984 -0.6572 -0.0279  0.0929
 3598SOL    HW122427   2.066   4.206  15.904 -0.4655  0.7972 -0.4343
 3598SOL    HW222428   2.146   4.224  16.025 -2.4871 -2.1940  1.9162
 3599SOL     OW22429   1.053   2.653   9.349 -0.2835  0.3241  0.2654
 3599SOL    HW122430   0.979   2.615   9.396  2.0088 -1.6188  2.2826
 3599SOL    HW222431   1.110   2.576   9.349  0.2804  0.7555  2.1627
 3600SOL     OW22432   3.023   4.328   9.612 -0.3988 -0.3031 -0.7653
 3600SOL    HW122433   3.045   4.246   9.654 -0.0794  0.8937  1.3985
 3600SOL    HW222434   2.991   4.371   9.692  1.4873  1.5632 -1.0099
 3601SOL     OW22435   0.527   0.351   6.046 -0.1401 -0.2792 -0.0585
 3601SOL    HW122436   0.588   0.333   5.974 -1.1011 -0.4497 -0.8449
 3601SOL    HW222437   0.460   0.405   6.003 -0.5611 -1.0683 -0.4077
 3602SOL     OW22438   1.935   2.562   6.398  0.3777  0.5872 -0.0879
 3602SOL    HW122439   1.941   2.653   6.368  2.7225  0.8003  1.0303
 3602SOL    HW222440   1.855   2.532   6.355 -0.5451  0.5779  1.6137
 3603SOL     OW22441   3.817   4.221   3.165  0.5619 -0.8198  0.0854
 3603SOL    HW122442   3.752   4.278   3.125  0.9469  0.3632  1.1602
 3603SOL    HW222443   3.852   4.285   3.227 -0.9175 -1.5999  1.7463
 3604SOL     OW22444   0.046   0.520   1.687  0.3007  0.2698  0.0378
 3604SOL    HW122445   0.098   0.527   1.606  0.9553 -0.7432  0.3642
 3604SOL    HW222446   0.047   0.425   1.698  0.9909  0.0926 -1.5785
 3605SOL     OW22447   1.261   2.967   6.751 -0.4835  0.2009  0.2450
 3605SOL    HW122448   1.210   3.030   6.699  0.6226  1.0032  0.1345
 3605SOL    HW222449   1.214   2.973   6.834 -0.2414  0.7040  0.3452
 3606SOL     OW22450   1.895   2.690  13.097 -0.5158 -0.0413 -0.7069
 3606SOL    HW122451   1.924   2.603  13.124  0.1575  0.8482  1.4184
 3606SOL    HW222452   1.938   2.697  13.013 -0.2925  0.2712 -0.5653
 3607SOL     OW22453   3.942   2.665   8.588 -0.1115  0.1292 -0.6495
 3607SOL    HW122454   3.954   2.581   8.632  0.1702  0.4033 -0.1918
 3607SOL    HW222455   3.851   2.681   8.614 -0.8837 -1.7276 -2.1804
 3608SOL     OW22456   0.337   1.266  17.036  0.4378 -0.1545  0.4796
 3608SOL    HW122457   0.379   1.188  17.000  0.0832 -0.5716  0.9777
 3608SOL    HW222458   0.292   1.232  17.113 -1.8554  0.8396 -0.3940
 3609SOL     OW22459   3.203   1.242   7.423  0.1964  0.1199  0.3060
 3609SOL    HW122460   3.254   1.312   7.462 -0.6172  0.3590  0.9440
 3609SOL    HW222461   3.179   1.192   7.501  2.7907  1.1370  1.7378
 3610SOL     OW22462   0.913   4.567   8.859  0.1479  0.0256 -0.3831
 3610SOL    HW122463   0.966   4.588   8.936  1.5810 -0.7589 -1.1362
 3610SOL    HW222464   0.822   4.583   8.884  0.4913 -1.6535  1.9062
 3611SOL     OW22465   3.069   0.244   0.833  0.2635 -0.0568 -0.0208
 3611SOL    HW122466   3.067   0.226   0.927 -0.6692  0.8829  0.1408
 3611SOL    HW222467   3.083   0.156   0.798 -0.9570 -0.6114  0.9228
 3612SOL     OW22468   4.723   3.572   4.748  0.0792  0.2878  0.0533
 3612SOL    HW122469   4.693   3.622   4.672  0.2645 -1.2641 -1.0598
 3612SOL    HW222470   4.637   3.547   4.782  0.3773 -1.6733 -0.6124
 3613SOL     OW22471   0.162   0.600  13.238  0.0521  0.2673 -0.5262
 3613SOL    HW122472   0.076   0.581  13.200 -1.2182 -0.6971  2.8183
 3613SOL    HW222473   0.144   0.550  13.318  0.1838  0.9838 -0.0489
 3614SOL     OW22474   4.356   1.359   2.758  0.3984  0.0094  0.3003
 3614SOL    HW122475   4.432   1.305   2.779  0.1882 -1.2574 -2.2804
 3614SOL    HW222476   4.297   1.298   2.715  0.1231  0.6412 -0.2278
 3615SOL     OW22477   1.920   3.071   9.081  0.1174 -0.2121 -0.0295
 3615SOL    HW122478   1.911   3.011   9.155 -1.6637  2.0182  1.5642
 3615SOL    HW222479   1.933   3.156   9.123 -1.2547  0.6012 -1.2546
 3616SOL     OW22480   4.719   2.937   3.808  0.2119 -0.0787 -0.7620
 3616SOL    HW122481   4.654   2.883   3.851 -1.2365  1.6288 -0.7902
 3616SOL    HW222482   4.734   3.014   3.863 -0.8314 -0.0072 -0.5942
 3617SOL     OW22483   4.143   1.735   5.618  0.4409 -0.4135 -0.3782
 3617SOL    HW122484   4.107   1.824   5.615 -0.9368 -0.9268  0.8538
 3617SOL    HW222485   4.237   1.752   5.624  0.4452 -0.1656 -1.1385
 3618SOL     OW22486   3.561   0.489   7.220 -0.2130  0.2778  0.2357
 3618SOL    HW122487   3.630   0.502   7.155 -1.0776 -3.0964 -1.3756
 3618SOL    HW222488   3.526   0.404   7.194 -0.8537  0.4089  0.6527
 3619SOL     OW22489   1.805   4.717   4.170 -0.4522 -0.4145  0.2477
 3619SOL    HW122490   1.709   4.726   4.168 -0.4402 -0.8640 -2.3918
 3619SOL    HW222491   1.827   0.014   4.085 -0.8126  0.3049  0.4793
 3620SOL     OW22492   4.615   3.190   7.678  0.3472  0.5573 -0.1618
 3620SOL    HW122493   4.663   3.151   7.605 -0.2238 -1.4099  0.5084
 3620SOL    HW222494   4.533   3.226   7.644 -0.3047 -0.3617  0.4327
 3621SOL     OW22495   2.276   3.013  12.489  0.3709 -0.6303 -0.0143
 3621SOL    HW122496   2.320   3.098  12.479 -0.3968 -0.2395 -0.1041
 3621SOL    HW222497   2.236   3.007  12.402  2.1133 -0.4240 -0.8319
 3622SOL     OW22498   2.049   3.915  15.057 -0.3454  0.7242 -0.0026
 3622SOL    HW122499   2.036   3.839  15.113  1.4836 -0.0138 -0.5819
 3622SOL    HW222500   1.962   3.926  15.019 -0.3210  0.6714 -0.0753
 3623SOL     OW22501   0.817   2.312   5.897 -0.1008 -0.0526 -0.3307
 3623SOL    HW122502   0.868   2.388   5.869 -2.1253  1.5229  0.2492
 3623SOL    HW222503   0.777   2.275   5.819 -1.2039  0.2427  0.1070
 3624SOL     OW22504   3.474   1.758   7.546  0.7660 -0.1774 -0.1779
 3624SOL    HW122505   3.462   1.830   7.484 -1.0504 -1.5309 -1.3923
 3624SOL    HW222506   3.395   1.769   7.598  0.9259  0.7094 -0.1251
 3625SOL     OW22507   0.029   3.286   6.777  0.0441  0.1414  0.6423
 3625SOL    HW122508   0.083   3.361   6.752  0.3728 -0.3512 -0.1257
 3625SOL    HW222509   0.058   3.233   6.703  0.1160 -1.2059  1.6471
 3626SOL     OW22510   2.892   3.855   3.785  0.1714 -0.1296 -0.0136
 3626SOL    HW122511   2.859   3.887   3.869  1.5649 -0.2830  0.5835
 3626SOL    HW222512   2.822   3.793   3.764  1.1645 -1.1305 -0.3786
 3627SOL     OW22513   1.288   3.614   8.733  0.3658  0.6512 -0.1960
 3627SOL    HW122514   1.278   3.555   8.658  2.3235  0.9972 -0.7297
 3627SOL    HW222515   1.208   3.667   8.732 -0.4618 -0.6545 -2.9922
 3628SOL     OW22516   4.577   4.620   4.550 -0.6392  0.5673  0.1573
 3628SOL    HW122517   4.583   4.667   4.633  1.1095  1.3022 -0.3815
 3628SOL    HW222518   4.530   4.682   4.495 -2.6594  0.7535  2.0945
 3629SOL     OW22519   1.401   1.525   1.177  0.1052  0.2235 -0.1050
 3629SOL    HW122520   1.390   1.469   1.254  3.3020  1.5318  1.2759
 3629SOL    HW222521   1.450   1.604   1.198 -0.6322  1.3706 -2.6303
 3630SOL     OW22522   4.135   3.262   7.228  0.2202  0.0952  0.4158
 3630SOL    HW122523   4.114   3.216   7.147  3.3396 -0.3510 -0.1339
 3630SOL    HW222524   4.100   3.202   7.294 -1.5916  1.5293  0.7815
 3631SOL     OW22525   3.045   3.092  16.511 -0.1720 -0.0163 -0.0114
 3631SOL    HW122526   3.070   3.052  16.427 -1.5800  0.9808 -0.8995
 3631SOL    HW222527   2.986   3.165  16.495 -1.0074 -0.5547  0.6139
 3632SOL     OW22528   3.832   2.538   7.028 -0.4000  0.1985  0.1720
 3632SOL    HW122529   3.771   2.472   7.062  2.2372 -3.3717 -2.1608
 3632SOL    HW222530   3.852   2.519   6.937 -2.7415  0.3747 -0.3760
 3633SOL     OW22531   4.156   3.248   2.498 -0.0649 -0.6214  0.0332
 3633SOL    HW122532   4.111   3.318   2.544 -2.1315 -2.2998  0.5861
 3633SOL    HW222533   4.243   3.280   2.520 -0.7370  1.3245 -0.1348
 3634SOL     OW22534   2.087   4.085  15.781 -0.3463 -0.2323 -0.0954
 3634SOL    HW122535   2.167   4.094  15.730 -0.2732  0.4871  0.1392
 3634SOL    HW222536   2.014   4.073  15.720 -0.8607 -1.4159  0.7502
 3635SOL     OW22537   3.343   2.526   6.492 -0.0766 -0.2955  0.5305
 3635SOL    HW122538   3.362   2.597   6.553 -0.7984 -0.5517  1.0610
 3635SOL    HW222539   3.428   2.487   6.474 -0.4594 -1.4688  1.2157
 3636SOL     OW22540   4.580   2.445  15.555  0.2546 -0.1730 -1.0249
 3636SOL    HW122541   4.559   2.390  15.479 -1.1336 -2.3756  0.9462
 3636SOL    HW222542   4.674   2.438  15.538 -0.1611 -1.2800 -2.9087
 3637SOL     OW22543   3.658   3.899   1.344 -0.0404  0.2867  0.3116
 3637SOL    HW122544   3.696   3.877   1.429 -1.7431 -2.5622  0.3739
 3637SOL    HW222545   3.571   3.917   1.380 -1.5795 -3.1373 -1.7393
 3638SOL     OW22546   2.583   2.120   5.681 -0.0648 -0.1940 -0.0714
 3638SOL    HW122547   2.555   2.196   5.631 -0.2787 -0.0150  0.3228
 3638SOL    HW222548   2.501   2.086   5.716 -0.4562 -0.4698 -1.2419
 3639SOL     OW22549   3.468   0.516  12.514 -0.1967 -0.2984  0.0861
 3639SOL    HW122550   3.526   0.533  12.588  1.9178  0.8568 -1.8352
 3639SOL    HW222551   3.436   0.429  12.539  1.6877 -1.4983 -1.6253
 3640SOL     OW22552   3.039   4.396   7.333 -0.2566 -0.6533 -0.0679
 3640SOL    HW122553   2.995   4.478   7.356  1.6920  0.0733  1.0811
 3640SOL    HW222554   2.971   4.341   7.371  1.3256 -1.4680  1.5428
 3641SOL     OW22555   1.511   0.369   2.073 -0.3811  0.2629 -0.2278
 3641SOL    HW122556   1.516   0.365   1.977  1.8765 -1.3378 -0.0450
 3641SOL    HW222557   1.601   0.398   2.089 -0.4337 -0.6194  1.6731
 3642SOL     OW22558   1.508   0.666  13.407 -0.1080 -0.0642  0.2517
 3642SOL    HW122559   1.530   0.759  13.404  0.5552 -0.2860 -1.5912
 3642SOL    HW222560   1.597   0.631  13.398 -0.4885 -1.4210  1.8974
 3643SOL     OW22561   2.337   1.180  10.739  0.3290 -0.8304 -0.8075
 3643SOL    HW122562   2.374   1.115  10.798  0.4687  0.6881  0.7472
 3643SOL    HW222563   2.409   1.239  10.717 -1.7306  1.9923  0.0644
 3644SOL     OW22564   3.149   1.373   2.683 -0.0150  0.1813  0.3238
 3644SOL    HW122565   3.191   1.375   2.597 -0.8586 -2.4288 -0.1369
 3644SOL    HW222566   3.226   1.370   2.740  1.1244 -0.1960 -1.2468
 3645SOL     OW22567   4.449   2.425   4.265 -0.3450  0.1014  0.6744
 3645SOL    HW122568   4.532   2.444   4.308 -0.0859  2.1105 -0.6816
 3645SOL    HW222569   4.413   2.512   4.284 -1.7269 -0.0558 -1.2180
 3646SOL     OW22570   1.274   3.509   2.070  0.1795  0.3752 -0.5450
 3646SOL    HW122571   1.201   3.497   2.131  0.4304  2.0414  0.1040
 3646SOL    HW222572   1.252   3.590   2.024 -1.6880 -0.1639 -0.5703
 3647SOL     OW22573   2.063   4.703  10.331 -0.4401 -0.4100 -0.4469
 3647SOL    HW122574   2.097   0.002  10.251  0.4672  0.0976  0.1907
 3647SOL    HW222575   1.970   4.725  10.330 -0.2746  0.2246 -2.0177
 3648SOL     OW22576   0.627   3.112   2.354  0.8903  0.3880  0.1949
 3648SOL    HW122577   0.684   3.051   2.400  2.7387  0.5203 -1.9376
 3648SOL    HW222578   0.537   3.088   2.378 -0.0830  1.4739 -2.2976
 3649SOL     OW22579   2.203   3.404   2.845 -0.2074  0.3929 -0.0002
 3649SOL    HW122580   2.256   3.468   2.799 -0.4831 -0.1440 -1.0775
 3649SOL    HW222581   2.194   3.331   2.784 -0.6031 -1.4205  2.1896
 3650SOL     OW22582   4.725   4.080   3.129  0.1416 -0.0363 -0.1562
 3650SOL    HW122583   4.683   4.103   3.046 -2.0022  0.4581  1.0665
 3650SOL    HW222584   4.704   3.989   3.149 -3.2339  0.6996 -0.3503
 3651SOL     OW22585   2.986   3.212   4.335  0.2592  0.7343  0.1619
 3651SOL    HW122586   2.908   3.177   4.377  0.5437  1.2465  1.1181
 3651SOL    HW222587   3.052   3.192   4.402 -0.0143 -0.2250  0.1480
 3652SOL     OW22588   0.947   3.835   4.857 -1.0006  0.3072  0.4665
 3652SOL    HW122589   0.913   3.921   4.882 -1.8712  0.0248  0.2814
 3652SOL    HW222590   0.982   3.821   4.945 -0.2973 -2.6553 -0.2718
 3653SOL     OW22591   1.469   0.679  13.708 -0.3659  0.0883  0.0279
 3653SOL    HW122592   1.468   0.689  13.613  0.8739  2.0771  0.2269
 3653SOL    HW222593   1.432   0.761  13.739 -0.2747  0.6741 -1.4627
 3654SOL     OW22594   2.740   2.194   8.985 -0.2678 -0.6157 -0.1941
 3654SOL    HW122595   2.736   2.188   8.890 -3.0397 -1.6116  0.0065
 3654SOL    HW222596   2.789   2.273   9.009  2.1317 -2.2046  0.1980
 3655SOL     OW22597   4.386   0.577   4.929  0.2383  1.0305  0.4442
 3655SOL    HW122598   4.400   0.564   4.835 -0.1236  0.7406  0.4305
 3655SOL    HW222599   4.470   0.576   4.975 -0.1578  0.0449  1.1323
 3656SOL     OW22600   0.619   2.286  13.724  0.0766  0.1565  0.3182
 3656SOL    HW122601   0.549   2.328  13.775 -0.4715 -1.1854  0.6647
 3656SOL    HW222602   0.696   2.288  13.781 -0.8949 -0.6883  1.6663
 3657SOL     OW22603   2.914   1.462   3.413 -0.1382 -0.3133  0.1973
 3657SOL    HW122604   2.942   1.544   3.453 -2.2658  0.5866 -0.1638
 3657SOL    HW222605   2.991   1.408   3.430 -0.5136 -0.6656  0.7697
 3658SOL     OW22606   4.563   2.206  10.746  0.0425 -0.1615  0.1255
 3658SOL    HW122607   4.562   2.259  10.667  1.8755 -2.8180 -1.6599
 3658SOL    HW222608   4.470   2.212  10.770  0.1617 -1.7244  0.9520
 3659SOL     OW22609   3.120   2.884  13.736 -0.2815  0.2692 -0.2593
 3659SOL    HW122610   3.036   2.901  13.694 -1.7994 -0.4421  2.4718
 3659SOL    HW222611   3.095   2.809  13.790 -0.0806 -0.5650 -1.3268
 3660SOL     OW22612   0.484   4.336  15.914  0.0145  0.3356  1.1007
 3660SOL    HW122613   0.509   4.292  15.832  3.1037  2.1962  1.0573
 3660SOL    HW222614   0.472   4.255  15.963  1.2668 -1.0924 -0.9537
 3661SOL     OW22615   0.684   0.370   3.463  0.5504  0.3493 -0.3049
 3661SOL    HW122616   0.596   0.349   3.433 -0.6575  1.4855  2.4678
 3661SOL    HW222617   0.692   0.297   3.525 -1.1732 -0.5382 -1.1165
 3662SOL     OW22618   2.712   3.674   4.666 -0.2457 -0.5302  0.3058
 3662SOL    HW122619   2.717   3.590   4.620 -0.2532  0.5301 -1.6741
 3662SOL    HW222620   2.776   3.728   4.619 -0.0788 -1.2340 -0.2876
 3663SOL     OW22621   1.496   0.684   0.753 -0.6122 -0.7649 -0.1335
 3663SOL    HW122622   1.453   0.613   0.707 -2.1293 -1.1093  1.7866
 3663SOL    HW222623   1.522   0.742   0.682 -0.9459 -1.0464 -0.4797
 3664SOL     OW22624   2.129   3.233   1.716 -0.0737 -0.0927 -0.6049
 3664SOL    HW122625   2.086   3.150   1.695  0.3706 -0.8367  1.4532
 3664SOL    HW222626   2.050   3.284   1.735  1.3296  1.2528  1.5948
 3665SOL     OW22627   1.396   3.080   3.194  0.3736 -0.3352  0.6610
 3665SOL    HW122628   1.311   3.035   3.193 -0.2863  0.9507 -1.1710
 3665SOL    HW222629   1.410   3.070   3.100 -0.3692  1.9008  0.3030
 3666SOL     OW22630   0.301   3.995   8.768  0.2359 -0.9470  0.6182
 3666SOL    HW122631   0.245   3.922   8.742 -1.0337 -0.1017  0.9902
 3666SOL    HW222632   0.288   4.000   8.863 -0.7784 -1.0229  0.4839
 3667SOL     OW22633   0.174   1.683  16.562 -0.1258 -0.0063 -0.4085
 3667SOL    HW122634   0.174   1.704  16.655  1.9453 -2.7215  0.1935
 3667SOL    HW222635   0.138   1.595  16.573  0.2216 -0.0829  0.0966
 3668SOL     OW22636   0.593   4.093   3.032  0.6548 -0.3899  0.0884
 3668SOL    HW122637   0.656   4.025   3.055  0.8592  0.3839  1.7618
 3668SOL    HW222638   0.568   4.082   2.940 -0.3920 -1.2915  0.4771
 3669SOL     OW22639   2.299   4.366  14.492 -0.3040 -0.0767  0.1884
 3669SOL    HW122640   2.344   4.398  14.570 -1.4590  1.1096  0.3750
 3669SOL    HW222641   2.355   4.289  14.481  1.2725  1.0685  0.3335
 3670SOL     OW22642   2.444   0.543   3.977 -0.3799 -0.0664 -0.5979
 3670SOL    HW122643   2.499   0.585   4.042 -0.3192  0.0299 -0.7134
 3670SOL    HW222644   2.354   0.558   4.006  0.2567 -0.8017  1.7346
 3671SOL     OW22645   2.634   4.077   6.291  0.3716 -0.5967 -0.5707
 3671SOL    HW122646   2.580   4.137   6.342  1.1359 -0.8174  0.5016
 3671SOL    HW222647   2.693   4.131   6.238  0.9648 -0.7204 -0.0482
 3672SOL     OW22648   3.200   4.187   8.144  0.5286  0.1562 -0.6664
 3672SOL    HW122649   3.179   4.123   8.076 -0.2189 -0.8458  0.5168
 3672SOL    HW222650   3.276   4.228   8.104  1.5668 -0.9638  0.1539
 3673SOL     OW22651   2.241   2.625  17.642  0.1960  0.1335 -0.2179
 3673SOL    HW122652   2.260   2.532  17.648  2.0963  0.5376  0.3179
 3673SOL    HW222653   2.287   2.645  17.560 -0.2796  0.0003 -0.5126
 3674SOL     OW22654   4.218   3.481   3.004 -0.7485 -0.4787 -0.7052
 3674SOL    HW122655   4.147   3.424   3.035  0.0294 -2.0464 -1.7622
 3674SOL    HW222656   4.268   3.408   2.966  0.0205 -1.0652  1.4388
 3675SOL     OW22657   0.319   3.272   3.679  0.0134 -0.3561 -0.1472
 3675SOL    HW122658   0.379   3.285   3.753 -0.8168 -0.3974  0.5457
 3675SOL    HW222659   0.376   3.240   3.610 -1.0871  0.1698 -1.2877
 3676SOL     OW22660   1.558   3.604   7.453 -0.2537 -0.1441 -0.1576
 3676SOL    HW122661   1.594   3.615   7.541 -0.8325  3.3131 -0.3476
 3676SOL    HW222662   1.464   3.602   7.470 -0.3993  0.6940 -0.8157
 3677SOL     OW22663   0.472   4.117  16.863 -0.0942 -0.0159 -0.2617
 3677SOL    HW122664   0.402   4.182  16.865 -0.0439  0.0132  0.3281
 3677SOL    HW222665   0.434   4.051  16.920 -0.6997  0.2720 -0.3306
 3678SOL     OW22666   1.524   4.017   8.836  0.0469 -0.5431  0.1450
 3678SOL    HW122667   1.468   3.988   8.764 -1.1239  1.1137  0.3741
 3678SOL    HW222668   1.579   4.076   8.784 -0.1522  1.8276  2.6115
 3679SOL     OW22669   2.970   1.210   1.780  0.2449  0.0785 -0.0210
 3679SOL    HW122670   2.921   1.177   1.705  0.3050  0.0411 -0.0431
 3679SOL    HW222671   3.019   1.133   1.808 -0.7746  0.4266  2.7802
 3680SOL     OW22672   0.599   2.332   3.107  0.5348 -0.4322  0.1600
 3680SOL    HW122673   0.596   2.421   3.073 -0.5963 -0.1644  0.9605
 3680SOL    HW222674   0.510   2.303   3.088  0.9455 -1.8975  0.4792
 3681SOL     OW22675   4.342   3.819   5.436 -0.7943 -0.0253 -0.6114
 3681SOL    HW122676   4.270   3.763   5.407 -1.1579  0.7032 -1.1272
 3681SOL    HW222677   4.331   3.891   5.375 -0.7321 -0.9120 -1.6638
 3682SOL     OW22678   3.226   2.543   4.338 -0.2854 -0.2086  0.1716
 3682SOL    HW122679   3.279   2.601   4.284  0.1168  0.2778  1.0771
 3682SOL    HW222680   3.160   2.523   4.273 -0.3753 -2.2552  0.9081
 3683SOL     OW22681   4.518   3.136   6.556 -0.1332 -0.1601  0.4723
 3683SOL    HW122682   4.541   3.196   6.627 -0.0399  0.6360 -0.2277
 3683SOL    HW222683   4.425   3.152   6.540 -0.5294 -0.9750  1.9093
 3684SOL     OW22684   3.469   2.633   2.264 -0.3018 -0.0361  0.3177
 3684SOL    HW122685   3.426   2.560   2.220  2.2260 -0.3411 -1.7136
 3684SOL    HW222686   3.474   2.702   2.197 -0.9544 -1.1369 -0.8729
 3685SOL     OW22687   2.605   4.612  15.560 -0.4491 -0.3659  0.0951
 3685SOL    HW122688   2.695   4.639  15.574 -0.4836 -0.2105  0.0237
 3685SOL    HW222689   2.599   4.526  15.600  0.1642 -0.5812 -0.2894
 3686SOL     OW22690   3.861   4.106   0.561 -0.6104  0.1312 -0.1410
 3686SOL    HW122691   3.826   4.098   0.649  0.8219  0.7743  0.4939
 3686SOL    HW222692   3.857   4.019   0.520 -0.3094 -0.2611  0.6506
 3687SOL     OW22693   2.317   1.047   9.201  0.6824 -0.2683  0.0780
 3687SOL    HW122694   2.238   1.049   9.147  0.3412 -1.4089  0.5406
 3687SOL    HW222695   2.371   1.118   9.165  0.0846  0.7659  1.2198
 3688SOL     OW22696   4.587   4.051   1.594  0.2058 -0.2457 -0.0065
 3688SOL    HW122697   4.545   3.995   1.660 -1.4538  0.9882 -0.0142
 3688SOL    HW222698   4.507   4.066   1.545 -0.0928 -0.5581  0.3808
 3689SOL     OW22699   2.710   0.828   7.201  0.0751  0.0392 -0.6763
 3689SOL    HW122700   2.712   0.769   7.276 -0.1596 -0.5925 -1.1639
 3689SOL    HW222701   2.774   0.894   7.227 -0.3056 -0.3005  1.1173
 3690SOL     OW22702   4.630   1.100  12.190  0.0958  0.2400 -0.7359
 3690SOL    HW122703   4.603   1.165  12.255 -0.8534 -0.6471 -0.2565
 3690SOL    HW222704   4.683   1.156  12.132 -1.7018  0.0952 -2.5098
 3691SOL     OW22705   0.494   0.556  14.365 -0.3455 -0.1350 -0.3965
 3691SOL    HW122706   0.485   0.583  14.456 -2.2947  4.6951 -2.0312
 3691SOL    HW222707   0.587   0.533  14.373 -0.1308  1.5832  1.8840
 3692SOL     OW22708   0.213   0.394   3.262 -0.7027  0.1092  0.3459
 3692SOL    HW122709   0.249   0.483   3.261  0.0214 -0.1650  1.3612
 3692SOL    HW222710   0.119   0.400   3.246 -0.7239 -0.8178  0.1535
 3693SOL     OW22711   0.780   1.886   8.526 -0.1596 -0.0736 -0.4084
 3693SOL    HW122712   0.780   1.893   8.431 -0.4304  0.2020 -0.3857
 3693SOL    HW222713   0.871   1.862   8.542 -0.2486  1.3900  2.3040
 3694SOL     OW22714   0.039   0.845  11.511 -0.2380  0.0856  0.0753
 3694SOL    HW122715   0.050   0.883  11.423  0.1554  0.6836  0.3826
 3694SOL    HW222716   4.712   0.901  11.549 -0.0470  0.5687 -0.2893
 3695SOL     OW22717   3.071   1.601   8.138  0.5619 -0.5582 -0.2233
 3695SOL    HW122718   3.139   1.568   8.080  1.7373  0.1329  0.7714
 3695SOL    HW222719   3.123   1.660   8.191 -0.6916  0.3726 -0.0323
 3696SOL     OW22720   4.051   2.647   4.797 -0.3159 -0.0344  0.6523
 3696SOL    HW122721   4.015   2.561   4.776 -1.2279  0.5383 -0.1355
 3696SOL    HW222722   4.033   2.692   4.715 -2.8114 -1.6884  0.2721
 3697SOL     OW22723   0.703   4.353   5.496 -0.3588 -0.5193  0.2727
 3697SOL    HW122724   0.663   4.380   5.579  1.4362 -2.5888  1.7957
 3697SOL    HW222725   0.796   4.367   5.514 -0.3006  0.8116 -1.0505
 3698SOL     OW22726   1.114   0.895   4.275  0.1323 -1.0323 -1.0733
 3698SOL    HW122727   1.164   0.962   4.228  2.4211 -1.2401  1.0843
 3698SOL    HW222728   1.022   0.908   4.251  0.0759  2.7449  1.3007
 3699SOL     OW22729   0.824   1.316   7.717  0.5902  0.8288  0.3114
 3699SOL    HW122730   0.833   1.392   7.774 -2.2668  1.6705 -0.3734
 3699SOL    HW222731   0.844   1.352   7.630  0.0933 -0.3352 -0.2827
 3700SOL     OW22732   2.189   0.407   6.846 -0.0737 -0.5876 -0.4499
 3700SOL    HW122733   2.278   0.372   6.846  0.0489 -0.2863  0.9520
 3700SOL    HW222734   2.166   0.387   6.937  0.9988 -0.5342 -0.1634
 3701SOL     OW22735   4.218   4.232   7.064 -0.2330 -0.5188 -0.2429
 3701SOL    HW122736   4.278   4.157   7.068  2.2393  1.4533 -0.6636
 3701SOL    HW222737   4.212   4.238   7.160  3.1271  2.4616 -0.2014
 3702SOL     OW22738   1.081   2.279   3.305 -0.3713  0.0812  0.5774
 3702SOL    HW122739   1.177   2.277   3.300 -0.3308 -0.5631  1.5372
 3702SOL    HW222740   1.069   2.290   3.399 -2.1186 -3.4813  0.7760
 3703SOL     OW22741   1.317   0.954   3.541 -0.1574 -0.1149  0.3167
 3703SOL    HW122742   1.353   1.040   3.519 -0.4774 -0.0120  0.2054
 3703SOL    HW222743   1.222   0.965   3.543 -0.0828  0.4398  0.8342
 3704SOL     OW22744   3.554   1.570   4.391 -0.3840  0.2852  0.4647
 3704SOL    HW122745   3.466   1.565   4.428 -0.7850 -0.9627 -0.6603
 3704SOL    HW222746   3.567   1.475   4.381 -3.7070 -0.2593  1.2487
 3705SOL     OW22747   2.552   3.187  13.554 -0.2870  0.8025 -0.3888
 3705SOL    HW122748   2.461   3.156  13.559 -0.0669  0.3780  0.8387
 3705SOL    HW222749   2.597   3.116  13.508 -2.1505 -1.1198  0.7565
 3706SOL     OW22750   4.606   3.587   3.842 -0.5186  0.0619 -0.3578
 3706SOL    HW122751   4.582   3.661   3.786  2.2126  0.5675 -0.8441
 3706SOL    HW222752   4.546   3.519   3.811 -0.6503  0.8062 -1.7325
 3707SOL     OW22753   3.016   3.075   2.948 -0.2257  0.1832  0.0213
 3707SOL    HW122754   3.007   3.045   3.039 -0.9047 -1.5314 -0.6134
 3707SOL    HW222755   2.924   3.066   2.923 -0.3594 -0.5499  0.7945
 3708SOL     OW22756   0.287   1.118   7.136 -0.2423  0.2203 -0.3822
 3708SOL    HW122757   0.321   1.207   7.128  2.5300 -0.9332 -1.4550
 3708SOL    HW222758   0.225   1.105   7.065  1.0981 -3.8584 -0.8091
 3709SOL     OW22759   1.811   0.327   8.868 -0.6289  0.4889  0.5460
 3709SOL    HW122760   1.886   0.276   8.900  0.9818  1.4928 -1.6024
 3709SOL    HW222761   1.834   0.319   8.776  2.2888  0.6653  1.2276
 3710SOL     OW22762   1.970   2.752  13.369  0.3809  0.8531 -0.6961
 3710SOL    HW122763   1.902   2.745  13.301 -0.0698 -2.0626  0.0182
 3710SOL    HW222764   1.944   2.676  13.422  1.8087 -1.0102 -2.6432
 3711SOL     OW22765   0.272   3.737   4.833 -0.2200  0.2269  0.0610
 3711SOL    HW122766   0.324   3.705   4.906  0.4229 -1.1650 -1.0097
 3711SOL    HW222767   0.291   3.666   4.772  0.0178 -2.5865  3.4440
 3712SOL     OW22768   4.258   4.517   0.885  0.3159  0.3399 -0.2815
 3712SOL    HW122769   4.337   4.556   0.922  1.0657 -0.2181 -1.2683
 3712SOL    HW222770   4.303   4.512   0.800 -1.8442  1.7976 -1.5171
 3713SOL     OW22771   4.341   0.196   2.890  0.3291  0.2452 -0.4267
 3713SOL    HW122772   4.320   0.186   2.983 -0.4769 -2.1609 -0.8548
 3713SOL    HW222773   4.355   0.107   2.857  1.1599 -0.0819  0.8277
 3714SOL     OW22774   2.679   0.833   2.805 -0.3811  0.1337 -0.5066
 3714SOL    HW122775   2.605   0.854   2.749 -1.5306 -3.0571 -0.1636
 3714SOL    HW222776   2.727   0.914   2.825  0.1004  0.0650 -1.4100
 3715SOL     OW22777   2.533   4.734   4.407 -0.1967 -0.2332 -0.7693
 3715SOL    HW122778   2.618   4.706   4.442  0.0013  0.5855 -0.6037
 3715SOL    HW222779   2.566   0.034   4.327  0.8466  0.0124 -0.2198
 3716SOL     OW22780   3.001   2.835   5.814 -0.1397 -0.6210 -0.0448
 3716SOL    HW122781   3.006   2.861   5.906 -0.2984 -0.3017 -0.1263
 3716SOL    HW222782   2.905   2.834   5.812 -0.1419  0.5773 -0.7684
 3717SOL     OW22783   2.574   4.410   4.264 -0.2258 -0.1141  0.3312
 3717SOL    HW122784   2.508   4.435   4.199 -2.3612 -1.2863  2.0273
 3717SOL    HW222785   2.639   4.479   4.260  0.5727 -1.0538 -2.6274
 3718SOL     OW22786   0.915   3.502   3.007  0.1798  0.3058 -0.1594
 3718SOL    HW122787   0.861   3.550   2.944 -0.6665 -1.0714 -0.4755
 3718SOL    HW222788   0.885   3.532   3.093 -3.4624  0.7293 -1.5633
 3719SOL     OW22789   0.411   0.872  16.111 -0.2352 -0.5538  0.2289
 3719SOL    HW122790   0.325   0.864  16.152  0.3893 -1.5332  1.3560
 3719SOL    HW222791   0.424   0.965  16.127 -0.7262 -0.9482  2.9040
 3720SOL     OW22792   3.216   4.663   4.930 -0.4820 -0.5820  0.3805
 3720SOL    HW122793   3.256   0.008   4.934  2.9926 -2.0959 -1.8513
 3720SOL    HW222794   3.133   4.670   4.977  0.4533  0.1909  1.9318
 3721SOL     OW22795   2.187   0.314  11.158 -0.1577 -0.4679  0.1819
 3721SOL    HW122796   2.201   0.349  11.246 -1.7368 -0.9570  0.6290
 3721SOL    HW222797   2.097   0.336  11.135 -0.1196 -1.3298 -0.7588
 3722SOL     OW22798   1.912   4.711   8.094  0.6415  0.1347 -0.4619
 3722SOL    HW122799   1.990   0.020   8.118  0.0777  0.5413  0.5098
 3722SOL    HW222800   1.948   4.623   8.105  2.0412  0.5717 -1.5231
 3723SOL     OW22801   3.217   4.628   7.498 -0.2029 -0.2554 -0.2675
 3723SOL    HW122802   3.279   4.559   7.479  0.9236  1.0113 -1.1565
 3723SOL    HW222803   3.251   4.694   7.437 -0.9209 -0.5957 -1.0256
 3724SOL     OW22804   4.007   0.650   7.081  0.0811 -0.4281 -0.2071
 3724SOL    HW122805   3.981   0.736   7.113 -0.0089 -0.3087 -0.6014
 3724SOL    HW222806   4.102   0.662   7.089 -0.1444  2.6373 -2.4715
 3725SOL     OW22807   2.901   2.075   7.845 -0.3914 -0.0369 -0.2319
 3725SOL    HW122808   2.877   2.152   7.897 -0.8444 -0.0755 -0.3870
 3725SOL    HW222809   2.826   2.020   7.866  0.2207 -0.3760  1.0571
 3726SOL     OW22810   2.327   0.145   6.726 -0.4444 -0.1798  0.3152
 3726SOL    HW122811   2.360   0.195   6.651 -2.1896 -0.3890 -0.6020
 3726SOL    HW222812   2.352   0.207   6.795 -0.4992  0.8396 -0.5848
 3727SOL     OW22813   0.223   4.638   7.300 -0.2574  0.4638  0.3426
 3727SOL    HW122814   0.193   4.630   7.210 -1.0866 -2.0999  0.8630
 3727SOL    HW222815   0.165   4.571   7.336 -0.1690  1.1346  1.7650
 3728SOL     OW22816   1.883   1.847   2.746 -0.4176 -0.2179  0.9794
 3728SOL    HW122817   1.879   1.942   2.760 -0.2493 -0.1234  0.3818
 3728SOL    HW222818   1.977   1.829   2.748 -0.5272 -0.2878  4.5966
 3729SOL     OW22819   0.510   1.435   3.024 -0.3211  0.1579 -0.2407
 3729SOL    HW122820   0.564   1.449   3.102 -0.7017 -0.1516  0.0824
 3729SOL    HW222821   0.453   1.363   3.052 -0.0041  0.5873  1.5029
 3730SOL     OW22822   3.269   4.422   8.581 -0.1051 -0.6809  0.4508
 3730SOL    HW122823   3.303   4.362   8.514 -2.4705 -2.7646  1.0828
 3730SOL    HW222824   3.335   4.491   8.579  0.0307 -0.8640 -2.5885
 3731SOL     OW22825   4.330   1.377   4.749 -0.2317 -0.5164 -0.6626
 3731SOL    HW122826   4.420   1.407   4.754 -0.9502  1.5347  0.0797
 3731SOL    HW222827   4.348   1.288   4.720  2.7753 -0.4305  0.9437
 3732SOL     OW22828   3.250   2.099   8.578  0.1130  0.2532 -0.2427
 3732SOL    HW122829   3.193   2.153   8.632  1.7428  0.0941  1.6378
 3732SOL    HW222830   3.225   2.011   8.607 -2.2509  1.3388  0.9998
 3733SOL     OW22831   1.872   1.579   1.495  0.7552 -0.2480 -0.7333
 3733SOL    HW122832   1.880   1.656   1.550  0.0291 -0.6805 -0.0245
 3733SOL    HW222833   1.948   1.526   1.520 -0.1610 -1.8514 -1.3171
 3734SOL     OW22834   1.555   3.144   9.299 -0.2745 -0.2979 -0.3578
 3734SOL    HW122835   1.600   3.066   9.267 -2.6502 -1.3162 -1.1737
 3734SOL    HW222836   1.566   3.145   9.394 -1.7355 -2.1085 -0.1800
 3735SOL     OW22837   2.510   2.224   1.473  0.3184 -0.2546  0.8540
 3735SOL    HW122838   2.541   2.312   1.497 -2.2081  0.9542 -0.2780
 3735SOL    HW222839   2.426   2.211   1.517 -1.1627  1.4682 -1.4621
 3736SOL     OW22840   2.249   3.838  15.600  0.0906  0.5658 -0.3398
 3736SOL    HW122841   2.263   3.756  15.553 -0.4146  0.6234 -0.5929
 3736SOL    HW222842   2.165   3.862  15.561  0.9880 -1.9039 -3.6898
 3737SOL     OW22843   0.870   1.742   0.726  0.2340 -0.0299  0.3456
 3737SOL    HW122844   0.844   1.833   0.715  0.5589 -0.2219 -2.0523
 3737SOL    HW222845   0.954   1.743   0.680  0.4341 -1.3369  0.6837
 3738SOL     OW22846   2.121   2.138  12.404 -0.0057  0.0780  0.6751
 3738SOL    HW122847   2.122   2.068  12.470  1.6362 -1.1587 -0.6388
 3738SOL    HW222848   2.097   2.211  12.461  0.6707  0.1609  0.8520
 3739SOL     OW22849   3.217   3.502   2.035  0.0839  0.1382 -0.1481
 3739SOL    HW122850   3.291   3.538   1.986  1.5352  0.7962  2.5192
 3739SOL    HW222851   3.259   3.450   2.103  0.6217 -0.9147 -1.2811
 3740SOL     OW22852   4.619   2.938   0.764  0.0340 -0.1656  0.0395
 3740SOL    HW122853   4.624   2.897   0.850 -1.3544 -0.1352  0.1336
 3740SOL    HW222854   4.646   3.028   0.780  2.2541 -0.9241  0.5512
 3741SOL     OW22855   1.881   1.975   8.661  0.1772  0.1989  0.2662
 3741SOL    HW122856   1.902   1.982   8.754  0.7521 -0.2851  0.1801
 3741SOL    HW222857   1.938   1.900   8.641  0.0469 -0.0150  0.6837
 3742SOL     OW22858   4.711   2.397   4.022  0.3808  0.6082 -0.1651
 3742SOL    HW122859   4.712   2.312   4.067 -1.3866  0.4053 -0.5129
 3742SOL    HW222860   4.637   2.392   3.962 -0.1287  0.3445  0.4889
 3743SOL     OW22861   1.055   2.344   4.234 -0.0730 -0.2751  0.0303
 3743SOL    HW122862   1.011   2.276   4.183  1.0685  0.0321 -1.3411
 3743SOL    HW222863   1.077   2.284   4.305  0.8468  0.0676  0.0280
 3744SOL     OW22864   3.508   4.722   6.939  0.2019 -0.7462  0.0403
 3744SOL    HW122865   3.549   0.052   6.890  1.8591  2.6005  6.2621
 3744SOL    HW222866   3.570   4.651   6.922 -0.0428 -0.7946 -0.6429
 3745SOL     OW22867   2.455   0.241   7.651 -0.1289 -0.4458 -0.4491
 3745SOL    HW122868   2.450   0.148   7.629  0.9981 -0.9371  1.3144
 3745SOL    HW222869   2.515   0.282   7.590 -1.2036 -0.3817 -1.4669
 3746SOL     OW22870   2.016   1.726  12.715 -0.5668  0.8980  0.4334
 3746SOL    HW122871   2.078   1.723  12.789  2.1593 -0.9653 -1.9285
 3746SOL    HW222872   1.940   1.709  12.771  0.0923  1.4194  1.4962
 3747SOL     OW22873   2.413   3.192  10.252 -0.2777 -0.1251 -0.2670
 3747SOL    HW122874   2.415   3.142  10.333  0.0754 -0.1960 -0.3172
 3747SOL    HW222875   2.463   3.267  10.284  2.1549 -1.2788 -1.3774
 3748SOL     OW22876   0.443   0.629  13.280  0.2008 -0.0190  0.3715
 3748SOL    HW122877   0.357   0.586  13.287  0.9841 -1.5400  0.8115
 3748SOL    HW222878   0.497   0.553  13.302  1.7445  1.3581  1.3114
 3749SOL     OW22879   0.027   4.464   4.162 -0.5544 -0.2899 -0.0566
 3749SOL    HW122880   0.105   4.465   4.217  0.6923  0.2901 -1.8348
 3749SOL    HW222881   0.049   4.392   4.104 -1.7094 -1.9604  1.5617
 3750SOL     OW22882   1.149   4.245   8.937  0.5523  0.6188 -1.1675
 3750SOL    HW122883   1.217   4.191   8.977 -0.6064 -1.3813 -1.8649
 3750SOL    HW222884   1.193   4.252   8.852 -0.7509  1.3650 -1.7928
 3751SOL     OW22885   2.232   0.851  10.491  0.2799 -0.4422 -0.3582
 3751SOL    HW122886   2.245   0.945  10.477  1.4907 -0.7321 -1.1814
 3751SOL    HW222887   2.152   0.865  10.541 -0.6496 -1.0862 -1.6531
 3752SOL     OW22888   2.938   3.075   8.829 -0.5357  0.5074  0.1696
 3752SOL    HW122889   2.995   3.049   8.901  0.1654  3.8091  0.7744
 3752SOL    HW222890   2.868   3.124   8.871  0.1973 -0.0500  2.0430
 3753SOL     OW22891   0.440   4.344   2.741 -0.2722  0.2984 -0.3836
 3753SOL    HW122892   0.437   4.249   2.743  0.9052  0.1913 -4.3878
 3753SOL    HW222893   0.532   4.361   2.722 -0.0608 -0.1560  0.2548
 3754SOL     OW22894   3.525   4.207   2.305  0.1660 -0.2952 -0.4392
 3754SOL    HW122895   3.513   4.269   2.234 -0.0200 -2.6765 -2.4697
 3754SOL    HW222896   3.466   4.234   2.375 -3.7578 -0.3434 -3.7639
 3755SOL     OW22897   0.912   2.902   8.109  0.0775 -0.4185 -0.0548
 3755SOL    HW122898   0.835   2.885   8.055 -0.1952  0.7939 -0.0598
 3755SOL    HW222899   0.890   2.984   8.153  0.9048  0.5881 -1.5080
 3756SOL     OW22900   0.066   2.712   5.490  0.2130  0.1109  0.2815
 3756SOL    HW122901   0.162   2.705   5.492  0.0835 -2.1068 -0.7617
 3756SOL    HW222902   0.056   2.804   5.465  2.2016 -0.0287 -1.0647
 3757SOL     OW22903   0.893   4.567  10.789 -0.0166 -0.2861  0.1114
 3757SOL    HW122904   0.910   4.473  10.790 -0.7885 -0.4083  2.2461
 3757SOL    HW222905   0.852   4.575  10.875  2.1197 -0.4839  1.1415
 3758SOL     OW22906   3.618   2.435  16.873 -0.2073  0.2428  0.0815
 3758SOL    HW122907   3.650   2.474  16.792 -0.6865 -0.2107 -0.3267
 3758SOL    HW222908   3.594   2.510  16.928  2.6126  1.2145 -0.0010
 3759SOL     OW22909   2.695   1.746  14.231 -0.1427  0.6215  0.0975
 3759SOL    HW122910   2.662   1.824  14.275 -1.2421  1.5082 -2.2906
 3759SOL    HW222911   2.617   1.703  14.195 -0.1139  2.2857 -1.9362
 3760SOL     OW22912   1.537   0.688   4.622 -0.5214  0.3441 -0.0197
 3760SOL    HW122913   1.581   0.610   4.655 -3.5425 -1.5824 -0.5006
 3760SOL    HW222914   1.593   0.756   4.660 -1.3067 -1.2630  3.9938
 3761SOL     OW22915   0.430   3.520   3.434  0.2700 -0.3486  0.2318
 3761SOL    HW122916   0.448   3.548   3.523  2.3697  2.4175 -1.0868
 3761SOL    HW222917   0.514   3.475   3.424 -0.2355 -0.9873 -1.1864
 3762SOL     OW22918   0.645   3.492  16.963  0.7180 -0.8864 -0.1180
 3762SOL    HW122919   0.630   3.581  16.930  0.3330 -1.1123 -0.5459
 3762SOL    HW222920   0.692   3.507  17.045  0.2190 -0.0865  0.0244
 3763SOL     OW22921   3.576   0.198  14.299  0.2480 -0.1361 -0.0025
 3763SOL    HW122922   3.659   0.202  14.345  0.6727 -1.8833 -0.6220
 3763SOL    HW222923   3.569   0.284  14.257  0.0625  0.9708  2.2631
 3764SOL     OW22924   0.713   4.326   9.400 -0.1871  0.3125  0.4497
 3764SOL    HW122925   0.735   4.358   9.312 -2.3544 -0.0965 -0.2279
 3764SOL    HW222926   0.729   4.232   9.392  0.0525  0.5500 -1.8158
 3765SOL     OW22927   1.913   1.654   3.302 -0.0420  0.4250 -0.0089
 3765SOL    HW122928   1.982   1.688   3.247  1.6476 -3.0353 -0.0200
 3765SOL    HW222929   1.838   1.691   3.255  0.7795  0.0709 -1.5841
 3766SOL     OW22930   0.034   3.648  10.758 -0.3182  0.1828 -0.2981
 3766SOL    HW122931   0.100   3.586  10.726  1.3925  1.6705  0.3338
 3766SOL    HW222932   0.094   3.683  10.824 -0.8771  1.0796 -0.2581
 3767SOL     OW22933   3.071   4.661   2.889 -0.0591  0.3802  0.2299
 3767SOL    HW122934   3.112   4.631   2.808 -2.3285 -1.5951 -0.1670
 3767SOL    HW222935   2.979   4.672   2.868 -0.2822  0.8762  1.4357
 3768SOL     OW22936   2.946   2.866  12.875 -0.0177  0.6901 -0.6747
 3768SOL    HW122937   2.882   2.830  12.814 -1.3184  0.5323  0.7881
 3768SOL    HW222938   2.895   2.939  12.910  0.0084 -1.1474  3.1839
 3769SOL     OW22939   0.975   2.254  13.257 -0.6697 -0.6036  0.0958
 3769SOL    HW122940   1.068   2.265  13.239 -0.7540  2.2564  1.4934
 3769SOL    HW222941   0.936   2.333  13.220 -0.2509  0.4576  1.9342
 3770SOL     OW22942   4.626   0.899   4.161 -0.0534  0.4247  0.2742
 3770SOL    HW122943   4.556   0.964   4.171 -0.2007  0.5943 -1.8329
 3770SOL    HW222944   4.663   0.933   4.079  0.6242 -0.2091  0.3231
 3771SOL     OW22945   4.306   1.223   8.520  0.2409 -0.0677 -0.0994
 3771SOL    HW122946   4.339   1.139   8.489 -1.1010 -1.2784  1.7200
 3771SOL    HW222947   4.220   1.239   8.482  0.1819 -0.0401  0.0463
 3772SOL     OW22948   2.291   3.630   9.797 -0.4355 -0.5737 -0.2411
 3772SOL    HW122949   2.269   3.650   9.888 -1.9983 -0.8980 -0.5543
 3772SOL    HW222950   2.365   3.570   9.805 -1.0159 -0.7987  3.1091
 3773SOL     OW22951   4.471   4.319   5.772  0.4313 -0.1767  0.1205
 3773SOL    HW122952   4.419   4.377   5.828  0.1345 -3.4416  3.2205
 3773SOL    HW222953   4.420   4.238   5.777 -1.3166  0.9595  0.6647
 3774SOL     OW22954   4.415   0.252  17.069 -0.5173  0.4814 -0.1071
 3774SOL    HW122955   4.358   0.314  17.025  0.3422  2.0670  1.0235
 3774SOL    HW222956   4.503   0.285  17.048  0.1987 -1.2773  0.1526
 3775SOL     OW22957   4.010   2.791   2.747  0.1568  0.5785 -0.0051
 3775SOL    HW122958   3.970   2.755   2.667  1.2870 -0.0034 -0.3056
 3775SOL    HW222959   4.102   2.768   2.737  0.2796 -0.1282  2.8538
 3776SOL     OW22960   2.483   3.738   0.334 -0.2316 -0.1902  0.2037
 3776SOL    HW122961   2.526   3.771   0.413  0.9856  0.7951 -0.8672
 3776SOL    HW222962   2.405   3.793   0.329 -0.0629  0.1345  1.1111
 3777SOL     OW22963   2.661   0.927   0.683  0.3441  0.1273 -0.0167
 3777SOL    HW122964   2.740   0.881   0.713  0.2484 -0.1205 -0.1374
 3777SOL    HW222965   2.628   0.876   0.609 -0.5648  2.8162 -1.4403
 3778SOL     OW22966   3.720   3.623   4.539  0.0883 -0.0876  0.2133
 3778SOL    HW122967   3.642   3.653   4.586  1.4368  0.9836  1.7771
 3778SOL    HW222968   3.761   3.578   4.613  0.7505  3.3108  1.9268
 3779SOL     OW22969   0.294   2.346   6.083 -0.0494 -0.3134 -0.2368
 3779SOL    HW122970   0.343   2.351   6.001 -0.7004 -1.6254 -0.7078
 3779SOL    HW222971   0.313   2.427   6.131 -1.3869 -0.5914  0.7660
 3780SOL     OW22972   4.031   2.962   8.891  0.0026  0.1089 -0.5466
 3780SOL    HW122973   4.047   2.964   8.796 -0.0369 -2.9752 -0.5986
 3780SOL    HW222974   3.945   2.921   8.901  0.7520 -1.2146  0.3652
 3781SOL     OW22975   4.328   0.293   7.960 -0.3674  0.2747  0.4303
 3781SOL    HW122976   4.394   0.293   8.030 -0.0321  0.7268  0.1133
 3781SOL    HW222977   4.378   0.332   7.889 -0.2477  0.5928  0.6879
 3782SOL     OW22978   2.154   1.323   2.773 -0.0734 -0.3331  0.2323
 3782SOL    HW122979   2.202   1.290   2.697  1.7710 -0.3511  1.3830
 3782SOL    HW222980   2.154   1.239   2.820  1.0608 -0.6588 -0.3515
 3783SOL     OW22981   4.469   1.888   9.709  0.2167 -0.3560  0.9763
 3783SOL    HW122982   4.532   1.959   9.724  2.3497 -2.2476  0.9298
 3783SOL    HW222983   4.515   1.844   9.638 -1.7755 -1.4182  0.3526
 3784SOL     OW22984   2.859   2.335   8.009  0.1312  0.3934  0.2171
 3784SOL    HW122985   2.943   2.358   8.049  1.3696  0.0796 -2.2065
 3784SOL    HW222986   2.867   2.372   7.921  0.6947 -1.7366 -0.6403
 3785SOL     OW22987   3.002   2.461   9.558 -0.4031  0.0755 -0.2069
 3785SOL    HW122988   2.936   2.444   9.491 -0.7892  1.8828 -0.2718
 3785SOL    HW222989   3.056   2.523   9.509  0.1775  3.0338  4.2240
 3786SOL     OW22990   0.918   3.982   4.524  0.1338 -0.5574  0.6673
 3786SOL    HW122991   0.926   3.908   4.463 -0.4823 -0.9667  1.0774
 3786SOL    HW222992   0.824   3.994   4.515  0.7389  2.5799 -1.1348
 3787SOL     OW22993   1.236   2.892   5.643  0.5550  0.7655  0.0058
 3787SOL    HW122994   1.193   2.912   5.559 -0.4716  0.8553  0.5456
 3787SOL    HW222995   1.239   2.982   5.676 -1.6700  1.4416 -1.6098
 3788SOL     OW22996   3.021   3.898   3.109  0.5223  0.1955 -0.4083
 3788SOL    HW122997   2.977   3.903   3.024 -0.1609 -0.4918 -0.1009
 3788SOL    HW222998   3.028   3.993   3.120 -0.8569  0.2634 -0.0660
 3789SOL     OW22999   3.871   3.893  12.506 -0.5732 -0.3135 -0.2430
 3789SOL    HW123000   3.890   3.972  12.455 -3.1983  1.4360  1.4753
 3789SOL    HW223001   3.956   3.871  12.544 -0.7241 -2.5426 -1.2089
 3790SOL     OW23002   3.238   3.940   1.935 -0.3361 -0.1363  0.2396
 3790SOL    HW123003   3.275   3.972   1.853 -0.3249 -0.1171  0.2520
 3790SOL    HW223004   3.251   4.008   2.002  1.5002 -1.3076  1.0607
 3791SOL     OW23005   0.084   2.716   4.531 -0.2318  0.0628 -0.0384
 3791SOL    HW123006   0.166   2.761   4.553 -0.6787  0.5528  0.6210
 3791SOL    HW223007   0.116   2.627   4.515 -0.5737  0.2598 -1.7642
 3792SOL     OW23008   0.268   2.889   3.366 -0.1761 -0.1672  0.1129
 3792SOL    HW123009   0.272   2.981   3.395 -0.8134 -0.0376 -0.2299
 3792SOL    HW223010   0.308   2.899   3.280 -2.5275  2.3833 -0.6968
 3793SOL     OW23011   0.975   3.177  15.422  0.1273  0.0075 -0.1622
 3793SOL    HW123012   0.907   3.229  15.464  0.8283  0.7737  0.0347
 3793SOL    HW223013   1.026   3.150  15.498  0.9439  1.1062 -0.3268
 3794SOL     OW23014   0.849   0.115   2.748 -0.6880  0.1923 -0.1700
 3794SOL    HW123015   0.918   0.179   2.730 -0.3537 -0.2000 -0.2615
 3794SOL    HW223016   0.866   0.048   2.682 -2.3846  0.9081 -1.3645
 3795SOL     OW23017   3.979   3.171   7.549 -0.3263  0.2505  0.0507
 3795SOL    HW123018   3.934   3.211   7.623 -1.5785 -1.9687  0.4846
 3795SOL    HW223019   3.917   3.186   7.478  0.2260  0.4913 -0.3777
 3796SOL     OW23020   3.727   4.169   7.345  0.0136  0.5413  0.1264
 3796SOL    HW123021   3.802   4.202   7.395 -0.0824 -0.3151  0.8313
 3796SOL    HW223022   3.690   4.253   7.318  0.6083  0.7854  0.0537
 3797SOL     OW23023   2.442   2.141  17.570 -0.6925 -0.5754 -0.2316
 3797SOL    HW123024   2.527   2.123  17.530 -1.5253  2.1379 -3.2426
 3797SOL    HW223025   2.404   2.066  17.525 -0.3091 -0.3382 -0.9535
 3798SOL     OW23026   1.444   2.594   5.942  0.8289  0.5776 -0.4144
 3798SOL    HW123027   1.380   2.526   5.963  0.4578  1.7306  2.1478
 3798SOL    HW223028   1.453   2.584   5.847  1.7725  2.8087 -0.5584
 3799SOL     OW23029   0.086   0.066   4.963 -0.1990  0.0634 -0.3114
 3799SOL    HW123030   0.165   0.022   4.933 -0.9283  0.5218 -2.9504
 3799SOL    HW223031   0.047   0.089   4.878 -1.7718 -1.7349 -0.0765
 3800SOL     OW23032   0.100   3.705   2.896  0.0886  0.6702  0.2319
 3800SOL    HW123033   0.159   3.760   2.948  0.0987  1.9055 -1.0844
 3800SOL    HW223034   0.051   3.647   2.954 -1.2864 -0.2576 -1.8509
 3801SOL     OW23035   2.582   3.798  17.759 -0.2861 -0.0180  0.7520
 3801SOL    HW123036   2.638   3.825  17.686  0.9232  0.1516  1.7430
 3801SOL    HW223037   2.514   3.747  17.716 -0.2351 -0.0561  0.7170
 3802SOL     OW23038   0.894   2.416  16.428  0.1231 -0.7502  0.2963
 3802SOL    HW123039   0.875   2.496  16.477 -2.6190 -0.7450 -0.7432
 3802SOL    HW223040   0.986   2.426  16.405 -0.2035  1.9143  0.0548
 3803SOL     OW23041   3.204   1.474   3.890 -0.2567  0.4299 -0.2412
 3803SOL    HW123042   3.244   1.484   3.976 -1.2942 -1.5393  0.4665
 3803SOL    HW223043   3.132   1.416   3.917  1.1339 -0.3323  1.7496
 3804SOL     OW23044   4.036   4.717  10.938  0.1423  0.0126  0.1074
 3804SOL    HW123045   4.008   4.710  11.029 -2.3803  2.5510 -0.4886
 3804SOL    HW223046   4.074   0.064  10.943 -0.9127  0.5259 -1.1329
 3805SOL     OW23047   3.667   2.688   5.538  0.1136 -0.0670 -0.8325
 3805SOL    HW123048   3.578   2.656   5.551  0.3304 -0.3349 -0.0076
 3805SOL    HW223049   3.710   2.611   5.500 -0.1468 -1.6167  2.0262
 3806SOL     OW23050   2.219   1.824  12.239  0.0200 -0.8015  0.1673
 3806SOL    HW123051   2.139   1.872  12.217  1.8804  2.3349  0.2198
 3806SOL    HW223052   2.204   1.817  12.334  2.5201 -2.5583  0.4220
 3807SOL     OW23053   2.974   3.668   6.941  0.0600 -0.5565  0.2150
 3807SOL    HW123054   2.921   3.595   6.974  2.3408 -1.7766  1.1861
 3807SOL    HW223055   3.012   3.704   7.021  0.6705 -0.5787 -0.0592
 3808SOL     OW23056   4.079   0.196   0.566  0.1420 -0.0604  0.1161
 3808SOL    HW123057   4.070   0.206   0.661 -2.8987  0.3322 -0.2053
 3808SOL    HW223058   3.997   0.155   0.539 -0.3592  0.0056  1.5473
 3809SOL     OW23059   3.272   1.563   1.199  0.1690 -0.0763 -0.0899
 3809SOL    HW123060   3.279   1.655   1.175 -0.7287  0.0820  0.2611
 3809SOL    HW223061   3.240   1.568   1.289 -0.1761 -2.6539 -0.0711
 3810SOL     OW23062   0.737   3.912   9.583  0.2994 -0.3851  0.2804
 3810SOL    HW123063   0.698   3.982   9.636 -1.3184 -0.9949 -0.1091
 3810SOL    HW223064   0.657   3.859   9.580 -0.8043  1.1250  2.2590
 3811SOL     OW23065   3.722   2.145   2.238  0.2595  0.4014 -0.7407
 3811SOL    HW123066   3.658   2.213   2.217  1.1504  1.3141 -0.4878
 3811SOL    HW223067   3.714   2.139   2.333  1.2015  2.0303 -0.5615
 3812SOL     OW23068   3.650   3.488   3.282  0.2442  0.1134  0.5951
 3812SOL    HW123069   3.619   3.557   3.223  0.4635  0.0849  0.4441
 3812SOL    HW223070   3.566   3.447   3.304  0.3403  0.1344  0.9906
 3813SOL     OW23071   4.045   1.306  12.930 -0.1466 -0.0063 -0.1277
 3813SOL    HW123072   4.054   1.294  13.025  3.6492 -1.9822 -0.7086
 3813SOL    HW223073   4.074   1.397  12.928  1.2635 -0.4905 -1.5394
 3814SOL     OW23074   2.703   2.703  17.178 -0.7411 -0.2818  0.2876
 3814SOL    HW123075   2.624   2.756  17.192 -1.3265 -0.7711 -1.1410
 3814SOL    HW223076   2.693   2.687  17.084 -0.0227 -0.2006  0.1963
 3815SOL     OW23077   2.826   3.557  11.952 -0.1720  0.1840 -0.2333
 3815SOL    HW123078   2.789   3.646  11.947  1.2810  0.7410 -1.0809
 3815SOL    HW223079   2.921   3.568  11.955 -0.1801  0.1807 -0.0059
 3816SOL     OW23080   0.000   1.710  14.383  0.0159 -0.3849 -0.4275
 3816SOL    HW123081   0.077   1.727  14.328  0.7566  2.9936  1.6621
 3816SOL    HW223082   0.020   1.627  14.426 -0.7536  0.8153  2.2504
 3817SOL     OW23083   0.094   4.064   2.231 -0.2953  0.1754  0.5542
 3817SOL    HW123084   0.116   3.997   2.166 -3.0574 -1.7693  1.6416
 3817SOL    HW223085   0.034   4.024   2.294 -1.2229 -1.5507 -1.4368
 3818SOL     OW23086   2.327   3.510   9.031  0.2783 -0.0652  0.4830
 3818SOL    HW123087   2.348   3.601   9.012  0.3214 -0.0625  0.5463
 3818SOL    HW223088   2.252   3.492   8.974  0.9269 -0.5955 -0.1967
 3819SOL     OW23089   0.678   3.398   2.386 -0.3572 -0.0071 -0.1927
 3819SOL    HW123090   0.590   3.433   2.402 -1.3519 -1.1351 -3.2128
 3819SOL    HW223091   0.662   3.304   2.375 -2.0034  0.1702  0.6484
 3820SOL     OW23092   2.502   4.289  10.307 -0.1439  0.0163  0.5390
 3820SOL    HW123093   2.541   4.279  10.220 -0.3016  3.2008  0.0910
 3820SOL    HW223094   2.573   4.254  10.361  1.6899  2.6902 -0.1596
 3821SOL     OW23095   1.632   2.319   7.563  0.3437 -0.4229 -0.2783
 3821SOL    HW123096   1.560   2.257   7.549  0.6586 -0.6287 -0.9964
 3821SOL    HW223097   1.592   2.403   7.541  0.6586  0.0641  1.0375
 3822SOL     OW23098   1.539   3.530   5.189 -0.9737 -0.2292  0.4265
 3822SOL    HW123099   1.588   3.448   5.188  0.2700  0.5426 -0.9031
 3822SOL    HW223100   1.552   3.558   5.098 -1.4566 -0.6324  0.2316
 3823SOL     OW23101   0.515   1.767   6.466  0.5669  0.1515 -0.3421
 3823SOL    HW123102   0.420   1.780   6.460  0.3364 -0.7782  1.2755
 3823SOL    HW223103   0.534   1.721   6.384  0.8749  1.0678 -0.7872
 3824SOL     OW23104   2.483   2.765   2.456 -0.2903  0.3487 -0.0891
 3824SOL    HW123105   2.455   2.828   2.390  0.7728  0.8871 -0.0146
 3824SOL    HW223106   2.434   2.786   2.536  1.3478 -1.5415  1.4179
 3825SOL     OW23107   3.089   2.708   2.797 -0.5081  0.1228 -0.4848
 3825SOL    HW123108   3.139   2.788   2.814 -0.5756 -0.4646  2.4936
 3825SOL    HW223109   3.163   2.648   2.801 -1.6960 -1.4084 -1.5342
 3826SOL     OW23110   0.344   2.871  10.841  0.3530 -0.2508 -0.6208
 3826SOL    HW123111   0.411   2.865  10.909  0.9055 -0.8974 -1.2221
 3826SOL    HW223112   0.354   2.961  10.809 -1.7959 -0.0996 -0.8366
 3827SOL     OW23113   4.397   2.249  16.105 -0.0574  0.0881 -0.6080
 3827SOL    HW123114   4.400   2.284  16.194 -0.6340  0.0006 -0.5553
 3827SOL    HW223115   4.470   2.187  16.101  0.0236  0.4793 -5.8647
 3828SOL     OW23116   2.811   2.576  17.394 -0.3821  0.4602 -0.0922
 3828SOL    HW123117   2.765   2.629  17.329 -0.1166  0.5556 -0.2012
 3828SOL    HW223118   2.740   2.512  17.405  0.8461 -0.6776  1.1857
 3829SOL     OW23119   3.680   3.724   4.054 -0.2733  0.1601  0.3694
 3829SOL    HW123120   3.752   3.724   4.117 -1.6477  0.0879  1.9488
 3829SOL    HW223121   3.700   3.638   4.017  1.4905  0.9975 -0.5992
 3830SOL     OW23122   2.453   1.864   4.254 -0.4479 -0.8103 -0.0625
 3830SOL    HW123123   2.380   1.865   4.193 -0.3793  1.1050 -0.1140
 3830SOL    HW223124   2.411   1.883   4.338  0.1066 -1.0988  0.2821
 3831SOL     OW23125   4.358   1.324  11.120  0.5545 -0.0067  0.0849
 3831SOL    HW123126   4.366   1.228  11.120  1.3168  0.0507  2.1552
 3831SOL    HW223127   4.404   1.345  11.201  0.7612  0.6720 -0.2134
 3832SOL     OW23128   2.984   2.209   1.773  0.3486  0.2183  0.1589
 3832SOL    HW123129   2.927   2.150   1.823 -1.0908  2.9336  1.6662
 3832SOL    HW223130   2.930   2.215   1.694  0.6502 -0.5851 -0.1149
 3833SOL     OW23131   4.046   2.509   5.584 -0.4159 -0.5071  0.3042
 3833SOL    HW123132   3.995   2.467   5.515 -0.8193 -0.7431  0.7482
 3833SOL    HW223133   3.981   2.553   5.640  0.1392  5.0833 -3.4245
 3834SOL     OW23134   0.267   2.020  14.669  0.1239  0.4743  0.6056
 3834SOL    HW123135   0.304   2.100  14.707  1.7683 -0.0745  0.1294
 3834SOL    HW223136   0.246   1.978  14.753 -1.6160 -1.5980 -0.8544
 3835SOL     OW23137   4.652   2.103   3.258 -0.3910 -0.0121  0.2492
 3835SOL    HW123138   4.587   2.074   3.194 -0.0442  0.1740 -0.1864
 3835SOL    HW223139   4.618   2.190   3.277 -2.4453 -1.5308  3.6227
 3836SOL     OW23140   3.119   0.681   3.295 -0.1189 -0.3604 -0.0875
 3836SOL    HW123141   3.172   0.691   3.374 -0.6802 -0.3439  0.2881
 3836SOL    HW223142   3.066   0.603   3.313 -0.6395 -0.3279 -1.5010
 3837SOL     OW23143   4.680   1.801   4.433  0.0103  0.1546  0.3480
 3837SOL    HW123144   4.693   1.722   4.380 -0.1725 -0.1145  0.7001
 3837SOL    HW223145   4.705   1.775   4.522 -0.1255  0.3103  0.4315
 3838SOL     OW23146   0.032   4.663  12.383 -0.7692 -0.0515  0.5244
 3838SOL    HW123147   4.733   4.735  12.335 -0.3643 -0.1852 -0.0089
 3838SOL    HW223148   4.719   4.661  12.462 -1.0079  2.4589  0.4132
 3839SOL     OW23149   2.773   4.586   4.476 -0.3284  0.3347  0.4085
 3839SOL    HW123150   2.747   4.535   4.552  1.2586 -0.1169  0.6415
 3839SOL    HW223151   2.867   4.598   4.488  0.2324 -1.8955 -1.7552
 3840SOL     OW23152   4.694   2.342  15.192  0.8076  0.4474  0.1284
 3840SOL    HW123153   4.736   2.256  15.194  0.5870  0.3598  0.7493
 3840SOL    HW223154   4.724   2.378  15.275  0.4895  1.0492 -0.0227
 3841SOL     OW23155   2.691   2.692  15.009 -0.2107 -0.7064  0.5940
 3841SOL    HW123156   2.605   2.651  15.000  0.4024 -2.3840  2.4456
 3841SOL    HW223157   2.737   2.641  14.943  0.5650 -0.7043  1.1362
 3842SOL     OW23158   3.500   0.711  11.176 -0.1333  0.5485  0.4421
 3842SOL    HW123159   3.433   0.661  11.131  1.3470  0.4043 -1.5884
 3842SOL    HW223160   3.474   0.697  11.267  0.1682  0.5925  0.5351
 3843SOL     OW23161   0.045   1.449   6.163 -0.3981  0.5672 -0.4124
 3843SOL    HW123162   0.025   1.395   6.239 -0.5472  0.4456 -0.5374
 3843SOL    HW223163   0.007   1.533   6.187  2.1230  1.4389  0.4912
 3844SOL     OW23164   0.703   0.738   8.801 -0.4079 -0.4416  0.2869
 3844SOL    HW123165   0.706   0.658   8.854 -0.3374 -0.2007  0.6419
 3844SOL    HW223166   0.729   0.713   8.712 -1.3219  0.9797 -0.3767
 3845SOL     OW23167   2.388   2.634   1.612  0.0914  0.5867  0.1801
 3845SOL    HW123168   2.351   2.550   1.641  0.2761 -0.2626 -2.0422
 3845SOL    HW223169   2.361   2.698   1.678  0.6636  2.4295 -1.3965
 3846SOL     OW23170   1.903   2.775   2.588  0.5662  0.9909 -0.2792
 3846SOL    HW123171   1.862   2.792   2.673  1.2710 -1.0394  0.4615
 3846SOL    HW223172   1.875   2.850   2.535 -0.1018  0.7107 -0.3122
 3847SOL     OW23173   3.534   3.986   4.087 -0.2342 -0.2803 -0.4092
 3847SOL    HW123174   3.576   3.901   4.073 -0.3506 -0.2227 -1.0807
 3847SOL    HW223175   3.486   4.000   4.006  1.1540  1.9192 -0.8408
 3848SOL     OW23176   2.119   3.687   6.204  0.6999  0.2653  0.3976
 3848SOL    HW123177   2.131   3.714   6.295  2.5683 -0.6139  0.4087
 3848SOL    HW223178   2.196   3.635   6.182 -0.4917 -0.5463 -1.8927
 3849SOL     OW23179   1.172   4.035   3.882 -0.1613 -0.3640  0.7360
 3849SOL    HW123180   1.088   3.990   3.869 -0.4342  0.2376  0.4111
 3849SOL    HW223181   1.191   4.016   3.974 -0.1805 -0.1543  0.7828
 3850SOL     OW23182   1.359   3.107   7.825 -0.4767 -0.1016  0.0274
 3850SOL    HW123183   1.339   3.155   7.745 -1.4463  1.3075  1.1319
 3850SOL    HW223184   1.450   3.134   7.837 -0.9533  0.8696  1.4308
 3851SOL     OW23185   1.367   3.793  13.618 -0.1078  0.0857 -0.4710
 3851SOL    HW123186   1.291   3.760  13.569  0.1616  1.0408 -1.5344
 3851SOL    HW223187   1.378   3.883  13.588  0.0113  0.3972  0.5112
 3852SOL     OW23188   2.249   3.680  16.527 -0.1146 -0.2741  0.2781
 3852SOL    HW123189   2.272   3.597  16.569  1.8310  0.3212  0.3914
 3852SOL    HW223190   2.225   3.648  16.441 -0.7705 -0.0841  0.3897
 3853SOL     OW23191   4.685   0.415   6.015  0.5698  0.0708  0.6612
 3853SOL    HW123192   0.005   0.483   6.046 -0.1149  0.3267  1.4311
 3853SOL    HW223193   4.596   0.424   6.048 -0.1619 -2.3631 -0.6898
 3854SOL     OW23194   2.543   2.724   8.328 -0.1692 -0.0047 -0.2432
 3854SOL    HW123195   2.539   2.634   8.296 -0.1227 -0.5475  1.3173
 3854SOL    HW223196   2.606   2.771   8.272  1.0908  0.1047  1.2648
 3855SOL     OW23197   0.208   1.502   5.972  0.1081  0.2868 -0.3418
 3855SOL    HW123198   0.161   1.462   6.045 -0.2145  1.0418 -0.1319
 3855SOL    HW223199   0.206   1.431   5.907 -1.7226 -2.9622  3.3068
 3856SOL     OW23200   3.394   3.719   8.500  0.2826 -0.1108 -0.1903
 3856SOL    HW123201   3.441   3.734   8.418 -0.4589 -0.0643 -0.6054
 3856SOL    HW223202   3.432   3.638   8.535 -0.4403 -0.8657 -1.1637
 3857SOL     OW23203   2.905   2.020   5.012 -0.1877  0.2816 -0.8620
 3857SOL    HW123204   2.840   1.949   5.015  1.0525 -0.9547 -4.0617
 3857SOL    HW223205   2.909   2.037   5.106 -0.5453  2.2226 -1.2013
 3858SOL     OW23206   2.640   2.222  11.733  0.4155  0.3305  0.4283
 3858SOL    HW123207   2.706   2.164  11.695 -0.0610  0.1434 -0.1155
 3858SOL    HW223208   2.693   2.302  11.727 -0.5902  0.8723 -1.1372
 3859SOL     OW23209   4.226   4.530  10.372 -0.1922  0.4044  0.1162
 3859SOL    HW123210   4.140   4.493  10.386 -0.3705  1.2671  1.2990
 3859SOL    HW223211   4.212   4.622  10.396 -4.1952 -0.4599  1.0152
 3860SOL     OW23212   4.329   0.236   0.464 -0.3944 -0.0242 -0.4337
 3860SOL    HW123213   4.316   0.308   0.526 -4.2320 -2.6572  1.8258
 3860SOL    HW223214   4.237   0.214   0.451 -0.2002 -1.9456  1.2645
 3861SOL     OW23215   3.739   4.338   6.969  0.2075  0.0209 -0.2866
 3861SOL    HW123216   3.769   4.398   7.038 -1.8392  0.1757  0.4836
 3861SOL    HW223217   3.811   4.276   6.971  0.6691  0.6103  1.8289
 3862SOL     OW23218   3.362   0.158  10.773 -0.6060  0.0166 -0.0327
 3862SOL    HW123219   3.451   0.123  10.782 -0.7701 -1.4055 -3.7100
 3862SOL    HW223220   3.356   0.198  10.860 -1.2442 -0.6564  0.2294
 3863SOL     OW23221   0.156   2.763  12.859  0.2544 -0.1351  0.2819
 3863SOL    HW123222   0.183   2.757  12.950 -0.0152 -0.0311  0.3675
 3863SOL    HW223223   0.192   2.843  12.821  0.1034 -0.5017 -0.6304
 3864SOL     OW23224   0.023   0.218   3.492 -0.0443 -0.1855 -0.4232
 3864SOL    HW123225   0.023   0.305   3.453 -0.5899 -0.5791 -1.3059
 3864SOL    HW223226   4.741   0.244   3.582  0.0104 -2.6559  0.3018
 3865SOL     OW23227   1.260   1.120   4.190  0.5096  0.3383 -0.3800
 3865SOL    HW123228   1.306   1.101   4.272 -0.5626  0.3083  0.2127
 3865SOL    HW223229   1.308   1.193   4.152  1.9973 -0.5927 -0.2800
 3866SOL     OW23230   1.204   1.468  13.061 -0.1965 -0.5833 -0.2265
 3866SOL    HW123231   1.169   1.449  13.148  1.3271  0.8708  0.7208
 3866SOL    HW223232   1.120   1.478  13.016 -0.5519 -0.8720  0.3790
 3867SOL     OW23233   1.854   3.460   1.530  0.2471  0.5192 -0.1121
 3867SOL    HW123234   1.930   3.482   1.476  1.0229 -2.0291 -0.0974
 3867SOL    HW223235   1.812   3.392   1.478 -1.4605  0.2948  1.5725
 3868SOL     OW23236   3.942   2.792   2.290  0.0351  0.1251  0.4045
 3868SOL    HW123237   3.854   2.803   2.253  0.1703 -1.8143 -0.5359
 3868SOL    HW223238   3.955   2.882   2.320 -0.8274  0.1756  0.6466
 3869SOL     OW23239   1.012   3.517   3.599 -0.1730 -0.4426  0.0155
 3869SOL    HW123240   1.055   3.460   3.662 -2.2904 -2.3970 -0.3033
 3869SOL    HW223241   1.065   3.505   3.521 -0.5296 -0.8774 -0.1626
 3870SOL     OW23242   0.153   3.521   7.217  0.3179 -0.1152  0.1342
 3870SOL    HW123243   0.085   3.539   7.282  0.8334  0.6343  0.4801
 3870SOL    HW223244   0.099   3.515   7.139  0.5418  1.0683 -0.1169
 3871SOL     OW23245   2.761   0.553   3.877 -0.5765  0.0575  0.6121
 3871SOL    HW123246   2.666   0.558   3.890 -0.7491 -0.9157 -0.3509
 3871SOL    HW223247   2.769   0.628   3.818 -1.4100 -0.0037  0.4222
 3872SOL     OW23248   1.788   1.863  11.776  0.3261  0.5679 -0.7153
 3872SOL    HW123249   1.811   1.788  11.721  1.1283  1.4137 -1.5454
 3872SOL    HW223250   1.715   1.893  11.721 -0.5265 -0.4126 -0.1214
 3873SOL     OW23251   4.713   2.762   5.766  0.1569 -0.0568 -0.6095
 3873SOL    HW123252   0.003   2.687   5.817 -1.0756  1.3587  2.2194
 3873SOL    HW223253   0.019   2.737   5.687  0.6785  3.3871 -1.3823
 3874SOL     OW23254   3.128   0.517   0.456  0.3049 -0.3790  0.1644
 3874SOL    HW123255   3.080   0.438   0.433  0.4156 -0.4072  0.0264
 3874SOL    HW223256   3.206   0.490   0.504  1.6839 -0.1095 -1.8722
 3875SOL     OW23257   3.028   2.752   6.571  0.2948 -0.1967 -0.3976
 3875SOL    HW123258   2.939   2.726   6.546  0.6062 -1.7239  0.0773
 3875SOL    HW223259   3.053   2.703   6.649 -1.0912  0.2953  0.3615
 3876SOL     OW23260   1.519   3.501   9.519  0.0957  0.0805 -0.2717
 3876SOL    HW123261   1.440   3.524   9.469  1.7945  1.1515 -2.4662
 3876SOL    HW223262   1.486   3.440   9.584 -0.4919 -0.5983 -1.2133
 3877SOL     OW23263   2.359   0.647   7.978 -0.1616 -0.1152 -0.0088
 3877SOL    HW123264   2.334   0.735   7.951 -0.6507 -0.0577  0.6326
 3877SOL    HW223265   2.423   0.637   7.908  1.1631  2.9102  0.7819
 3878SOL     OW23266   2.548   1.272   3.226 -0.0777  0.1139 -0.8338
 3878SOL    HW123267   2.550   1.342   3.292 -1.6478 -1.2298  0.6487
 3878SOL    HW223268   2.643   1.260   3.218 -0.2710 -0.5088 -2.1054
 3879SOL     OW23269   3.667   1.646   4.969  1.0016 -0.3723 -0.2144
 3879SOL    HW123270   3.718   1.632   5.049 -0.9603 -2.7550  0.6303
 3879SOL    HW223271   3.736   1.615   4.910 -0.3652 -1.6001 -1.1659
 3880SOL     OW23272   0.250   3.864   9.085 -0.8256 -0.4471  0.6788
 3880SOL    HW123273   0.260   3.887   9.178  0.1179  0.3067  0.3776
 3880SOL    HW223274   0.210   3.778   9.096 -0.2736 -0.6013  1.4504
 3881SOL     OW23275   0.555   1.657   6.205  0.5110 -0.3598  0.2504
 3881SOL    HW123276   0.534   1.735   6.152  1.1431 -0.5205 -0.2360
 3881SOL    HW223277   0.575   1.593   6.137 -2.1426 -0.3720 -0.5421
 3882SOL     OW23278   2.205   1.880   1.453 -0.0311 -0.0069 -0.5741
 3882SOL    HW123279   2.139   1.866   1.522 -2.5344  1.2882 -2.7043
 3882SOL    HW223280   2.150   1.917   1.384 -3.1975 -0.4100  1.6962
 3883SOL     OW23281   3.401   0.616  11.407  0.0327 -0.3466 -0.1952
 3883SOL    HW123282   3.463   0.614  11.480 -0.8412  1.5601  0.5751
 3883SOL    HW223283   3.361   0.530  11.420  0.0053 -0.4597 -1.0441
 3884SOL     OW23284   1.821   0.794   0.658  0.4406  0.2813 -0.4696
 3884SOL    HW123285   1.900   0.835   0.625 -0.5475  2.6932  0.1333
 3884SOL    HW223286   1.770   0.872   0.682 -2.0441 -1.7207  0.7711
 3885SOL     OW23287   0.750   2.197  14.270 -0.1174 -0.2327  0.6620
 3885SOL    HW123288   0.815   2.127  14.262 -2.1025 -1.8898 -0.9724
 3885SOL    HW223289   0.736   2.224  14.179 -0.8237 -0.8258  0.5968
 3886SOL     OW23290   2.718   0.464   2.010  0.1596  0.3322 -0.0896
 3886SOL    HW123291   2.753   0.379   1.985 -1.2318 -0.5941  1.1147
 3886SOL    HW223292   2.796   0.517   1.993 -0.6811  1.4338 -0.5137
 3887SOL     OW23293   2.771   4.479   0.557  0.2238  0.3312  0.1999
 3887SOL    HW123294   2.795   4.417   0.488  0.0461 -0.1287  0.5598
 3887SOL    HW223295   2.717   4.420   0.608 -1.5961  0.6412 -1.3478
 3888SOL     OW23296   2.504   4.665   5.232  0.5428 -0.0848  0.6154
 3888SOL    HW123297   2.476   4.579   5.202 -3.6713  0.9788  1.4543
 3888SOL    HW223298   2.537   4.709   5.154  0.2922 -3.2003 -1.2401
 3889SOL     OW23299   0.568   3.775   5.806  0.4412 -0.1150  0.6583
 3889SOL    HW123300   0.485   3.804   5.844 -0.0582 -0.7559  0.0541
 3889SOL    HW223301   0.612   3.860   5.811  1.1985 -0.4622 -0.1758
 3890SOL     OW23302   1.522   0.909   3.216 -0.5488 -0.5093 -0.1510
 3890SOL    HW123303   1.572   0.983   3.252  2.3116 -2.1783 -0.7649
 3890SOL    HW223304   1.457   0.952   3.161 -0.0713  0.1085 -0.2303
 3891SOL     OW23305   2.259   4.287   7.522  0.6516  0.2525  0.2115
 3891SOL    HW123306   2.228   4.368   7.564 -1.3273 -0.0662 -0.6327
 3891SOL    HW223307   2.174   4.253   7.493  0.1390  1.0694  0.7156
 3892SOL     OW23308   3.172   0.359   4.560 -0.7271  0.2002  0.0019
 3892SOL    HW123309   3.223   0.325   4.487 -1.0996 -2.9135  1.1807
 3892SOL    HW223310   3.190   0.304   4.636  1.1010  0.9604  0.1235
 3893SOL     OW23311   0.425   1.983   4.161 -1.2024  0.4318 -0.0564
 3893SOL    HW123312   0.347   1.941   4.124 -0.3902 -0.8040 -0.3703
 3893SOL    HW223313   0.442   1.935   4.242  0.0787  1.8172  0.4798
 3894SOL     OW23314   2.829   1.202   7.716 -0.0905  0.2317  0.5841
 3894SOL    HW123315   2.801   1.284   7.758  0.2579  0.4058  0.4745
 3894SOL    HW223316   2.742   1.185   7.680  1.9001 -0.7908 -3.6958
 3895SOL     OW23317   4.305   2.553  12.990 -0.0874 -0.1399 -0.2786
 3895SOL    HW123318   4.225   2.584  13.032  1.0727 -1.3247  2.8333
 3895SOL    HW223319   4.342   2.497  13.059  1.7688 -1.8326 -2.6379
 3896SOL     OW23320   0.433   1.085   4.453  0.2519  0.1366  0.1228
 3896SOL    HW123321   0.384   1.015   4.495  0.3923 -1.7902 -2.9893
 3896SOL    HW223322   0.517   1.039   4.449 -0.7212 -1.8348  1.9133
 3897SOL     OW23323   4.085   0.054   3.564  0.1247 -0.1976 -0.0207
 3897SOL    HW123324   4.023   4.723   3.551  0.7078 -0.8818  1.0347
 3897SOL    HW223325   4.036   0.106   3.628 -0.1995 -1.4127  0.7190
 3898SOL     OW23326   4.471   1.589   4.460  0.4858  0.2975  0.2981
 3898SOL    HW123327   4.511   1.532   4.526  1.1805  2.6354  1.8865
 3898SOL    HW223328   4.424   1.518   4.416  1.5853 -0.6792  0.6839
 3899SOL     OW23329   1.383   3.537   8.238  0.4252  0.1797 -0.8235
 3899SOL    HW123330   1.366   3.443   8.237  0.2448  0.1930  1.6065
 3899SOL    HW223331   1.436   3.550   8.159  0.3890  0.9599 -0.7189
 3900SOL     OW23332   3.836   1.683   6.184 -0.1746 -0.1365 -0.0155
 3900SOL    HW123333   3.824   1.768   6.141 -1.4444  0.4114  1.4305
 3900SOL    HW223334   3.907   1.645   6.133  0.2088 -0.0438  0.4484
 3901SOL     OW23335   1.056   2.543   7.723 -0.0603 -0.1930  0.4523
 3901SOL    HW123336   1.000   2.504   7.789  1.9613  1.2511  3.0394
 3901SOL    HW223337   1.044   2.635   7.746  2.9456 -0.0785  1.6354
 3902SOL     OW23338   2.224   3.598  14.968 -0.4859 -0.0788 -0.1168
 3902SOL    HW123339   2.269   3.665  14.917  0.0864  0.1551  0.6891
 3902SOL    HW223340   2.228   3.527  14.904 -0.6834  0.2861 -0.5272
 3903SOL     OW23341   0.534   3.831   5.264  0.4755  0.0754  0.1531
 3903SOL    HW123342   0.510   3.905   5.319 -0.2342 -0.3456  0.4064
 3903SOL    HW223343   0.495   3.760   5.315  1.1131 -0.3781  0.0302
 3904SOL     OW23344   1.173   4.050   5.940 -0.0406 -0.1564 -0.1202
 3904SOL    HW123345   1.201   4.054   6.031 -1.5285  1.8371  0.2668
 3904SOL    HW223346   1.078   4.040   5.950 -0.4544  1.3198 -2.6213
 3905SOL     OW23347   3.699   1.594   7.570 -0.3550  0.5757  0.0143
 3905SOL    HW123348   3.728   1.594   7.479 -1.1688 -1.2083 -0.2599
 3905SOL    HW223349   3.646   1.673   7.565 -0.3608  0.6665  1.4936
 3906SOL     OW23350   3.623   2.848  15.882  0.0051 -0.7764  0.3136
 3906SOL    HW123351   3.660   2.860  15.795 -1.4540 -0.4454 -0.2523
 3906SOL    HW223352   3.552   2.786  15.867  1.2557 -2.0838 -0.2538
 3907SOL     OW23353   1.683   2.788   8.536  0.6206  0.7712 -0.2312
 3907SOL    HW123354   1.757   2.824   8.585  0.9388  2.5930 -2.0106
 3907SOL    HW223355   1.720   2.721   8.479 -0.9887 -1.0771  0.9210
 3908SOL     OW23356   3.644   3.482   2.913 -0.6065 -0.0877 -0.3173
 3908SOL    HW123357   3.562   3.495   2.961  0.1385 -2.7360  1.6738
 3908SOL    HW223358   3.646   3.387   2.904  1.2960 -0.0632 -0.2679
 3909SOL     OW23359   3.304   3.937   8.626 -0.7562 -0.0979  0.1490
 3909SOL    HW123360   3.340   3.855   8.593 -0.7665  0.0863 -0.3170
 3909SOL    HW223361   3.374   3.985   8.670 -0.5564  0.3582 -0.6677
 3910SOL     OW23362   2.595   0.108   8.823  0.0743 -0.4925 -0.1476
 3910SOL    HW123363   2.680   0.065   8.818  0.5512  0.3984  0.2639
 3910SOL    HW223364   2.602   0.174   8.755  1.6135 -0.1836  0.3238
 3911SOL     OW23365   4.238   0.104   3.155 -0.7050  0.4353  0.0661
 3911SOL    HW123366   4.238   0.195   3.183  2.7658  0.7419 -0.9518
 3911SOL    HW223367   4.233   0.056   3.238 -0.1711  1.0520  0.4501
 3912SOL     OW23368   1.359   3.092   8.573 -0.2676 -0.1554 -0.2066
 3912SOL    HW123369   1.426   3.027   8.552  2.7929  2.7571  0.6417
 3912SOL    HW223370   1.386   3.141   8.651 -0.8110  0.4026 -0.3664
 3913SOL     OW23371   1.882   4.422  15.841 -0.3346 -0.1009  0.3706
 3913SOL    HW123372   1.952   4.483  15.819  0.7205 -1.6914 -0.7687
 3913SOL    HW223373   1.943   4.368  15.891  0.1067 -0.6117 -0.7159
 3914SOL     OW23374   0.472   3.264  10.296  0.1453 -0.8030 -0.1123
 3914SOL    HW123375   0.548   3.320  10.313  0.7500 -2.2150  1.7911
 3914SOL    HW223376   0.506   3.204  10.230 -0.2460 -1.6699  0.4799
 3915SOL     OW23377   0.005   4.560   1.348  0.2439 -0.3813  0.2050
 3915SOL    HW123378   4.719   4.469   1.361 -0.6673 -0.3575 -1.5209
 3915SOL    HW223379   4.682   4.601   1.407 -0.7644 -0.4455 -0.8517
 3916SOL     OW23380   2.540   4.607   3.518  0.0390 -0.0823 -0.0676
 3916SOL    HW123381   2.557   4.519   3.486 -0.1498  0.3053 -1.2580
 3916SOL    HW223382   2.601   4.649   3.458  0.4974 -0.3684  0.2015
 3917SOL     OW23383   3.349   4.605   3.535  0.0737 -0.2154  0.3073
 3917SOL    HW123384   3.312   4.614   3.622 -1.4441 -1.0389 -0.2619
 3917SOL    HW223385   3.402   4.528   3.557  0.0287 -1.0480 -2.4446
 3918SOL     OW23386   1.295   0.347  16.345  0.6671 -0.5987  0.0029
 3918SOL    HW123387   1.202   0.345  16.365  1.0612  0.7285  1.9609
 3918SOL    HW223388   1.318   0.254  16.347 -0.8632 -0.9967 -1.3761
 3919SOL     OW23389   1.701   1.351  16.936  0.3798 -0.2063  0.0115
 3919SOL    HW123390   1.715   1.380  17.027  2.7063  1.5916 -0.9219
 3919SOL    HW223391   1.683   1.437  16.898 -0.9578  0.4577  2.1232
 3920SOL     OW23392   2.080   0.439   7.415  0.0775  0.2628 -0.2787
 3920SOL    HW123393   2.121   0.513   7.370  0.1505  0.3966  0.0027
 3920SOL    HW223394   1.986   0.453   7.412  0.2518  1.8311  1.2339
 3921SOL     OW23395   0.694   2.994   5.387  0.0517  0.3621 -0.5812
 3921SOL    HW123396   0.606   3.033   5.387  0.4175  1.1687  1.9879
 3921SOL    HW223397   0.732   3.043   5.460  0.3702 -0.2694 -0.3276
 3922SOL     OW23398   2.305   4.207   3.260  0.8273 -0.0397  0.7271
 3922SOL    HW123399   2.287   4.286   3.209  2.0206 -0.0300  0.3098
 3922SOL    HW223400   2.379   4.181   3.205  0.4016  1.5431 -0.6039
 3923SOL     OW23401   0.158   4.479   5.135 -0.5025 -0.0868  0.6986
 3923SOL    HW123402   0.218   4.418   5.092  0.5345  2.2983 -1.2116
 3923SOL    HW223403   0.123   4.527   5.060  0.7772  0.6304  0.5676
 3924SOL     OW23404   3.383   3.498   3.021  0.2381  0.4821 -0.1616
 3924SOL    HW123405   3.308   3.556   3.036 -1.1476 -0.5582 -3.0433
 3924SOL    HW223406   3.342   3.420   2.982  1.8711 -0.0101 -0.8842
 3925SOL     OW23407   1.980   3.100   6.110 -0.0332  0.0468  0.0424
 3925SOL    HW123408   2.004   3.104   6.203 -0.0486  0.4264  0.0326
 3925SOL    HW223409   1.887   3.124   6.116 -0.1417 -0.5076  0.5905
 3926SOL     OW23410   2.600   3.966  12.812  0.5637 -0.5341 -0.6608
 3926SOL    HW123411   2.611   3.975  12.906  0.6150  1.0290 -0.8133
 3926SOL    HW223412   2.510   3.994  12.797  1.2473  0.5605 -2.7335
 3927SOL     OW23413   4.234   4.351   2.138 -0.0501 -0.4162 -0.6439
 3927SOL    HW123414   4.205   4.400   2.061 -0.4644  0.1298 -0.1376
 3927SOL    HW223415   4.153   4.327   2.183  1.0793 -1.7369  0.6996
 3928SOL     OW23416   0.858   2.724   3.097  0.2616 -0.1554  0.0761
 3928SOL    HW123417   0.862   2.777   3.177  2.8004  1.0839 -0.8604
 3928SOL    HW223418   0.895   2.642   3.130 -1.5636 -0.5596  1.1334
 3929SOL     OW23419   4.274   1.442  16.129 -0.1061  0.0606  0.2657
 3929SOL    HW123420   4.215   1.380  16.087  0.2029  0.2505 -0.4436
 3929SOL    HW223421   4.219   1.520  16.140  1.2382  0.8559  1.4067
 3930SOL     OW23422   4.345   4.691  15.823  0.0050  0.0498 -0.0070
 3930SOL    HW123423   4.275   4.627  15.831 -0.8631  1.3651  2.6681
 3930SOL    HW223424   4.314   0.015  15.886  2.4152  2.3072 -1.1339
 3931SOL     OW23425   0.462   3.692   2.910  0.3331  0.1771  0.2087
 3931SOL    HW123426   0.428   3.729   2.829 -0.3489 -2.9890 -0.9587
 3931SOL    HW223427   0.385   3.674   2.965  0.5431 -2.1753 -0.2655
 3932SOL     OW23428   4.212   2.335   9.962 -0.0004 -0.1708  0.0439
 3932SOL    HW123429   4.254   2.292   9.888 -0.7317 -0.9335  0.0749
 3932SOL    HW223430   4.191   2.260  10.017 -1.1333  0.7823  0.9220
 3933SOL     OW23431   1.534   0.012   7.777 -0.3897 -0.0955  0.5302
 3933SOL    HW123432   1.603   0.014   7.711 -0.9736 -0.7053 -0.0877
 3933SOL    HW223433   1.575   4.696   7.842  0.6958  1.1654  0.9740
 3934SOL     OW23434   2.702   1.466   2.895 -0.6584 -0.2222 -0.1063
 3934SOL    HW123435   2.703   1.496   2.986  1.8503  0.5885 -0.4086
 3934SOL    HW223436   2.608   1.471   2.876 -1.0862  1.9999  2.7153
 3935SOL     OW23437   3.034   4.216   6.699 -0.7203  0.1729 -0.1563
 3935SOL    HW123438   3.048   4.151   6.767  2.1055 -0.2434 -1.1137
 3935SOL    HW223439   2.997   4.294   6.739  0.1952  0.0954  0.8225
 3936SOL     OW23440   4.710   1.747   4.713  0.2482 -0.1130 -0.2728
 3936SOL    HW123441   4.629   1.785   4.750  0.1321 -0.7658  0.1470
 3936SOL    HW223442   0.027   1.784   4.780  2.8645 -2.0403 -1.5494
 3937SOL     OW23443   2.278   2.487   4.191 -0.1820 -0.7081 -0.0060
 3937SOL    HW123444   2.362   2.464   4.149 -0.1645  1.9579 -1.4699
 3937SOL    HW223445   2.317   2.546   4.256 -1.0197  0.6823 -0.7459
 3938SOL     OW23446   4.629   2.768   1.431 -0.5934  0.0789  0.6909
 3938SOL    HW123447   4.582   2.794   1.352  0.3664  0.5980  0.2910
 3938SOL    HW223448   4.713   2.814   1.427 -0.7947  0.3166 -0.8880
 3939SOL     OW23449   1.556   4.320  16.985  0.3083 -0.3739 -0.2363
 3939SOL    HW123450   1.621   4.324  17.055 -0.4013 -1.3508  0.4769
 3939SOL    HW223451   1.601   4.356  16.909 -0.1708  1.4454  0.3330
 3940SOL     OW23452   0.120   1.844  13.344 -0.2588 -0.1636 -0.0803
 3940SOL    HW123453   0.136   1.782  13.415  2.3331  1.1272  0.4979
 3940SOL    HW223454   0.034   1.875  13.372  0.1071  2.2705 -1.6687
 3941SOL     OW23455   0.389   2.749   3.572  0.3948 -0.4807  0.4823
 3941SOL    HW123456   0.347   2.805   3.506 -3.0876 -1.4692  1.8939
 3941SOL    HW223457   0.461   2.802   3.606 -0.2234  1.1558 -0.7347
 3942SOL     OW23458   2.086   3.817   6.494  0.8339  0.2886 -0.5348
 3942SOL    HW123459   2.159   3.817   6.556  0.2726 -2.6687  0.1095
 3942SOL    HW223460   2.061   3.910   6.501  2.7803  0.6592  1.3701
 3943SOL     OW23461   3.261   0.844   1.409  0.1566 -0.3827 -0.2429
 3943SOL    HW123462   3.341   0.823   1.457 -0.7968 -1.8982  0.6777
 3943SOL    HW223463   3.258   0.940   1.414 -0.5062 -0.3344 -1.6067
 3944SOL     OW23464   0.100   3.908   1.623  0.2231  0.4373 -0.2999
 3944SOL    HW123465   0.022   3.963   1.620  0.8065  1.4060  2.3725
 3944SOL    HW223466   0.063   3.820   1.623 -0.7786  0.8514  1.0423
 3945SOL     OW23467   1.476   0.878   5.660 -0.5541 -0.3103  0.1476
 3945SOL    HW123468   1.481   0.844   5.571 -3.1731 -2.4840  0.8496
 3945SOL    HW223469   1.387   0.913   5.653 -0.5834 -0.4235 -0.0518
 3946SOL     OW23470   2.957   1.873  17.208  1.1401  0.7051  0.2344
 3946SOL    HW123471   2.986   1.907  17.292  2.8324 -0.1131 -0.0135
 3946SOL    HW223472   3.035   1.894  17.155  0.1805  0.0677 -1.4291
 3947SOL     OW23473   0.313   2.393  15.884 -0.0979 -0.2595  0.4885
 3947SOL    HW123474   0.366   2.405  15.963  1.2076 -2.2317 -0.0844
 3947SOL    HW223475   0.380   2.372  15.819  0.0068 -1.3015  0.9234
 3948SOL     OW23476   1.432   1.958   8.900  0.6737  0.3418  0.5621
 3948SOL    HW123477   1.494   1.936   8.830 -0.3946 -0.3159 -0.1809
 3948SOL    HW223478   1.454   2.047   8.928 -0.4294  0.7751  0.0392
 3949SOL     OW23479   0.224   4.077   7.714 -0.6360 -0.0113 -0.7458
 3949SOL    HW123480   0.270   4.160   7.722 -0.0101 -0.4188 -0.2268
 3949SOL    HW223481   0.140   4.113   7.685  0.2482  3.9018  1.6349
 3950SOL     OW23482   1.106   2.685   8.036  0.3402 -0.3825  0.6077
 3950SOL    HW123483   1.174   2.741   7.999  1.0909 -1.3570  0.5340
 3950SOL    HW223484   1.027   2.738   8.046  0.5505  0.0860 -0.1612
 3951SOL     OW23485   2.553   2.142   4.840 -0.3736 -0.1051  0.1217
 3951SOL    HW123486   2.572   2.181   4.926  1.7724 -0.4671 -0.1921
 3951SOL    HW223487   2.641   2.140   4.802 -0.1652  0.5726  0.5786
 3952SOL     OW23488   2.136   1.733   3.135  0.1164 -0.3652  0.6634
 3952SOL    HW123489   2.092   1.809   3.098 -0.3914 -0.7114  0.5520
 3952SOL    HW223490   2.220   1.745   3.091 -1.2348  1.6751 -1.3916
 3953SOL     OW23491   4.216   2.180   8.919 -0.8784 -0.3971 -0.3326
 3953SOL    HW123492   4.228   2.232   8.999  1.1708 -1.2563 -0.1138
 3953SOL    HW223493   4.307   2.176   8.891 -0.1170  0.5567  2.0082
 3954SOL     OW23494   1.165   4.264   8.053 -0.1184  0.4561 -0.0098
 3954SOL    HW123495   1.079   4.291   8.086 -0.1192  1.8335 -1.1554
 3954SOL    HW223496   1.150   4.175   8.021 -1.6899  0.4143  0.8272
 3955SOL     OW23497   1.103   1.337  12.048  0.1729 -0.1498 -0.3200
 3955SOL    HW123498   1.152   1.309  12.125  0.9197 -0.4403 -0.9056
 3955SOL    HW223499   1.181   1.349  11.994 -0.4621  1.3564 -0.9179
 3956SOL     OW23500   0.940   4.323  15.197 -0.3764 -0.1681 -0.4374
 3956SOL    HW123501   0.940   4.373  15.279  1.6730 -0.0591 -0.4851
 3956SOL    HW223502   0.868   4.262  15.208  0.4678 -1.1954 -0.5497
 3957SOL     OW23503   2.255   1.397   4.426  0.0995  0.1135  0.1243
 3957SOL    HW123504   2.263   1.367   4.516 -1.8773  1.4108  0.7361
 3957SOL    HW223505   2.346   1.424   4.414 -0.0888  1.1601  1.0552
 3958SOL     OW23506   0.773   1.040   8.510 -0.2718 -0.8785 -0.3658
 3958SOL    HW123507   0.690   1.053   8.556 -0.6710  0.1297 -1.3581
 3958SOL    HW223508   0.754   1.051   8.417  0.3845 -0.3140 -0.4324
 3959SOL     OW23509   4.216   3.824   7.880  0.6237 -0.7094 -0.8590
 3959SOL    HW123510   4.303   3.785   7.890  0.6773  0.2233  2.0919
 3959SOL    HW223511   4.172   3.759   7.824  0.9480 -1.3068 -0.4195
 3960SOL     OW23512   0.879   1.539   0.188  0.3178 -0.1693 -0.2710
 3960SOL    HW123513   0.875   1.601   0.115  1.1583 -1.3361 -1.2960
 3960SOL    HW223514   0.926   1.596   0.249  1.2123 -3.3103  1.9181
 3961SOL     OW23515   4.546   1.522   3.447  0.2173 -0.4178  0.3038
 3961SOL    HW123516   4.464   1.565   3.471  1.7735  1.9687  1.2807
 3961SOL    HW223517   4.589   1.588   3.393 -0.1771  1.1255  1.8837
 3962SOL     OW23518   1.888   0.105  16.985  0.3522 -0.7124  0.3008
 3962SOL    HW123519   1.798   0.093  17.015  0.3213 -0.5632  0.2646
 3962SOL    HW223520   1.902   0.186  17.034 -1.1010 -0.7087  0.7109
 3963SOL     OW23521   1.264   2.057   8.459  0.8566  0.1180 -0.2993
 3963SOL    HW123522   1.254   1.997   8.385 -3.6736  2.0301 -1.1916
 3963SOL    HW223523   1.283   2.001   8.535  0.3316  1.3525  0.7303
 3964SOL     OW23524   4.307   1.670   6.969 -0.6712 -0.0511 -0.0259
 3964SOL    HW123525   4.292   1.576   6.956 -0.4416  0.3729 -3.2288
 3964SOL    HW223526   4.379   1.663   7.033 -1.4201  0.1475  0.8343
 3965SOL     OW23527   1.214   3.211   3.994  0.4781 -0.0654 -0.0161
 3965SOL    HW123528   1.151   3.146   3.963  0.0379  0.1431  0.4269
 3965SOL    HW223529   1.161   3.283   4.029  1.3861  0.5739  0.0577
 3966SOL     OW23530   2.996   0.681   5.168  0.2017 -0.0490  0.1690
 3966SOL    HW123531   3.037   0.709   5.087 -1.6573  0.8763 -0.4696
 3966SOL    HW223532   3.049   0.606   5.194 -0.1695  0.0400  1.1925
 3967SOL     OW23533   1.247   0.149   6.130 -0.0063 -0.3918 -0.2841
 3967SOL    HW123534   1.239   0.227   6.185 -1.3062 -1.0617  0.4727
 3967SOL    HW223535   1.208   0.085   6.190  2.4443 -1.6522  0.0075
 3968SOL     OW23536   3.478   1.189   6.765 -0.4799  0.3354  0.0966
 3968SOL    HW123537   3.475   1.262   6.827 -0.8330 -1.4952  2.2363
 3968SOL    HW223538   3.521   1.116   6.809 -2.9125 -1.2306 -0.1455
 3969SOL     OW23539   2.716   1.215   4.000  0.7294  0.3993  0.2973
 3969SOL    HW123540   2.622   1.229   3.995  0.6697  0.0850  0.5132
 3969SOL    HW223541   2.744   1.244   3.913  1.5315  0.6601  0.6357
 3970SOL     OW23542   1.168   1.543   6.815  0.1650 -0.1149  0.4001
 3970SOL    HW123543   1.225   1.585   6.880  1.9587 -1.5228 -0.2763
 3970SOL    HW223544   1.166   1.605   6.743 -1.7083 -0.0959  0.4781
 3971SOL     OW23545   3.024   2.138  10.618 -0.1053 -0.1591  0.0399
 3971SOL    HW123546   3.095   2.201  10.608 -1.7985  1.7035 -0.1830
 3971SOL    HW223547   2.952   2.199  10.602  0.6126  0.1632 -1.9846
 3972SOL     OW23548   2.690   1.680  14.503 -0.2193  0.3132  0.1939
 3972SOL    HW123549   2.697   1.585  14.509  1.2000  0.2397 -2.7334
 3972SOL    HW223550   2.710   1.680  14.409 -0.8480 -0.3756  0.0609
 3973SOL     OW23551   2.113   4.566   1.467 -0.1697 -0.3880 -0.3708
 3973SOL    HW123552   2.028   4.566   1.512 -0.5808 -2.5965 -1.1401
 3973SOL    HW223553   2.102   4.630   1.396  0.1051 -0.9240 -0.8924
 3974SOL     OW23554   1.458   1.283   4.133 -0.5105 -0.2373  0.0167
 3974SOL    HW123555   1.501   1.354   4.086 -0.2611 -1.6114 -1.8450
 3974SOL    HW223556   1.523   1.213   4.130 -0.7229 -0.4903  1.3020
 3975SOL     OW23557   3.218   2.521  15.689 -0.5323  0.8949 -0.1946
 3975SOL    HW123558   3.153   2.531  15.619 -0.3126 -1.3689 -0.7163
 3975SOL    HW223559   3.269   2.448  15.652 -0.2957 -0.0619  2.0293
 3976SOL     OW23560   2.541   0.490  11.736 -0.0763 -0.1281 -0.3187
 3976SOL    HW123561   2.484   0.499  11.812 -0.8932 -0.4296 -0.8873
 3976SOL    HW223562   2.600   0.565  11.742 -0.6554  0.3373 -0.3562
 3977SOL     OW23563   1.759   2.238   1.935 -0.1131 -0.0131  1.0846
 3977SOL    HW123564   1.679   2.186   1.932  0.1900 -0.4713  1.0013
 3977SOL    HW223565   1.760   2.266   2.027 -0.5550  1.1049  0.7491
 3978SOL     OW23566   1.167   0.565  15.325  0.1998  0.3115 -0.0191
 3978SOL    HW123567   1.200   0.478  15.350 -0.2553  0.2319  0.3072
 3978SOL    HW223568   1.111   0.585  15.400 -0.7505  0.9702 -0.9120
 3979SOL     OW23569   1.213   2.800   5.928  0.1044  0.3110  0.6533
 3979SOL    HW123570   1.214   2.819   5.834 -3.3021  0.0279  0.5887
 3979SOL    HW223571   1.301   2.762   5.927  0.8804  1.9897  3.1960
 3980SOL     OW23572   4.292   1.991   7.654  0.7563 -0.2155  0.2654
 3980SOL    HW123573   4.354   2.064   7.647  1.7252 -1.2238 -1.6433
 3980SOL    HW223574   4.225   2.037   7.704  0.3160 -0.6418  0.0687
 3981SOL     OW23575   1.542   3.869   7.899  0.7406 -0.6595 -0.4592
 3981SOL    HW123576   1.473   3.903   7.843 -2.0012  1.0649  3.9391
 3981SOL    HW223577   1.506   3.863   7.988  2.9903  1.7187  0.5991
 3982SOL     OW23578   0.439   1.253   5.319 -0.4850 -0.1366 -0.2574
 3982SOL    HW123579   0.366   1.313   5.337  1.0617  1.5577  0.4261
 3982SOL    HW223580   0.516   1.309   5.307 -1.9800  2.0578  0.2702
 3983SOL     OW23581   1.960   1.951  16.984 -0.0303  0.1479  0.3820
 3983SOL    HW123582   1.885   1.895  16.968  0.8146 -1.0278  0.5655
 3983SOL    HW223583   2.039   1.898  16.971 -0.5707 -0.4902 -0.2525
 3984SOL     OW23584   3.084   4.130   9.324 -0.1863 -0.1063  0.5495
 3984SOL    HW123585   3.049   4.044   9.349 -1.0863 -0.0175 -0.4063
 3984SOL    HW223586   3.106   4.158   9.412  0.7545  1.6585 -0.2509
 3985SOL     OW23587   0.648   3.114  14.761  0.2571  0.2226 -0.1710
 3985SOL    HW123588   0.731   3.068  14.746  1.3116  2.4880 -1.3624
 3985SOL    HW223589   0.656   3.173  14.686  0.7194  1.0646  0.5543
 3986SOL     OW23590   4.125   1.253   2.640  0.0693  0.1172 -0.3172
 3986SOL    HW123591   4.104   1.186   2.575  2.4749 -2.4926  1.6196
 3986SOL    HW223592   4.119   1.335   2.591  1.8182 -1.1685 -2.7444
 3987SOL     OW23593   4.140   4.649  15.403 -0.5801  0.2460 -0.1465
 3987SOL    HW123594   4.068   4.692  15.450 -0.9721 -0.8106  0.2098
 3987SOL    HW223595   4.134   4.554  15.411 -1.6656  0.0908 -2.6215
 3988SOL     OW23596   0.400   4.501  13.367 -0.0687 -0.3282 -0.5125
 3988SOL    HW123597   0.491   4.522  13.390 -0.6696 -0.4963  2.0791
 3988SOL    HW223598   0.413   4.522  13.275  0.9845  1.2042 -0.0075
 3989SOL     OW23599   4.620   1.923  15.162 -0.4687  0.1964 -0.1214
 3989SOL    HW123600   4.574   1.969  15.092  0.9177  0.1276 -1.0635
 3989SOL    HW223601   4.627   1.834  15.126 -0.4124 -0.0344  0.4622
 3990SOL     OW23602   3.836   1.726   8.309  0.1266  0.1039  0.2349
 3990SOL    HW123603   3.801   1.808   8.344  0.1290  1.2159 -2.3672
 3990SOL    HW223604   3.905   1.759   8.252 -0.5994 -0.0110 -0.7143
 3991SOL     OW23605   4.356   2.410   3.583 -0.0947  0.0231 -0.3718
 3991SOL    HW123606   4.409   2.385   3.507  1.2934  0.3199  0.4884
 3991SOL    HW223607   4.333   2.499   3.555 -1.2261 -0.2954 -0.4371
 3992SOL     OW23608   0.355   4.077   5.844 -0.5744 -0.2093  0.1916
 3992SOL    HW123609   0.418   4.070   5.772  1.7795 -2.3186  2.4454
 3992SOL    HW223610   0.277   4.047   5.798 -1.5938  1.5681  0.7680
 3993SOL     OW23611   2.236   3.318   3.709  0.2162 -0.3992  0.1951
 3993SOL    HW123612   2.321   3.333   3.666  0.2252 -0.5824  0.1470
 3993SOL    HW223613   2.181   3.367   3.648 -0.3072 -0.2813  0.7606
 3994SOL     OW23614   3.358   2.380   3.194 -0.4007 -0.1272  0.4187
 3994SOL    HW123615   3.397   2.294   3.180  1.0199  0.3901  1.2057
 3994SOL    HW223616   3.438   2.429   3.211  0.4970 -1.7608  0.8346
 3995SOL     OW23617   0.132   4.669   6.984  0.2350 -0.4529 -0.1444
 3995SOL    HW123618   0.117   4.668   6.890  1.9508 -0.7426 -0.4106
 3995SOL    HW223619   0.044   4.702   7.004 -0.0166  0.2960 -2.5722
 3996SOL     OW23620   1.839   2.519  13.485  0.0475  0.3143  0.1601
 3996SOL    HW123621   1.819   2.430  13.456  2.5646 -0.1488 -0.1709
 3996SOL    HW223622   1.833   2.498  13.578 -0.8133 -3.0039 -0.6731
 3997SOL     OW23623   0.086   3.187   3.049 -0.0590  0.2972 -0.4290
 3997SOL    HW123624   0.041   3.206   3.132 -0.9074 -2.0989 -0.3312
 3997SOL    HW223625   0.046   3.245   2.984  2.4523  0.2485 -1.9893
 3998SOL     OW23626   2.022   0.531  11.887  0.0221 -0.0042 -0.3535
 3998SOL    HW123627   1.934   0.561  11.864 -0.5648 -1.5115 -0.0378
 3998SOL    HW223628   2.043   0.485  11.806 -2.5899 -0.1640 -0.9289
 3999SOL     OW23629   3.171   4.350  10.000 -0.1081  0.3841 -0.1752
 3999SOL    HW123630   3.167   4.404  10.079 -1.0837  1.2296 -0.8092
 3999SOL    HW223631   3.092   4.301  10.022  1.2475 -1.1847  1.2076
 4000SOL     OW23632   2.278   0.874  15.368  0.7481  0.7642 -0.1131
 4000SOL    HW123633   2.240   0.839  15.448 -0.5600 -0.1431 -1.1310
 4000SOL    HW223634   2.221   0.832  15.304 -2.5406  0.5260  2.9893
 4001SOL     OW23635   1.563   2.650   0.829 -0.4968 -0.6371 -0.0099
 4001SOL    HW123636   1.601   2.649   0.916 -1.2088  0.3122  0.3178
 4001SOL    HW223637   1.472   2.674   0.849 -0.2252  1.5345 -1.3542
 4002SOL     OW23638   3.094   3.595   6.705 -0.2853  0.5588 -0.0873
 4002SOL    HW123639   3.057   3.631   6.786  1.7468  2.4582  0.0047
 4002SOL    HW223640   3.180   3.636   6.708 -0.2187  0.0520  4.6808
 4003SOL     OW23641   4.069   1.064   2.447  0.3601  0.3235 -0.0942
 4003SOL    HW123642   3.989   1.013   2.459 -0.6850  1.9398 -0.1778
 4003SOL    HW223643   4.077   1.039   2.355  1.1714 -2.5795  0.7864
 4004SOL     OW23644   2.463   4.507  15.837 -0.5488  0.4038 -0.2324
 4004SOL    HW123645   2.407   4.484  15.911  0.8036  0.2545  0.7405
 4004SOL    HW223646   2.538   4.446  15.836  1.2200  2.5410  3.2567
 4005SOL     OW23647   0.775   2.285   2.256 -0.3266 -0.3132  0.0643
 4005SOL    HW123648   0.778   2.220   2.185 -3.9797 -2.2979  1.7623
 4005SOL    HW223649   0.714   2.347   2.216  0.9005 -0.4883 -2.0825
 4006SOL     OW23650   3.218   4.407   6.321 -0.6047  0.6782  0.4608
 4006SOL    HW123651   3.277   4.332   6.310  0.3410  1.3278  1.1250
 4006SOL    HW223652   3.249   4.448   6.402  1.0161 -0.9215  0.6616
 4007SOL     OW23653   3.366   1.976   7.358  0.7878 -0.0490  0.4738
 4007SOL    HW123654   3.297   1.929   7.311  1.4121 -0.4610 -0.0313
 4007SOL    HW223655   3.326   1.986   7.445 -0.3837  2.0137 -0.2853
 4008SOL     OW23656   4.145   2.739  16.955 -0.7175 -0.1922  0.3541
 4008SOL    HW123657   4.154   2.834  16.963  0.9448 -0.3861  0.8176
 4008SOL    HW223658   4.052   2.725  16.938 -0.5719 -1.5292  0.6743
 4009SOL     OW23659   2.580   0.122  15.000  0.1647 -0.7354  0.2226
 4009SOL    HW123660   2.550   0.212  15.009 -1.3015 -0.9319 -2.5478
 4009SOL    HW223661   2.655   0.121  15.060 -1.3892 -1.6687  2.1431
 4010SOL     OW23662   1.855   3.848   5.051 -0.0054  0.1983 -0.3517
 4010SOL    HW123663   1.783   3.877   5.106 -1.5625  1.1465 -2.9218
 4010SOL    HW223664   1.918   3.905   5.094 -0.6708  0.9183 -0.3361
 4011SOL     OW23665   4.537   2.864   5.379  0.4018  0.2308  0.0127
 4011SOL    HW123666   4.444   2.885   5.376  0.4963  0.5379 -0.6588
 4011SOL    HW223667   4.539   2.789   5.438 -0.2279 -1.2419 -1.8508
 4012SOL     OW23668   3.791   3.679  16.169  0.6291 -0.1968 -0.3505
 4012SOL    HW123669   3.730   3.743  16.135  0.1169 -1.6269 -2.1072
 4012SOL    HW223670   3.860   3.670  16.103  1.2336 -0.3031  0.2937
 4013SOL     OW23671   2.192   3.711  13.556 -0.0179  1.0005 -0.1895
 4013SOL    HW123672   2.280   3.678  13.574 -0.1434 -0.1088 -1.6000
 4013SOL    HW223673   2.204   3.779  13.491 -1.5982  3.1556  1.7657
 4014SOL     OW23674   2.872   3.343   9.059 -0.5938 -0.4766 -0.5887
 4014SOL    HW123675   2.850   3.424   9.013  1.6699  0.5565  0.1509
 4014SOL    HW223676   2.962   3.355   9.090 -0.5894 -1.7790 -0.0898
 4015SOL     OW23677   3.780   3.841   8.894 -0.0714 -0.4860  0.2906
 4015SOL    HW123678   3.773   3.750   8.866  0.9843 -0.7289  0.8159
 4015SOL    HW223679   3.826   3.823   8.976  0.9188 -2.0019 -0.5937
 4016SOL     OW23680   0.778   1.860   3.327 -0.2152 -0.8505  0.5037
 4016SOL    HW123681   0.720   1.899   3.392 -0.2316  0.7423 -0.4728
 4016SOL    HW223682   0.724   1.860   3.248  1.1828 -0.4438 -0.4498
 4017SOL     OW23683   0.984   0.462   9.028  0.2817 -0.6738  0.0994
 4017SOL    HW123684   1.035   0.519   9.087  1.1491 -0.6289 -0.6955
 4017SOL    HW223685   0.959   0.389   9.085  2.5840 -1.5947 -0.0554
 4018SOL     OW23686   2.910   1.723  10.066  0.2086  0.5685 -0.1773
 4018SOL    HW123687   2.974   1.753  10.001 -1.0625  1.4769 -0.9990
 4018SOL    HW223688   2.976   1.671  10.113  1.1784  0.4583 -1.6875
 4019SOL     OW23689   4.429   0.819   5.054 -0.3345  0.3316  0.4996
 4019SOL    HW123690   4.372   0.747   5.027 -2.1878  1.9998 -0.0443
 4019SOL    HW223691   4.508   0.766   5.058  1.2031  2.5876 -0.0352
 4020SOL     OW23692   1.741   1.158   5.090  0.4716 -0.0884  0.6030
 4020SOL    HW123693   1.679   1.087   5.072  0.1974  0.2807  0.0852
 4020SOL    HW223694   1.777   1.147   5.178 -0.5349  1.4178  1.2105
 4021SOL     OW23695   1.485   1.562   5.848  0.2580  0.2194  0.1786
 4021SOL    HW123696   1.409   1.617   5.828  0.8239  1.7397  2.1798
 4021SOL    HW223697   1.523   1.605   5.924 -0.5856 -0.5125  1.0260
 4022SOL     OW23698   3.843   4.333   3.546 -0.7192 -0.3197 -0.3184
 4022SOL    HW123699   3.852   4.239   3.561  1.8574  0.0083  0.1474
 4022SOL    HW223700   3.899   4.353   3.471  0.4325 -0.4299  0.5212
 4023SOL     OW23701   2.064   0.588   4.450 -0.1696  0.3283 -0.0204
 4023SOL    HW123702   1.981   0.590   4.498  0.8356  0.1447  1.6941
 4023SOL    HW223703   2.052   0.512   4.393  0.3710 -0.0167  0.3237
 4024SOL     OW23704   0.224   2.977  13.213 -0.2124  0.0500 -0.0266
 4024SOL    HW123705   0.203   2.888  13.239  3.7102 -0.0888  2.6286
 4024SOL    HW223706   0.248   3.021  13.295  0.9194 -4.0621  1.8067
 4025SOL     OW23707   2.359   3.151  15.297  0.3223  0.5832  0.1357
 4025SOL    HW123708   2.341   3.065  15.259 -0.4832  1.4412 -1.4502
 4025SOL    HW223709   2.415   3.196  15.234  2.7906 -0.8606  1.3200
 4026SOL     OW23710   4.006   0.651   8.180  0.8467 -0.2457 -0.2928
 4026SOL    HW123711   3.988   0.670   8.088 -1.3918  1.1276  0.4459
 4026SOL    HW223712   4.056   0.726   8.209 -0.6591  0.3599  0.7463
 4027SOL     OW23713   2.601   2.608   6.621  0.2071  0.1443  0.2068
 4027SOL    HW123714   2.528   2.667   6.599  0.7524  0.5546 -0.5064
 4027SOL    HW223715   2.620   2.641   6.709  3.1222 -3.1521  0.8039
 4028SOL     OW23716   1.343   2.165  10.385 -0.0297  0.3323  0.4920
 4028SOL    HW123717   1.436   2.185  10.375  0.8888 -3.5433  1.3453
 4028SOL    HW223718   1.329   2.127  10.299 -0.8828 -2.4369  1.8672
 4029SOL     OW23719   2.622   3.331   9.575 -0.3256 -0.3002  0.0151
 4029SOL    HW123720   2.638   3.383   9.496  1.3962  0.6865  1.0144
 4029SOL    HW223721   2.708   3.331   9.617  0.0642  0.9387 -0.7987
 4030SOL     OW23722   1.985   3.871  10.056  0.0104  0.1272 -0.3460
 4030SOL    HW123723   2.073   3.836  10.041  1.0896  2.2854  0.9058
 4030SOL    HW223724   1.988   3.875  10.151  0.0344  2.7111 -0.4559
 4031SOL     OW23725   4.063   3.224   8.620  0.1182 -0.9401  0.0962
 4031SOL    HW123726   3.979   3.252   8.657  0.3896  1.8675 -1.4263
 4031SOL    HW223727   4.048   3.130   8.612 -0.2883 -0.7977 -0.7414
 4032SOL     OW23728   2.635   0.835   4.014  0.1193  0.2479 -0.0207
 4032SOL    HW123729   2.611   0.928   4.007  2.5274  1.0589  2.3448
 4032SOL    HW223730   2.730   0.845   4.016  0.0337  1.0546  0.2084
 4033SOL     OW23731   1.582   0.684   5.904  0.1476  0.0744 -0.0205
 4033SOL    HW123732   1.646   0.697   5.974  2.2760  0.9731 -2.1403
 4033SOL    HW223733   1.512   0.641   5.953 -0.0945 -0.6134 -0.9703
 4034SOL     OW23734   4.475   1.710   7.187 -0.2659  0.5576 -0.1645
 4034SOL    HW123735   4.462   1.678   7.276 -1.5396 -0.6405 -0.7990
 4034SOL    HW223736   4.568   1.735   7.181 -0.2569  0.4408 -0.4739
 4035SOL     OW23737   4.443   3.208  11.476 -0.1653 -0.1184  0.1664
 4035SOL    HW123738   4.444   3.291  11.430  1.9548 -1.0617 -1.4855
 4035SOL    HW223739   4.454   3.147  11.402  1.5798  1.7866 -1.1202
 4036SOL     OW23740   0.741   1.563   7.814  0.6044  0.2004 -0.4126
 4036SOL    HW123741   0.827   1.592   7.784  0.8741  0.2529  0.4173
 4036SOL    HW223742   0.686   1.626   7.767  1.0246  0.7189 -0.1960
 4037SOL     OW23743   4.321   0.297   4.065  0.6370 -0.0379 -0.6323
 4037SOL    HW123744   4.400   0.306   4.012 -1.0237  0.2998 -3.0400
 4037SOL    HW223745   4.266   0.369   4.034  0.0252 -0.2639 -0.0727
 4038SOL     OW23746   4.057   0.675   5.671 -0.4540 -0.0362  0.1579
 4038SOL    HW123747   4.100   0.758   5.655  0.1358 -0.4835 -0.5801
 4038SOL    HW223748   3.973   0.695   5.628 -0.2123  2.0315  0.6572
 4039SOL     OW23749   2.744   0.814  13.204 -0.0490  0.3649 -0.0374
 4039SOL    HW123750   2.810   0.869  13.246 -1.3511  0.4757  1.8310
 4039SOL    HW223751   2.669   0.872  13.215 -0.0325  0.8338 -2.2305
 4040SOL     OW23752   3.642   3.334  12.955  0.0133  0.3471  0.4929
 4040SOL    HW123753   3.662   3.258  12.899 -0.4158  0.2459  0.4773
 4040SOL    HW223754   3.677   3.300  13.037 -0.4447 -0.1721  0.4725
 4041SOL     OW23755   1.174   3.583   4.556  0.2929  0.3473  0.8973
 4041SOL    HW123756   1.240   3.549   4.616 -0.7932 -1.1233  1.2796
 4041SOL    HW223757   1.223   3.648   4.506 -1.1885  0.3916 -0.5065
 4042SOL     OW23758   1.691   3.624   8.719  0.2493 -0.5397  0.2024
 4042SOL    HW123759   1.630   3.581   8.779 -2.9245 -1.8356 -4.0301
 4042SOL    HW223760   1.722   3.696   8.774 -1.8532 -0.0484  0.7287
 4043SOL     OW23761   0.560   3.077  16.894  0.2976  0.0484 -0.0697
 4043SOL    HW123762   0.491   3.139  16.918 -0.2435 -0.5445 -0.1124
 4043SOL    HW223763   0.619   3.141  16.853  0.5010 -0.6453 -0.8694
 4044SOL     OW23764   0.543   4.658  14.471 -0.4800  0.7189 -0.3862
 4044SOL    HW123765   0.477   4.608  14.519 -0.9275  2.1739  0.5230
 4044SOL    HW223766   0.485   4.688  14.402 -2.0717  2.1144  1.5593
 4045SOL     OW23767   2.264   1.155  15.394  0.9287  0.1941  0.2759
 4045SOL    HW123768   2.237   1.064  15.381  0.4310  0.5271 -1.0097
 4045SOL    HW223769   2.319   1.176  15.318  1.3803 -0.5329  0.4017
 4046SOL     OW23770   1.332   0.823   4.923 -0.3177 -0.2102 -0.3536
 4046SOL    HW123771   1.352   0.753   4.861  1.6735 -0.7319  0.8654
 4046SOL    HW223772   1.252   0.786   4.962  0.0910  0.3537  1.0351
 4047SOL     OW23773   1.755   3.234   4.523  0.1361 -0.2679  0.5024
 4047SOL    HW123774   1.664   3.208   4.539 -0.3030  1.1185  0.2506
 4047SOL    HW223775   1.797   3.149   4.538 -0.4554 -0.5631  0.5055
 4048SOL     OW23776   3.130   1.303   0.593  0.0361 -0.0796 -0.0273
 4048SOL    HW123777   3.115   1.375   0.655  0.5369 -0.8066  0.9277
 4048SOL    HW223778   3.062   1.311   0.526 -0.4923 -0.0826  0.5087
 4049SOL     OW23779   2.648   2.570  10.190  0.8632 -0.2639  0.1459
 4049SOL    HW123780   2.644   2.635  10.120  0.3361  0.1264  0.5411
 4049SOL    HW223781   2.623   2.496  10.134 -0.0888 -0.1532  0.4332
 4050SOL     OW23782   0.066   2.017   5.689  0.2462 -0.2126  0.3815
 4050SOL    HW123783   0.096   2.099   5.649  1.4565 -1.1490 -0.6418
 4050SOL    HW223784   4.717   2.036   5.713 -0.4334 -0.9365 -1.5836
 4051SOL     OW23785   2.497   2.871   6.064  0.0005 -0.6671 -0.1551
 4051SOL    HW123786   2.424   2.861   6.002 -0.7596 -1.6436  0.8946
 4051SOL    HW223787   2.565   2.855   5.998 -0.5707 -0.6675 -0.7435
 4052SOL     OW23788   2.383   3.073   3.771  0.1547  0.1731 -0.1017
 4052SOL    HW123789   2.364   3.166   3.758  0.3150  0.5209  2.2238
 4052SOL    HW223790   2.406   3.050   3.681 -1.8462 -0.0463 -0.5667
 4053SOL     OW23791   2.056   0.887  12.111 -0.5090  0.1049  0.0482
 4053SOL    HW123792   1.973   0.842  12.129 -1.2207  1.4177  0.0194
 4053SOL    HW223793   2.114   0.812  12.103  0.2182  0.6065  0.6278
 4054SOL     OW23794   1.986   1.757   7.663 -0.4854 -0.2226  0.1031
 4054SOL    HW123795   1.891   1.763   7.672 -0.4990  0.6202 -0.5766
 4054SOL    HW223796   1.999   1.819   7.591 -0.7897 -2.2135 -1.7017
 4055SOL     OW23797   4.243   1.337   0.342 -0.8125 -0.5768  0.3094
 4055SOL    HW123798   4.296   1.315   0.418 -1.8141 -1.0761  0.8625
 4055SOL    HW223799   4.205   1.250   0.332 -1.2708 -0.2045 -1.2070
 4056SOL     OW23800   1.026   2.537   1.868  0.3111 -0.1261 -0.5496
 4056SOL    HW123801   1.036   2.529   1.963 -0.2571  0.2032 -0.4635
 4056SOL    HW223802   0.989   2.454   1.839 -1.3988  0.3018  0.4294
 4057SOL     OW23803   2.261   1.571  16.548  0.0963 -0.5528 -0.3599
 4057SOL    HW123804   2.278   1.665  16.556 -1.6153 -0.1992 -0.7032
 4057SOL    HW223805   2.239   1.556  16.456 -0.9950 -0.5929 -0.0954
 4058SOL     OW23806   2.105   0.269  13.312  0.0604  0.6231  0.3526
 4058SOL    HW123807   2.033   0.222  13.270  1.0370 -1.5216  1.0908
 4058SOL    HW223808   2.072   0.346  13.358  0.8893  1.8492 -1.1262
 4059SOL     OW23809   0.895   3.088  12.085  0.4654 -0.4103  0.0402
 4059SOL    HW123810   0.976   3.092  12.136 -0.9290 -1.4708  2.3178
 4059SOL    HW223811   0.840   3.025  12.130  1.1910  0.2955  1.9152
 4060SOL     OW23812   1.438   1.108   2.227  0.0715 -0.0888 -0.0396
 4060SOL    HW123813   1.412   1.129   2.138  0.4776  0.2196 -0.0890
 4060SOL    HW223814   1.432   1.200   2.251 -0.8114 -0.2786  0.4472
 4061SOL     OW23815   4.098   1.283   5.389 -0.4044 -0.0879 -0.0026
 4061SOL    HW123816   4.083   1.349   5.457 -1.5849 -0.7176  0.3523
 4061SOL    HW223817   4.008   1.250   5.382  0.3764 -2.3802  1.0880
 4062SOL     OW23818   3.918   0.715  10.355  0.3904  0.0475  0.3205
 4062SOL    HW123819   3.825   0.693  10.362  0.8903 -1.8126  1.1666
 4062SOL    HW223820   3.932   0.712  10.261  1.5557  1.7953  0.4467
 4063SOL     OW23821   1.487   2.548   9.142  0.3271 -0.2113 -0.1354
 4063SOL    HW123822   1.472   2.496   9.063  1.1668 -1.3021  0.4371
 4063SOL    HW223823   1.406   2.601   9.144 -0.4031 -1.3343 -0.2144
 4064SOL     OW23824   0.678   0.005   9.851  0.0916  0.8276 -0.2675
 4064SOL    HW123825   0.619   4.730   9.777  0.0080 -2.4423  0.4904
 4064SOL    HW223826   0.764   0.014   9.808  1.1761  1.7201  2.1010
 4065SOL     OW23827   3.360   2.028   2.429 -0.9868  0.1228 -0.5181
 4065SOL    HW123828   3.444   1.998   2.465 -1.1235 -1.9219 -1.8710
 4065SOL    HW223829   3.306   1.949   2.435 -0.2118 -0.5192 -1.9374
 4066SOL     OW23830   0.527   1.687  16.861  0.1592 -0.0546 -0.7257
 4066SOL    HW123831   0.621   1.677  16.876  0.2960  0.1482 -1.4461
 4066SOL    HW223832   0.500   1.602  16.894  0.6921 -0.5962 -1.6679
 4067SOL     OW23833   2.241   1.135  10.480  0.6214 -0.2784  0.5410
 4067SOL    HW123834   2.269   1.154  10.570 -0.7385  1.6820  0.5471
 4067SOL    HW223835   2.193   1.213  10.453  2.1914  1.4287  2.6394
 4068SOL     OW23836   1.212   1.834   7.898  0.1917  0.2560 -0.7672
 4068SOL    HW123837   1.264   1.759   7.925 -0.4190  0.2556  0.4135
 4068SOL    HW223838   1.248   1.897   7.960  0.2832 -1.2144  0.6637
 4069SOL     OW23839   0.592   3.333   5.240  0.0108 -0.0371 -0.0539
 4069SOL    HW123840   0.554   3.261   5.290 -1.3176  0.6597 -0.0764
 4069SOL    HW223841   0.627   3.395   5.303  1.0377 -1.0257  0.3532
 4070SOL     OW23842   1.141   0.934   4.559 -0.9425 -0.2271 -0.6227
 4070SOL    HW123843   1.113   0.842   4.561  1.1261 -0.8989 -2.5330
 4070SOL    HW223844   1.139   0.950   4.465 -1.6126 -1.5876 -0.8419
 4071SOL     OW23845   2.542   2.498   2.091 -0.0754  0.4562  0.2729
 4071SOL    HW123846   2.511   2.513   2.181 -0.6822 -0.6035  0.2428
 4071SOL    HW223847   2.486   2.428   2.056 -0.5433  1.2229 -0.5143
 4072SOL     OW23848   4.734   3.955  17.140  0.1025 -0.3833 -0.5353
 4072SOL    HW123849   0.014   3.977  17.231  1.0044  0.3876 -0.9383
 4072SOL    HW223850   4.639   3.952  17.152  0.1226  0.2933 -0.2444
 4073SOL     OW23851   2.727   0.347   3.427 -0.2802 -0.3395 -0.3345
 4073SOL    HW123852   2.693   0.306   3.507 -3.2401  0.3355 -1.2130
 4073SOL    HW223853   2.656   0.407   3.403 -1.1352 -1.2701 -0.1123
 4074SOL     OW23854   0.333   0.384   1.099  0.0322 -0.0638  0.0960
 4074SOL    HW123855   0.338   0.336   1.017  0.8220 -1.3210  0.8786
 4074SOL    HW223856   0.289   0.329   1.164  2.0873 -0.2327  1.3504
 4075SOL     OW23857   4.636   3.415   5.998 -0.5824 -0.5162  0.0462
 4075SOL    HW123858   4.550   3.457   6.003 -1.4105 -2.1675 -0.1521
 4075SOL    HW223859   4.605   3.324   5.997 -2.4913  0.1660 -2.8244
 4076SOL     OW23860   3.280   1.927   9.222  0.2921 -0.1925 -1.5357
 4076SOL    HW123861   3.371   1.955   9.221  0.5723 -1.1286 -2.7686
 4076SOL    HW223862   3.283   1.889   9.310 -0.2286 -2.8375 -2.6519
 4077SOL     OW23863   1.822   4.435   9.529  0.0851  0.1360 -0.1781
 4077SOL    HW123864   1.788   4.399   9.610  1.5481 -0.1781  0.2886
 4077SOL    HW223865   1.781   4.368   9.474  1.6600 -2.5118  1.9327
 4078SOL     OW23866   1.265   3.448  13.096 -0.9607  0.5019  0.1295
 4078SOL    HW123867   1.206   3.377  13.122 -0.0884  0.3508  1.6882
 4078SOL    HW223868   1.256   3.438  13.001 -1.8054  0.9910  0.1634
 4079SOL     OW23869   1.543   4.218  16.127  0.6069  0.1748 -0.8539
 4079SOL    HW123870   1.543   4.233  16.033 -3.1057  1.0536 -0.7203
 4079SOL    HW223871   1.609   4.278  16.162  1.6977 -1.0253 -0.8892
 4080SOL     OW23872   0.371   3.990   2.504  0.6078 -0.1370  0.2565
 4080SOL    HW123873   0.378   4.081   2.475 -0.3473 -0.4076 -0.8352
 4080SOL    HW223874   0.358   3.949   2.418  1.7664 -2.4400  1.1904
 4081SOL     OW23875   3.904   3.922   0.208  0.0342  0.4538  0.2180
 4081SOL    HW123876   3.828   3.901   0.263 -0.2986 -2.1388 -1.2350
 4081SOL    HW223877   3.949   3.838   0.205 -0.8417 -0.0254  0.5161
 4082SOL     OW23878   3.847   2.302   8.351  0.1254  0.9133 -0.4840
 4082SOL    HW123879   3.873   2.392   8.371  0.3428  1.0745 -1.5123
 4082SOL    HW223880   3.753   2.319   8.344 -0.8210 -4.5304 -1.1094
 4083SOL     OW23881   2.411   0.511  17.601 -0.1601 -0.9443 -0.3079
 4083SOL    HW123882   2.331   0.541  17.557 -1.1536 -0.1332  2.0283
 4083SOL    HW223883   2.444   0.446  17.540 -0.2505 -0.5686 -0.7601
 4084SOL     OW23884   2.163   0.100  10.109  0.1252  0.0451 -0.1225
 4084SOL    HW123885   2.218   0.025  10.090 -0.2036  0.5932 -3.1494
 4084SOL    HW223886   2.186   0.150  10.031 -1.8827  1.1820 -0.0024
 4085SOL     OW23887   1.869   1.661  11.591 -0.1700  0.8949  0.1152
 4085SOL    HW123888   1.879   1.584  11.536  0.4757  2.6899 -2.2650
 4085SOL    HW223889   1.831   1.609  11.662  0.6581  0.7693  0.4678
 4086SOL     OW23890   3.715   1.410   3.387  0.0253  0.4419  0.3965
 4086SOL    HW123891   3.789   1.366   3.427 -0.7988 -2.0932 -0.8552
 4086SOL    HW223892   3.725   1.501   3.414  1.5984  0.8039 -1.4208
 4087SOL     OW23893   4.320   4.103   0.663  0.0415  0.1350 -0.1602
 4087SOL    HW123894   4.355   4.026   0.708  1.9608 -1.0210 -3.6243
 4087SOL    HW223895   4.388   4.170   0.669  0.7751 -0.7184  1.0170
 4088SOL     OW23896   3.072   2.396   4.162 -0.4572 -0.4367 -0.0324
 4088SOL    HW123897   3.084   2.357   4.249 -1.5960 -0.1125  0.2825
 4088SOL    HW223898   3.030   2.321   4.118  1.9794 -1.5024 -0.5176
 4089SOL     OW23899   3.444   3.529   2.444  0.9049 -0.1645  0.1750
 4089SOL    HW123900   3.410   3.609   2.403  2.5770  0.0716 -0.7293
 4089SOL    HW223901   3.469   3.563   2.530  1.7017 -1.3938  0.4236
 4090SOL     OW23902   0.168   2.295  10.521 -0.0114  0.5995  0.8764
 4090SOL    HW123903   0.166   2.357  10.595 -0.3147  1.0601  0.4845
 4090SOL    HW223904   0.137   2.214  10.563  0.3521 -0.3053 -0.6165
 4091SOL     OW23905   2.400   0.440  13.739  0.1373  0.5019 -0.0729
 4091SOL    HW123906   2.441   0.435  13.652  1.4962  0.0257  0.5836
 4091SOL    HW223907   2.441   0.522  13.764  0.8383  0.3263 -0.6123
 4092SOL     OW23908   1.073   0.506   9.326  0.4942 -0.5890  0.0597
 4092SOL    HW123909   1.027   0.584   9.296 -0.0831 -0.7269  0.6011
 4092SOL    HW223910   1.160   0.545   9.335  0.4871 -0.7145  0.6324
 4093SOL     OW23911   4.050   4.425   5.676 -0.1426  0.4053 -0.7958
 4093SOL    HW123912   4.094   4.507   5.653  1.1981 -0.6096 -1.8029
 4093SOL    HW223913   3.962   4.442   5.641 -0.5429  0.5629  0.2845
 4094SOL     OW23914   3.968   1.367   7.949 -0.0611  0.1052 -0.4175
 4094SOL    HW123915   3.892   1.403   7.903 -0.9995 -1.2461  0.0937
 4094SOL    HW223916   3.929   1.322   8.023 -1.5105 -1.3176 -2.0632
 4095SOL     OW23917   4.720   3.777   8.033 -0.1332  0.0763  0.2749
 4095SOL    HW123918   0.019   3.780   7.947  2.0501 -0.2020  1.2822
 4095SOL    HW223919   0.025   3.845   8.082  0.5100 -0.8973  1.0099
 4096SOL     OW23920   1.633   4.214   0.920 -0.0553 -0.1620  0.0318
 4096SOL    HW123921   1.628   4.122   0.892 -2.9334 -0.5026  1.6332
 4096SOL    HW223922   1.693   4.239   0.850 -1.1514 -0.9185 -1.1781
 4097SOL     OW23923   0.082   0.687   5.463 -0.3645  0.3035  0.1705
 4097SOL    HW123924   0.028   0.764   5.447  0.0730  0.4714 -0.4681
 4097SOL    HW223925   0.027   0.609   5.453 -1.7868  0.9216  3.1335
 4098SOL     OW23926   4.064   0.299   5.981  0.2115 -0.5009  0.0642
 4098SOL    HW123927   4.018   0.240   6.041 -2.0547  0.6111 -0.5931
 4098SOL    HW223928   3.998   0.366   5.965  0.1739 -0.4347  0.5075
 4099SOL     OW23929   2.555   1.320  11.714  0.4850 -0.2434 -0.4484
 4099SOL    HW123930   2.476   1.267  11.726 -0.5090  1.0042 -1.3697
 4099SOL    HW223931   2.574   1.293  11.624 -0.4460 -0.3743 -0.6037
 4100SOL     OW23932   1.293   1.068  11.508  0.0260 -0.6162 -0.4981
 4100SOL    HW123933   1.243   1.145  11.533 -0.0010 -0.3175 -1.4845
 4100SOL    HW223934   1.303   1.080  11.413 -0.2030 -0.9924 -0.5728
 4101SOL     OW23935   0.306   4.153   3.079  0.4512  0.3726 -0.3155
 4101SOL    HW123936   0.301   4.058   3.065 -0.5444  0.1410  1.6137
 4101SOL    HW223937   0.388   4.158   3.127 -0.5807 -0.7169  1.5611
 4102SOL     OW23938   0.673   2.235   6.531  0.3215 -0.0381 -0.7815
 4102SOL    HW123939   0.680   2.144   6.500 -0.6010  0.9456 -3.9276
 4102SOL    HW223940   0.627   2.222   6.613  0.4593  0.8181 -0.5663
 4103SOL     OW23941   2.035   3.418   9.194 -0.1241 -0.1934 -0.1415
 4103SOL    HW123942   2.070   3.332   9.219  0.2315  0.2833  0.9772
 4103SOL    HW223943   1.941   3.418   9.212 -0.5085  0.8658 -2.1410
 4104SOL     OW23944   4.474   2.219   6.451 -0.5417  0.3416  0.3790
 4104SOL    HW123945   4.476   2.178   6.538 -1.5463 -0.1456  0.1691
 4104SOL    HW223946   4.538   2.288   6.465  0.8582 -1.0578  0.9748
 4105SOL     OW23947   1.129   4.511   4.991  0.0421 -0.0815  0.0551
 4105SOL    HW123948   1.049   4.471   5.025 -0.0483  0.4506  0.4564
 4105SOL    HW223949   1.188   4.437   4.972  1.0796  0.9091 -0.5918
 4106SOL     OW23950   2.761   3.725  13.205 -0.2486 -0.0715 -0.3947
 4106SOL    HW123951   2.844   3.699  13.166  0.7775  0.1661  1.6319
 4106SOL    HW223952   2.798   3.804  13.244 -0.2947  0.1743 -0.8495
 4107SOL     OW23953   2.874   2.484   8.337  0.3806  0.1115 -0.4306
 4107SOL    HW123954   2.816   2.561   8.334  0.6503  0.2176 -3.2908
 4107SOL    HW223955   2.918   2.481   8.252  1.5872 -1.5610  0.2657
 4108SOL     OW23956   3.177   3.537   0.432 -0.6020 -0.3851  0.0887
 4108SOL    HW123957   3.092   3.543   0.387 -1.1656 -0.8721  1.0801
 4108SOL    HW223958   3.241   3.552   0.362 -1.6295 -0.4087 -0.8593
 4109SOL     OW23959   4.086   2.901  13.964 -0.3097  0.4651  0.5001
 4109SOL    HW123960   4.134   2.834  13.915 -1.1467  0.9296 -0.9596
 4109SOL    HW223961   4.154   2.968  13.959  1.0594 -1.0312 -0.7235
 4110SOL     OW23962   3.544   4.537   4.701  1.1790  0.3407  0.7402
 4110SOL    HW123963   3.482   4.507   4.767  0.3511 -0.4653 -0.4028
 4110SOL    HW223964   3.607   4.465   4.697 -0.8734 -1.3639 -0.7174
 4111SOL     OW23965   3.958   4.446   3.322 -0.1180 -0.0041 -0.1121
 4111SOL    HW123966   4.027   4.402   3.271 -0.8912  0.1691 -1.3051
 4111SOL    HW223967   3.971   4.539   3.305  1.2873 -0.3508 -0.9217
 4112SOL     OW23968   4.674   0.455   5.503 -0.6204 -0.4680  0.6423
 4112SOL    HW123969   4.606   0.493   5.558 -1.3825  1.8992 -1.9612
 4112SOL    HW223970   4.713   0.386   5.556  0.1697  1.6637  2.8501
 4113SOL     OW23971   3.974   0.023   6.634 -0.2888  0.1021  0.5127
 4113SOL    HW123972   3.991   0.113   6.661 -1.2798 -0.1348  1.9226
 4113SOL    HW223973   4.064   4.735   6.647 -0.3003  0.5637  1.6537
 4114SOL     OW23974   3.167   1.950  10.153  0.2471  0.7417 -0.3547
 4114SOL    HW123975   3.186   2.016  10.086 -0.7805 -1.3318 -2.6647
 4114SOL    HW223976   3.139   1.877  10.100 -1.6904 -0.2645  2.0552
 4115SOL     OW23977   2.415   0.286   4.279  0.3804 -0.0427  0.3539
 4115SOL    HW123978   2.491   0.304   4.334  0.4338 -1.4497  0.7453
 4115SOL    HW223979   2.364   0.358   4.314  0.9023  0.5709 -0.1393
 4116SOL     OW23980   0.703   0.112   9.515  0.1737  0.2178 -0.1622
 4116SOL    HW123981   0.703   0.046   9.584  1.7440 -1.3040 -1.6067
 4116SOL    HW223982   0.713   0.191   9.568 -2.9649  1.1616 -0.9835
 4117SOL     OW23983   4.560   1.169   2.816  0.4121  0.2669 -0.2962
 4117SOL    HW123984   4.627   1.234   2.791 -1.1041  1.1898 -2.0142
 4117SOL    HW223985   4.595   1.135   2.898 -0.6080  1.9067  0.8270
 4118SOL     OW23986   2.762   2.642   3.559  0.3415  0.1228  0.5378
 4118SOL    HW123987   2.824   2.596   3.615 -1.3234 -1.0727  1.4219
 4118SOL    HW223988   2.680   2.619   3.603  0.7110 -1.6078  0.3019
 4119SOL     OW23989   1.087   0.319   8.228  0.2453  0.4318 -0.2130
 4119SOL    HW123990   1.017   0.367   8.272 -0.5442  0.8737 -1.9299
 4119SOL    HW223991   1.113   0.256   8.295 -0.3399  0.3600 -0.0595
 4120SOL     OW23992   2.355   1.928  17.394 -0.0444 -0.1218  0.1290
 4120SOL    HW123993   2.375   1.871  17.320  2.8068  0.7378  0.2361
 4120SOL    HW223994   2.271   1.957  17.360 -0.3279 -1.4922 -0.3378
 4121SOL     OW23995   2.938   4.638   4.789  0.1033  0.0137 -0.5108
 4121SOL    HW123996   2.884   4.654   4.866 -1.2900 -2.2476 -1.0196
 4121SOL    HW223997   2.960   4.545   4.795 -1.3757 -0.3588 -0.6998
 4122SOL     OW23998   1.141   1.866  16.016  0.7646  0.1012 -0.6139
 4122SOL    HW123999   1.164   1.947  16.061  1.4629 -1.2240  1.3927
 4122SOL    HW224000   1.151   1.806  16.091 -1.8960  0.2113 -0.1719
 4123SOL     OW24001   3.409   3.374  16.176  0.2365  0.1461 -0.4094
 4123SOL    HW124002   3.388   3.437  16.107  1.3001  0.5726 -0.3427
 4123SOL    HW224003   3.340   3.310  16.158  0.1371  0.0667  0.2615
 4124SOL     OW24004   1.284   3.789  15.887  0.5900  0.0707  0.0423
 4124SOL    HW124005   1.308   3.844  15.813  0.1254 -0.3325 -0.4040
 4124SOL    HW224006   1.288   3.860  15.952  0.0137  0.1603 -0.0190
 4125SOL     OW24007   1.952   2.498   8.952 -0.6720 -0.6075 -0.3659
 4125SOL    HW124008   2.015   2.565   8.979  0.4741 -0.4837 -3.3964
 4125SOL    HW224009   1.933   2.523   8.862  0.8814  0.1223 -0.4859
 4126SOL     OW24010   0.577   3.210   7.399 -0.2885 -0.1117  0.4692
 4126SOL    HW124011   0.551   3.233   7.488 -2.6214 -0.2646 -0.1805
 4126SOL    HW224012   0.669   3.238   7.398 -0.1788 -0.5723 -3.0102
 4127SOL     OW24013   3.526   4.534   1.119 -0.1064 -0.6369  0.6712
 4127SOL    HW124014   3.620   4.526   1.105 -0.2896 -2.1704  0.3522
 4127SOL    HW224015   3.517   4.540   1.214 -0.9639 -1.7165  0.6585
 4128SOL     OW24016   0.653   2.920   4.946  0.1075  0.1292  0.3686
 4128SOL    HW124017   0.577   2.943   4.999 -1.6242  0.2834 -2.1885
 4128SOL    HW224018   0.667   2.984   4.876 -1.4412  1.1647  1.0149
 4129SOL     OW24019   1.681   1.905   4.087 -0.4425  0.1097  0.2153
 4129SOL    HW124020   1.731   1.839   4.135 -1.2600 -0.7874 -0.1710
 4129SOL    HW224021   1.708   1.882   3.998  5.1989  0.9495  1.7031
 4130SOL     OW24022   0.089   2.110  15.188  0.0079  0.7214 -0.0659
 4130SOL    HW124023   0.147   2.047  15.230 -1.9254 -0.0384  1.4749
 4130SOL    HW224024   0.019   2.045  15.184  2.2962 -1.9170  3.3396
 4131SOL     OW24025   0.346   0.966   2.036 -0.1625 -0.0006  0.1570
 4131SOL    HW124026   0.393   0.963   1.952 -0.3900 -1.2931  0.0646
 4131SOL    HW224027   0.273   1.014   1.996 -0.8809 -0.3373  1.0585
 4132SOL     OW24028   4.629   3.862  14.511 -0.8999  0.4073 -0.5772
 4132SOL    HW124029   4.581   3.834  14.434 -1.6988  0.5570 -0.1340
 4132SOL    HW224030   4.590   3.949  14.509  0.0735  0.8712  0.3495
 4133SOL     OW24031   2.815   1.779   9.726 -0.3758  0.5714 -0.5543
 4133SOL    HW124032   2.887   1.840   9.708  1.1400 -1.0254  0.1287
 4133SOL    HW224033   2.853   1.693   9.711 -2.0264 -0.2431 -0.1244
 4134SOL     OW24034   1.529   2.906   8.316  0.0448 -0.4420  0.5011
 4134SOL    HW124035   1.584   2.876   8.389  0.3839 -2.2115 -0.4816
 4134SOL    HW224036   1.456   2.843   8.324  1.0958 -1.6342  0.7311
 4135SOL     OW24037   4.398   2.221   2.428 -0.8191 -0.4337 -0.1864
 4135SOL    HW124038   4.397   2.308   2.390  1.5927 -0.0080  0.7347
 4135SOL    HW224039   4.358   2.248   2.511 -2.0396  2.3473 -1.7119
 4136SOL     OW24040   0.795   2.809   4.036 -0.7674 -0.1254 -0.3473
 4136SOL    HW124041   0.828   2.720   4.050  0.0241  0.6242  2.6882
 4136SOL    HW224042   0.701   2.791   4.046 -0.6243 -0.4430  0.4220
 4137SOL     OW24043   4.336   2.580   5.869  0.2199 -0.1941 -0.3060
 4137SOL    HW124044   4.426   2.558   5.890  0.3759  2.0408  1.3049
 4137SOL    HW224045   4.338   2.534   5.785  2.1289  1.8817 -1.3659
 4138SOL     OW24046   1.807   1.490   4.161  0.4146 -0.3132  0.1455
 4138SOL    HW124047   1.873   1.559   4.159 -0.1754  0.2587  0.4637
 4138SOL    HW224048   1.739   1.536   4.210 -0.3104  1.0355 -2.1487
 4139SOL     OW24049   2.571   1.360  16.052  0.0466 -0.1356  0.5551
 4139SOL    HW124050   2.649   1.371  15.997 -0.9520 -1.3656 -1.0978
 4139SOL    HW224051   2.507   1.367  15.981 -0.8845  2.0885  1.6193
 4140SOL     OW24052   0.334   2.280   8.053  0.3846  0.0717  0.2012
 4140SOL    HW124053   0.355   2.261   8.145  1.0775 -0.9604 -0.1802
 4140SOL    HW224054   0.392   2.213   8.018  0.3860  0.6295 -0.8798
 4141SOL     OW24055   1.352   0.347   9.242 -0.6090  0.1403 -0.0154
 4141SOL    HW124056   1.447   0.358   9.238 -0.9958  3.3447  0.2785
 4141SOL    HW224057   1.328   0.424   9.293  0.0795  0.1565  0.2859
 4142SOL     OW24058   0.004   1.626   9.753 -0.2272 -0.1507  0.0372
 4142SOL    HW124059   0.022   1.712   9.715  1.8912 -0.1626  1.0367
 4142SOL    HW224060   4.657   1.606   9.720  0.2281  0.6147 -1.6461
 4143SOL     OW24061   0.309   1.491  10.438  0.0963 -0.0817 -0.1570
 4143SOL    HW124062   0.304   1.407  10.393 -0.3762 -0.3553  0.4012
 4143SOL    HW224063   0.327   1.464  10.528  2.5282 -1.4699 -1.0693
 4144SOL     OW24064   3.163   0.709   6.020 -0.1645  0.3300 -0.4647
 4144SOL    HW124065   3.254   0.686   6.039 -0.9802 -2.2187  0.3459
 4144SOL    HW224066   3.129   0.622   6.041  0.9225  0.0896  0.3094
 4145SOL     OW24067   0.944   1.696   5.991  0.3429 -0.3502 -0.2756
 4145SOL    HW124068   0.944   1.637   5.916 -0.3634  0.3709 -0.8470
 4145SOL    HW224069   1.035   1.724   5.995  0.1268  0.4018 -0.6687
 4146SOL     OW24070   1.404   1.920   7.180 -0.2440 -0.3108  0.0460
 4146SOL    HW124071   1.398   1.826   7.161 -1.3379 -0.3915  0.7924
 4146SOL    HW224072   1.338   1.955   7.120  0.1607 -2.0035 -1.3829
 4147SOL     OW24073   1.132   4.616  15.505  0.0299 -0.2667 -0.3952
 4147SOL    HW124074   1.161   4.635  15.416  0.6988 -0.0516 -0.1316
 4147SOL    HW224075   1.069   4.545  15.495  0.3888 -0.4039 -1.7235
 4148SOL     OW24076   2.855   2.300  14.516  0.3649 -0.0799 -0.1829
 4148SOL    HW124077   2.876   2.211  14.487  0.8106  0.4864 -1.5872
 4148SOL    HW224078   2.793   2.328  14.449 -0.7169  0.6549  1.1254
 4149SOL     OW24079   3.777   2.487  13.282  0.4794  0.3542  0.1863
 4149SOL    HW124080   3.711   2.508  13.216  2.8575  1.5044 -1.8821
 4149SOL    HW224081   3.802   2.398  13.258  1.0403  0.6249 -0.2520
 4150SOL     OW24082   3.461   1.512   4.853 -0.3283  0.2954 -0.3031
 4150SOL    HW124083   3.409   1.517   4.933  1.4617  3.5410  0.6540
 4150SOL    HW224084   3.532   1.572   4.874 -0.4359  0.1450  0.4944
 4151SOL     OW24085   0.044   4.270   1.370  0.2825  0.3268  0.0542
 4151SOL    HW124086   0.015   4.179   1.379  0.2320  0.4739  1.4200
 4151SOL    HW224087   0.064   4.266   1.277 -1.2804  2.1704 -0.3605
 4152SOL     OW24088   4.181   1.116  13.456 -0.1626  0.4891  0.4290
 4152SOL    HW124089   4.147   1.094  13.543 -1.6322  0.5393 -0.1325
 4152SOL    HW224090   4.215   1.030  13.434  1.5773  0.5261  3.0106
 4153SOL     OW24091   4.364   0.476   0.612  0.1775  0.3126  0.5423
 4153SOL    HW124092   4.382   0.482   0.706  0.5777 -2.0705  0.6201
 4153SOL    HW224093   4.442   0.519   0.578 -0.0729  0.5206  0.2385
 4154SOL     OW24094   2.536   1.463  14.352  0.4030 -0.1413  0.3200
 4154SOL    HW124095   2.507   1.395  14.291  2.4775 -0.3963 -0.3877
 4154SOL    HW224096   2.521   1.541  14.298 -0.3096 -0.7543 -0.3699
 4155SOL     OW24097   0.879   2.316   5.020 -0.0425  0.3111 -0.6055
 4155SOL    HW124098   0.960   2.357   4.990 -1.2844  2.4182 -1.1400
 4155SOL    HW224099   0.864   2.247   4.955 -0.5797 -0.9481  0.8693
 4156SOL     OW24100   1.613   3.583   1.605  0.5177  0.1395 -0.1196
 4156SOL    HW124101   1.630   3.677   1.592  0.0321 -0.1628 -2.9561
 4156SOL    HW224102   1.692   3.538   1.575 -1.0951 -2.8516  0.1336
 4157SOL     OW24103   2.030   3.896  12.014  0.2364  0.0035 -0.3724
 4157SOL    HW124104   2.107   3.883  11.959 -0.0549  0.8064 -0.9729
 4157SOL    HW224105   1.961   3.909  11.948  0.1377  0.8901 -0.0891
 4158SOL     OW24106   3.770   2.096   4.589 -0.0091  0.2763 -0.0535
 4158SOL    HW124107   3.768   2.100   4.494 -2.6831 -1.2316 -0.0373
 4158SOL    HW224108   3.777   2.191   4.605  0.2547  0.4162 -1.0274
 4159SOL     OW24109   2.627   2.370  17.483 -0.0784  0.3235  0.5453
 4159SOL    HW124110   2.584   2.285  17.473  0.4938  0.1719 -0.6890
 4159SOL    HW224111   2.554   2.432  17.473 -1.0658 -0.8394  0.5073
 4160SOL     OW24112   3.639   4.372   3.037  0.2725  0.0480  0.6830
 4160SOL    HW124113   3.670   4.461   3.025  0.7165 -0.4242 -1.6684
 4160SOL    HW224114   3.574   4.390   3.104 -2.0714 -0.4336 -1.4622
 4161SOL     OW24115   0.350   2.836   3.068 -0.0245 -0.0371 -0.2014
 4161SOL    HW124116   0.299   2.757   3.088  0.6049 -0.3924 -0.0051
 4161SOL    HW224117   0.396   2.814   2.986  0.2031 -1.8769  0.4176
 4162SOL     OW24118   0.625   0.052  13.805 -0.0443 -0.7133 -0.5802
 4162SOL    HW124119   0.564   0.123  13.821  1.7713  0.6284  0.3382
 4162SOL    HW224120   0.662   0.041  13.893  3.0118  2.7373 -1.4262
 4163SOL     OW24121   0.111   3.030  13.785 -0.6343 -0.1194  0.4048
 4163SOL    HW124122   0.050   3.050  13.714 -0.4964 -1.2176 -0.0289
 4163SOL    HW224123   0.054   2.994  13.853 -0.7899  0.0185  0.3477
 4164SOL     OW24124   0.117   2.115   3.754  0.2927  0.1528  0.2288
 4164SOL    HW124125   0.130   2.202   3.793 -2.2321  0.5417  0.1740
 4164SOL    HW224126   0.202   2.074   3.772  0.1857  0.0472  0.4906
 4165SOL     OW24127   2.383   2.403   7.007 -0.1389 -0.0129  0.1368
 4165SOL    HW124128   2.398   2.495   6.986 -3.1096  0.2237 -0.9535
 4165SOL    HW224129   2.327   2.403   7.084 -0.5552 -1.6960 -0.1505
 4166SOL     OW24130   4.103   4.473   5.160  0.0956 -0.1569 -0.2064
 4166SOL    HW124131   4.024   4.430   5.195 -0.7953  1.3599 -0.3449
 4166SOL    HW224132   4.094   4.556   5.208  1.4011 -0.1977  0.1152
 4167SOL     OW24133   0.121   1.030   1.913  0.1582 -0.1091  0.0219
 4167SOL    HW124134   0.054   1.009   1.978 -0.5900  0.1889 -0.6623
 4167SOL    HW224135   0.093   0.966   1.848  0.7930  0.0179 -0.3787
 4168SOL     OW24136   4.245   2.908   5.322 -0.0500 -0.5222 -0.4676
 4168SOL    HW124137   4.222   2.820   5.352  1.9362 -1.2508 -1.0785
 4168SOL    HW224138   4.162   2.951   5.340  0.5346  0.2486  0.4248
 4169SOL     OW24139   3.763   1.695   3.309  0.2153 -0.1047  0.4558
 4169SOL    HW124140   3.837   1.750   3.334 -2.0836  2.5128  1.4401
 4169SOL    HW224141   3.690   1.754   3.288 -0.8146 -0.3054  3.5781
 4170SOL     OW24142   1.780   0.656  12.395 -0.0150  0.0508 -0.0385
 4170SOL    HW124143   1.804   0.599  12.321 -1.4501  0.6835 -0.9974
 4170SOL    HW224144   1.863   0.703  12.399  0.0023 -0.0376  0.5946
 4171SOL     OW24145   4.081   4.194   6.090  0.1307  0.0780  0.4769
 4171SOL    HW124146   4.082   4.164   5.999 -2.2475 -1.0089  0.8106
 4171SOL    HW224147   4.067   4.288   6.074  3.8683  0.9097  1.9367
 4172SOL     OW24148   0.150   4.344   6.994 -0.5331  0.3775 -0.0551
 4172SOL    HW124149   0.090   4.379   7.059 -0.4190  1.1358 -0.3595
 4172SOL    HW224150   0.235   4.385   7.009 -1.1682  1.8492 -0.5173
 4173SOL     OW24151   3.933   3.714   3.964  0.3704  0.1306 -0.3079
 4173SOL    HW124152   3.858   3.773   3.971 -0.2290 -0.8111  1.2470
 4173SOL    HW224153   3.967   3.728   3.876  0.2544  0.9893 -0.2161
 4174SOL     OW24154   0.475   1.345   4.412 -0.0251  0.4200 -0.4869
 4174SOL    HW124155   0.453   1.257   4.442 -0.0932  0.4037 -0.5859
 4174SOL    HW224156   0.404   1.362   4.351 -0.3921  0.3888 -0.0657
 4175SOL     OW24157   0.926   2.373   7.207 -0.6060 -0.0027 -0.0881
 4175SOL    HW124158   0.954   2.429   7.279  0.2517 -0.3714 -0.1397
 4175SOL    HW224159   0.875   2.307   7.255 -0.6919  0.8112  0.9304
 4176SOL     OW24160   2.042   0.660   6.652 -0.8776  0.3461 -0.9028
 4176SOL    HW124161   2.053   0.649   6.558  0.1718 -3.0864 -0.3679
 4176SOL    HW224162   2.050   0.568   6.675 -0.0988  0.7504  0.4882
 4177SOL     OW24163   0.907   4.275  10.884  0.0072 -0.1363 -0.3725
 4177SOL    HW124164   0.945   4.279  10.796 -2.6513  0.5469 -1.5114
 4177SOL    HW224165   0.969   4.215  10.924  0.7676  0.6197 -0.4167
 4178SOL     OW24166   3.522   4.698   5.958 -0.7481  0.3452  0.1589
 4178SOL    HW124167   3.572   4.623   5.991 -0.6303 -0.2550 -1.3999
 4178SOL    HW224168   3.527   0.019   6.031 -1.2635 -1.5691  1.8375
 4179SOL     OW24169   1.976   4.320   7.285 -0.1797 -0.0719  0.1282
 4179SOL    HW124170   1.908   4.383   7.309 -1.3208 -1.0644 -0.4312
 4179SOL    HW224171   2.032   4.372   7.228  0.1596  0.2478  0.7582
 4180SOL     OW24172   1.411   1.132  15.095 -0.0040 -0.3067  0.0848
 4180SOL    HW124173   1.481   1.126  15.160  1.5100  1.3152 -1.3953
 4180SOL    HW224174   1.338   1.119  15.156 -1.1170  2.7529 -0.5822
 4181SOL     OW24175   3.215   3.007   0.538  0.0590 -0.1531 -0.1854
 4181SOL    HW124176   3.135   3.019   0.487 -0.2321 -2.0781 -0.2168
 4181SOL    HW224177   3.249   3.095   0.553  0.2114 -0.5781  1.9763
 4182SOL     OW24178   2.513   0.470   0.381  0.4953  0.3326 -0.1593
 4182SOL    HW124179   2.474   0.487   0.296  1.9360 -2.5700 -1.3909
 4182SOL    HW224180   2.602   0.501   0.367  0.1835  2.3184  2.1729
 4183SOL     OW24181   1.666   1.378   5.383  0.4075  0.0509 -0.5229
 4183SOL    HW124182   1.641   1.286   5.381 -0.5157  0.3209 -1.6961
 4183SOL    HW224183   1.587   1.406   5.336 -1.9752 -1.5309  2.5879
 4184SOL     OW24184   2.977   4.284   3.761 -0.1831 -0.4156  0.2618
 4184SOL    HW124185   3.002   4.197   3.730 -0.8853 -0.5165 -0.0177
 4184SOL    HW224186   3.064   4.323   3.771 -0.5771  0.1939  1.4029
 4185SOL     OW24187   1.461   0.273   1.410 -0.7790 -0.3519 -0.1271
 4185SOL    HW124188   1.455   0.235   1.497 -0.1181 -2.8095 -1.1768
 4185SOL    HW224189   1.377   0.318   1.410 -1.1879 -1.1195  1.4322
 4186SOL     OW24190   1.631   2.666   2.436  0.0735  0.2352  0.1586
 4186SOL    HW124191   1.565   2.619   2.385  1.0067 -0.0048 -0.8256
 4186SOL    HW224192   1.667   2.591   2.484  1.1283  0.2541 -0.5946
 4187SOL     OW24193   0.902   2.553   4.147 -0.3648  0.0441  0.0437
 4187SOL    HW124194   0.817   2.527   4.185 -0.1876  1.3149  1.3088
 4187SOL    HW224195   0.959   2.478   4.162 -0.8194 -0.1578  0.7811
 4188SOL     OW24196   1.222   0.771  15.151 -0.5344  0.1236 -0.4155
 4188SOL    HW124197   1.247   0.828  15.224 -0.5261 -0.1152 -0.2334
 4188SOL    HW224198   1.194   0.691  15.196  0.5501 -1.6220 -2.8325
 4189SOL     OW24199   0.473   2.723   4.764 -0.0863 -0.6093  0.4147
 4189SOL    HW124200   0.539   2.793   4.756 -1.6041  0.6086 -1.4355
 4189SOL    HW224201   0.515   2.657   4.709 -0.1753 -0.1494 -0.2114
 4190SOL     OW24202   0.028   2.737  12.601 -0.8601  0.1740 -0.6865
 4190SOL    HW124203   0.122   2.722  12.606 -1.1784 -2.2497 -1.7853
 4190SOL    HW224204   0.007   2.727  12.694  1.0662 -0.6958 -0.3448
 4191SOL     OW24205   2.527   3.798  13.376  0.4910 -0.2476  0.7683
 4191SOL    HW124206   2.577   3.796  13.294 -1.7163  1.9260 -0.6126
 4191SOL    HW224207   2.535   3.889  13.404  0.0769  0.0202  0.0337
 4192SOL     OW24208   0.073   4.631   8.136  0.2684  0.9086  0.0761
 4192SOL    HW124209   0.155   4.592   8.105 -0.1832  0.6672 -0.7995
 4192SOL    HW224210   0.062   4.693   8.064 -0.3983 -0.7402 -1.2547
 4193SOL     OW24211   3.233   0.445   7.466 -0.5737 -0.1977  0.0887
 4193SOL    HW124212   3.194   0.408   7.545  2.9807  1.2613  2.5621
 4193SOL    HW224213   3.219   0.380   7.398 -1.0709  0.7891 -0.7471
 4194SOL     OW24214   2.408   3.330   7.580 -0.6816 -0.5552 -0.1258
 4194SOL    HW124215   2.487   3.352   7.629  1.4607 -2.6591 -2.6385
 4194SOL    HW224216   2.448   3.309   7.495 -0.9680 -2.1834  0.1447
 4195SOL     OW24217   4.083   1.520   1.071  0.1393 -0.3122 -0.2294
 4195SOL    HW124218   4.144   1.451   1.046  1.0444  0.4760 -0.1725
 4195SOL    HW224219   4.033   1.499   1.150  0.4103  2.6228  0.7344
 4196SOL     OW24220   2.862   3.595   2.643  0.0656 -0.4813  0.1325
 4196SOL    HW124221   2.768   3.577   2.652  0.5030 -3.4683 -1.1037
 4196SOL    HW224222   2.893   3.523   2.588  0.6895  0.2189 -0.4179
 4197SOL     OW24223   3.431   4.719   0.601 -0.1399 -0.8758 -0.1677
 4197SOL    HW124224   3.403   4.687   0.515 -1.8180 -0.4717  0.2352
 4197SOL    HW224225   3.525   4.704   0.595 -0.5142 -3.0942 -0.5411
 4198SOL     OW24226   4.268   0.996  15.959 -0.5260  0.4995 -0.2612
 4198SOL    HW124227   4.214   0.969  15.885 -2.3902  1.6815  0.6735
 4198SOL    HW224228   4.310   0.915  15.991 -2.1324 -0.3254 -0.2452
 4199SOL     OW24229   0.328   2.710   5.593  0.2062 -0.3157 -0.1298
 4199SOL    HW124230   0.300   2.642   5.655 -1.2055  0.4622  0.0797
 4199SOL    HW224231   0.405   2.666   5.555 -0.2076  0.2907 -1.6852
 4200SOL     OW24232   2.499   0.621   4.885 -0.4432 -0.2966  0.3889
 4200SOL    HW124233   2.575   0.677   4.874  0.2158 -1.5882 -1.6193
 4200SOL    HW224234   2.533   0.537   4.852  1.3616  0.3757  0.5860
 4201SOL     OW24235   2.224   0.409   7.657  0.1731 -0.0043  0.3553
 4201SOL    HW124236   2.180   0.452   7.584  0.9087 -1.3480 -0.8838
 4201SOL    HW224237   2.315   0.416   7.629  0.3592 -1.7231  0.4778
 4202SOL     OW24238   2.813   0.983   7.895 -0.3470 -0.0825 -0.0448
 4202SOL    HW124239   2.894   1.001   7.944 -0.9354 -2.4204  1.7929
 4202SOL    HW224240   2.802   1.061   7.841  3.5282 -0.2517 -1.0761
 4203SOL     OW24241   2.852   4.192   0.462  0.1039 -0.0630  0.3419
 4203SOL    HW124242   2.901   4.163   0.385  0.7700  1.6037  0.1339
 4203SOL    HW224243   2.900   4.140   0.526  0.9775  1.4035  0.8810
 4204SOL     OW24244   1.730   4.662   8.416 -0.1378 -0.5019 -0.1281
 4204SOL    HW124245   1.809   4.708   8.386 -2.0054  3.0661  0.3623
 4204SOL    HW224246   1.763   4.639   8.503 -1.2982 -0.4647  0.3260
 4205SOL     OW24247   3.058   4.699   1.726  0.3158  0.1744  0.2971
 4205SOL    HW124248   3.071   4.617   1.773  0.6170 -0.0663 -0.2113
 4205SOL    HW224249   2.994   4.736   1.787  0.9354 -0.3722  1.2941
 4206SOL     OW24250   1.779   0.625  11.308  0.2404  0.2477 -0.4858
 4206SOL    HW124251   1.866   0.649  11.277  1.8041  1.5793  4.8781
 4206SOL    HW224252   1.760   0.697  11.369 -0.3802 -0.6290  0.3681
 4207SOL     OW24253   1.395   1.320   5.788  0.5830  0.2136  0.0178
 4207SOL    HW124254   1.485   1.286   5.793  0.6775  0.3128 -1.0234
 4207SOL    HW224255   1.415   1.410   5.812  2.5645  0.2660 -1.8418
 4208SOL     OW24256   3.513   3.399   7.529  0.1409 -0.0083  0.1851
 4208SOL    HW124257   3.514   3.366   7.439  2.7221  0.7815 -0.0672
 4208SOL    HW224258   3.494   3.490   7.506  0.4846 -0.1723 -0.7803
 4209SOL     OW24259   0.184   1.334   3.794 -0.3097 -0.1473 -0.0999
 4209SOL    HW124260   0.178   1.429   3.801  1.8685 -0.0866  1.1228
 4209SOL    HW224261   0.158   1.307   3.882 -1.1211  0.6162 -0.1120
 4210SOL     OW24262   1.357   1.068   9.282  0.2249  0.1649 -0.2557
 4210SOL    HW124263   1.321   1.131   9.344 -1.5248 -0.3552 -0.7442
 4210SOL    HW224264   1.432   1.116   9.246  0.1362  0.9072  0.5360
 4211SOL     OW24265   0.277   4.250   3.840 -0.0644 -0.0918  0.0237
 4211SOL    HW124266   0.229   4.247   3.923 -1.5054 -0.9055 -0.8211
 4211SOL    HW224267   0.205   4.274   3.782 -0.0093 -0.2057 -0.0935
 4212SOL     OW24268   4.516   0.869  16.721  0.4188 -0.4080 -0.3429
 4212SOL    HW124269   4.529   0.778  16.694 -1.1899 -0.7171 -0.0497
 4212SOL    HW224270   4.596   0.908  16.686  1.1696  0.0859  1.9735
 4213SOL     OW24271   3.208   2.672   1.212  0.1088 -0.0285  0.1080
 4213SOL    HW124272   3.203   2.681   1.116 -0.6965  1.8316  0.3205
 4213SOL    HW224273   3.234   2.582   1.229  0.3344 -0.2304 -1.2802
 4214SOL     OW24274   0.633   1.696   3.097  0.5017 -0.1535  0.8666
 4214SOL    HW124275   0.681   1.753   3.037 -1.2817  0.0334 -0.3941
 4214SOL    HW224276   0.563   1.665   3.040  0.8395  0.2413  0.2294
 4215SOL     OW24277   3.958   2.250  17.381 -0.0439 -0.0996  0.6832
 4215SOL    HW124278   3.953   2.338  17.418  2.1102  0.6825 -0.8667
 4215SOL    HW224279   3.950   2.181  17.447  0.3387  1.3697  2.2366
 4216SOL     OW24280   1.541   2.683  10.272  0.2875  0.1287 -0.6019
 4216SOL    HW124281   1.616   2.737  10.298 -0.4718 -0.8028  3.5286
 4216SOL    HW224282   1.563   2.655  10.183 -3.3140 -0.4667 -1.2833
 4217SOL     OW24283   1.860   4.443   8.667  0.0735 -0.1279 -0.2159
 4217SOL    HW124284   1.907   4.375   8.621  0.4511 -0.5424  0.7802
 4217SOL    HW224285   1.932   4.500   8.694 -2.7337  3.8893 -1.0020
 4218SOL     OW24286   2.794   0.638   2.569 -0.0064  0.0661  0.1417
 4218SOL    HW124287   2.771   0.692   2.644 -1.2759  0.5595 -0.6064
 4218SOL    HW224288   2.802   0.550   2.605 -0.9978 -0.3148 -0.5642
 4219SOL     OW24289   4.508   2.369   8.662 -0.1275  0.0550  0.1142
 4219SOL    HW124290   4.419   2.397   8.639 -0.4173 -0.1289  1.0381
 4219SOL    HW224291   4.497   2.316   8.741 -3.7388 -2.2480 -1.9540
 4220SOL     OW24292   1.260   0.650   5.210 -0.0025 -0.1204  0.3357
 4220SOL    HW124293   1.313   0.571   5.222  1.5859  0.6192 -1.7702
 4220SOL    HW224294   1.181   0.600   5.189 -0.0376  0.3505 -0.6488
 4221SOL     OW24295   1.196   0.560   3.421  0.2886 -0.2600  0.3391
 4221SOL    HW124296   1.264   0.627   3.428 -0.2054  0.3432 -0.7974
 4221SOL    HW224297   1.198   0.528   3.511 -0.3638  0.4088  0.5841
 4222SOL     OW24298   4.189   3.769   8.796 -0.1924 -0.1908  0.6351
 4222SOL    HW124299   4.125   3.738   8.731  1.3248 -0.9794 -0.4918
 4222SOL    HW224300   4.209   3.686   8.839 -0.0545  0.3991  1.6852
 4223SOL     OW24301   3.413   1.341   6.513 -0.2137 -0.3598  0.1939
 4223SOL    HW124302   3.434   1.264   6.566 -0.8876 -1.5968 -1.3289
 4223SOL    HW224303   3.356   1.390   6.573 -2.8874 -0.6058 -2.1529
 4224SOL     OW24304   4.325   2.417  13.831 -0.0648  0.1237 -0.0131
 4224SOL    HW124305   4.313   2.408  13.925 -0.1697  0.1731 -0.0219
 4224SOL    HW224306   4.344   2.328  13.801 -0.2616 -1.1130  3.5528
 4225SOL     OW24307   3.218   3.687   4.288  0.5645 -0.1080 -0.3516
 4225SOL    HW124308   3.312   3.687   4.273  0.6562  1.8665  0.2251
 4225SOL    HW224309   3.196   3.642   4.206 -0.5001 -1.1512  0.5062
 4226SOL     OW24310   3.597   3.419   8.373  0.6354 -0.0247  0.6625
 4226SOL    HW124311   3.601   3.512   8.396 -3.4004  0.2769  0.1862
 4226SOL    HW224312   3.564   3.425   8.283  1.8514 -1.7661  0.1068
 4227SOL     OW24313   1.471   0.707   1.902 -0.4441  0.6988  0.0880
 4227SOL    HW124314   1.458   0.734   1.993  1.4789 -0.3172  0.6674
 4227SOL    HW224315   1.553   0.657   1.901 -1.3403 -0.7549 -3.1107
 4228SOL     OW24316   2.513   1.661  16.962  0.4594  0.4820 -0.0291
 4228SOL    HW124317   2.586   1.637  16.904 -1.3409 -1.0394 -1.6336
 4228SOL    HW224318   2.524   1.756  16.949 -1.7696  0.8167  0.6211
 4229SOL     OW24319   2.855   3.547  12.909  0.1830  0.3272  0.2671
 4229SOL    HW124320   2.806   3.536  12.828  0.2393 -1.5527  0.4824
 4229SOL    HW224321   2.908   3.627  12.904 -2.2668  1.8790 -0.6405
 4230SOL     OW24322   3.867   0.205  11.634 -0.3706  0.1227 -0.5004
 4230SOL    HW124323   3.838   0.179  11.722 -0.6713  0.0470 -0.6201
 4230SOL    HW224324   3.856   0.300  11.628  0.2407  0.2287  0.1373
 4231SOL     OW24325   1.703   2.504   4.298 -0.0340  0.3325  0.0715
 4231SOL    HW124326   1.685   2.524   4.206 -0.8466  0.3496  0.2358
 4231SOL    HW224327   1.790   2.542   4.311 -0.1793  1.4543 -2.2355
 4232SOL     OW24328   2.342   3.480   2.511 -0.3588  0.1097 -0.2655
 4232SOL    HW124329   2.307   3.397   2.542  1.3842 -0.0059  1.4184
 4232SOL    HW224330   2.284   3.515   2.444 -2.7054 -1.8810  0.7379
 4233SOL     OW24331   3.532   2.366  15.956 -0.3305 -0.3388  0.0872
 4233SOL    HW124332   3.447   2.358  15.999 -0.7577 -0.6609 -0.8211
 4233SOL    HW224333   3.557   2.273  15.955  0.7207 -0.0252 -2.5931
 4234SOL     OW24334   2.753   1.046   6.978 -0.2344  0.6235  0.2145
 4234SOL    HW124335   2.703   1.056   7.060  0.1943  0.4331  0.4970
 4234SOL    HW224336   2.838   1.086   6.995  0.1157 -0.2810  0.5877
 4235SOL     OW24337   0.848   3.438   0.884 -0.1974  0.1740  0.1644
 4235SOL    HW124338   0.799   3.408   0.960  0.4431 -2.4748 -0.4581
 4235SOL    HW224339   0.820   3.374   0.819 -1.8111 -2.2289  3.2235
 4236SOL     OW24340   2.654   3.516   6.450 -0.2208  0.7606  0.1077
 4236SOL    HW124341   2.653   3.608   6.425 -0.5502  0.6702 -0.2148
 4236SOL    HW224342   2.613   3.471   6.376 -1.7682  0.1741  1.3162
 4237SOL     OW24343   0.148   0.279  16.790 -0.0477 -0.7649 -0.5839
 4237SOL    HW124344   0.151   0.322  16.705  0.9255 -0.3425 -0.3374
 4237SOL    HW224345   0.150   0.355  16.849 -1.3705 -0.9650 -0.2943
 4238SOL     OW24346   4.485   1.411   6.139  0.1796  0.2602  0.3005
 4238SOL    HW124347   4.469   1.449   6.225 -0.4094  2.2213 -0.6652
 4238SOL    HW224348   4.580   1.408   6.150  0.3152 -0.6984 -1.0916
 4239SOL     OW24349   0.323   1.159   3.643 -0.7138 -0.1648  0.1257
 4239SOL    HW124350   0.364   1.215   3.578 -0.8238  0.1683  0.3418
 4239SOL    HW224351   0.296   1.231   3.701 -1.4640 -0.4960  0.1870
 4240SOL     OW24352   3.800   4.534   5.599 -0.2727  0.1753  0.0874
 4240SOL    HW124353   3.710   4.564   5.611 -0.8639 -1.8175  0.7856
 4240SOL    HW224354   3.823   4.570   5.513 -1.2689 -2.5461 -1.3202
 4241SOL     OW24355   0.201   4.091   4.953 -0.1590 -0.0045  0.7311
 4241SOL    HW124356   0.259   4.168   4.959  0.9611 -0.6982 -1.2678
 4241SOL    HW224357   0.134   4.114   5.018 -2.4113  0.0538 -1.6249
 4242SOL     OW24358   3.878   1.871   4.747 -0.1374 -0.0359  0.2673
 4242SOL    HW124359   3.862   1.945   4.688 -0.8103  1.0795  1.8383
 4242SOL    HW224360   3.868   1.797   4.688  0.7284  0.5281 -0.5979
 4243SOL     OW24361   0.787   0.780   3.110  0.0641  0.5374  0.2780
 4243SOL    HW124362   0.826   0.694   3.117  0.9513  1.2233  3.6589
 4243SOL    HW224363   0.858   0.840   3.133  0.0547  0.8706 -0.5326
 4244SOL     OW24364   0.193   4.672   9.640  1.0490 -0.0177 -0.3525
 4244SOL    HW124365   0.152   4.587   9.620  1.1525  0.0296 -0.7739
 4244SOL    HW224366   0.173   4.688   9.732 -0.4657  0.2746 -0.7327
 4245SOL     OW24367   1.845   4.265   3.964  0.0193  0.4044 -0.2286
 4245SOL    HW124368   1.773   4.321   3.934  1.0331 -0.1124 -3.6027
 4245SOL    HW224369   1.810   4.177   3.976  2.7459 -0.7234 -0.5895
 4246SOL     OW24370   3.283   0.628   3.082  0.6207 -0.9791 -0.3035
 4246SOL    HW124371   3.212   0.640   3.146 -0.2634  0.7382 -1.6085
 4246SOL    HW224372   3.336   0.575   3.142 -0.0357 -2.2034 -0.8105
 4247SOL     OW24373   3.026   2.853  13.286 -0.4053 -0.0190 -0.6490
 4247SOL    HW124374   3.024   2.807  13.202 -0.1048 -0.7006 -0.2875
 4247SOL    HW224375   3.072   2.934  13.263  0.4560 -0.8185 -1.7522
 4248SOL     OW24376   1.116   1.772   7.466  0.5639  0.0709  0.1196
 4248SOL    HW124377   1.074   1.692   7.500  0.7160  0.6948  1.7911
 4248SOL    HW224378   1.035   1.818   7.447  0.2606 -0.2455  0.6409
 4249SOL     OW24379   0.548   3.031   1.841 -0.6493 -0.0843 -0.0920
 4249SOL    HW124380   0.572   3.089   1.913 -0.7250  0.2537 -0.3339
 4249SOL    HW224381   0.626   2.975   1.842  1.0430  2.2914  2.4304
 4250SOL     OW24382   1.718   2.525   5.579 -0.0987  0.3565  0.0577
 4250SOL    HW124383   1.740   2.443   5.533  0.8136  0.5618  0.1227
 4250SOL    HW224384   1.726   2.592   5.511 -0.8858  2.3249  1.9075
 4251SOL     OW24385   0.010   0.229   2.847  0.2168 -0.7114 -0.3549
 4251SOL    HW124386   0.002   0.278   2.766  1.3309 -2.6093 -1.6315
 4251SOL    HW224387   0.084   0.278   2.882  0.4868 -1.2225 -0.2016
 4252SOL     OW24388   1.418   0.951   0.640  0.3771 -0.2787 -0.3234
 4252SOL    HW124389   1.480   0.992   0.701  0.1433  0.0047 -0.2738
 4252SOL    HW224390   1.341   0.930   0.693 -0.7182 -0.1740 -1.8923
 4253SOL     OW24391   0.327   3.870   6.004  0.3848  0.0558  0.2385
 4253SOL    HW124392   0.299   3.915   6.084  0.5469  1.2920 -0.4007
 4253SOL    HW224393   0.354   3.944   5.950 -1.4814 -1.0251 -2.1655
 4254SOL     OW24394   4.090   4.652   2.401 -0.0835  0.0250 -0.2418
 4254SOL    HW124395   4.111   4.696   2.484 -3.4551  1.0205  0.0839
 4254SOL    HW224396   4.174   4.639   2.358 -1.2486 -0.8292 -2.2757
 4255SOL     OW24397   1.806   1.848   7.156  0.4855 -0.4609  0.2790
 4255SOL    HW124398   1.821   1.768   7.106  0.3795 -0.9312  1.0038
 4255SOL    HW224399   1.889   1.893   7.172  0.5563 -0.7559  0.7185
 4256SOL     OW24400   1.947   2.155   3.964  0.7674  0.2249  0.2799
 4256SOL    HW124401   2.037   2.122   3.961  0.8482  0.7136 -2.9404
 4256SOL    HW224402   1.928   2.140   4.056  0.1054  1.0071  0.2663
 4257SOL     OW24403   0.170   2.131  16.865  0.2345  0.0766  0.6005
 4257SOL    HW124404   0.137   2.072  16.797  0.6138 -0.1794  0.6442
 4257SOL    HW224405   0.207   2.074  16.932 -1.3395 -0.8732  0.6494
 4258SOL     OW24406   1.845   3.576   5.521 -0.1808  0.0929  0.2309
 4258SOL    HW124407   1.753   3.591   5.501 -0.6339 -2.0854  0.6381
 4258SOL    HW224408   1.833   3.587   5.616 -0.1617 -1.4148  0.4083
 4259SOL     OW24409   0.692   2.538   7.679 -0.2786  0.3163 -0.0053
 4259SOL    HW124410   0.785   2.544   7.660 -0.3825  0.5205 -0.4402
 4259SOL    HW224411   0.671   2.625   7.711 -0.9878 -0.2395  1.0672
 4260SOL     OW24412   4.393   2.392   7.187  0.1970  0.1819  0.2224
 4260SOL    HW124413   4.336   2.426   7.117 -0.2461 -1.3939 -0.1709
 4260SOL    HW224414   4.328   2.362   7.250  0.2532  0.5735  0.4622
 4261SOL     OW24415   4.172   0.437   6.598  0.1998  0.3670  0.0257
 4261SOL    HW124416   4.241   0.444   6.664 -1.3930  1.1967  1.6402
 4261SOL    HW224417   4.213   0.428   6.513  1.0166  0.3516  0.4261
 4262SOL     OW24418   2.016   2.457   9.547 -0.3369 -0.0395 -0.3364
 4262SOL    HW124419   2.110   2.447   9.538  0.0545  1.3972  2.2873
 4262SOL    HW224420   1.995   2.426   9.635 -0.1568  1.8102  0.3618
 4263SOL     OW24421   1.120   3.072   7.976 -0.0121  0.0435  0.1191
 4263SOL    HW124422   1.204   3.085   7.932  0.4902  1.4577  1.5121
 4263SOL    HW224423   1.154   3.046   8.061  0.7699 -0.8448 -0.4618
 4264SOL     OW24424   1.902   4.364   2.742  0.1698 -0.0080 -0.2610
 4264SOL    HW124425   1.944   4.414   2.672 -1.4714 -0.9093 -1.8956
 4264SOL    HW224426   1.968   4.368   2.811  0.2603 -2.2496 -0.2110
 4265SOL     OW24427   0.148   3.898   1.999  0.1764  0.2597  0.3759
 4265SOL    HW124428   0.159   3.807   1.971 -2.7662  0.2280 -0.7019
 4265SOL    HW224429   0.065   3.918   1.956 -0.7555 -1.5780  1.3264
 4266SOL     OW24430   3.715   3.947   0.772  0.4984 -0.0277 -0.3326
 4266SOL    HW124431   3.694   3.935   0.679 -0.1142  1.7872 -0.4388
 4266SOL    HW224432   3.628   3.957   0.809  1.2049  0.4610  1.1990
 4267SOL     OW24433   4.385   3.638   1.534  0.1204  0.0084  0.2332
 4267SOL    HW124434   4.293   3.658   1.522  0.4035 -0.8192 -3.2793
 4267SOL    HW224435   4.423   3.696   1.468 -0.6945  1.2522  0.8710
 4268SOL     OW24436   4.295   0.209   5.230 -0.4746  0.4155 -0.4504
 4268SOL    HW124437   4.264   0.277   5.170  1.5112  1.2482 -0.5311
 4268SOL    HW224438   4.385   0.240   5.240 -1.1121  2.4752 -1.1042
 4269SOL     OW24439   3.010   4.481   8.526 -0.0305  0.2700  0.0413
 4269SOL    HW124440   3.096   4.443   8.545 -0.4238 -0.5775  0.1057
 4269SOL    HW224441   3.034   4.570   8.496  2.9293 -0.1316  1.1894
 4270SOL     OW24442   0.051   1.913   2.412  0.4451  0.4344 -0.2935
 4270SOL    HW124443   0.082   2.004   2.408 -1.6243  1.1439 -0.5397
 4270SOL    HW224444   0.008   1.917   2.498  1.2774 -0.8329  0.1754
 4271SOL     OW24445   1.815   4.516   2.127  0.1659 -0.0155 -0.4231
 4271SOL    HW124446   1.740   4.460   2.110 -0.9513  0.9661  1.1848
 4271SOL    HW224447   1.808   4.591   2.068  0.6770  1.3431  1.2326
 4272SOL     OW24448   3.311   0.185   5.058 -0.7414  0.1934 -0.6364
 4272SOL    HW124449   3.285   0.115   5.117 -2.7429 -0.5287 -2.3911
 4272SOL    HW224450   3.404   0.191   5.082 -1.0050 -1.9594  0.8639
 4273SOL     OW24451   3.670   2.508  16.143 -0.2736  0.4998 -0.1084
 4273SOL    HW124452   3.745   2.510  16.084  0.2110  1.0798  0.5254
 4273SOL    HW224453   3.611   2.455  16.089  1.7433 -1.1180 -0.7294
 4274SOL     OW24454   2.360   4.601  15.432  0.1976  0.2224  0.2980
 4274SOL    HW124455   2.346   4.507  15.426 -0.8591  0.2529  2.3128
 4274SOL    HW224456   2.439   4.601  15.487 -0.8330 -3.3593  1.7923
 4275SOL     OW24457   1.659   0.915   1.892 -0.1133 -0.5647  0.2629
 4275SOL    HW124458   1.637   1.008   1.888  0.5506 -0.3060  3.0158
 4275SOL    HW224459   1.586   0.886   1.837 -0.3588 -2.3886  1.5492
 4276SOL     OW24460   1.829   3.926  11.804  0.4529 -0.4378 -0.0217
 4276SOL    HW124461   1.843   4.016  11.774  0.3334 -0.6498 -0.7283
 4276SOL    HW224462   1.864   3.892  11.721  2.2843 -1.5904  1.2336
 4277SOL     OW24463   3.612   2.978   6.971  0.4933  0.2093 -0.1071
 4277SOL    HW124464   3.675   2.963   6.900 -0.7894 -3.4424 -0.4950
 4277SOL    HW224465   3.617   2.891   7.011 -0.1322  1.7357  3.3450
 4278SOL     OW24466   1.229   4.093   5.103 -0.4968  0.2125  0.1825
 4278SOL    HW124467   1.192   4.062   5.021  2.1162 -1.5968 -0.3093
 4278SOL    HW224468   1.166   4.158   5.135  0.1649  1.6926 -1.5261
 4279SOL     OW24469   1.302   2.766   9.571 -0.4086 -0.1665  0.1791
 4279SOL    HW124470   1.273   2.679   9.597  1.0078 -0.3258  1.2357
 4279SOL    HW224471   1.223   2.820   9.578  0.3181  0.3373  4.4975
 4280SOL     OW24472   4.708   3.037   5.233 -0.0776 -0.0231 -0.1863
 4280SOL    HW124473   0.040   2.986   5.198  1.4068  2.7989 -1.1241
 4280SOL    HW224474   4.644   2.972   5.262  1.7787 -1.0105  1.6914
 4281SOL     OW24475   2.323   2.662   7.484  0.2187 -0.5301 -0.0780
 4281SOL    HW124476   2.326   2.755   7.462 -1.4084  0.2888  3.1253
 4281SOL    HW224477   2.327   2.671   7.580 -1.0096 -2.6655  0.1660
 4282SOL     OW24478   2.994   3.188   1.822  0.1831 -0.3702 -0.8306
 4282SOL    HW124479   2.981   3.278   1.854  0.8164 -0.7822  0.5461
 4282SOL    HW224480   2.905   3.164   1.798 -0.2910  2.0721 -1.5291
 4283SOL     OW24481   4.520   0.394   2.919 -0.5809  0.0300  0.5417
 4283SOL    HW124482   4.456   0.323   2.911 -0.7955  0.7711 -4.0950
 4283SOL    HW224483   4.590   0.369   2.860 -1.2423  0.3539 -0.3688
 4284SOL     OW24484   1.884   4.636   2.973  0.2777  0.0647  0.1999
 4284SOL    HW124485   1.800   4.638   3.018  0.9048 -0.6087  1.4051
 4284SOL    HW224486   1.865   4.700   2.905  0.0279  0.4387  0.6243
 4285SOL     OW24487   1.026   1.831   6.258  0.3268 -0.6810  0.3919
 4285SOL    HW124488   1.114   1.867   6.268  0.7695 -1.5140 -0.6039
 4285SOL    HW224489   0.979   1.907   6.292 -1.5288 -2.5851  2.0662
 4286SOL     OW24490   0.700   0.137  13.198 -0.3966  0.1271 -0.1335
 4286SOL    HW124491   0.743   0.195  13.135  0.9786  0.5199  1.1628
 4286SOL    HW224492   0.754   0.058  13.183  0.0427 -0.0125  2.1957
 4287SOL     OW24493   2.576   3.789   7.517  0.1190 -0.2168  0.2210
 4287SOL    HW124494   2.617   3.769   7.601  1.7648  0.3914 -0.4351
 4287SOL    HW224495   2.652   3.773   7.461 -0.3461  1.6283 -0.9176
 4288SOL     OW24496   2.986   0.119   8.661 -0.0923  0.1760  0.0983
 4288SOL    HW124497   2.921   0.189   8.652 -0.3980  0.2137  2.4518
 4288SOL    HW224498   3.006   0.104   8.753 -1.2474 -0.0967  0.3151
 4289SOL     OW24499   3.243   2.219   2.834  0.3191 -0.3231 -0.2090
 4289SOL    HW124500   3.154   2.246   2.814 -0.2442 -0.5962  1.8909
 4289SOL    HW224501   3.286   2.243   2.752 -1.1231  3.3967  0.1581
 4290SOL     OW24502   3.221   2.872   7.072 -0.3856  0.4771 -0.8094
 4290SOL    HW124503   3.238   2.948   7.128  0.0054 -1.9239  2.3324
 4290SOL    HW224504   3.140   2.843   7.114  0.0688  0.0718 -0.2150
 4291SOL     OW24505   3.270   0.340  11.389 -0.4899 -0.8437  0.5363
 4291SOL    HW124506   3.310   0.338  11.476  0.8304  0.3392 -0.0588
 4291SOL    HW224507   3.244   0.247  11.388 -3.6334  0.0136  1.1502
 4292SOL     OW24508   0.647   2.403  13.447  0.7445 -0.6517 -0.7586
 4292SOL    HW124509   0.717   2.461  13.476  1.7315 -2.1125 -0.2061
 4292SOL    HW224510   0.650   2.343  13.522  2.4562 -1.4910 -1.5126
 4293SOL     OW24511   2.487   1.656   8.443 -0.8296 -0.3888 -0.3673
 4293SOL    HW124512   2.406   1.652   8.495  0.0501  1.5050  1.1345
 4293SOL    HW224513   2.463   1.722   8.378  2.2269  0.2507 -0.8130
 4294SOL     OW24514   4.385   0.722  11.744  0.2646  0.2649  0.0043
 4294SOL    HW124515   4.379   0.757  11.655 -1.1151  0.2408  0.0871
 4294SOL    HW224516   4.309   0.768  11.780  0.5797  0.0550  0.9222
 4295SOL     OW24517   1.418   1.848   7.699 -0.0392  0.2924  0.2323
 4295SOL    HW124518   1.390   1.853   7.608 -1.3529 -1.9271  0.5093
 4295SOL    HW224519   1.343   1.845   7.760 -0.9966  1.0460 -0.9139
 4296SOL     OW24520   1.295   2.058   6.334 -0.1203  0.1282  0.1205
 4296SOL    HW124521   1.310   1.984   6.275 -1.5911  0.6620 -0.9376
 4296SOL    HW224522   1.242   2.108   6.272  1.3000  0.9870 -0.3784
 4297SOL     OW24523   2.189   2.208   4.285 -0.1438 -0.6912  0.2784
 4297SOL    HW124524   2.175   2.297   4.255  0.4778 -0.5483  0.4191
 4297SOL    HW224525   2.282   2.209   4.306 -0.2563  0.2017  0.6978
 4298SOL     OW24526   0.943   3.859   2.108 -0.3993 -0.1383 -0.0375
 4298SOL    HW124527   0.929   3.765   2.124 -2.9606  0.0979 -0.8044
 4298SOL    HW224528   0.868   3.878   2.051  0.4078 -0.3473 -1.1618
 4299SOL     OW24529   1.435   1.966   0.425 -0.2308 -0.7226  0.2938
 4299SOL    HW124530   1.481   1.937   0.346  1.0815  2.3663 -0.0688
 4299SOL    HW224531   1.510   1.982   0.483 -0.8642  1.7321  0.4331
 4300SOL     OW24532   2.707   4.690   6.658  0.0725 -0.8082 -0.5798
 4300SOL    HW124533   2.708   0.006   6.581 -0.5641  1.4783  1.1483
 4300SOL    HW224534   2.800   4.703   6.678  0.0795  0.7993 -1.7046
 4301SOL     OW24535   1.483   3.544   8.885 -0.0015 -0.0476  0.2585
 4301SOL    HW124536   1.409   3.583   8.838 -0.3705 -1.8990 -0.6837
 4301SOL    HW224537   1.471   3.564   8.978  1.0616 -1.4920  0.7031
 4302SOL     OW24538   1.997   0.836  12.422  0.6735  0.0836 -0.1841
 4302SOL    HW124539   2.006   0.838  12.517  0.7542  2.5182 -0.2255
 4302SOL    HW224540   2.055   0.905  12.389 -0.1175  0.6478 -0.3986
 4303SOL     OW24541   2.994   3.393  13.915 -0.5960 -0.0533  0.5565
 4303SOL    HW124542   3.085   3.363  13.925 -1.4940 -3.1418 -0.5441
 4303SOL    HW224543   2.959   3.323  13.860 -0.3576 -0.6440  1.1595
 4304SOL     OW24544   0.524   3.254   6.178 -0.0619 -0.0056  0.2967
 4304SOL    HW124545   0.458   3.187   6.196 -0.0370  0.6250  2.7029
 4304SOL    HW224546   0.483   3.290   6.099  0.2092  0.3463  0.3163
 4305SOL     OW24547   1.392   3.718   4.454  0.0173  0.0275  0.0117
 4305SOL    HW124548   1.450   3.794   4.461 -0.4833  0.6727 -2.7534
 4305SOL    HW224549   1.450   3.657   4.499 -0.1178 -0.4562 -0.4689
 4306SOL     OW24550   1.790   1.010   3.047 -0.8373  0.0350  0.0963
 4306SOL    HW124551   1.851   0.939   3.024 -1.2707 -0.7799  1.4706
 4306SOL    HW224552   1.781   1.011   3.142 -2.2084  0.2839 -0.0375
 4307SOL     OW24553   3.204   4.218   5.638  0.3157  0.7067  0.6533
 4307SOL    HW124554   3.173   4.135   5.674 -1.9841  1.0723 -0.4495
 4307SOL    HW224555   3.285   4.228   5.688  0.4279 -0.9831  0.8028
 4308SOL     OW24556   4.528   0.567  12.546  0.0298 -0.0792 -0.3157
 4308SOL    HW124557   4.552   0.649  12.504  1.3209  0.1525  0.8694
 4308SOL    HW224558   4.434   0.559  12.531  0.0390  0.9844 -0.9291
 4309SOL     OW24559   0.460   1.677   1.378 -0.3190 -0.3492  0.6872
 4309SOL    HW124560   0.464   1.607   1.313 -1.2589  0.4577 -0.2365
 4309SOL    HW224561   0.555   1.681   1.391  0.0772  1.2193 -2.7577
 4310SOL     OW24562   2.460   4.622   3.958  0.0171 -0.4908  0.3906
 4310SOL    HW124563   2.402   4.555   3.994  0.4146 -1.9102 -1.5804
 4310SOL    HW224564   2.461   4.681   4.033 -2.6394  1.4830 -1.1619
 4311SOL     OW24565   3.052   4.193  11.939  0.0952 -0.2403 -0.3976
 4311SOL    HW124566   3.006   4.173  11.858 -1.4541  4.0592 -0.6007
 4311SOL    HW224567   3.039   4.112  11.987  0.5643 -0.1494 -0.1134
 4312SOL     OW24568   1.417   2.080  13.295 -0.1667 -0.4726 -0.3346
 4312SOL    HW124569   1.391   1.995  13.332  0.6030 -0.6140 -0.1247
 4312SOL    HW224570   1.332   2.122  13.283  1.0288  1.3796 -2.1832
 4313SOL     OW24571   0.749   4.589   6.978  0.3823  0.1910  0.2525
 4313SOL    HW124572   0.681   4.540   6.931 -1.1716  1.4381  1.2363
 4313SOL    HW224573   0.759   4.528   7.051 -0.5509 -0.6548 -0.3317
 4314SOL     OW24574   2.907   2.117  15.091 -0.1083  0.3158 -0.1512
 4314SOL    HW124575   2.886   2.209  15.106 -0.2301  0.3472 -0.5075
 4314SOL    HW224576   2.869   2.111  15.003 -0.8460  1.8805  0.0586
 4315SOL     OW24577   1.344   4.463   7.697  0.1799 -0.4008  0.6960
 4315SOL    HW124578   1.418   4.404   7.712  0.6764 -0.2960 -1.2607
 4315SOL    HW224579   1.364   4.503   7.612  0.1284  0.1814  0.9643
 4316SOL     OW24580   3.328   0.653   4.152  0.3067 -0.3940 -0.1525
 4316SOL    HW124581   3.387   0.607   4.211 -0.5359 -1.1167  0.1175
 4316SOL    HW224582   3.268   0.698   4.212  1.7150  0.6186  0.4826
 4317SOL     OW24583   1.773   4.691  11.997  0.2552  0.0597 -0.0111
 4317SOL    HW124584   1.694   4.719  12.044  0.1952  1.4683 -0.9306
 4317SOL    HW224585   1.737   4.703  11.909  2.4495  0.1465 -0.8719
 4318SOL     OW24586   4.145   4.658   4.140  0.3371  0.3604 -0.2984
 4318SOL    HW124587   4.133   4.564   4.128 -0.6514  0.2800  1.2750
 4318SOL    HW224588   4.182   4.651   4.228 -0.4585 -0.6566 -0.0397
 4319SOL     OW24589   1.045   4.188   9.499  0.1035  0.2201  0.1256
 4319SOL    HW124590   1.052   4.100   9.535 -2.4936  0.2077  0.6111
 4319SOL    HW224591   1.052   4.176   9.405  1.6985  1.5369  0.0696
 4320SOL     OW24592   0.955   0.641  10.635  0.1444  0.2528  0.0415
 4320SOL    HW124593   0.954   0.591  10.554 -2.6362 -0.1164  0.3173
 4320SOL    HW224594   0.860   0.646  10.645  0.2001  1.5809 -0.0806
 4321SOL     OW24595   2.255   3.658   4.353 -0.6195  1.3816 -0.4252
 4321SOL    HW124596   2.340   3.679   4.313  0.5725 -2.4594  0.1416
 4321SOL    HW224597   2.216   3.743   4.375  2.9999  2.6222  1.2684
 4322SOL     OW24598   3.648   1.260   7.444  0.0584 -0.4072 -0.1504
 4322SOL    HW124599   3.725   1.308   7.472 -0.9991  0.5745  1.0577
 4322SOL    HW224600   3.694   1.220   7.370 -1.3694  0.4117 -1.4767
 4323SOL     OW24601   2.104   0.419   5.509  0.1185  0.5027 -0.0474
 4323SOL    HW124602   2.060   0.377   5.435 -0.2811 -1.8521  1.5142
 4323SOL    HW224603   2.084   0.354   5.577  2.1803 -0.4723 -0.3639
 4324SOL     OW24604   0.157   0.605  16.744 -0.6936 -0.0543  0.2231
 4324SOL    HW124605   0.126   0.642  16.827 -1.7266  1.9758 -1.0823
 4324SOL    HW224606   0.240   0.565  16.771 -0.5346  0.9356  1.1838
 4325SOL     OW24607   1.142   0.820   2.178 -0.0129  0.3382 -0.3506
 4325SOL    HW124608   1.169   0.840   2.268 -0.1285 -3.5456  0.5362
 4325SOL    HW224609   1.199   0.746   2.156 -0.2231 -0.0924  0.5834
 4326SOL     OW24610   2.314   0.794   3.037  0.1722  0.3540  0.8402
 4326SOL    HW124611   2.363   0.742   2.974 -0.3349  0.7663  0.1042
 4326SOL    HW224612   2.385   0.829   3.090 -0.1219 -0.5211  1.8095
 4327SOL     OW24613   3.046   2.565   7.096  0.2348 -0.4292  0.0625
 4327SOL    HW124614   2.951   2.568   7.101  0.0824 -0.9927 -2.4071
 4327SOL    HW224615   3.067   2.620   7.172 -1.1708  1.0089 -0.5851
 4328SOL     OW24616   0.609   1.698  13.422 -0.2335 -0.5915 -0.0106
 4328SOL    HW124617   0.571   1.765  13.366 -0.7894 -0.8508  0.0610
 4328SOL    HW224618   0.533   1.641  13.432 -0.8518  0.1267 -0.6964
 4329SOL     OW24619   1.107   1.392   5.027 -0.0248 -0.0656  0.4906
 4329SOL    HW124620   1.187   1.341   5.027  0.2041  0.2976  2.0380
 4329SOL    HW224621   1.048   1.345   4.968  0.0350  0.2656  0.1614
 4330SOL     OW24622   2.665   1.663   4.269  0.4614  0.1018 -0.2574
 4330SOL    HW124623   2.754   1.696   4.271  0.1524  1.0421 -1.6473
 4330SOL    HW224624   2.622   1.747   4.279  0.1731 -0.1327  0.4574
 4331SOL     OW24625   2.065   2.461  15.929  0.0822 -0.2831  0.0074
 4331SOL    HW124626   2.136   2.454  15.992 -0.1881 -1.2684  0.2046
 4331SOL    HW224627   2.036   2.371  15.914  2.0729 -0.8848 -0.1894
 4332SOL     OW24628   4.177   1.249   3.103 -0.0241  0.5421 -0.7003
 4332SOL    HW124629   4.209   1.338   3.088 -3.0527  1.6005 -0.9218
 4332SOL    HW224630   4.258   1.204   3.127 -1.2923 -1.2395  0.2613
 4333SOL     OW24631   3.330   3.085   7.226  0.0563 -0.2362 -0.6380
 4333SOL    HW124632   3.315   3.155   7.162 -0.7302 -1.2571 -1.5637
 4333SOL    HW224633   3.401   3.128   7.275  1.2707  0.2252 -2.8068
 4334SOL     OW24634   4.160   0.506   1.869 -0.0971 -0.2386  0.2689
 4334SOL    HW124635   4.190   0.552   1.791 -1.3937  0.1257 -0.0145
 4334SOL    HW224636   4.241   0.467   1.902  0.3849  0.7879  0.3070
 4335SOL     OW24637   1.831   2.177   3.180  0.3164 -0.1015 -0.0427
 4335SOL    HW124638   1.797   2.249   3.126 -1.7248 -1.8193 -1.0378
 4335SOL    HW224639   1.869   2.113   3.119  1.7667  1.0221 -0.3339
 4336SOL     OW24640   3.517   3.830   5.780 -0.0543 -0.1252 -0.0342
 4336SOL    HW124641   3.574   3.803   5.708 -0.1422 -1.7397  0.4971
 4336SOL    HW224642   3.561   3.816   5.864 -0.4957 -0.1666  0.1889
 4337SOL     OW24643   4.721   2.410   6.899  0.7400  0.0441 -0.5195
 4337SOL    HW124644   0.058   2.412   6.844  0.0811  0.9398 -1.4297
 4337SOL    HW224645   0.028   2.386   6.978 -0.2983  0.9963  0.4151
 4338SOL     OW24646   3.534   0.996   6.117 -0.4851 -0.0085  0.3809
 4338SOL    HW124647   3.452   0.982   6.165 -0.5964 -0.9840 -0.0846
 4338SOL    HW224648   3.606   0.984   6.178 -1.1932  2.5685  1.6999
 4339SOL     OW24649   3.792   1.038   8.033  0.4994 -0.5811 -0.4188
 4339SOL    HW124650   3.771   1.081   8.116 -0.9252 -0.7974 -0.6660
 4339SOL    HW224651   3.712   0.987   8.019 -0.1436  0.5835 -0.9433
 4340SOL     OW24652   3.114   3.117   3.413  0.1021  0.0231  0.2507
 4340SOL    HW124653   3.043   3.075   3.365 -0.4147  0.5664  0.5432
 4340SOL    HW224654   3.074   3.203   3.426 -0.4379 -0.1688 -0.1424
 4341SOL     OW24655   2.096   1.011   8.092 -0.2809 -0.1129 -0.1060
 4341SOL    HW124656   2.133   1.042   8.009 -1.0574 -0.7674 -0.6953
 4341SOL    HW224657   2.003   1.031   8.082 -0.0687 -0.0521 -1.9247
 4342SOL     OW24658   4.535   2.337  10.532  0.2026  0.6090 -0.7075
 4342SOL    HW124659   4.495   2.298  10.453  0.4098 -1.9083  0.4273
 4342SOL    HW224660   4.603   2.397  10.502 -0.0164  1.1872 -0.0368
 4343SOL     OW24661   1.221   3.748   8.338  0.6062 -0.1066 -0.1519
 4343SOL    HW124662   1.200   3.790   8.421  0.7441 -1.2268  0.4627
 4343SOL    HW224663   1.259   3.666   8.372  1.6005 -0.1337 -1.3273
 4344SOL     OW24664   1.186   3.011  12.587  0.3588  0.1554  0.2976
 4344SOL    HW124665   1.277   2.984  12.590 -0.1826 -2.0626 -3.3886
 4344SOL    HW224666   1.151   2.934  12.543 -2.6042  1.1461  0.9160
 4345SOL     OW24667   3.845   4.174   0.094 -0.1261 -0.4902 -0.4544
 4345SOL    HW124668   3.895   4.100   0.127 -1.7381 -0.7585  1.3544
 4345SOL    HW224669   3.853   4.231   0.170 -2.3556 -1.0660  0.2141
 4346SOL     OW24670   0.715   1.466   8.061 -0.6552  0.1271 -0.6581
 4346SOL    HW124671   0.648   1.408   8.026 -0.4078 -0.4900 -0.1016
 4346SOL    HW224672   0.722   1.520   7.982 -1.0295  0.1498 -0.6728
 4347SOL     OW24673   4.716   0.878  12.085 -0.0763 -0.0103  0.4101
 4347SOL    HW124674   4.638   0.823  12.079  0.3117 -0.6448  1.1780
 4347SOL    HW224675   4.679   0.959  12.120  0.8112  0.5376  0.0958
 4348SOL     OW24676   4.139   0.360   5.452 -0.0813 -0.0574 -0.3070
 4348SOL    HW124677   4.113   0.425   5.387 -2.5367 -0.4665  0.2330
 4348SOL    HW224678   4.212   0.317   5.408  0.4300  0.6828 -0.1790
 4349SOL     OW24679   1.979   3.676   3.249  0.2462 -0.0392  0.0403
 4349SOL    HW124680   2.015   3.749   3.299  2.0021  0.0154 -1.2791
 4349SOL    HW224681   2.058   3.629   3.221 -0.0179 -1.1297  1.0871
 4350SOL     OW24682   1.975   3.541  15.810  0.4558  0.3053 -0.5247
 4350SOL    HW124683   1.907   3.608  15.805 -0.7718 -0.9628 -0.4384
 4350SOL    HW224684   1.921   3.466  15.788 -0.1151 -0.1605  2.4487
 4351SOL     OW24685   4.663   1.654   6.511 -0.1623 -0.1931 -0.2482
 4351SOL    HW124686   4.596   1.695   6.565 -1.2842 -1.3628 -0.7436
 4351SOL    HW224687   4.726   1.632   6.579  0.2328 -1.2768 -0.9656
 4352SOL     OW24688   1.341   3.719   5.191  0.0771 -0.1980  0.0715
 4352SOL    HW124689   1.291   3.712   5.272  1.4245 -0.0894  0.9147
 4352SOL    HW224690   1.405   3.649   5.205  1.0364  0.7809  0.5868
 4353SOL     OW24691   2.160   2.202   0.273 -0.5859  0.0409 -0.0760
 4353SOL    HW124692   2.107   2.160   0.340 -0.1485 -2.2209 -1.1441
 4353SOL    HW224693   2.108   2.184   0.195 -0.0680 -1.1613 -0.1468
 4354SOL     OW24694   1.028   4.303  12.371  0.9348  0.0693 -0.6159
 4354SOL    HW124695   1.118   4.278  12.352  0.0322 -3.1031 -0.7760
 4354SOL    HW224696   1.011   4.253  12.451 -1.5477  2.1230  0.1474
 4355SOL     OW24697   2.547   2.528   1.402  0.6180  0.0763 -0.1687
 4355SOL    HW124698   2.620   2.580   1.369  0.9481  0.7173  1.5532
 4355SOL    HW224699   2.540   2.568   1.489 -0.7446  1.0948 -0.7523
 4356SOL     OW24700   3.398   3.162   4.679  0.3180  0.4166  0.1499
 4356SOL    HW124701   3.438   3.226   4.738  1.8199  1.0722 -1.5998
 4356SOL    HW224702   3.454   3.088   4.701 -2.1004 -0.8159  2.1586
 4357SOL     OW24703   4.292   3.344  11.668 -0.3391 -0.5865  0.6823
 4357SOL    HW124704   4.320   3.316  11.756  0.5757 -0.0056  0.5746
 4357SOL    HW224705   4.359   3.304  11.613 -0.5459  2.8930 -2.0758
 4358SOL     OW24706   4.184   1.686   4.608 -0.1624 -0.1750 -0.3841
 4358SOL    HW124707   4.135   1.627   4.666 -0.4361 -1.4957 -1.9613
 4358SOL    HW224708   4.162   1.647   4.524  0.0255 -0.0447 -0.4921
 4359SOL     OW24709   0.649   1.496  17.487 -0.6971  0.3812 -0.2336
 4359SOL    HW124710   0.661   1.510  17.393  0.6431 -1.4666 -0.3475
 4359SOL    HW224711   0.724   1.545  17.520  0.3125 -1.6091  0.4270
 4360SOL     OW24712   2.824   3.961   4.874 -0.0062 -0.2243 -0.3631
 4360SOL    HW124713   2.789   4.038   4.829  0.3300  0.5868  0.7673
 4360SOL    HW224714   2.873   3.930   4.797  1.0738  0.4943  0.0274
 4361SOL     OW24715   0.750   1.461   2.283  0.2489  0.0768 -0.3106
 4361SOL    HW124716   0.693   1.387   2.305 -1.3088  0.6214 -2.5154
 4361SOL    HW224717   0.818   1.424   2.226 -0.8991 -1.5125 -0.6520
 4362SOL     OW24718   1.089   1.158   0.322 -0.0629  0.2838  0.1596
 4362SOL    HW124719   1.157   1.217   0.355  0.8886 -0.1603 -1.0122
 4362SOL    HW224720   1.074   1.204   0.240  0.1794  3.3565  1.8496
 4363SOL     OW24721   2.921   0.803   4.345 -0.2604  0.2225 -0.1062
 4363SOL    HW124722   2.950   0.877   4.292  2.4009 -1.0843 -0.5140
 4363SOL    HW224723   2.852   0.766   4.289 -0.7756  0.1157  0.6042
 4364SOL     OW24724   0.605   0.791   2.649 -0.0559 -0.3236 -0.7892
 4364SOL    HW124725   0.679   0.823   2.597 -0.1786 -1.3371 -1.5810
 4364SOL    HW224726   0.628   0.698   2.653  0.3620 -0.2584 -1.5867
 4365SOL     OW24727   1.651   1.476   2.309 -0.1737  0.0697  0.0065
 4365SOL    HW124728   1.657   1.460   2.403 -0.9110 -0.2726 -0.0002
 4365SOL    HW224729   1.586   1.411   2.281  0.4570 -0.2002 -0.8033
 4366SOL     OW24730   3.817   1.705   5.882  0.3506 -0.3882  0.5147
 4366SOL    HW124731   3.835   1.798   5.892  0.0485 -0.2087 -0.6065
 4366SOL    HW224732   3.900   1.666   5.908  1.3986  1.4138 -0.1040
 4367SOL     OW24733   1.303   4.710   6.860  0.0457 -0.1058 -0.1129
 4367SOL    HW124734   1.253   0.042   6.897  1.1581  0.7107 -0.2090
 4367SOL    HW224735   1.322   4.741   6.772 -0.7680  1.0267  0.1054
 4368SOL     OW24736   2.106   2.755   1.252 -0.2864 -0.3905 -0.0524
 4368SOL    HW124737   2.193   2.730   1.284 -0.0316 -1.4289 -1.5507
 4368SOL    HW224738   2.128   2.830   1.196 -2.4675  0.7894  0.6661
 4369SOL     OW24739   0.851   4.403   8.653  0.9677 -0.3570  0.1180
 4369SOL    HW124740   0.866   4.456   8.731  1.4033  0.9784 -0.8798
 4369SOL    HW224741   0.934   4.364   8.625  1.6861  0.4735  1.0962
 4370SOL     OW24742   0.217   2.899   5.803  0.3643  0.3285  0.1383
 4370SOL    HW124743   0.125   2.871   5.803  0.8866 -1.4296 -1.2952
 4370SOL    HW224744   0.254   2.845   5.733 -0.0073 -0.4688  0.5466
 4371SOL     OW24745   0.844   0.884   3.455 -0.2204  0.1647 -0.2022
 4371SOL    HW124746   0.817   0.803   3.413  0.0985 -0.7842  1.4322
 4371SOL    HW224747   0.795   0.947   3.401  0.6629 -0.0045 -1.2021
 4372SOL     OW24748   0.732   4.484  16.173  0.7782  0.4505 -1.3221
 4372SOL    HW124749   0.691   4.426  16.237  0.1147  1.6356 -0.6861
 4372SOL    HW224750   0.805   4.517  16.225 -1.3336  1.6242  0.8878
 4373SOL     OW24751   0.707   4.473  14.770 -0.1999 -0.1433 -0.7503
 4373SOL    HW124752   0.782   4.453  14.826 -0.4460 -4.2734 -1.8907
 4373SOL    HW224753   0.747   4.551  14.731  2.2162 -2.2251 -2.4454
 4374SOL     OW24754   4.623   1.230  13.083  0.0386 -0.5533  0.2128
 4374SOL    HW124755   4.696   1.280  13.047  2.4121 -3.2143  1.3145
 4374SOL    HW224756   4.638   1.143  13.048  0.3979  0.3332 -1.8101
 4375SOL     OW24757   3.975   3.998   4.240 -0.4805  0.1990 -0.1705
 4375SOL    HW124758   4.045   4.058   4.214 -1.4174  2.0627  1.5549
 4375SOL    HW224759   3.920   3.994   4.162 -0.4636 -0.2695 -0.1553
 4376SOL     OW24760   4.630   0.385   6.500  0.6139 -0.0562 -0.3263
 4376SOL    HW124761   4.608   0.438   6.576  0.6946 -0.0038 -0.3396
 4376SOL    HW224762   4.678   0.438   6.436 -1.2884  2.0774  0.0265
 4377SOL     OW24763   1.312   0.535   6.549  1.2297 -0.0896 -0.5312
 4377SOL    HW124764   1.236   0.555   6.494 -0.1660  1.0228  1.7634
 4377SOL    HW224765   1.265   0.569   6.626  1.2215  0.5987 -0.8401
 4378SOL     OW24766   0.993   1.482   7.479 -0.2057  0.3709 -0.3619
 4378SOL    HW124767   0.923   1.458   7.418  0.0813 -1.5128  0.0500
 4378SOL    HW224768   1.047   1.404   7.475 -2.2196 -0.9436 -1.7834
 4379SOL     OW24769   2.475   1.287   2.371 -0.4407  0.1525 -0.0762
 4379SOL    HW124770   2.522   1.295   2.288 -0.3259  1.8433  0.1531
 4379SOL    HW224771   2.535   1.347   2.414 -0.1484  1.3624 -2.1934
 4380SOL     OW24772   2.226   2.514   7.263 -0.9871  0.2807 -0.1444
 4380SOL    HW124773   2.256   2.564   7.339  1.3996  1.5948 -1.9487
 4380SOL    HW224774   2.165   2.458   7.312 -0.2474 -0.5104 -0.1377
 4381SOL     OW24775   2.774   4.590   4.164  0.1397  0.1500  0.4813
 4381SOL    HW124776   2.764   4.677   4.203 -0.8839  0.4061 -0.3647
 4381SOL    HW224777   2.857   4.570   4.208  0.6703  0.7671 -0.2304
 4382SOL     OW24778   1.794   0.227   4.633  0.2023  0.2385  0.3815
 4382SOL    HW124779   1.828   0.206   4.545  0.2729 -0.3045  0.5360
 4382SOL    HW224780   1.725   0.162   4.649 -0.1508  1.1447  2.5139
 4383SOL     OW24781   0.638   0.230   7.692  0.8078 -0.3964  0.7216
 4383SOL    HW124782   0.714   0.174   7.679 -0.8766 -2.0386 -1.8328
 4383SOL    HW224783   0.618   0.225   7.786  1.4297  0.3642  0.8952
 4384SOL     OW24784   0.439   1.437  16.858 -0.4919  0.5369  0.2125
 4384SOL    HW124785   0.415   1.373  16.925  0.6699  1.0227  1.0740
 4384SOL    HW224786   0.389   1.396  16.786 -0.1778  1.4038 -0.5006
 4385SOL     OW24787   1.945   4.434  11.999 -0.1531 -0.3372  0.2977
 4385SOL    HW124788   1.860   4.394  11.979 -0.7814  0.1028  2.0461
 4385SOL    HW224789   2.002   4.362  11.975 -1.2629 -0.4667 -1.9165
 4386SOL     OW24790   0.649   4.030   4.878 -0.1848 -0.1624 -0.1609
 4386SOL    HW124791   0.576   3.974   4.850 -0.9387  0.9293 -0.3704
 4386SOL    HW224792   0.627   4.073   4.960 -1.6061 -1.4766  0.1530
 4387SOL     OW24793   3.130   1.661   3.733  0.0784  0.0572 -0.2996
 4387SOL    HW124794   3.080   1.666   3.815  0.6675 -0.4566  0.0826
 4387SOL    HW224795   3.176   1.579   3.753  0.3257  0.8119  2.2074
 4388SOL     OW24796   2.648   0.491   5.217  0.5525  0.1616 -0.4363
 4388SOL    HW124797   2.596   0.483   5.297  0.7558  1.4835 -0.1831
 4388SOL    HW224798   2.681   0.578   5.239 -2.0551  0.9967  0.0867
 4389SOL     OW24799   4.426   1.693   2.227 -0.0865  0.0340  0.0474
 4389SOL    HW124800   4.450   1.603   2.247  0.2907 -0.2890 -1.8729
 4389SOL    HW224801   4.509   1.734   2.204 -0.3361 -1.0042 -2.6701
 4390SOL     OW24802   2.601   3.516  12.737 -0.6943  0.7592  0.5466
 4390SOL    HW124803   2.551   3.589  12.701  1.2688  1.1307 -1.4687
 4390SOL    HW224804   2.629   3.478  12.653 -1.8776 -0.6443  0.7969
 4391SOL     OW24805   1.222   3.146   5.705 -0.1609  0.1545 -0.2388
 4391SOL    HW124806   1.219   3.179   5.795 -1.2731  2.3383 -1.0596
 4391SOL    HW224807   1.151   3.191   5.659 -0.9003 -0.6431  0.1231
 4392SOL     OW24808   2.145   0.679   1.962 -0.1989 -0.4537 -0.3257
 4392SOL    HW124809   2.222   0.730   1.987 -0.3360 -1.1302  1.4812
 4392SOL    HW224810   2.172   0.640   1.879  1.2223  0.8717 -0.4834
 4393SOL     OW24811   2.337   1.443   5.303  0.1501  0.1727  0.0723
 4393SOL    HW124812   2.271   1.375   5.290 -0.4612  0.9226 -0.8497
 4393SOL    HW224813   2.287   1.507   5.354  0.6869  0.8235 -0.2205
 4394SOL     OW24814   3.174   4.478   9.441  0.4938  0.8305  0.5646
 4394SOL    HW124815   3.103   4.541   9.429 -2.0379 -2.3976 -1.1548
 4394SOL    HW224816   3.146   4.412   9.504 -1.3585 -1.8395 -3.0877
 4395SOL     OW24817   0.973   0.542   4.333  0.5460 -0.1751  0.1480
 4395SOL    HW124818   1.002   0.588   4.254 -1.7962  1.7400  0.4066
 4395SOL    HW224819   1.033   0.468   4.339 -0.1233 -0.6450  1.1045
 4396SOL     OW24820   4.434   0.871   4.554  0.7838  0.6611  0.4635
 4396SOL    HW124821   4.492   0.832   4.489 -0.0514  2.6291 -1.4641
 4396SOL    HW224822   4.454   0.819   4.632  2.7097 -1.3449 -1.3992
 4397SOL     OW24823   4.423   1.734   4.771  0.2059 -0.0206  0.9490
 4397SOL    HW124824   4.489   1.664   4.772 -2.0312 -2.0779  2.7401
 4397SOL    HW224825   4.354   1.708   4.710  1.2477 -0.8186  0.1052
 4398SOL     OW24826   3.862   2.651   5.738  0.6784  0.4447 -0.2911
 4398SOL    HW124827   3.824   2.672   5.823 -1.6414  0.4206 -1.3069
 4398SOL    HW224828   3.795   2.683   5.678 -0.1270 -0.1461  0.2997
 4399SOL     OW24829   2.038   1.980   9.162  0.9480  0.0890  0.3659
 4399SOL    HW124830   2.128   2.010   9.177  0.8362  0.1323  0.9342
 4399SOL    HW224831   2.047   1.950   9.071 -1.0092 -0.2522  0.2838
 4400SOL     OW24832   3.134   3.314   7.246  0.4791  0.0153 -0.0683
 4400SOL    HW124833   3.142   3.308   7.151 -0.6922 -0.5818 -0.1364
 4400SOL    HW224834   3.085   3.396   7.251 -0.8992 -0.8245  0.4375
 4401SOL     OW24835   0.810   3.311   1.495  0.1249 -0.3226 -0.1252
 4401SOL    HW124836   0.855   3.246   1.550 -2.1820 -2.6091 -0.9490
 4401SOL    HW224837   0.880   3.364   1.456  0.2641  1.6752  2.8753
 4402SOL     OW24838   2.887   4.699   0.363 -0.3887 -0.7736 -0.1511
 4402SOL    HW124839   2.808   4.663   0.323 -1.4772  0.8526  0.5567
 4402SOL    HW224840   2.961   4.658   0.316  0.8998  0.4351  0.8179
 4403SOL     OW24841   0.305   2.107   4.494 -0.4181  0.1434 -0.0788
 4403SOL    HW124842   0.284   2.159   4.417  1.0459 -0.6934 -1.0503
 4403SOL    HW224843   0.374   2.160   4.534 -0.7856  0.4661  0.1203
 4404SOL     OW24844   3.426   4.575   2.467  0.4783  0.2929 -0.4189
 4404SOL    HW124845   3.451   4.581   2.375  2.1535 -0.5525 -0.0160
 4404SOL    HW224846   3.439   4.663   2.501 -0.8774  0.1352  0.5303
 4405SOL     OW24847   0.694   3.815   3.070 -0.0182 -0.5352 -0.2312
 4405SOL    HW124848   0.703   3.801   3.164  0.3747 -0.7508 -0.2998
 4405SOL    HW224849   0.624   3.755   3.044 -1.9964  1.0709  1.4273
 4406SOL     OW24850   0.320   3.608   1.235  0.2571 -0.2558 -0.4118
 4406SOL    HW124851   0.297   3.694   1.270 -0.0450  0.1156 -1.5367
 4406SOL    HW224852   0.298   3.543   1.301  0.3513  1.0476  0.8926
 4407SOL     OW24853   3.623   4.038   1.582  0.2671  0.5424 -0.0921
 4407SOL    HW124854   3.644   4.105   1.517 -0.1400  0.9610  0.2089
 4407SOL    HW224855   3.712   4.007   1.602  0.9252  2.3299 -0.2559
 4408SOL     OW24856   1.211   3.388   5.208 -0.4641 -0.1282 -0.0675
 4408SOL    HW124857   1.235   3.413   5.298 -0.6554  1.6874 -0.5110
 4408SOL    HW224858   1.290   3.344   5.177 -0.9764 -1.4642  0.5099
 4409SOL     OW24859   3.455   4.201   7.644 -0.3338  0.1128  0.5490
 4409SOL    HW124860   3.520   4.132   7.656  0.4454  0.6722 -0.5039
 4409SOL    HW224861   3.479   4.260   7.716  1.4754  0.0919 -0.0464
 4410SOL     OW24862   3.446   0.437   8.854  0.4722  0.2856  0.1628
 4410SOL    HW124863   3.379   0.491   8.812  0.7254  0.9484  0.6117
 4410SOL    HW224864   3.534   0.469   8.835  0.4643 -0.6813 -1.4773
 4411SOL     OW24865   2.936   3.450  13.137  0.3828  0.3537 -0.1765
 4411SOL    HW124866   3.028   3.464  13.117  0.2991  0.9171 -0.1623
 4411SOL    HW224867   2.897   3.472  13.052  0.5536  3.4000  0.5278
 4412SOL     OW24868   2.649   0.745   6.972  0.3910 -0.5275  0.4311
 4412SOL    HW124869   2.644   0.784   7.059  0.6866  1.0651 -0.2796
 4412SOL    HW224870   2.744   0.743   6.959  0.4779  1.9194  0.7066
 4413SOL     OW24871   1.466   2.247   5.987 -0.9298 -0.7523 -0.1555
 4413SOL    HW124872   1.545   2.248   6.041 -1.8547  1.0370  1.1467
 4413SOL    HW224873   1.402   2.293   6.040  0.0011 -2.3422  2.3277
 4414SOL     OW24874   2.474   0.240   0.517  0.2739  0.0987  0.8170
 4414SOL    HW124875   2.563   0.234   0.552 -0.0929  0.3586  1.7969
 4414SOL    HW224876   2.487   0.320   0.466  2.0198 -0.9409 -0.4123
 4415SOL     OW24877   0.566   3.446   7.951 -0.0164  0.1204 -0.0810
 4415SOL    HW124878   0.555   3.525   7.899  1.4870 -0.9041 -1.9459
 4415SOL    HW224879   0.602   3.489   8.029  0.5214 -2.2663  0.9892
 4416SOL     OW24880   1.108   2.334  10.977 -0.0866 -0.1416  0.2301
 4416SOL    HW124881   1.114   2.269  11.047 -1.6638 -0.3067  0.1999
 4416SOL    HW224882   1.178   2.293  10.925 -1.0868 -2.3037  0.6260
 4417SOL     OW24883   0.960   1.940   4.377  0.0041  0.8097 -0.1775
 4417SOL    HW124884   1.010   1.970   4.301 -1.3436 -0.0316 -1.3927
 4417SOL    HW224885   0.968   2.017   4.433  1.8127 -0.8906  1.8512
 4418SOL     OW24886   2.871   4.022   5.859  0.1675  0.6462  0.2465
 4418SOL    HW124887   2.958   4.053   5.887 -0.3880  0.1967  2.4578
 4418SOL    HW224888   2.807   4.045   5.926 -1.4752 -0.6168 -0.9118
 4419SOL     OW24889   3.685   2.276  17.665  0.4737  0.0325  0.1257
 4419SOL    HW124890   3.684   2.315  17.753 -1.4303  0.9100 -0.2930
 4419SOL    HW224891   3.779   2.280  17.649  0.6387  0.5934  1.1654
 4420SOL     OW24892   3.793   4.629   9.023  0.0528  0.8883 -0.3717
 4420SOL    HW124893   3.738   4.551   9.015 -0.6304  1.3193  0.1057
 4420SOL    HW224894   3.824   4.620   9.114  0.1866 -0.4817 -0.5558
 4421SOL     OW24895   1.695   1.122   0.545 -0.0335 -0.0920  0.2096
 4421SOL    HW124896   1.704   1.107   0.639  2.0205 -0.7992 -0.0905
 4421SOL    HW224897   1.781   1.156   0.519  0.0525 -0.8801 -0.5027
 4422SOL     OW24898   3.743   2.505   5.101 -0.3150 -0.2670 -0.1896
 4422SOL    HW124899   3.719   2.540   5.015  1.0378  1.8698  0.2894
 4422SOL    HW224900   3.803   2.434   5.075 -1.7775 -0.8283 -2.0364
 4423SOL     OW24901   2.635   2.754   9.320  0.4419  0.5031  0.2961
 4423SOL    HW124902   2.713   2.758   9.264 -0.2429 -0.7211 -0.7460
 4423SOL    HW224903   2.663   2.787   9.405  1.6319  0.4120 -0.0597
 4424SOL     OW24904   0.538   3.389  16.394  1.0250  0.2472 -0.5408
 4424SOL    HW124905   0.559   3.332  16.320  1.3588 -1.5472  0.9146
 4424SOL    HW224906   0.484   3.328  16.445  2.6367  1.7910  3.0127
 4425SOL     OW24907   2.557   3.167  12.029 -0.7416  0.2705  0.3884
 4425SOL    HW124908   2.551   3.080  11.989  0.8426 -0.1666  1.0762
 4425SOL    HW224909   2.496   3.169  12.103 -1.8831 -1.3366 -0.4850
 4426SOL     OW24910   1.136   4.231   2.975 -0.3534  0.1357  0.4022
 4426SOL    HW124911   1.148   4.204   2.884  0.9548 -1.5172  1.0679
 4426SOL    HW224912   1.223   4.257   3.006 -0.8190  1.1879  0.8353
 4427SOL     OW24913   2.150   3.251  14.725  0.0517 -0.1428 -0.0097
 4427SOL    HW124914   2.222   3.191  14.744 -0.3598 -1.7567 -3.6580
 4427SOL    HW224915   2.193   3.336  14.716 -0.1991  0.1630  1.5666
 4428SOL     OW24916   2.716   4.583   3.886  0.3094 -0.0100 -0.8298
 4428SOL    HW124917   2.730   4.581   3.981 -0.3132 -0.0304 -0.7380
 4428SOL    HW224918   2.622   4.600   3.885  0.4885  1.0872  0.4863
 4429SOL     OW24919   4.040   4.040   8.040 -0.1899  0.3392  0.0042
 4429SOL    HW124920   4.072   3.957   8.006 -0.1564  0.4502 -0.2312
 4429SOL    HW224921   4.095   4.062   8.115  1.2695 -1.5071 -0.5540
 4430SOL     OW24922   2.826   2.696   2.927 -0.2143 -0.0526  0.1327
 4430SOL    HW124923   2.792   2.782   2.902 -0.4132  0.0984  0.9469
 4430SOL    HW224924   2.907   2.685   2.878 -1.2759 -0.1172 -1.6414
 4431SOL     OW24925   0.026   0.182   5.381  0.1810  0.1378 -0.4198
 4431SOL    HW124926   4.720   0.265   5.376 -2.3863 -1.3089 -0.8319
 4431SOL    HW224927   4.716   0.137   5.313 -0.8911  0.8631 -0.1046
 4432SOL     OW24928   3.867   4.651   3.496  0.4442 -0.1746  0.2346
 4432SOL    HW124929   3.855   4.557   3.481 -1.5728  0.0907  0.1299
 4432SOL    HW224930   3.809   4.678   3.568  1.5002 -1.1421  1.4415
 4433SOL     OW24931   1.167   3.426   3.358 -0.5248  0.1111 -0.2609
 4433SOL    HW124932   1.231   3.476   3.308 -0.7629 -0.0931 -0.7681
 4433SOL    HW224933   1.084   3.448   3.316  1.5217  1.0515 -3.8101
 4434SOL     OW24934   2.113   1.503   8.141  0.0362 -0.6804 -0.0686
 4434SOL    HW124935   2.066   1.444   8.082 -1.0530 -2.1675  2.2758
 4434SOL    HW224936   2.202   1.501   8.107 -0.5615  0.5937 -1.7029
 4435SOL     OW24937   1.682   4.198   2.690 -0.1789  0.2216  0.2959
 4435SOL    HW124938   1.661   4.198   2.783  0.8113  0.9482  0.5291
 4435SOL    HW224939   1.776   4.219   2.693  0.1672 -0.7273 -3.5297
 4436SOL     OW24940   0.055   2.756   3.509 -0.2302 -0.0809 -0.0830
 4436SOL    HW124941   0.132   2.776   3.456 -1.8925  2.0179 -1.6614
 4436SOL    HW224942   0.014   2.841   3.524 -2.6183 -0.6019 -3.6770
 4437SOL     OW24943   3.160   4.317   2.457 -0.6278 -0.2927  0.6811
 4437SOL    HW124944   3.230   4.264   2.496  0.0641  0.1591  0.0676
 4437SOL    HW224945   3.096   4.252   2.429  0.1106 -0.3294 -0.9185
 4438SOL     OW24946   4.018   4.390   0.274  0.3145  0.3056  0.1293
 4438SOL    HW124947   4.026   4.474   0.319  2.4664  0.9939 -1.5485
 4438SOL    HW224948   4.102   4.390   0.228 -0.3350 -1.3603 -1.0588
 4439SOL     OW24949   3.566   0.913  11.937  0.0791 -0.3284  0.4007
 4439SOL    HW124950   3.647   0.908  11.887 -0.0476  0.5853  0.1177
 4439SOL    HW224951   3.533   0.999  11.912 -1.3970 -0.6125  1.3377
 4440SOL     OW24952   0.304   4.493   4.240  0.2173  0.3280  0.2586
 4440SOL    HW124953   0.304   4.415   4.296 -1.1563  1.2415  1.5286
 4440SOL    HW224954   0.391   4.483   4.203  0.4783  1.5932  0.5294
 4441SOL     OW24955   1.752   4.474   5.456 -0.0229  0.0687  0.0082
 4441SOL    HW124956   1.812   4.415   5.502 -0.1074  1.2119  1.5686
 4441SOL    HW224957   1.718   4.400   5.405 -0.6620  0.2177  0.2284
 4442SOL     OW24958   1.856   3.985   5.513 -0.7369 -0.7396  0.5688
 4442SOL    HW124959   1.792   4.017   5.448  0.2097 -4.3280 -2.1296
 4442SOL    HW224960   1.929   3.968   5.453  0.3205 -0.4623  1.7945
 4443SOL     OW24961   0.616   1.522   6.952 -0.1078  0.0069  0.1526
 4443SOL    HW124962   0.608   1.447   7.011  0.3622 -1.4997 -1.7139
 4443SOL    HW224963   0.664   1.589   7.001  0.6228 -2.0525  2.2779
 4444SOL     OW24964   2.434   2.971   2.275  0.0953 -0.8057  0.2110
 4444SOL    HW124965   2.352   2.924   2.260  0.7765 -2.2186  0.8862
 4444SOL    HW224966   2.418   3.061   2.248  3.2187  0.6273  3.0505
 4445SOL     OW24967   0.893   2.410   6.491 -0.0066  0.1426 -0.7737
 4445SOL    HW124968   0.916   2.373   6.406  2.5733 -1.2483  0.5389
 4445SOL    HW224969   0.825   2.347   6.509  0.8533 -1.1208 -1.9195
 4446SOL     OW24970   3.971   2.539   8.369  0.2288  0.1715  0.1476
 4446SOL    HW124971   3.969   2.604   8.440  1.4283 -0.0186  0.3590
 4446SOL    HW224972   3.922   2.585   8.300  1.2390 -1.0515 -1.3818
 4447SOL     OW24973   3.240   3.183   6.663  0.1783 -0.3353 -0.2315
 4447SOL    HW124974   3.181   3.219   6.728  0.0317 -1.8747  0.5047
 4447SOL    HW224975   3.281   3.110   6.710 -2.1565 -0.6100  1.3742
 4448SOL     OW24976   4.183   1.665   4.062  0.1284 -0.1529  0.1303
 4448SOL    HW124977   4.124   1.730   4.025  0.3954 -0.0128 -0.0495
 4448SOL    HW224978   4.237   1.723   4.117  0.2638 -1.2540  1.1522
 4449SOL     OW24979   1.706   3.365   9.830 -0.2205  0.3293  0.1349
 4449SOL    HW124980   1.659   3.376   9.912  1.0707 -0.2395  0.9535
 4449SOL    HW224981   1.783   3.421   9.841  1.5254 -2.2986  1.1901
 4450SOL     OW24982   0.613   0.000   9.296  0.0888 -0.5706  0.0503
 4450SOL    HW124983   0.620   0.032   9.386  0.1946  1.0902 -0.5494
 4450SOL    HW224984   0.705   4.722   9.274  0.6015  3.1165 -1.0842
 4451SOL     OW24985   1.051   3.005   2.449  0.2162 -0.1132 -0.0357
 4451SOL    HW124986   0.975   3.049   2.488 -0.3964 -0.6814 -0.5991
 4451SOL    HW224987   1.035   2.915   2.478 -0.3478 -0.6440 -2.0575
 4452SOL     OW24988   3.051   4.516   5.249  0.0656  0.1241  0.1279
 4452SOL    HW124989   3.016   4.433   5.217  2.2919 -0.3428 -1.1399
 4452SOL    HW224990   2.970   4.561   5.273  0.3954 -0.2421  1.9279
 4453SOL     OW24991   1.235   2.980   8.912  0.2722 -0.0383  0.5845
 4453SOL    HW124992   1.260   2.893   8.880  0.7278  0.1370  0.4686
 4453SOL    HW224993   1.314   3.009   8.958 -1.5203  1.6148  2.5944
 4454SOL     OW24994   2.146   0.723   4.725 -0.0338 -0.0726 -0.1234
 4454SOL    HW124995   2.051   0.717   4.718  0.0595 -0.6453 -0.8103
 4454SOL    HW224996   2.163   0.808   4.687 -0.4304 -0.0836 -0.3247
 4455SOL     OW24997   4.505   2.355   3.831  0.5907 -0.4675  0.1221
 4455SOL    HW124998   4.452   2.400   3.765  2.9928  1.8990 -0.2308
 4455SOL    HW224999   4.457   2.273   3.842 -0.6030  0.8326  4.4091
 4456SOL     OW25000   1.479   0.634  12.384 -0.0515 -0.5498  0.5618
 4456SOL    HW125001   1.563   0.627  12.431  0.1322  0.6773  0.4229
 4456SOL    HW225002   1.504   0.681  12.304  0.8265  1.7029  2.1734
 4457SOL     OW25003   2.556   3.038   5.193 -0.0987  0.0226 -0.3797
 4457SOL    HW125004   2.477   3.017   5.144  0.1073 -0.1332 -0.6481
 4457SOL    HW225005   2.561   2.956   5.244  0.7654 -0.2734 -0.9250
 4458SOL     OW25006   3.440   0.958   4.528  0.0562 -0.1404 -0.4069
 4458SOL    HW125007   3.482   0.956   4.442 -1.1912  1.0446 -1.0501
 4458SOL    HW225008   3.509   1.003   4.575  0.1299 -0.9641  0.2789
 4459SOL     OW25009   2.833   0.238   1.892 -0.0038  0.3829 -0.2833
 4459SOL    HW125010   2.769   0.184   1.845  1.3952  0.6643 -2.5449
 4459SOL    HW225011   2.891   0.272   1.824 -0.4902 -0.6348 -1.2271
 4460SOL     OW25012   4.571   0.098   5.677 -0.1750  0.4023 -0.7818
 4460SOL    HW125013   4.582   0.050   5.595  1.3009  0.0944 -0.3873
 4460SOL    HW225014   4.590   0.024   5.734 -0.1655 -0.5513 -2.0393
 4461SOL     OW25015   4.326   1.746   5.291  0.5449  0.1575  0.2081
 4461SOL    HW125016   4.327   1.757   5.196  0.7371  0.0382  0.1959
 4461SOL    HW225017   4.311   1.839   5.312  0.9622  0.2183  0.2351
 4462SOL     OW25018   1.165   3.882   5.709  0.3629  0.5439 -0.3739
 4462SOL    HW125019   1.230   3.835   5.762 -1.2387  0.7762  1.7675
 4462SOL    HW225020   1.178   3.971   5.741  0.6260  0.2308  0.3816
 4463SOL     OW25021   3.531   0.917   7.500  0.0416  0.4521  0.0446
 4463SOL    HW125022   3.524   0.838   7.447 -0.0799  0.0416  0.6674
 4463SOL    HW225023   3.501   0.988   7.443 -0.3934 -0.4089 -0.7940
 4464SOL     OW25024   2.713   1.263   1.591  0.6929  0.5274  0.6446
 4464SOL    HW125025   2.654   1.207   1.540 -0.2156 -0.0320  2.2997
 4464SOL    HW225026   2.649   1.326   1.625  1.2887  0.7715  1.3258
 4465SOL     OW25027   2.314   3.073   5.629 -0.0793  0.0974  0.6738
 4465SOL    HW125028   2.232   3.025   5.633  0.2910 -0.6753 -1.1874
 4465SOL    HW225029   2.320   3.103   5.538  1.8316  0.8885  1.0561
 4466SOL     OW25030   3.989   3.049   7.900  0.4289  0.2403 -0.2770
 4466SOL    HW125031   4.078   3.085   7.896  0.9619 -1.0862 -0.3633
 4466SOL    HW225032   3.991   3.011   7.813 -0.6312 -2.0269  0.6897
 4467SOL     OW25033   1.536   1.118   6.892 -0.3061 -0.2046  0.4335
 4467SOL    HW125034   1.519   1.187   6.828  0.0934  0.8840  1.5125
 4467SOL    HW225035   1.444   1.095   6.906 -0.1757 -1.0979 -0.1527
 4468SOL     OW25036   4.008   2.641   7.820 -0.0513  0.2847 -0.4725
 4468SOL    HW125037   3.995   2.735   7.810  0.8949  0.4197 -0.4527
 4468SOL    HW225038   3.996   2.635   7.914 -0.3217  3.0474 -0.3456
 4469SOL     OW25039   1.304   1.082   7.170 -0.2919 -0.1232 -0.5399
 4469SOL    HW125040   1.351   1.165   7.163 -1.0243  0.1360 -2.5013
 4469SOL    HW225041   1.220   1.115   7.204  0.3398 -0.5612  1.4430
 4470SOL     OW25042   4.526   2.160   0.991 -0.5436 -0.6617  1.1238
 4470SOL    HW125043   4.541   2.145   0.898  1.4382 -2.7074  1.7660
 4470SOL    HW225044   4.585   2.089   1.017  1.2511  0.0527 -0.9983
 4471SOL     OW25045   3.059   3.296  15.874  0.7254  0.0386 -0.5593
 4471SOL    HW125046   3.022   3.351  15.805  1.8354  1.6132  0.1208
 4471SOL    HW225047   2.990   3.230  15.880  1.3871 -0.9991 -4.4033
 4472SOL     OW25048   3.731   1.787  13.891 -0.2769 -0.3469 -0.6803
 4472SOL    HW125049   3.649   1.752  13.925  0.0259  0.8848  1.3157
 4472SOL    HW225050   3.695   1.859  13.839 -0.8165  0.0963  0.3085
 4473SOL     OW25051   3.896   1.907  16.434  0.4427  0.1409 -0.5649
 4473SOL    HW125052   3.878   1.991  16.392  0.8056  1.2124  1.4318
 4473SOL    HW225053   3.941   1.931  16.515  0.5159 -1.0027 -0.2674
 4474SOL     OW25054   4.684   1.340   8.403 -0.2655  0.1330 -0.3758
 4474SOL    HW125055   4.611   1.323   8.342  0.6683 -0.0551 -1.4348
 4474SOL    HW225056   4.735   1.403   8.352  0.5959 -0.3106 -0.0446
 4475SOL     OW25057   0.012   3.096   8.783  0.0313 -0.0349 -0.1449
 4475SOL    HW125058   4.681   3.158   8.795 -0.1786  0.2004 -2.5420
 4475SOL    HW225059   0.077   3.139   8.839 -0.6709  0.4730  0.2787
 4476SOL     OW25060   1.200   0.567   7.563 -0.2865  0.8260  0.1341
 4476SOL    HW125061   1.152   0.508   7.621 -0.8242  0.3950 -0.7422
 4476SOL    HW225062   1.159   0.555   7.477  1.0425 -0.6342 -0.3056
 4477SOL     OW25063   0.439   2.788  12.700 -0.0800 -0.2323 -0.2321
 4477SOL    HW125064   0.364   2.832  12.739 -0.8008  0.1462 -2.0445
 4477SOL    HW225065   0.479   2.739  12.772  0.7734  1.4058  0.4133
 4478SOL     OW25066   0.176   1.451   2.508 -0.2823 -0.6274 -0.1652
 4478SOL    HW125067   0.166   1.366   2.467  1.7195 -0.6701 -0.5338
 4478SOL    HW225068   0.154   1.497   2.427 -0.3663  1.3191  0.9515
 4479SOL     OW25069   1.315   3.123   9.559  0.0774  0.4026  0.6779
 4479SOL    HW125070   1.401   3.162   9.573  1.2958 -2.2943  0.7005
 4479SOL    HW225071   1.305   3.056   9.627  1.5188 -1.1474 -0.6158
 4480SOL     OW25072   3.532   0.635   7.431 -0.1687  0.1304 -0.6122
 4480SOL    HW125073   3.572   0.582   7.362  1.1685  1.1970 -0.6572
 4480SOL    HW225074   3.459   0.576   7.451  0.9450 -0.2192  2.4773
 4481SOL     OW25075   2.768   1.993   3.975 -0.4197  0.5949  0.1253
 4481SOL    HW125076   2.820   2.051   4.031  1.3024 -1.1902  0.3736
 4481SOL    HW225077   2.825   1.916   3.976  0.6528  1.3946  0.8654
 4482SOL     OW25078   1.325   4.604   0.642  1.0647 -0.3973  0.6681
 4482SOL    HW125079   1.401   4.595   0.699  2.2999  0.1259 -0.8905
 4482SOL    HW225080   1.354   4.545   0.572 -0.1775  0.2430 -0.3912
 4483SOL     OW25081   1.596   1.533   8.427  0.3803  0.6143  0.0052
 4483SOL    HW125082   1.567   1.447   8.397  0.0147  0.7059  0.1001
 4483SOL    HW225083   1.691   1.518   8.430  0.4668  0.7053 -2.5772
 4484SOL     OW25084   2.943   4.508  12.738 -0.0868 -0.0415 -0.5493
 4484SOL    HW125085   2.930   4.414  12.753 -0.1052  0.1311  0.4843
 4484SOL    HW225086   2.859   4.553  12.741  1.5943  2.8702  1.9075
 4485SOL     OW25087   4.456   3.705   7.912  0.0586  0.6866  0.4802
 4485SOL    HW125088   4.476   3.771   7.979  0.3865  1.7655 -0.6654
 4485SOL    HW225089   4.530   3.645   7.922  1.5384  2.4560  0.3640
 4486SOL     OW25090   2.841   2.694  16.865 -0.1275  0.5252 -0.0685
 4486SOL    HW125091   2.932   2.667  16.864 -0.0750  0.7302 -0.9687
 4486SOL    HW225092   2.856   2.780  16.905  1.4189  0.6762 -0.9969
 4487SOL     OW25093   3.159   4.473   4.629  0.1542  0.0568  0.0053
 4487SOL    HW125094   3.097   4.458   4.700 -1.4507 -0.1892 -1.4488
 4487SOL    HW225095   3.201   4.557   4.644 -0.6910  0.2808  1.1180
 4488SOL     OW25096   1.716   0.278   3.722 -0.8469  0.2079 -0.5826
 4488SOL    HW125097   1.700   0.212   3.654 -1.0049  0.5019 -0.8306
 4488SOL    HW225098   1.804   0.290   3.686 -2.0684 -1.0749 -4.0052
 4489SOL     OW25099   4.513   0.364  13.607  0.8397 -0.3624 -0.2003
 4489SOL    HW125100   4.454   0.299  13.568  1.1490 -0.7388 -0.0375
 4489SOL    HW225101   4.523   0.433  13.541  1.8873 -0.2408  0.0847
 4490SOL     OW25102   0.639   3.123   7.734 -0.3781 -0.2866 -0.1826
 4490SOL    HW125103   0.729   3.104   7.761 -0.1388  0.5944 -0.3488
 4490SOL    HW225104   0.648   3.215   7.709 -0.5058 -0.3760 -0.5563
 4491SOL     OW25105   4.461   1.547   0.446 -0.7477 -0.7976  0.3832
 4491SOL    HW125106   4.549   1.536   0.481 -2.0966 -2.8130  3.1298
 4491SOL    HW225107   4.410   1.523   0.523 -0.8730  0.4944  0.7031
 4492SOL     OW25108   1.687   1.433   7.138 -0.0411 -0.1692  0.5884
 4492SOL    HW125109   1.701   1.494   7.066 -2.1571 -0.9827 -0.5193
 4492SOL    HW225110   1.705   1.489   7.214  0.0039 -1.7714  1.7585
 4493SOL     OW25111   3.173   1.549   1.458 -0.1406 -0.0236 -0.3581
 4493SOL    HW125112   3.234   1.566   1.530 -0.4494 -0.5919  0.0412
 4493SOL    HW225113   3.092   1.525   1.504  1.1095 -0.9166  1.4023
 4494SOL     OW25114   2.568   0.661   8.432  0.3448 -0.4741  0.1727
 4494SOL    HW125115   2.525   0.728   8.485  0.1733 -0.2680 -0.2282
 4494SOL    HW225116   2.646   0.656   8.487  1.4672  0.4152 -1.3243
 4495SOL     OW25117   0.303   3.016  14.811 -0.1626 -0.1671  0.0765
 4495SOL    HW125118   0.314   2.921  14.806 -1.4577 -0.3667  0.8823
 4495SOL    HW225119   0.353   3.042  14.734 -1.2210 -0.6575 -0.7744
 4496SOL     OW25120   2.407   0.289   1.723 -0.1050  0.3707 -0.3236
 4496SOL    HW125121   2.365   0.323   1.644  0.3552  0.2361 -0.6281
 4496SOL    HW225122   2.500   0.290   1.699 -0.0398  1.9103 -0.0233
 4497SOL     OW25123   4.177   3.485   6.947  0.3387 -0.1725 -0.3477
 4497SOL    HW125124   4.262   3.457   6.980  0.9236  2.4612  0.3526
 4497SOL    HW225125   4.158   3.424   6.876 -0.0422  0.1362 -0.5102
 4498SOL     OW25126   1.802   3.428   4.833  0.6707 -0.2777 -0.1601
 4498SOL    HW125127   1.841   3.346   4.864 -0.2649 -0.6579  0.0060
 4498SOL    HW225128   1.856   3.486   4.887  2.8015 -1.8507 -0.5862
 4499SOL     OW25129   3.710   0.145   4.026  0.0304 -0.1756 -0.4446
 4499SOL    HW125130   3.715   0.240   4.015  1.4828 -0.3831 -1.5329
 4499SOL    HW225131   3.803   0.128   4.038 -0.2349 -1.0744  0.3440
 4500SOL     OW25132   0.557   4.038  11.473 -1.0128  0.8490 -0.1587
 4500SOL    HW125133   0.629   3.975  11.477 -1.1661  0.6421 -0.6884
 4500SOL    HW225134   0.523   4.033  11.562  2.1917  3.1881  1.2006
 4501SOL     OW25135   1.958   1.747   2.008  0.1631 -0.6052 -0.4482
 4501SOL    HW125136   1.899   1.696   2.065 -1.5578  0.2395 -1.4844
 4501SOL    HW225137   2.042   1.702   2.014  1.4833  1.6792 -1.9749
 4502SOL     OW25138   4.505   4.564   7.983 -0.7523 -0.7294  0.2102
 4502SOL    HW125139   4.570   4.593   8.047  0.4522 -2.9620 -0.0327
 4502SOL    HW225140   4.479   4.473   8.000 -0.4589 -0.5948  1.3866
 4503SOL     OW25141   0.523   1.739   7.648 -0.5861 -0.0966  0.1720
 4503SOL    HW125142   0.444   1.761   7.697  0.2166 -0.1185  1.4709
 4503SOL    HW225143   0.572   1.821   7.639 -0.8828  0.1269  0.6196
 4504SOL     OW25144   0.140   0.179  15.084  0.1571  0.1536 -0.5454
 4504SOL    HW125145   0.143   0.244  15.154  0.6128  0.1433 -0.5599
 4504SOL    HW225146   0.201   0.111  15.109  2.3616  1.1354 -3.2286
 4505SOL     OW25147   3.302   3.594   3.603  0.4013  0.2670 -0.5063
 4505SOL    HW125148   3.293   3.688   3.587  0.2415  0.2112 -0.7298
 4505SOL    HW225149   3.244   3.584   3.678  0.5537 -1.7083 -0.6491
 4506SOL     OW25150   4.687   1.997   4.912 -0.3039 -0.3658 -0.3231
 4506SOL    HW125151   4.738   2.038   4.843 -0.6287  0.9043  0.2066
 4506SOL    HW225152   4.611   2.049   4.886  0.4801  0.8908 -0.0469
 4507SOL     OW25153   1.160   2.899   1.816  1.0040 -0.3239  0.3715
 4507SOL    HW125154   1.082   2.944   1.783  0.7021 -0.8297  0.3910
 4507SOL    HW225155   1.118   2.856   1.890 -0.4070 -2.0038 -1.4207
 4508SOL     OW25156   2.870   2.665   5.015 -0.1948 -0.1892  0.0425
 4508SOL    HW125157   2.903   2.718   5.087  0.2962  0.4750 -0.6692
 4508SOL    HW225158   2.788   2.627   5.048 -0.9716  2.6024  1.3184
 4509SOL     OW25159   2.406   3.870   4.008  0.0831 -0.2356 -0.5006
 4509SOL    HW125160   2.457   3.823   4.074 -0.2137 -1.5518 -1.2098
 4509SOL    HW225161   2.440   3.828   3.929  1.0251  1.5469 -1.0183
 4510SOL     OW25162   1.897   0.122   1.761  0.0258  0.3617  0.4384
 4510SOL    HW125163   1.908   0.217   1.754  0.0432  0.6341  4.3506
 4510SOL    HW225164   1.969   0.081   1.712  0.5638  1.3464  0.4043
 4511SOL     OW25165   4.517   2.359   9.499  0.3562  0.8923  0.2681
 4511SOL    HW125166   4.425   2.334   9.508 -0.3879  3.1236 -1.1605
 4511SOL    HW225167   4.510   2.454   9.486  1.5609  1.0295  0.5929
 4512SOL     OW25168   1.176   1.886  17.112  0.8522  0.1848 -0.3117
 4512SOL    HW125169   1.207   1.975  17.099 -0.3776  0.8842  1.5983
 4512SOL    HW225170   1.112   1.876  17.041 -2.1147  5.0497  1.6778
 4513SOL     OW25171   3.136   2.449  11.032  0.2930  0.0887 -0.8278
 4513SOL    HW125172   3.086   2.512  10.981 -0.7677 -1.3030 -1.5255
 4513SOL    HW225173   3.071   2.430  11.100  1.6096  1.5726  0.8583
 4514SOL     OW25174   3.036   0.657  17.668 -0.1477  0.2735  0.1362
 4514SOL    HW125175   3.075   0.570  17.666  0.5802  0.5632  1.6788
 4514SOL    HW225176   3.056   0.705  17.587  1.4143 -1.3341 -0.4483
 4515SOL     OW25177   3.197   0.872  11.291 -0.2152  0.2072  0.0340
 4515SOL    HW125178   3.116   0.895  11.337 -0.7423 -1.0518 -0.2612
 4515SOL    HW225179   3.169   0.863  11.200 -1.3429 -2.7553  0.6976
 4516SOL     OW25180   0.301   1.572   3.414  0.2481  0.7406 -0.7528
 4516SOL    HW125181   0.309   1.546   3.322 -1.6959 -1.7369 -0.2115
 4516SOL    HW225182   0.206   1.565   3.417  0.2447  1.3669  0.3549
 4517SOL     OW25183   2.950   2.000   4.492  0.2155 -0.1950  0.0206
 4517SOL    HW125184   3.014   2.071   4.489  0.6678 -0.5291  1.9104
 4517SOL    HW225185   2.965   1.960   4.577 -0.1371 -1.8888 -0.7214
 4518SOL     OW25186   1.810   3.613   3.451  0.0894  0.1590  0.7287
 4518SOL    HW125187   1.854   3.654   3.377 -1.1606 -0.9109 -0.6058
 4518SOL    HW225188   1.829   3.522   3.428 -0.3202  0.8124 -2.1848
 4519SOL     OW25189   0.481   4.382   7.343 -0.5495  0.0796 -0.1855
 4519SOL    HW125190   0.457   4.465   7.302 -1.2088  1.2808  2.6977
 4519SOL    HW225191   0.406   4.326   7.323 -1.1100  1.0328 -0.7181
 4520SOL     OW25192   3.084   3.347   9.789  0.0462  0.0785 -0.3700
 4520SOL    HW125193   3.089   3.441   9.808 -0.0374 -0.0504  0.2701
 4520SOL    HW225194   3.124   3.341   9.702  0.5163  1.0388 -0.2183
 4521SOL     OW25195   0.599   3.087   4.359 -0.5553 -0.3335 -0.6502
 4521SOL    HW125196   0.538   3.078   4.286 -0.5932  3.9502 -1.1530
 4521SOL    HW225197   0.555   3.159   4.403 -0.0261 -1.1134  1.1650
 4522SOL     OW25198   0.678   3.183   3.825  0.1775 -0.4499 -0.2005
 4522SOL    HW125199   0.759   3.132   3.832 -1.3503 -2.8357  0.3618
 4522SOL    HW225200   0.688   3.199   3.731  1.4769 -0.1401 -0.0026
 4523SOL     OW25201   1.699   2.615   4.036 -0.1904  0.4744 -0.3353
 4523SOL    HW125202   1.658   2.700   4.052 -0.4189  0.2332  0.3568
 4523SOL    HW225203   1.792   2.640   4.036  0.2735 -1.2778 -0.4019
 4524SOL     OW25204   4.150   0.956  13.722 -0.1297 -0.5846  0.1120
 4524SOL    HW125205   4.101   0.874  13.728 -1.0934  0.0957  1.6682
 4524SOL    HW225206   4.140   0.980  13.814  2.1894 -0.9218  0.4514
 4525SOL     OW25207   0.074   4.704   2.061  0.2758 -0.3311  0.0345
 4525SOL    HW125208   0.155   4.680   2.017  0.1580 -0.1959 -0.2531
 4525SOL    HW225209   0.059   4.624   2.112 -1.0151  0.8708  1.5594
 4526SOL     OW25210   0.692   0.894  15.943 -0.5564  0.1776 -0.3327
 4526SOL    HW125211   0.750   0.957  15.986  1.2534 -0.5405 -1.7250
 4526SOL    HW225212   0.617   0.890  16.002  1.6358  1.3747  2.5275
 4527SOL     OW25213   2.906   4.233   2.704 -0.1618  0.4470 -0.1605
 4527SOL    HW125214   2.928   4.154   2.653  2.0872  1.4294 -0.7266
 4527SOL    HW225215   2.994   4.263   2.726  0.0074  2.9641 -4.1356
 4528SOL     OW25216   3.091   0.986   8.176 -0.0319  0.5816  0.2933
 4528SOL    HW125217   3.104   1.081   8.185 -1.0276  0.6646  0.8399
 4528SOL    HW225218   3.152   0.963   8.106 -1.0896 -2.0431  0.2315
 4529SOL     OW25219   0.639   3.717   7.083 -0.5044 -0.0539 -0.7074
 4529SOL    HW125220   0.599   3.654   7.143 -2.5016  1.8993  0.0143
 4529SOL    HW225221   0.697   3.661   7.032  0.4608  1.2445 -1.0310
 4530SOL     OW25222   3.147   0.494  14.248 -0.4953 -0.3804 -0.1040
 4530SOL    HW125223   3.171   0.408  14.283  1.0496 -0.0269 -0.2772
 4530SOL    HW225224   3.217   0.532  14.194 -0.3750 -0.3238  0.0936
 4531SOL     OW25225   3.012   2.558  15.496 -0.2266 -0.0921 -0.3003
 4531SOL    HW125226   2.991   2.650  15.510 -2.5164 -0.5424 -0.7990
 4531SOL    HW225227   2.923   2.524  15.491  0.3170 -1.6136  0.3343
 4532SOL     OW25228   1.628   3.500   5.856  0.3316 -0.2961 -0.3456
 4532SOL    HW125229   1.708   3.463   5.895  0.3767 -1.2407 -1.3376
 4532SOL    HW225230   1.660   3.570   5.800 -1.1693  0.5227 -0.1704
 4533SOL     OW25231   1.574   3.168  16.310 -0.3924 -0.4078  0.5456
 4533SOL    HW125232   1.581   3.201  16.400 -0.4406 -0.0451  0.4163
 4533SOL    HW225233   1.663   3.186  16.280 -0.4642 -0.0707  0.5334
 4534SOL     OW25234   2.702   4.480   6.457 -0.3887  0.5120 -0.4408
 4534SOL    HW125235   2.705   4.523   6.542 -0.3978 -1.2769  0.4694
 4534SOL    HW225236   2.795   4.463   6.443 -0.1011  0.5479  1.4536
 4535SOL     OW25237   4.223   3.708   7.124 -0.3200  0.4025  0.1908
 4535SOL    HW125238   4.277   3.758   7.062 -0.9256 -1.4416 -1.8157
 4535SOL    HW225239   4.198   3.630   7.076  3.0358 -0.8026  0.4029
 4536SOL     OW25240   0.566   4.666  17.070 -0.5986 -0.1133  0.3562
 4536SOL    HW125241   0.535   4.577  17.057 -1.2040  0.6558 -3.4110
 4536SOL    HW225242   0.661   4.662  17.057 -0.7491 -0.1858 -0.7655
 4537SOL     OW25243   4.536   0.023   6.967  0.2310  0.0122  0.4820
 4537SOL    HW125244   4.517   4.670   6.970 -0.9100  0.1748 -1.7207
 4537SOL    HW225245   4.524   0.038   6.873  0.3571 -3.5858 -0.1318
 4538SOL     OW25246   2.294   0.699   8.819  0.4820 -0.7125 -0.8409
 4538SOL    HW125247   2.255   0.658   8.896  1.1875  0.6787  0.2607
 4538SOL    HW225248   2.241   0.649   8.756 -0.2295 -0.9655 -0.0398
 4539SOL     OW25249   1.204   1.948   1.994 -0.0551 -0.9476 -0.2511
 4539SOL    HW125250   1.170   1.935   1.906 -2.2877 -1.9831  0.7704
 4539SOL    HW225251   1.148   2.022   2.017 -0.6026 -1.4569  0.0860
 4540SOL     OW25252   2.732   2.132  17.758  0.0116  0.1333  0.1282
 4540SOL    HW125253   2.753   2.171  17.673  2.7522  0.2214  0.8398
 4540SOL    HW225254   2.706   2.205   0.051  1.9188  0.2230  0.9272
 4541SOL     OW25255   0.163   2.898   1.897  0.2430 -0.0408  0.0061
 4541SOL    HW125256   0.179   2.920   1.805 -1.7477 -0.1841 -0.3574
 4541SOL    HW225257   0.249   2.918   1.935 -1.0457  0.5866  2.6015
 4542SOL     OW25258   0.161   4.588   8.606  0.2726  0.0012  0.6414
 4542SOL    HW125259   0.078   4.582   8.557  0.1261  1.1257  0.7318
 4542SOL    HW225260   0.175   4.683   8.596  0.4976  0.0874  1.8517
 4543SOL     OW25261   2.154   3.864   3.353  0.5713  1.2006  0.5160
 4543SOL    HW125262   2.189   3.884   3.439  0.9574  1.5526  0.2722
 4543SOL    HW225263   2.104   3.942   3.330 -3.2196  0.0068  4.6968
 4544SOL     OW25264   1.728   3.062   2.237 -0.0482 -0.1513  0.0307
 4544SOL    HW125265   1.653   3.061   2.177 -1.2889 -1.4034  1.6022
 4544SOL    HW225266   1.750   3.155   2.228 -0.4231  0.2468  3.3725
 4545SOL     OW25267   3.748   0.052   0.842  0.0378 -0.3645 -0.1003
 4545SOL    HW125268   3.788   4.706   0.841  1.0292  0.1029 -1.2917
 4545SOL    HW225269   3.671   0.036   0.897 -0.9401 -2.7606 -2.1626
 4546SOL     OW25270   2.208   1.749   7.184 -0.7294  0.2273  0.4997
 4546SOL    HW125271   2.232   1.676   7.127  0.0189  0.9994 -0.1810
 4546SOL    HW225272   2.148   1.697   7.237 -1.6341  1.0087  0.2402
 4547SOL     OW25273   0.495   1.304   9.050  0.2270  0.3648 -0.4258
 4547SOL    HW125274   0.519   1.331   8.962  1.2978  1.5173  0.2188
 4547SOL    HW225275   0.540   1.379   9.090 -0.0277  1.2636 -1.8477
 4548SOL     OW25276   4.511   1.228   6.801 -0.0421 -0.2245 -0.2560
 4548SOL    HW125277   4.539   1.286   6.872 -1.5960 -0.9002  0.8959
 4548SOL    HW225278   4.422   1.218   6.835  0.6344 -0.7890  1.3406
 4549SOL     OW25279   3.308   3.270   7.028 -0.2280 -0.3097 -0.3455
 4549SOL    HW125280   3.360   3.240   6.954  1.6836 -0.6969  1.1382
 4549SOL    HW225281   3.238   3.298   6.969 -0.9898  1.4887  1.4281
 4550SOL     OW25282   2.385   1.911  14.657 -0.0290 -0.2491  0.0208
 4550SOL    HW125283   2.449   1.923  14.727 -0.4120  0.4738  0.2438
 4550SOL    HW225284   2.364   2.003  14.643 -0.8670 -0.0475  2.6005
 4551SOL     OW25285   3.818   2.764   2.943 -0.2627 -0.2438  0.1421
 4551SOL    HW125286   3.875   2.790   2.870 -0.1105  0.1319  0.3921
 4551SOL    HW225287   3.808   2.669   2.937  0.9996 -0.2970 -1.2318
 4552SOL     OW25288   0.364   4.527   7.018 -0.2832 -0.6036  0.2585
 4552SOL    HW125289   0.430   4.537   6.949 -2.8434 -0.9527 -2.2252
 4552SOL    HW225290   0.295   4.588   6.993 -0.5974 -0.4786  1.4366
 4553SOL     OW25291   2.588   0.706  17.478 -0.1723  0.3562 -0.7777
 4553SOL    HW125292   2.568   0.620  17.513 -0.0060  0.4156 -0.5378
 4553SOL    HW225293   2.521   0.761  17.519  1.9660 -0.4872  3.7878
 4554SOL     OW25294   2.164   0.486   5.875 -0.3396  0.5473 -1.2590
 4554SOL    HW125295   2.184   0.394   5.858  0.0995  0.4769 -0.3880
 4554SOL    HW225296   2.074   0.496   5.843 -1.2156 -1.4323  0.6150
 4555SOL     OW25297   3.971   1.558   7.355 -0.2915  0.3630  0.5662
 4555SOL    HW125298   4.033   1.620   7.317 -2.6094  1.5986 -1.2028
 4555SOL    HW225299   3.903   1.625   7.361 -0.9950 -0.2939 -0.1623
 4556SOL     OW25300   0.035   3.633   5.592  0.5341 -0.3483 -0.1653
 4556SOL    HW125301   0.032   3.546   5.632  0.1892  1.1227  2.9458
 4556SOL    HW225302   4.692   3.631   5.546  2.4718 -3.3875 -3.5718
 4557SOL     OW25303   1.496   3.115   2.123 -0.0356 -0.3944  0.1656
 4557SOL    HW125304   1.459   3.097   2.036 -0.6991 -0.4459  0.4573
 4557SOL    HW225305   1.490   3.209   2.134 -0.2381 -0.3968  0.0748
 4558SOL     OW25306   2.687   3.073   1.995 -0.3761 -0.1482  0.2401
 4558SOL    HW125307   2.733   3.136   2.051 -1.7604  1.1737 -0.1050
 4558SOL    HW225308   2.743   2.996   2.003 -0.5799 -0.4540 -1.3475
 4559SOL     OW25309   1.283   3.733   6.358 -0.4830  0.9940 -0.2524
 4559SOL    HW125310   1.236   3.688   6.288 -0.2643 -0.5455  0.5935
 4559SOL    HW225311   1.216   3.775   6.411  0.5766  0.8844  1.1703
 4560SOL     OW25312   3.689   2.415  10.150 -0.3085  0.1388 -0.1910
 4560SOL    HW125313   3.717   2.386  10.237 -0.8349  1.3432  0.3682
 4560SOL    HW225314   3.594   2.406  10.153 -0.1428 -2.3980 -2.1024
 4561SOL     OW25315   2.364   4.281  17.064  0.5162 -0.0575  0.4879
 4561SOL    HW125316   2.358   4.331  16.983  2.1560 -2.1963 -0.9379
 4561SOL    HW225317   2.277   4.300  17.099  0.3831 -1.8017  1.0770
 4562SOL     OW25318   1.381   2.280   8.024 -0.0006  0.0584 -0.0867
 4562SOL    HW125319   1.353   2.306   8.112  1.4073  2.8988 -0.4646
 4562SOL    HW225320   1.333   2.348   7.978 -0.0377  1.6223  2.2597
 4563SOL     OW25321   2.990   3.402  14.929  0.1549  0.2868  0.2727
 4563SOL    HW125322   3.062   3.339  14.937  0.2981  0.0642 -2.6190
 4563SOL    HW225323   3.034   3.485  14.947 -0.8480  0.8290  0.2557
 4564SOL     OW25324   2.227   1.595   5.899  0.4971 -0.0148  0.1287
 4564SOL    HW125325   2.322   1.594   5.888  0.2604 -2.8908 -1.5284
 4564SOL    HW225326   2.193   1.632   5.818  1.4476 -2.4451 -1.3501
 4565SOL     OW25327   4.480   3.463   0.136 -0.3205  0.2783 -0.3437
 4565SOL    HW125328   4.456   3.555   0.142 -0.3279  0.4959 -3.6637
 4565SOL    HW225329   4.501   3.448   0.044  0.0882 -0.1983 -0.1722
 4566SOL     OW25330   1.606   4.247  15.560 -0.4699  0.2919  0.2469
 4566SOL    HW125331   1.629   4.263  15.469  2.9761 -0.4029  0.9979
 4566SOL    HW225332   1.519   4.207  15.557 -0.3760  0.1039  0.0765
 4567SOL     OW25333   2.000   1.609   8.513 -0.0342 -0.1342 -0.5681
 4567SOL    HW125334   1.932   1.586   8.576 -1.5048  1.5604 -1.5010
 4567SOL    HW225335   1.985   1.547   8.442  1.2279 -1.2560  0.1620
 4568SOL     OW25336   2.815   0.242   6.957 -0.1563  0.3344  0.2999
 4568SOL    HW125337   2.780   0.256   6.869  2.4141 -0.1711 -0.7956
 4568SOL    HW225338   2.734   0.247   7.008  1.1651  3.2571  2.1365
 4569SOL     OW25339   0.517   4.569   6.774  0.1573 -0.0346  0.1303
 4569SOL    HW125340   0.448   4.609   6.721  0.6353 -0.2597 -0.6700
 4569SOL    HW225341   0.569   4.524   6.707  0.0734 -2.6555  1.8573
 4570SOL     OW25342   4.218   4.472   3.016  0.4730  0.0445 -0.3821
 4570SOL    HW125343   4.278   4.527   3.066  0.9793 -1.8459  1.0980
 4570SOL    HW225344   4.216   4.397   3.076  2.7898 -0.3154 -0.7371
 4571SOL     OW25345   3.044   4.024   0.585  0.0644  0.3254 -0.4778
 4571SOL    HW125346   3.063   3.958   0.652 -0.0858  0.2512 -0.5081
 4571SOL    HW225347   3.124   4.029   0.532 -0.0698  2.6383 -0.4471
 4572SOL     OW25348   0.620   3.788   3.331 -0.0583  0.3468  0.6999
 4572SOL    HW125349   0.618   3.841   3.411  1.2485  1.4675  0.0049
 4572SOL    HW225350   0.675   3.716   3.362  1.3666  1.5812  1.0294
 4573SOL     OW25351   1.105   3.859   8.570  0.1304 -0.1728  0.4338
 4573SOL    HW125352   1.076   3.815   8.650 -0.6484 -1.5872 -0.6253
 4573SOL    HW225353   1.116   3.948   8.605  3.0875  0.0850 -1.2216
 4574SOL     OW25354   1.551   0.411   4.015 -0.7254 -0.1527 -0.3445
 4574SOL    HW125355   1.557   0.386   4.107 -0.4342  1.3733  0.0590
 4574SOL    HW225356   1.532   0.505   4.019  2.0566  0.4389 -0.9910
 4575SOL     OW25357   4.070   3.167   9.212  0.4042  0.1467 -0.4655
 4575SOL    HW125358   3.993   3.159   9.156  0.1472 -0.7587  0.0075
 4575SOL    HW225359   4.052   3.091   9.268  2.0507  1.1595  1.4794
 4576SOL     OW25360   1.483   1.791   1.484 -0.6108  0.9328 -0.3897
 4576SOL    HW125361   1.514   1.701   1.490  0.5013  1.3251 -0.3650
 4576SOL    HW225362   1.524   1.821   1.403 -0.8302  2.4951  0.0758
 4577SOL     OW25363   2.040   1.736   6.360 -0.0204  0.8130  0.5424
 4577SOL    HW125364   2.125   1.724   6.318 -1.1154  2.0464 -2.0257
 4577SOL    HW225365   2.012   1.645   6.373  1.2061  0.5210  1.1890
 4578SOL     OW25366   3.711   0.106   2.221 -0.5435 -0.4193  0.2239
 4578SOL    HW125367   3.630   0.157   2.218 -0.2941 -0.0493 -0.2503
 4578SOL    HW225368   3.718   0.089   2.127 -1.6961 -1.7552  0.3900
 4579SOL     OW25369   3.486   0.401   0.377 -0.2652 -0.6577  0.4761
 4579SOL    HW125370   3.529   0.359   0.303  0.9916  0.8471  0.3598
 4579SOL    HW225371   3.440   0.473   0.334 -2.8930 -2.2725  0.5478
 4580SOL     OW25372   1.952   4.544  17.018  0.2486  0.0361  0.5410
 4580SOL    HW125373   1.872   4.491  17.018 -0.3884  0.9855  1.2931
 4580SOL    HW225374   1.932   4.617  17.077  0.3701  0.2379  0.3320
 4581SOL     OW25375   1.681   2.236   7.163 -0.1293 -0.0241 -0.1629
 4581SOL    HW125376   1.586   2.244   7.179 -0.0459  3.1120 -1.2769
 4581SOL    HW225377   1.686   2.187   7.081 -0.6412  0.4938 -0.5055
 4582SOL     OW25378   1.315   4.136   3.227  0.8233  0.0292 -0.7154
 4582SOL    HW125379   1.350   4.096   3.148  0.3887 -3.3574  0.8331
 4582SOL    HW225380   1.398   4.149   3.273  0.2327 -4.6436  1.6288
 4583SOL     OW25381   1.466   0.443   2.818  0.1172 -0.7049 -0.5504
 4583SOL    HW125382   1.550   0.410   2.787 -0.0291 -1.0495 -0.5770
 4583SOL    HW225383   1.443   0.367   2.872 -0.9228  0.8398  1.1664
 4584SOL     OW25384   3.165   3.281   2.759 -0.7173  0.1281 -0.7147
 4584SOL    HW125385   3.240   3.249   2.708  0.0108  1.5484 -0.5292
 4584SOL    HW225386   3.194   3.266   2.849 -0.3372 -0.7678 -0.9764
 4585SOL     OW25387   0.086   2.225   5.499 -0.4337 -0.3515 -0.2015
 4585SOL    HW125388   4.740   2.264   5.506 -0.3510  0.4481 -3.2832
 4585SOL    HW225389   0.091   2.215   5.404 -3.1441  1.4841 -0.5397
 4586SOL     OW25390   2.881   3.032   4.999  0.2857  0.0374 -0.0241
 4586SOL    HW125391   2.911   2.950   4.960  2.4352  0.6010  0.4576
 4586SOL    HW225392   2.794   3.007   5.030 -1.0498  1.0924 -2.9526
 4587SOL     OW25393   1.654   1.115   7.851  0.4817  0.0106 -0.1868
 4587SOL    HW125394   1.563   1.087   7.864 -0.1879  1.5793 -1.3624
 4587SOL    HW225395   1.661   1.125   7.756  1.9640 -1.0895 -0.1852
 4588SOL     OW25396   1.322   0.647   5.698 -0.0055  0.0165 -0.2252
 4588SOL    HW125397   1.274   0.687   5.771  1.6344  0.5734  0.5579
 4588SOL    HW225398   1.412   0.669   5.721  0.3267 -2.1252  0.5075
 4589SOL     OW25399   4.275   4.046   7.726 -0.1149  0.5627  0.8148
 4589SOL    HW125400   4.300   3.995   7.650  0.1040 -0.6847  1.7244
 4589SOL    HW225401   4.271   3.978   7.794  0.3834 -0.4095 -0.1357
 4590SOL     OW25402   0.920   3.694   1.520 -0.6711 -0.4268 -0.8671
 4590SOL    HW125403   0.862   3.736   1.456 -0.7525 -1.5933 -1.5601
 4590SOL    HW225404   0.914   3.764   1.584  2.0473  0.2870 -1.3848
 4591SOL     OW25405   0.943   3.054   7.322 -0.5356  0.1263  0.1693
 4591SOL    HW125406   0.979   2.968   7.300  0.4017  0.1416  1.5781
 4591SOL    HW225407   0.854   3.052   7.288 -0.8056  0.6554  0.8453
 4592SOL     OW25408   0.149   3.338   5.111  0.0699  0.4513 -0.1087
 4592SOL    HW125409   0.111   3.363   5.026 -0.6546 -0.6003 -0.0925
 4592SOL    HW225410   0.137   3.243   5.110 -1.0261  0.5795  0.6812
 4593SOL     OW25411   4.045   1.737   5.342 -0.3916  0.2906  0.4748
 4593SOL    HW125412   4.136   1.710   5.331 -0.4273 -0.6253  2.4651
 4593SOL    HW225413   4.027   1.726   5.436  0.3031  0.0416  0.5781
 4594SOL     OW25414   4.722   3.472   7.022 -0.4391 -0.1077  0.1849
 4594SOL    HW125415   0.005   3.500   6.934 -0.1444  1.5100  0.7677
 4594SOL    HW225416   4.638   3.517   7.024 -0.3911 -0.0459  0.8908
 4595SOL     OW25417   2.259   4.048   4.556  0.5697 -0.2617  0.0188
 4595SOL    HW125418   2.194   4.115   4.578  0.2567 -0.4498 -0.3202
 4595SOL    HW225419   2.252   3.987   4.630 -1.1430 -1.6532 -1.2926
 4596SOL     OW25420   2.533   2.501   4.580 -0.9507 -0.5801 -0.1157
 4596SOL    HW125421   2.555   2.547   4.661 -0.5891  0.1298 -0.6145
 4596SOL    HW225422   2.624   2.490   4.552 -1.0712 -0.9120 -0.3731
 4597SOL     OW25423   0.288   2.516   2.671 -0.1539 -0.0844  0.3319
 4597SOL    HW125424   0.372   2.561   2.661 -0.8569  0.7187 -1.8441
 4597SOL    HW225425   0.231   2.576   2.623  2.2363  1.1585 -0.9408
 4598SOL     OW25426   0.520   3.062  10.099  0.2738  0.2743 -0.0701
 4598SOL    HW125427   0.453   2.995  10.089  0.6293 -0.1169  0.2277
 4598SOL    HW225428   0.562   3.010  10.167  0.6344 -0.8167 -1.1454
 4599SOL     OW25429   3.985   2.846   0.115 -0.4140  0.4545 -0.3594
 4599SOL    HW125430   3.979   2.874   0.207 -0.5034 -0.3570 -0.1204
 4599SOL    HW225431   4.010   2.929   0.074 -1.6351  0.0369 -1.9245
 4600SOL     OW25432   3.547   1.400   2.515 -0.2931  0.0845  0.0406
 4600SOL    HW125433   3.586   1.345   2.583 -0.9197 -1.6797 -1.0089
 4600SOL    HW225434   3.613   1.386   2.447 -2.8519  1.8950 -2.8217
 4601SOL     OW25435   2.378   2.947   7.132 -0.0497 -0.8372  0.0999
 4601SOL    HW125436   2.363   2.930   7.225  0.0746  3.7207  0.9542
 4601SOL    HW225437   2.307   3.009   7.115  1.6398  1.1111  0.0740
 4602SOL     OW25438   0.654   0.270   9.261  0.3447  0.0214  0.1634
 4602SOL    HW125439   0.723   0.244   9.322  0.3067  0.8072  0.5449
 4602SOL    HW225440   0.629   0.181   9.236  0.2357 -0.1949  1.0272
 4603SOL     OW25441   0.185   4.311  11.370 -0.2729  0.4944 -0.0738
 4603SOL    HW125442   0.169   4.226  11.328  1.1464  0.5259 -0.6766
 4603SOL    HW225443   0.281   4.306  11.370 -0.3956 -2.2761  1.7454
 4604SOL     OW25444   1.640   0.415   6.969  0.3754  0.2722  0.1575
 4604SOL    HW125445   1.673   0.418   7.059  2.1923  0.3047 -0.5044
 4604SOL    HW225446   1.552   0.386   6.991  0.4538 -0.2382 -0.2066
 4605SOL     OW25447   0.217   0.982  12.362 -0.2469  0.3311 -0.2086
 4605SOL    HW125448   0.160   1.054  12.389 -0.9976 -0.4802  0.3969
 4605SOL    HW225449   0.269   0.966  12.441 -1.3615  1.4875  0.7448
 4606SOL     OW25450   3.718   1.422   7.165  0.1407 -0.0309 -0.1244
 4606SOL    HW125451   3.628   1.390   7.165  0.0520  0.1425  2.3676
 4606SOL    HW225452   3.706   1.495   7.226  0.0112 -0.2241  0.0850
 4607SOL     OW25453   0.108   4.209   4.043  0.2154 -0.0171 -0.3680
 4607SOL    HW125454   0.134   4.130   4.091 -0.0654  0.4306  0.5040
 4607SOL    HW225455   0.057   4.157   3.980  0.0478 -1.2037  0.7521
 4608SOL     OW25456   3.256   3.185  15.216  0.6318 -0.2595 -0.2582
 4608SOL    HW125457   3.222   3.108  15.263  1.8898 -0.8482 -0.3016
 4608SOL    HW225458   3.198   3.179  15.139 -0.6873  0.2262  0.7072
 4609SOL     OW25459   4.064   4.268  17.424  0.3321  0.0759 -0.2585
 4609SOL    HW125460   4.027   4.285  17.510 -0.7128 -0.0557 -0.6780
 4609SOL    HW225461   4.089   4.355  17.393  1.4691  0.1343  0.8615
 4610SOL     OW25462   0.610   2.325   5.072 -0.1340 -0.7945  0.6278
 4610SOL    HW125463   0.589   2.379   5.148 -1.5413  1.6923 -1.5017
 4610SOL    HW225464   0.705   2.334   5.072 -0.2754  0.7874  0.5867
 4611SOL     OW25465   3.222   1.300  16.699  0.0278  0.2965  0.2435
 4611SOL    HW125466   3.174   1.366  16.750 -0.2924  0.2121  0.0482
 4611SOL    HW225467   3.244   1.248  16.776 -0.9145 -0.5404 -0.0611
 4612SOL     OW25468   0.140   2.652   5.982  0.3230 -0.2988 -0.0743
 4612SOL    HW125469   0.164   2.728   6.035  1.4955 -0.7122 -0.0079
 4612SOL    HW225470   0.137   2.577   6.041 -0.2476 -0.1430  0.0846
 4613SOL     OW25471   4.681   3.881   5.186  0.5350 -0.0604  0.2288
 4613SOL    HW125472   4.716   3.969   5.199  2.5155 -0.8305  0.1655
 4613SOL    HW225473   0.006   3.821   5.221  0.5899 -1.2068 -1.8815
 4614SOL     OW25474   1.904   1.902  17.274 -0.3645  0.0959 -0.4051
 4614SOL    HW125475   1.995   1.934  17.273 -0.6679  0.9443 -1.2871
 4614SOL    HW225476   1.878   1.931  17.186 -0.1990  0.9702 -0.1725
 4615SOL     OW25477   1.964   3.092   7.958  0.3136  0.0731 -0.1185
 4615SOL    HW125478   1.881   3.094   8.007  2.2874  0.5755  3.1839
 4615SOL    HW225479   2.022   3.062   8.028  0.2631 -0.9449 -0.5132
 4616SOL     OW25480   0.148   1.705  13.575 -0.2239 -0.0288 -0.2889
 4616SOL    HW125481   0.074   1.665  13.621  0.8773 -0.3906  1.1634
 4616SOL    HW225482   0.169   1.639  13.509  1.1858  1.6739 -1.5379
 4617SOL     OW25483   1.215   1.937   6.987 -0.2918  0.1743 -0.1923
 4617SOL    HW125484   1.266   1.903   6.914  0.4370  0.2133  0.2964
 4617SOL    HW225485   1.145   1.980   6.938 -1.1868 -1.3418 -0.2546
 4618SOL     OW25486   4.394   2.089   5.075 -0.0450 -0.5185 -0.0471
 4618SOL    HW125487   4.421   2.056   4.989 -0.7586  0.7762 -0.7759
 4618SOL    HW225488   4.430   2.178   5.078 -0.4544 -0.3888  1.0662
 4619SOL     OW25489   4.223   1.721  16.929  0.2463 -0.1173 -0.3649
 4619SOL    HW125490   4.143   1.730  16.981  0.6016  2.8001 -0.3339
 4619SOL    HW225491   4.184   1.654  16.873  2.1821 -2.8997  1.5788
 4620SOL     OW25492   4.540   2.218   8.278  0.0689 -0.2467  0.3000
 4620SOL    HW125493   4.480   2.177   8.341 -2.1714 -0.4804 -1.9605
 4620SOL    HW225494   4.522   2.181   8.192  1.1727  1.4338 -0.6386
 4621SOL     OW25495   3.859   1.229   4.907  0.1477  0.3362  0.5329
 4621SOL    HW125496   3.823   1.143   4.929  0.5169  0.6192  2.2459
 4621SOL    HW225497   3.933   1.204   4.852 -0.4077  1.1046 -0.5750
 4622SOL     OW25498   0.990   3.527  16.156 -0.1904 -0.3957 -0.1408
 4622SOL    HW125499   1.061   3.544  16.094  1.0873 -1.3526  1.0536
 4622SOL    HW225500   0.956   3.615  16.169  1.4844  0.2133  0.1061
 4623SOL     OW25501   3.570   2.010   6.964  0.6755  0.2470 -0.4373
 4623SOL    HW125502   3.506   2.055   6.909  1.7529  0.5434 -1.4508
 4623SOL    HW225503   3.650   2.054   6.937 -0.6886  1.6609 -2.1825
 4624SOL     OW25504   0.593   1.622   2.431 -0.4523 -0.3545  0.0384
 4624SOL    HW125505   0.659   1.581   2.374  0.7784 -1.1649  2.0474
 4624SOL    HW225506   0.544   1.549   2.468 -0.9319  0.2015  0.4893
 4625SOL     OW25507   1.050   4.562   7.587 -0.4817 -0.5626  0.2989
 4625SOL    HW125508   1.056   4.542   7.494  1.9517  0.9782  0.1417
 4625SOL    HW225509   1.141   4.584   7.607 -0.6287  0.4249 -0.1261
 4626SOL     OW25510   3.711   2.859  16.647  0.0614  0.3930  0.2332
 4626SOL    HW125511   3.701   2.909  16.566 -1.4752  1.2778  0.9556
 4626SOL    HW225512   3.644   2.912  16.690 -0.0173  0.7909 -0.3882
 4627SOL     OW25513   1.063   0.746  13.440 -0.4103 -0.2121 -0.2042
 4627SOL    HW125514   1.110   0.684  13.384 -1.5792  0.3674 -1.8181
 4627SOL    HW225515   1.129   0.815  13.439 -0.3724 -0.2582 -0.8417
 4628SOL     OW25516   2.938   1.690   1.312  0.5550  0.0588 -0.4321
 4628SOL    HW125517   2.998   1.746   1.262  0.3006  1.2056  0.5350
 4628SOL    HW225518   2.920   1.757   1.378  2.4494 -0.3178  0.4572
 4629SOL     OW25519   2.982   1.796   7.524 -0.2161 -0.7266 -0.1797
 4629SOL    HW125520   2.928   1.875   7.512  1.8511  0.4520 -1.6379
 4629SOL    HW225521   2.985   1.779   7.618  2.0918  0.3309 -0.0564
 4630SOL     OW25522   1.570   0.162   8.979  0.0521  0.4505 -0.6174
 4630SOL    HW125523   1.622   0.150   8.899  0.4669  2.2431 -0.6281
 4630SOL    HW225524   1.516   0.233   8.943  2.8501  2.0156 -1.7510
 4631SOL     OW25525   1.693   0.459   1.446 -0.0597  0.6055  0.0702
 4631SOL    HW125526   1.630   0.392   1.471  2.9291 -1.4894  2.0749
 4631SOL    HW225527   1.667   0.487   1.358 -2.7735 -0.5495  0.5174
 4632SOL     OW25528   2.833   1.180   8.166  0.4517 -0.6209 -0.0707
 4632SOL    HW125529   2.823   1.252   8.228 -0.9954 -0.3628 -0.6241
 4632SOL    HW225530   2.879   1.223   8.094  1.0225  2.1792  1.9652
 4633SOL     OW25531   1.303   0.283   3.396  0.1107 -0.0286  0.2276
 4633SOL    HW125532   1.272   0.360   3.349  0.4434  0.6624  1.1244
 4633SOL    HW225533   1.229   0.252   3.448 -0.2059 -1.0964 -0.8661
 4634SOL     OW25534   2.376   3.504   0.481  0.1611 -0.7420  0.0016
 4634SOL    HW125535   2.412   3.578   0.433 -2.4674  0.1736 -0.5436
 4634SOL    HW225536   2.290   3.494   0.439  0.6802  1.3677 -1.5574
 4635SOL     OW25537   2.521   1.961   1.751  0.8112 -0.3310  0.0686
 4635SOL    HW125538   2.534   2.036   1.693 -1.9600  0.0407 -0.0509
 4635SOL    HW225539   2.497   1.886   1.696  2.1927  0.6390 -1.8823
 4636SOL     OW25540   0.972   1.032  12.231 -0.3611 -0.2890 -0.4364
 4636SOL    HW125541   1.021   0.989  12.300  0.3917  1.6818  0.2641
 4636SOL    HW225542   0.911   1.082  12.285 -0.6871 -3.4790  2.1412
 4637SOL     OW25543   4.628   0.965   2.048  0.1886 -0.0879 -0.5484
 4637SOL    HW125544   4.533   0.953   2.038  0.0919  0.6314 -0.5061
 4637SOL    HW225545   4.653   0.903   2.117 -0.0605 -0.6351 -0.9434
 4638SOL     OW25546   0.978   2.178  11.920 -0.3215  0.0076 -0.1323
 4638SOL    HW125547   1.028   2.171  12.001 -3.2438 -1.1206  1.5633
 4638SOL    HW225548   0.899   2.129  11.942  0.0465 -0.5520 -0.0665
 4639SOL     OW25549   3.269   1.000   9.099  0.3369 -0.1443 -0.1527
 4639SOL    HW125550   3.314   0.934   9.152 -3.2951 -1.6087  1.1192
 4639SOL    HW225551   3.252   0.961   9.013 -0.0298  0.6029 -0.4166
 4640SOL     OW25552   0.887   3.479   5.756 -0.5247 -0.2634  0.2188
 4640SOL    HW125553   0.793   3.470   5.739 -0.6699  1.6479 -0.0625
 4640SOL    HW225554   0.889   3.546   5.824 -2.5277  0.0381 -0.0079
 4641SOL     OW25555   3.737   0.866  11.410  0.1842 -0.6393 -0.6894
 4641SOL    HW125556   3.652   0.875  11.366  1.2098  2.0697 -2.0787
 4641SOL    HW225557   3.710   0.867  11.502 -0.5890  0.3741 -0.9319
 4642SOL     OW25558   3.084   4.093   5.420 -0.3250 -0.1870  0.4418
 4642SOL    HW125559   3.114   4.004   5.437  2.0635  0.6274  0.4581
 4642SOL    HW225560   3.138   4.143   5.482 -1.7950  2.2539 -0.2067
 4643SOL     OW25561   4.445   0.097   1.973  0.6338  0.1456  0.1671
 4643SOL    HW125562   4.491   0.019   2.003  1.4202  1.4438  2.3615
 4643SOL    HW225563   4.394   0.125   2.049 -2.3238 -1.5951 -1.1680
 4644SOL     OW25564   4.229   0.072   2.600  0.0505  0.2276  0.2288
 4644SOL    HW125565   4.322   0.046   2.602  0.3522  1.2590 -0.2295
 4644SOL    HW225566   4.245   0.165   2.584 -0.4043  0.5552  1.7267
 4645SOL     OW25567   3.282   2.983   7.593  0.3241  0.0279  0.2790
 4645SOL    HW125568   3.264   3.074   7.571 -0.6375 -0.4316 -0.8771
 4645SOL    HW225569   3.314   2.987   7.683  1.3951 -1.5903 -0.0174
 4646SOL     OW25570   4.546   1.269  11.802  0.0225  0.4456 -0.3610
 4646SOL    HW125571   4.499   1.188  11.818 -1.2334  0.6659 -2.9553
 4646SOL    HW225572   4.638   1.241  11.798  0.2462  1.0178  0.8964
 4647SOL     OW25573   4.559   3.481   1.776  0.1593  0.1757  0.5168
 4647SOL    HW125574   4.495   3.545   1.806 -0.8340 -0.3005 -0.5720
 4647SOL    HW225575   4.571   3.432   1.857 -0.8349 -0.4171  0.3010
 4648SOL     OW25576   2.025   3.598   7.219 -0.0758  0.1290 -0.1344
 4648SOL    HW125577   1.979   3.678   7.246  0.1188  0.6738 -1.3874
 4648SOL    HW225578   2.075   3.634   7.145 -1.4313  1.6261 -0.3165
 4649SOL     OW25579   3.484   4.211   4.359  0.4549  0.3296 -0.2817
 4649SOL    HW125580   3.559   4.222   4.419  0.1790  2.4361 -0.3220
 4649SOL    HW225581   3.441   4.296   4.358  0.1039  0.2081  2.3522
 4650SOL     OW25582   1.180   3.466  10.503 -0.3186 -0.0509  0.2724
 4650SOL    HW125583   1.210   3.530  10.567 -0.4809  0.7491 -0.4514
 4650SOL    HW225584   1.231   3.492  10.426  0.9942 -0.0797  1.1228
 4651SOL     OW25585   0.837   3.112   0.216 -0.1579 -0.1860 -0.5988
 4651SOL    HW125586   0.881   3.029   0.195  1.5895  0.3332  1.0945
 4651SOL    HW225587   0.783   3.126   0.137  0.7344  0.6400 -1.0522
 4652SOL     OW25588   1.057   2.046  13.543  0.8376 -0.0219  0.1364
 4652SOL    HW125589   0.984   1.985  13.531  1.0388 -0.5929  1.8304
 4652SOL    HW225590   1.010   2.129  13.546 -1.1057 -0.9178 -4.6037
 4653SOL     OW25591   1.445   3.096  12.359 -0.1447 -0.5491 -0.4377
 4653SOL    HW125592   1.436   3.042  12.437  0.9045  1.8988  1.3875
 4653SOL    HW225593   1.436   3.033  12.288  1.3716 -0.2576 -0.9004
 4654SOL     OW25594   3.129   4.666   0.080  0.2316  0.6488  0.8745
 4654SOL    HW125595   3.184   4.729   0.127  1.2370 -0.3043  0.9831
 4654SOL    HW225596   3.187   4.591   0.064 -1.5034 -0.5925  0.3802
 4655SOL     OW25597   1.666   1.281   9.454 -0.1905 -0.1091  0.5462
 4655SOL    HW125598   1.722   1.238   9.519 -1.1311  0.1495  1.5336
 4655SOL    HW225599   1.599   1.311   9.515  0.3639  0.0686  1.0633
 4656SOL     OW25600   3.440   4.568   8.173 -0.1093  0.1973  0.6022
 4656SOL    HW125601   3.451   4.632   8.244  0.5783  0.8534 -0.0915
 4656SOL    HW225602   3.520   4.518   8.189  0.1479  0.4055 -0.0120
 4657SOL     OW25603   1.394   1.982  14.398  0.2311 -0.3211  0.3960
 4657SOL    HW125604   1.429   1.923  14.331  0.8253  2.5222 -1.8489
 4657SOL    HW225605   1.402   2.067  14.354 -0.9432 -0.4707 -0.1154
 4658SOL     OW25606   3.652   3.924   0.018  0.4135  0.1290  0.4139
 4658SOL    HW125607   3.650   4.018   0.033  1.0549  0.3196 -0.6907
 4658SOL    HW225608   3.742   3.920  17.746  0.0079  0.2576 -0.7024
 4659SOL     OW25609   1.660   1.878   6.249  0.0883  0.3002 -0.1581
 4659SOL    HW125610   1.696   1.966   6.261 -0.3693  0.7804 -2.2828
 4659SOL    HW225611   1.656   1.848   6.340 -1.5570 -0.3043 -0.4419
 4660SOL     OW25612   4.606   2.208   7.227  0.6172  0.1702  0.2605
 4660SOL    HW125613   4.521   2.252   7.236  0.2376 -0.8643  1.8413
 4660SOL    HW225614   4.642   2.257   7.154 -2.7744 -2.3853 -3.1347
 4661SOL     OW25615   1.487   0.324   6.579  0.0076  0.0333 -0.1875
 4661SOL    HW125616   1.436   0.404   6.595 -0.7904 -0.0267 -2.4754
 4661SOL    HW225617   1.576   0.354   6.596 -0.2924  0.2273  1.0319
 4662SOL     OW25618   2.636   0.743  10.015 -0.0562 -0.4151 -0.2791
 4662SOL    HW125619   2.700   0.814  10.028  0.9270 -1.5737  1.1746
 4662SOL    HW225620   2.560   0.800  10.001  0.2613 -0.3749 -1.8219
 4663SOL     OW25621   0.515   0.015   3.606  0.1324  0.3714 -0.0479
 4663SOL    HW125622   0.433   0.044   3.568  1.7299  2.3823 -1.9901
 4663SOL    HW225623   0.491   4.669   3.636 -0.4028 -0.1613 -2.0391
 4664SOL     OW25624   0.440   4.271  13.651  0.1055  0.0683 -0.8758
 4664SOL    HW125625   0.408   4.358  13.677 -1.4425 -1.1203  1.2563
 4664SOL    HW225626   0.489   4.238  13.727 -0.1958  2.0166  0.1752
 4665SOL     OW25627   0.463   0.354   5.524  0.2331  0.0432 -0.1818
 4665SOL    HW125628   0.392   0.410   5.554 -1.1270  0.3684 -3.9758
 4665SOL    HW225629   0.434   0.266   5.549 -3.1130  0.8780 -1.0945
 4666SOL     OW25630   3.020   2.606   9.778  0.4508 -0.1774  0.4960
 4666SOL    HW125631   3.110   2.617   9.748 -0.4650 -0.4981 -2.3442
 4666SOL    HW225632   2.985   2.553   9.707 -1.2140  1.7851 -0.1746
 4667SOL     OW25633   3.436   0.890   7.753 -0.1395 -0.2561  0.2401
 4667SOL    HW125634   3.395   0.804   7.747 -1.4830  0.3782  0.2721
 4667SOL    HW225635   3.459   0.901   7.661  2.0962 -0.2406  0.8128
 4668SOL     OW25636   0.758   1.842   4.697 -0.5313  0.1521 -0.3143
 4668SOL    HW125637   0.685   1.802   4.744 -0.1963  1.3157  1.1973
 4668SOL    HW225638   0.835   1.796   4.731 -0.2110  2.7764  2.4671
 4669SOL     OW25639   0.329   3.818   9.564 -0.4724  0.0161  0.4099
 4669SOL    HW125640   0.357   3.906   9.589  4.4059 -1.1520 -0.9027
 4669SOL    HW225641   0.404   3.766   9.593 -0.4843  0.0482  0.4974
 4670SOL     OW25642   0.325   1.660   5.174 -0.1014 -0.0374  0.2058
 4670SOL    HW125643   0.409   1.651   5.219  0.1504 -1.5997 -0.5894
 4670SOL    HW225644   0.342   1.732   5.113  1.9025  0.6160  1.5156
 4671SOL     OW25645   1.754   2.137   5.699 -0.5122 -0.4992  0.4615
 4671SOL    HW125646   1.672   2.184   5.691 -0.9720 -1.2001  1.0526
 4671SOL    HW225647   1.718   2.052   5.723  1.1034 -1.3772 -0.2316
 4672SOL     OW25648   4.212   4.180   3.465 -0.0970 -0.2725  0.5373
 4672SOL    HW125649   4.144   4.220   3.520 -1.0529 -0.3656 -0.5883
 4672SOL    HW225650   4.285   4.216   3.515 -1.3258  0.6973  1.6546
 4673SOL     OW25651   4.612   2.896   8.636  0.0635 -0.3213  0.4782
 4673SOL    HW125652   4.581   2.842   8.709 -2.3358  0.3331 -0.0364
 4673SOL    HW225653   4.652   2.965   8.690  0.7412  0.2276 -0.7391
 4674SOL     OW25654   1.760   0.007   5.307 -0.0621  0.8828  0.2932
 4674SOL    HW125655   1.706   4.740   5.386 -0.9619 -0.8188 -0.5015
 4674SOL    HW225656   1.802   4.662   5.303 -0.3838  0.6198  2.4038
 4675SOL     OW25657   2.776   3.280   0.328 -0.1966 -0.1826 -0.2735
 4675SOL    HW125658   2.746   3.322   0.409 -0.7540  0.1873 -0.6714
 4675SOL    HW225659   2.746   3.190   0.335 -1.1992  0.2618  1.1930
 4676SOL     OW25660   0.319   4.617   6.250 -0.1108 -0.0622 -0.1745
 4676SOL    HW125661   0.408   4.601   6.218 -0.2476  2.2715 -1.6744
 4676SOL    HW225662   0.326   4.709   6.225  0.7948  0.4358  1.8673
 4677SOL     OW25663   2.020   3.960  15.446  0.4403 -0.4837  0.2967
 4677SOL    HW125664   2.070   4.007  15.379  0.5558  0.3184  0.9441
 4677SOL    HW225665   2.002   4.028  15.510 -0.0863 -0.4770  0.1381
 4678SOL     OW25666   3.267   0.533   2.474  0.1305  0.4970  0.5570
 4678SOL    HW125667   3.186   0.544   2.424  0.3918  1.0245  0.2550
 4678SOL    HW225668   3.229   0.541   2.562 -0.5785 -1.0168  0.3875
 4679SOL     OW25669   4.136   0.889   6.835 -0.2288 -0.4858 -0.4005
 4679SOL    HW125670   4.129   0.815   6.775 -1.2488  0.3296 -1.2716
 4679SOL    HW225671   4.208   0.871   6.896  0.4966 -0.3837 -1.2306
 4680SOL     OW25672   0.813   0.994   0.063  0.0649  0.1503 -0.7437
 4680SOL    HW125673   0.730   1.035   0.088  0.8614  2.2673 -1.5551
 4680SOL    HW225674   0.880   1.062   0.067  0.4116 -0.2050 -0.5304
 4681SOL     OW25675   4.274   2.746  11.598 -0.1055 -0.6214  0.7216
 4681SOL    HW125676   4.294   2.729  11.506 -0.3042  2.3761  0.0997
 4681SOL    HW225677   4.219   2.670  11.616  0.7607 -2.0436 -2.6609
 4682SOL     OW25678   3.919   1.554  13.771 -0.4279  0.6394 -0.8468
 4682SOL    HW125679   3.851   1.599  13.821  0.0316 -1.5400  1.7442
 4682SOL    HW225680   3.926   1.478  13.828 -0.9907  1.2357  0.0363
 4683SOL     OW25681   3.597   3.438   1.388  0.8353  0.2323  0.4634
 4683SOL    HW125682   3.517   3.474   1.425 -0.1401 -2.0429  0.5607
 4683SOL    HW225683   3.600   3.357   1.439  1.2041 -0.8717 -1.2952
 4684SOL     OW25684   0.160   1.204   4.041 -0.8394  0.6153 -0.5370
 4684SOL    HW125685   0.205   1.130   4.081 -2.8239 -0.2904  0.0039
 4684SOL    HW225686   0.076   1.167   4.013 -0.0950 -1.3570 -0.2081
 4685SOL     OW25687   1.282   0.279  17.495  0.0144  0.0252 -0.1078
 4685SOL    HW125688   1.247   0.215  17.556  0.0667 -0.7927 -0.9537
 4685SOL    HW225689   1.351   0.313  17.553 -0.8700 -2.5613  2.4620
 4686SOL     OW25690   1.247   3.315   3.740  0.1620 -0.1350  0.1249
 4686SOL    HW125691   1.312   3.382   3.762 -3.2739  2.7010  1.6400
 4686SOL    HW225692   1.217   3.295   3.829  1.6591 -1.7967  0.2651
 4687SOL     OW25693   3.840   0.236  16.223 -0.3670 -0.0133 -0.3377
 4687SOL    HW125694   3.820   0.167  16.285 -1.2101  1.3410  0.8975
 4687SOL    HW225695   3.820   0.314  16.275  1.4675 -0.0019  0.3428
 4688SOL     OW25696   3.484   1.723  17.245 -0.0265 -0.0116 -0.2957
 4688SOL    HW125697   3.444   1.722  17.332 -0.5782 -2.3665 -0.5700
 4688SOL    HW225698   3.553   1.657  17.236 -2.0759 -2.1568 -0.3887
 4689SOL     OW25699   2.217   4.148   9.382 -0.0675 -0.1410 -0.3382
 4689SOL    HW125700   2.142   4.090   9.392  0.6728 -0.8598  1.1135
 4689SOL    HW225701   2.205   4.213   9.451  0.6635  0.9442 -1.2485
 4690SOL     OW25702   2.084   1.847  16.555  0.5302  0.2939  0.9319
 4690SOL    HW125703   2.114   1.936  16.574 -0.5787  1.5414 -3.1143
 4690SOL    HW225704   2.041   1.838  16.640 -0.7546 -1.0110  0.1362
 4691SOL     OW25705   1.601   0.895  11.859  0.0444  0.8804  0.1279
 4691SOL    HW125706   1.526   0.884  11.917 -0.5041  1.8332 -0.4011
 4691SOL    HW225707   1.557   0.911  11.776 -1.0996  1.2196  0.8058
 4692SOL     OW25708   2.482   3.404   3.636 -0.3102 -0.0153  0.0950
 4692SOL    HW125709   2.577   3.394   3.630 -0.2505  1.0026 -0.6713
 4692SOL    HW225710   2.468   3.469   3.705  0.7954 -1.0935  1.3369
 4693SOL     OW25711   0.478   3.945   7.781 -0.2190  0.0021 -0.0956
 4693SOL    HW125712   0.418   3.994   7.725  1.3377  0.3119 -1.5139
 4693SOL    HW225713   0.552   4.007   7.783  1.2159 -1.6740 -1.0251
 4694SOL     OW25714   3.466   4.014   2.689  0.0387 -0.3295 -0.5893
 4694SOL    HW125715   3.402   3.956   2.731  0.0825 -0.8263 -1.1953
 4694SOL    HW225716   3.502   4.065   2.761  0.2745 -1.3929  0.0521
 4695SOL     OW25717   4.611   1.755  17.523  0.0058 -0.1414 -0.0310
 4695SOL    HW125718   4.595   1.732  17.614  1.5198 -0.1689  0.2283
 4695SOL    HW225719   4.602   1.669  17.483 -1.2211 -0.2826  0.5484
 4696SOL     OW25720   3.014   0.259  15.697 -0.1961 -0.1194 -0.4588
 4696SOL    HW125721   3.030   0.308  15.616  0.6132  0.9002  0.3039
 4696SOL    HW225722   3.029   0.324  15.766 -2.1757  0.4328 -0.5518
 4697SOL     OW25723   4.216   1.419  17.255  0.2841  0.0596  0.1006
 4697SOL    HW125724   4.139   1.440  17.202  0.3023 -0.3080 -0.0702
 4697SOL    HW225725   4.261   1.356  17.199 -1.2237 -1.7686  0.9574
 4698SOL     OW25726   3.771   2.899   6.753  0.3152 -0.3879 -0.1483
 4698SOL    HW125727   3.793   2.956   6.680  0.4063  2.7450  2.3357
 4698SOL    HW225728   3.846   2.840   6.744  0.0101 -0.7053 -0.6179
 4699SOL     OW25729   1.607   2.208  14.023 -0.2664 -0.0588 -0.3863
 4699SOL    HW125730   1.627   2.125  13.980  0.2594 -0.5148  0.7308
 4699SOL    HW225731   1.614   2.274  13.954 -1.8711  0.7480  0.1999
 4700SOL     OW25732   2.673   2.397   6.376 -0.1096  0.1123  0.4907
 4700SOL    HW125733   2.718   2.327   6.329  1.2225  1.2483  0.0632
 4700SOL    HW225734   2.743   2.462   6.382 -0.9494  0.9143  1.6220
 4701SOL     OW25735   4.497   1.653  15.165 -0.1784 -0.2668  0.3889
 4701SOL    HW125736   4.421   1.647  15.108 -0.6174 -2.7113  1.1963
 4701SOL    HW225737   4.465   1.730  15.212  0.1337 -0.1216  0.3652
 4702SOL     OW25738   1.335   3.419   7.219 -0.0596 -0.3180  0.1193
 4702SOL    HW125739   1.410   3.384   7.171  0.0355 -2.3509  1.7470
 4702SOL    HW225740   1.330   3.365   7.298  2.4692  0.4657  0.8044
 4703SOL     OW25741   2.454   0.442   8.660  0.3705  0.0959 -0.2494
 4703SOL    HW125742   2.476   0.484   8.743 -0.3596  0.8510 -0.4450
 4703SOL    HW225743   2.367   0.479   8.649 -0.2946 -1.3138  0.3396
 4704SOL     OW25744   2.699   3.059  16.394  0.0598  0.2155 -0.2073
 4704SOL    HW125745   2.705   2.976  16.441 -2.6979 -0.6867 -1.4214
 4704SOL    HW225746   2.709   3.039  16.301  0.7393  1.6310 -0.4337
 4705SOL     OW25747   3.824   0.973   2.407  0.3276  0.3224 -0.1456
 4705SOL    HW125748   3.752   0.960   2.346  1.4572  0.1337 -1.4419
 4705SOL    HW225749   3.797   0.916   2.479  0.9494  0.3452  0.1029
 4706SOL     OW25750   0.418   3.971   7.285  0.0416 -0.2670  0.3679
 4706SOL    HW125751   0.361   3.894   7.292  0.9424 -1.2100 -2.3643
 4706SOL    HW225752   0.442   3.984   7.193  1.5479  2.0151  1.0931
 4707SOL     OW25753   4.424   4.665   2.827  0.6891  0.5288  0.6920
 4707SOL    HW125754   4.410   4.637   2.917 -0.7911 -0.0440  0.2813
 4707SOL    HW225755   4.468   4.591   2.786  0.1811  0.7609 -0.2585
 4708SOL     OW25756   4.711   0.477  13.778  0.4422  0.3259 -0.2333
 4708SOL    HW125757   4.667   0.398  13.746 -0.0243 -1.2202  4.1432
 4708SOL    HW225758   4.658   0.490  13.857  1.8897  2.5330  0.3680
 4709SOL     OW25759   0.596   1.032  12.206  0.5979 -0.0515  0.7142
 4709SOL    HW125760   0.590   1.031  12.111  0.8461 -1.6964  0.7149
 4709SOL    HW225761   0.599   0.938  12.224  1.3122 -0.4948 -1.7539
 4710SOL     OW25762   0.747   4.037  12.465 -0.2102  0.6374  0.6503
 4710SOL    HW125763   0.822   4.063  12.518  0.2247  0.7385 -0.0096
 4710SOL    HW225764   0.795   4.043  12.382 -0.1426  1.5138  0.7510
 4711SOL     OW25765   4.733   3.547   1.245  0.0592 -0.0281 -0.5960
 4711SOL    HW125766   0.044   3.499   1.180 -1.0099  1.7290 -2.7338
 4711SOL    HW225767   4.720   3.483   1.315  0.4558  0.5630  0.0098
 4712SOL     OW25768   1.846   3.295   7.740 -0.1588  0.1522  0.2516
 4712SOL    HW125769   1.900   3.244   7.800 -1.8583 -2.7548 -0.6993
 4712SOL    HW225770   1.894   3.292   7.657  1.2336  0.2146  1.0598
 4713SOL     OW25771   3.654   2.371   0.166  0.3863 -0.1153  0.0900
 4713SOL    HW125772   3.609   2.399   0.246 -0.1977  2.4774 -1.1362
 4713SOL    HW225773   3.736   2.342   0.204  0.4400  0.2508  0.2541
 4714SOL     OW25774   1.798   2.984   2.494  0.4430 -0.1393 -0.2437
 4714SOL    HW125775   1.713   3.006   2.532 -0.1131 -0.1922 -1.4544
 4714SOL    HW225776   1.778   3.004   2.403  0.8429  3.0227  0.3622
 4715SOL     OW25777   4.143   4.646  10.670  0.2319  0.4443 -0.2807
 4715SOL    HW125778   4.102   4.590  10.605  1.1818 -2.6204  1.7351
 4715SOL    HW225779   4.090   4.615  10.744 -0.5432 -2.9823 -2.2661
 4716SOL     OW25780   3.870   3.061   2.731  0.0411  0.0810 -0.5866
 4716SOL    HW125781   3.915   2.979   2.752  1.7836  0.9217 -1.0403
 4716SOL    HW225782   3.837   3.042   2.643  0.2326  1.1750 -0.8936
 4717SOL     OW25783   1.316   1.920  13.501  0.5318 -0.3967 -0.5478
 4717SOL    HW125784   1.382   1.962  13.555 -1.5030  1.6645  0.3331
 4717SOL    HW225785   1.231   1.951  13.533 -0.0639 -0.7727 -1.7511
 4718SOL     OW25786   1.451   2.049   1.054 -0.2378  0.0426 -0.8165
 4718SOL    HW125787   1.461   2.041   0.959 -2.6177 -2.7795 -0.8078
 4718SOL    HW225788   1.539   2.068   1.087 -0.7341  0.7034  0.1248
 4719SOL     OW25789   0.467   2.057   2.410 -0.1140  0.2196 -0.8030
 4719SOL    HW125790   0.395   2.074   2.349  1.3697 -1.0598 -2.9204
 4719SOL    HW225791   0.466   1.962   2.420  1.4662  0.1699 -1.1716
 4720SOL     OW25792   2.852   2.695   4.411 -0.4407 -0.2483 -0.4011
 4720SOL    HW125793   2.782   2.681   4.347  0.1451 -0.2755 -1.0354
 4720SOL    HW225794   2.919   2.733   4.354  0.7813 -0.4294  0.9133
 4721SOL     OW25795   2.419   4.485   8.989  0.5425  0.0674  0.0341
 4721SOL    HW125796   2.425   4.528   8.904 -2.2205  1.4672  0.5360
 4721SOL    HW225797   2.423   4.567   9.039 -0.6802  0.8086 -1.0663
 4722SOL     OW25798   2.118   4.308   3.956 -0.1746  0.2923  0.2830
 4722SOL    HW125799   2.022   4.304   3.962 -0.2663 -1.3201 -2.6631
 4722SOL    HW225800   2.116   4.327   3.862  0.2660 -0.0712  0.2020
 4723SOL     OW25801   3.045   3.755   1.989  0.6932  0.3429 -0.2677
 4723SOL    HW125802   3.105   3.696   2.033 -0.4450 -1.1807 -0.7676
 4723SOL    HW225803   3.103   3.824   1.956  0.4401 -0.1335 -1.6940
 4724SOL     OW25804   2.960   2.897  16.697  0.7318 -0.4786  0.0332
 4724SOL    HW125805   3.003   2.966  16.647  0.3092 -0.1214  0.1614
 4724SOL    HW225806   2.962   2.940  16.782 -0.8379 -2.6779  1.1870
 4725SOL     OW25807   0.985   3.055   8.864  0.1076  0.0763 -0.0271
 4725SOL    HW125808   0.977   3.025   8.773 -0.6236 -3.3975  1.1782
 4725SOL    HW225809   1.079   3.037   8.870  0.4868  2.0911 -0.2266
 4726SOL     OW25810   3.402   0.952  11.085  0.0912  0.7135  0.1331
 4726SOL    HW125811   3.441   0.874  11.123  0.2087 -0.7651 -3.0299
 4726SOL    HW225812   3.307   0.935  11.088  0.1240  0.5992  0.5491
 4727SOL     OW25813   0.382   0.542   1.623  0.3100 -0.3002 -0.1777
 4727SOL    HW125814   0.412   0.506   1.540 -0.3995  1.2607 -1.1293
 4727SOL    HW225815   0.392   0.468   1.682  0.7429  0.0571  0.1973
 4728SOL     OW25816   1.395   4.146   5.492 -0.0395  0.0668 -0.4019
 4728SOL    HW125817   1.330   4.081   5.463 -0.7475 -0.4051  2.2172
 4728SOL    HW225818   1.381   4.150   5.586  1.5731 -1.5019 -0.0968
 4729SOL     OW25819   4.654   4.705  14.241  0.7663 -0.1228  0.6678
 4729SOL    HW125820   4.591   0.001  14.302 -1.1987 -0.9047 -0.8647
 4729SOL    HW225821   4.608   4.710  14.156 -0.0433  1.2574  1.1889
 4730SOL     OW25822   1.040   4.567   1.538 -0.8050 -0.3536  0.1467
 4730SOL    HW125823   1.122   4.565   1.487  0.3987 -1.4581  2.1337
 4730SOL    HW225824   1.062   4.643   1.591  0.8931  0.4560 -1.7007
 4731SOL     OW25825   2.099   2.823   3.127 -0.2493  0.0795 -0.2225
 4731SOL    HW125826   2.053   2.892   3.080 -1.1620 -0.4446 -0.0960
 4731SOL    HW225827   2.159   2.867   3.186 -1.7796 -0.8541  2.0153
 4732SOL     OW25828   2.545   1.486   1.656  0.0743 -0.4881 -0.1954
 4732SOL    HW125829   2.523   1.459   1.745 -0.6323  1.6945  0.2746
 4732SOL    HW225830   2.604   1.562   1.658  1.7260 -1.7572 -0.3803
 4733SOL     OW25831   0.432   3.947   2.060  0.1560 -0.5567  0.4218
 4733SOL    HW125832   0.488   3.912   1.991 -0.5631 -1.9364  0.5487
 4733SOL    HW225833   0.342   3.945   2.028  0.9403 -0.1905 -1.8432
 4734SOL     OW25834   2.335   2.884   3.302  1.0772 -0.2732 -0.1279
 4734SOL    HW125835   2.428   2.865   3.316  1.5867  2.7854  0.7022
 4734SOL    HW225836   2.303   2.827   3.371 -0.0747 -1.8659 -1.9654
 4735SOL     OW25837   0.717   0.496   4.223  0.2114 -0.6947 -0.4410
 4735SOL    HW125838   0.809   0.486   4.247  0.8441 -0.4351 -2.7712
 4735SOL    HW225839   0.692   0.407   4.196 -0.4068 -0.2119 -1.4647
 4736SOL     OW25840   2.741   0.520   5.660 -0.3612 -0.2113 -0.4618
 4736SOL    HW125841   2.719   0.593   5.717  0.8070 -0.3997  0.2123
 4736SOL    HW225842   2.741   0.449   5.725 -2.8259  1.1769  1.0526
 4737SOL     OW25843   0.418   0.630   1.164  0.4923  0.1462 -0.2659
 4737SOL    HW125844   0.428   0.546   1.119 -0.6702  0.7719 -1.7225
 4737SOL    HW225845   0.497   0.662   1.120 -0.7782  1.7624 -1.3835
 4738SOL     OW25846   1.260   2.075   3.068 -0.5325 -0.0948 -0.5565
 4738SOL    HW125847   1.274   2.111   2.981 -2.5420 -1.3832 -1.4160
 4738SOL    HW225848   1.250   2.151   3.126  2.7288  0.0330 -0.1500
 4739SOL     OW25849   3.097   3.462  16.204 -0.3297  0.1357  0.3838
 4739SOL    HW125850   3.144   3.474  16.287 -0.4853  0.9181  0.3599
 4739SOL    HW225851   3.143   3.531  16.156 -1.9083  0.3398 -0.8208
 4740SOL     OW25852   1.764   4.043   4.114 -0.4540 -0.4195  0.1590
 4740SOL    HW125853   1.822   3.988   4.167 -0.8036 -1.8408 -0.9333
 4740SOL    HW225854   1.685   4.040   4.168  0.1796  2.8204  1.2549
 4741SOL     OW25855   2.820   2.157   5.790  0.4915 -0.6267 -0.2355
 4741SOL    HW125856   2.751   2.104   5.749  2.1657 -2.2084 -1.0007
 4741SOL    HW225857   2.771   2.222   5.840 -0.0030 -1.1229 -0.0731
 4742SOL     OW25858   3.951   1.214   4.386  0.5242 -0.5383 -0.6173
 4742SOL    HW125859   3.913   1.192   4.471  0.5982 -0.6363 -0.6088
 4742SOL    HW225860   4.045   1.198   4.392  0.8061  0.8403 -1.4700
 4743SOL     OW25861   1.404   2.683  10.657  0.1178 -0.0027  0.5945
 4743SOL    HW125862   1.350   2.664  10.734 -0.0348  1.5634  0.8751
 4743SOL    HW225863   1.363   2.627  10.591  0.1809  0.1739  0.4019
 4744SOL     OW25864   0.839   3.678   5.930  0.1768 -0.3395  0.2269
 4744SOL    HW125865   0.892   3.751   5.964  1.4853 -1.3993  0.4695
 4744SOL    HW225866   0.752   3.700   5.964  0.1727 -2.0098  1.2893
 4745SOL     OW25867   4.232   2.406   1.771 -0.3638  1.0030 -0.1856
 4745SOL    HW125868   4.150   2.410   1.722 -1.4499 -1.6555  1.4025
 4745SOL    HW225869   4.224   2.315   1.800 -0.6392  0.6034 -1.5360
 4746SOL     OW25870   2.461   3.680   3.763  0.3452 -0.0003 -0.5817
 4746SOL    HW125871   2.369   3.662   3.781  1.5178 -2.8017  2.7060
 4746SOL    HW225872   2.454   3.745   3.694  1.7352  1.4620  0.6550
 4747SOL     OW25873   3.214   1.068   4.395  0.4344  0.3591 -0.3007
 4747SOL    HW125874   3.182   1.106   4.476  0.8001  1.3247 -0.6122
 4747SOL    HW225875   3.293   1.025   4.429  0.3795  0.3071 -0.2390
 4748SOL     OW25876   3.638   3.160   8.009 -0.2288 -0.2851 -0.5386
 4748SOL    HW125877   3.603   3.154   7.920 -0.3897  0.4159 -0.5170
 4748SOL    HW225878   3.593   3.240   8.036  0.2788 -0.8502  1.9814
 4749SOL     OW25879   2.541   1.467  16.554 -0.0599 -0.4001 -0.5244
 4749SOL    HW125880   2.453   1.498  16.574  0.4055  1.3339 -1.1733
 4749SOL    HW225881   2.532   1.450  16.461  0.4191  2.7839 -1.1283
 4750SOL     OW25882   3.431   2.580   4.101  0.8732  0.4903  0.6006
 4750SOL    HW125883   3.492   2.511   4.127  0.8464  0.2069 -0.0742
 4750SOL    HW225884   3.382   2.540   4.029 -0.1780 -0.2983  1.7438
 4751SOL     OW25885   4.110   3.752   0.965  0.8263  0.2155  0.0712
 4751SOL    HW125886   4.041   3.698   1.004  2.4534  0.9184  3.9205
 4751SOL    HW225887   4.077   3.832   0.923 -0.4038  0.2304  1.0673
 4752SOL     OW25888   3.403   2.131  11.053  0.4743  0.3336 -0.1726
 4752SOL    HW125889   3.377   2.098  11.139  0.8331  1.5517  0.4090
 4752SOL    HW225890   3.453   2.061  11.013  1.4133 -0.7491  2.8404
 4753SOL     OW25891   2.929   0.220   6.175  0.8472  0.0087 -0.2841
 4753SOL    HW125892   2.938   0.133   6.135  2.4546  0.5356 -1.0600
 4753SOL    HW225893   2.961   0.193   6.261 -0.5035 -0.0079  0.2166
 4754SOL     OW25894   3.405   0.658   5.535 -0.0483  0.6322 -0.7068
 4754SOL    HW125895   3.479   0.609   5.569 -1.4332 -1.4960 -0.7304
 4754SOL    HW225896   3.365   0.680   5.619  1.1868  0.1731 -0.0115
 4755SOL     OW25897   2.812   3.576   0.666 -0.0531 -0.4203 -0.2292
 4755SOL    HW125898   2.897   3.539   0.644  0.0262 -2.0076  2.8053
 4755SOL    HW225899   2.752   3.502   0.657  0.8244 -1.3884  1.9658
 4756SOL     OW25900   0.501   3.939   7.002 -0.6736  0.4026  0.2518
 4756SOL    HW125901   0.556   3.869   7.037 -0.5364  0.3743 -0.0203
 4756SOL    HW225902   0.487   3.914   6.910 -1.7637 -1.0213  0.7902
 4757SOL     OW25903   2.056   1.991  15.200  0.6397  0.2364 -0.0424
 4757SOL    HW125904   2.088   1.901  15.195 -0.1529 -0.0467 -0.1104
 4757SOL    HW225905   1.980   1.981  15.258  2.6418  1.1099  2.7797
 4758SOL     OW25906   2.324   0.100   4.541 -0.2029  0.2923 -0.3386
 4758SOL    HW125907   2.405   0.066   4.504  0.0627 -0.1797  0.6693
 4758SOL    HW225908   2.348   0.116   4.632 -0.3479 -0.0822 -0.2364
 4759SOL     OW25909   4.014   1.168   9.192  0.1680  0.1489  0.4873
 4759SOL    HW125910   4.018   1.257   9.158  0.9843  1.0392  2.9815
 4759SOL    HW225911   3.919   1.174   9.202 -0.3746 -1.7000 -3.3268
 4760SOL     OW25912   4.677   0.669  16.131  0.1457 -1.2687  0.0308
 4760SOL    HW125913   4.714   0.612  16.063 -2.4939 -1.3753 -1.3477
 4760SOL    HW225914   0.010   0.716  16.168  0.1366 -0.8647 -0.4602
 4761SOL     OW25915   2.289   2.423   9.587  0.8602  1.1862  0.1565
 4761SOL    HW125916   2.329   2.345   9.548  1.5949  0.2042  2.8454
 4761SOL    HW225917   2.284   2.493   9.522  1.5069  0.8149 -0.2902
 4762SOL     OW25918   3.622   3.493  13.836  0.1659 -0.4499  0.2116
 4762SOL    HW125919   3.584   3.406  13.827 -2.2216  0.5856  0.4778
 4762SOL    HW225920   3.582   3.505  13.922 -0.1800  0.1919 -0.0420
 4763SOL     OW25921   0.858   0.251   4.304  0.5268 -0.6214 -0.2750
 4763SOL    HW125922   0.797   0.189   4.345 -1.3902  0.6958 -1.0920
 4763SOL    HW225923   0.919   0.255   4.377 -0.2803  0.1423  0.3659
 4764SOL     OW25924   2.585   3.561   7.140  0.1220  0.0748 -0.3249
 4764SOL    HW125925   2.553   3.482   7.184  3.2306 -0.3940  1.1334
 4764SOL    HW225926   2.504   3.602   7.110 -0.9726 -0.0555  2.5304
 4765SOL     OW25927   4.221   2.316   6.344 -0.2249  0.1626  0.6120
 4765SOL    HW125928   4.289   2.287   6.404  0.2341  2.0165  0.9796
 4765SOL    HW225929   4.263   2.288   6.263  0.0213  1.8136  0.1634
 4766SOL     OW25930   0.385   0.336   7.883  0.1235 -0.5155  0.0834
 4766SOL    HW125931   0.368   0.386   7.804 -1.7408  0.3208  1.0111
 4766SOL    HW225932   0.295   0.311   7.905  1.0867 -1.4860  2.9966
 4767SOL     OW25933   1.134   2.923   3.564  0.0319 -0.5987 -1.2620
 4767SOL    HW125934   1.074   2.990   3.531 -2.4025 -1.5356  1.2159
 4767SOL    HW225935   1.218   2.968   3.568  0.7845 -1.9296 -1.8735
 4768SOL     OW25936   0.154   1.338   5.764  0.5339 -0.0295  0.0548
 4768SOL    HW125937   0.229   1.278   5.763  0.6783  0.1143  1.6060
 4768SOL    HW225938   0.103   1.305   5.690  0.3461 -0.4968  0.3923
 4769SOL     OW25939   1.867   3.307   8.914 -0.0091  0.2490  0.4282
 4769SOL    HW125940   1.782   3.348   8.902  0.0907  0.2894 -0.1746
 4769SOL    HW225941   1.822   3.223   8.917  0.9405 -0.2895 -0.1801
 4770SOL     OW25942   3.570   2.323   3.794  0.1729  0.4670  0.1728
 4770SOL    HW125943   3.505   2.262   3.759 -1.2341  2.1905 -0.2249
 4770SOL    HW225944   3.518   2.403   3.798  2.1552  1.8480 -1.4080
 4771SOL     OW25945   2.448   1.427   2.828  0.0479 -0.1816 -0.7119
 4771SOL    HW125946   2.369   1.372   2.825  0.4449 -0.7868  0.0735
 4771SOL    HW225947   2.429   1.489   2.758 -1.8562  1.3569  1.1459
 4772SOL     OW25948   3.999   0.890   5.128  0.4864 -0.3181 -0.0151
 4772SOL    HW125949   3.921   0.915   5.079  1.3112  1.4998 -0.4245
 4772SOL    HW225950   4.063   0.946   5.082 -1.7652  1.5344 -0.8794
 4773SOL     OW25951   4.657   2.851   2.462  0.0125 -0.0948 -0.3644
 4773SOL    HW125952   4.637   2.932   2.414  0.6562  0.1321 -0.2546
 4773SOL    HW225953   4.599   2.793   2.413 -0.3969 -0.5818  0.6883
 4774SOL     OW25954   4.132   2.991   3.443 -0.2503 -0.1832  0.2143
 4774SOL    HW125955   4.053   2.977   3.495  0.9596 -1.7410  1.6134
 4774SOL    HW225956   4.139   2.918   3.382 -1.0902  1.9271 -2.4374
 4775SOL     OW25957   3.540   0.209   7.137  0.0805 -0.7179  0.4456
 4775SOL    HW125958   3.499   0.124   7.152 -0.8354 -0.4061 -0.2159
 4775SOL    HW225959   3.626   0.194   7.175  1.4341 -0.0688 -2.3378
 4776SOL     OW25960   3.491   4.397   3.641  0.1060  0.0258 -0.3284
 4776SOL    HW125961   3.511   4.402   3.735 -0.4895  0.5087 -0.2266
 4776SOL    HW225962   3.579   4.402   3.604  0.1298  0.2672 -0.2403
 4777SOL     OW25963   3.809   0.945   4.927  0.0779  0.4309  0.0424
 4777SOL    HW125964   3.825   0.928   4.834  2.0935  0.4105  0.3900
 4777SOL    HW225965   3.715   0.931   4.938  0.2128 -1.5959 -1.3436
 4778SOL     OW25966   3.069   3.956   6.536  0.0498 -0.4583 -0.3327
 4778SOL    HW125967   3.085   4.051   6.544 -2.9866 -0.0598  0.9628
 4778SOL    HW225968   3.097   3.922   6.621  3.1127  2.0489 -0.3029
 4779SOL     OW25969   2.934   0.165   2.585  0.2574 -0.2816 -0.5057
 4779SOL    HW125970   3.024   0.176   2.616  0.6782  0.4233 -1.9703
 4779SOL    HW225971   2.939   0.082   2.538  1.1201  0.5865 -1.9267
 4780SOL     OW25972   3.657   3.690   7.288  0.1943  1.5520 -0.0263
 4780SOL    HW125973   3.710   3.769   7.299  0.8911  0.6628  2.8581
 4780SOL    HW225974   3.704   3.638   7.222 -1.8462  1.5038 -1.4487
 4781SOL     OW25975   3.214   0.681   3.558 -0.1095 -0.3742 -0.2723
 4781SOL    HW125976   3.270   0.609   3.584  1.4362  0.5717 -0.9707
 4781SOL    HW225977   3.128   0.651   3.586 -0.3224 -2.9582 -3.6934
 4782SOL     OW25978   1.955   0.287   3.586 -0.1921  0.2085  0.2701
 4782SOL    HW125979   1.966   0.272   3.492  0.4582 -1.1656  0.5585
 4782SOL    HW225980   2.014   0.223   3.626  0.3177  0.6285  0.1939
 4783SOL     OW25981   2.507   4.630   9.344 -0.7139 -0.1833 -0.0864
 4783SOL    HW125982   2.576   4.566   9.363 -2.4919 -2.4627 -1.2505
 4783SOL    HW225983   2.436   4.568   9.361 -1.1836 -0.7670 -4.0462
 4784SOL     OW25984   1.544   0.903  11.349 -0.8663  0.1273 -0.1777
 4784SOL    HW125985   1.472   0.849  11.318 -0.1813 -0.6999 -0.3298
 4784SOL    HW225986   1.558   0.968  11.281 -0.0300 -1.9534 -1.9923
 4785SOL     OW25987   0.284   2.993  12.810 -0.5212  0.2458  0.3476
 4785SOL    HW125988   0.274   3.065  12.872  3.3830  0.4424  0.7777
 4785SOL    HW225989   0.301   3.042  12.729  0.1069 -2.4184 -1.1345
 4786SOL     OW25990   3.454   3.489   9.977  0.7393 -0.2164  0.0218
 4786SOL    HW125991   3.450   3.394   9.962 -0.5247 -0.0529 -0.6045
 4786SOL    HW225992   3.386   3.498  10.044  1.0693 -0.4124  0.3874
 4787SOL     OW25993   4.428   4.171   8.726 -0.2747  0.3459 -0.2227
 4787SOL    HW125994   4.343   4.212   8.740 -0.6191  0.0972 -1.6593
 4787SOL    HW225995   4.483   4.246   8.706 -1.4406  0.7111 -2.0297
 4788SOL     OW25996   2.894   3.191  13.567  0.0187 -0.5605 -0.0155
 4788SOL    HW125997   2.891   3.187  13.471 -0.9087 -0.8439  0.0259
 4788SOL    HW225998   2.977   3.233  13.590 -1.1809  0.9200  1.5743
 4789SOL     OW25999   3.237   3.811   2.640 -0.1913  0.1283  0.7690
 4789SOL    HW126000   3.230   3.716   2.633 -0.1425  0.2226 -0.5159
 4789SOL    HW226001   3.284   3.803   2.723 -0.0948 -0.4400  0.6590
 4790SOL     OW26002   4.007   0.244   6.409  0.5692  0.3539  0.0641
 4790SOL    HW126003   4.076   0.184   6.439 -1.1443 -1.7855 -0.2766
 4790SOL    HW226004   4.027   0.323   6.460  1.2633  0.5445 -0.5027
 4791SOL     OW26005   4.700   3.215  10.713  0.0878  0.8383 -0.4861
 4791SOL    HW126006   0.042   3.184  10.749 -0.6678  3.5843  3.4995
 4791SOL    HW226007   4.669   3.129  10.683  1.5987  0.6674 -1.5636
 4792SOL     OW26008   2.813   0.896  12.422  0.1784  0.1240 -0.4233
 4792SOL    HW126009   2.879   0.886  12.354 -0.1977  0.1173 -0.7901
 4792SOL    HW226010   2.781   0.985  12.407 -0.6753  0.1706  1.6793
 4793SOL     OW26011   1.105   4.576   2.374 -0.3104 -0.2051  0.1220
 4793SOL    HW126012   1.123   4.669   2.376  1.0048 -0.4062 -1.8960
 4793SOL    HW226013   1.188   4.544   2.410 -0.3624 -0.5754 -0.0764
 4794SOL     OW26014   2.622   3.080   0.406  0.2180  0.3694  0.4158
 4794SOL    HW126015   2.544   3.055   0.455 -0.5069  1.9096  0.0602
 4794SOL    HW226016   2.577   3.094   0.323  2.4022 -0.2594 -0.8627
 4795SOL     OW26017   2.508   4.183   6.807  0.5591  0.5177 -0.0911
 4795SOL    HW126018   2.484   4.248   6.740 -0.7457 -1.0956 -1.1887
 4795SOL    HW226019   2.587   4.225   6.841  0.9970  1.3129 -2.0553
 4796SOL     OW26020   0.493   4.168   4.190  0.2171 -0.5721  0.8170
 4796SOL    HW126021   0.412   4.125   4.216  1.0163 -2.7037 -0.1828
 4796SOL    HW226022   0.499   4.246   4.244  2.1872  0.6969 -1.2440
 4797SOL     OW26023   1.491   3.167   4.496 -0.5452 -0.3038 -0.5763
 4797SOL    HW126024   1.419   3.114   4.531 -0.5223  0.3284  0.4473
 4797SOL    HW226025   1.467   3.207   4.412 -1.6897  1.1840  0.4490
 4798SOL     OW26026   4.505   0.745   2.640  0.1900 -0.0679 -0.3827
 4798SOL    HW126027   4.523   0.740   2.734  0.8365  1.1544 -0.4354
 4798SOL    HW226028   4.412   0.729   2.627  0.1032  0.4099 -0.3292
 4799SOL     OW26029   2.396   3.866  16.232  0.0288 -0.3514  0.2738
 4799SOL    HW126030   2.359   3.932  16.291 -3.1142 -0.8281 -1.1703
 4799SOL    HW226031   2.337   3.792  16.243 -0.1233 -0.3825 -0.7828
 4800SOL     OW26032   3.709   2.081   4.334  0.3423 -0.2977 -0.0247
 4800SOL    HW126033   3.691   1.992   4.304  0.0215 -0.5697  0.9566
 4800SOL    HW226034   3.743   2.122   4.255  0.1481  0.4903  0.2947
 4801SOL     OW26035   4.375   0.452  14.375 -0.0006  0.3290 -0.6513
 4801SOL    HW126036   4.428   0.382  14.337  0.8179  0.4391  0.3214
 4801SOL    HW226037   4.438   0.507  14.421 -2.0100  1.0407  1.2298
 4802SOL     OW26038   3.734   1.714   4.561 -0.1353 -0.0989  0.1728
 4802SOL    HW126039   3.677   1.656   4.511 -0.1407  0.4569 -0.4640
 4802SOL    HW226040   3.755   1.655   4.633  2.5082  0.7042  0.0569
 4803SOL     OW26041   2.930   3.015   1.095 -0.0290 -0.5909  0.9192
 4803SOL    HW126042   2.859   2.974   1.045  1.6456 -2.6425  0.2104
 4803SOL    HW226043   2.977   2.936   1.123  1.4651  0.0459  0.2120
 4804SOL     OW26044   4.150   1.488   5.563 -0.6269  0.1195  0.3350
 4804SOL    HW126045   4.058   1.467   5.579  0.0140 -0.5216  3.0156
 4804SOL    HW226046   4.156   1.580   5.587 -0.6331  0.1927  0.0604
 4805SOL     OW26047   3.023   4.423   1.413 -0.2446  0.7837 -0.4673
 4805SOL    HW126048   3.099   4.382   1.370  0.0433  0.8702 -0.0343
 4805SOL    HW226049   2.954   4.357   1.409  0.5857 -0.0685 -0.7488
 4806SOL     OW26050   2.055   1.515   1.753 -0.0864 -0.0274 -0.4613
 4806SOL    HW126051   2.019   1.602   1.736 -1.2572 -0.7003 -1.3840
 4806SOL    HW226052   2.143   1.525   1.715  0.0197 -2.0671 -0.7651
 4807SOL     OW26053   4.190   2.884   3.931  0.0764  0.1466  0.1400
 4807SOL    HW126054   4.220   2.887   3.840  2.4727  1.2570  0.9572
 4807SOL    HW226055   4.230   2.963   3.967  0.6871  0.0596 -0.3506
 4808SOL     OW26056   2.592   2.634  16.929  0.0693 -0.6742 -0.2698
 4808SOL    HW126057   2.520   2.655  16.870 -0.6635  0.5308  1.0419
 4808SOL    HW226058   2.668   2.650  16.873  0.9054 -0.4934  0.9188
 4809SOL     OW26059   3.117   4.137   7.147  0.4549 -0.1902 -0.2918
 4809SOL    HW126060   3.180   4.142   7.218  0.3948  0.8990 -0.3125
 4809SOL    HW226061   3.146   4.219   7.107 -0.8055 -0.4551 -1.7760
 4810SOL     OW26062   2.047   0.799   3.130 -0.2153 -0.5731  0.5031
 4810SOL    HW126063   2.141   0.796   3.116 -0.3053  0.2745 -0.2997
 4810SOL    HW226064   2.020   0.815   3.039 -1.7120  1.6155  1.3285
 4811SOL     OW26065   2.436   4.741   7.553 -0.9096  0.3735 -0.2214
 4811SOL    HW126066   2.443   4.669   7.616 -0.6619  1.2337  0.7396
 4811SOL    HW226067   2.494   4.700   7.488  0.6000 -0.7505  1.8311
 4812SOL     OW26068   2.720   1.400   7.833  0.1787  0.1119  0.1088
 4812SOL    HW126069   2.669   1.419   7.911 -1.1854 -0.0907 -0.7273
 4812SOL    HW226070   2.702   1.482   7.785  1.1067 -0.8193 -1.8534
 4813SOL     OW26071   0.261   3.994   4.189  0.1410  0.4235  0.0065
 4813SOL    HW126072   0.186   3.948   4.226 -1.4413  1.3849 -2.0139
 4813SOL    HW226073   0.292   3.918   4.140  1.6505  1.6282 -0.8935
 4814SOL     OW26074   0.795   1.576  13.290 -0.0239  0.3199  0.4002
 4814SOL    HW126075   0.722   1.617  13.336  0.5002  1.9312 -0.1963
 4814SOL    HW226076   0.834   1.648  13.240  2.9896 -1.4197  0.2341
 4815SOL     OW26077   1.072   1.199  17.372  0.6141  0.3852  0.0674
 4815SOL    HW126078   1.061   1.282  17.419  0.2384  0.0158  0.6314
 4815SOL    HW226079   1.163   1.205  17.343 -0.5850  0.4660 -3.7255
 4816SOL     OW26080   1.428   0.748   3.424 -0.4144  1.1898  0.0444
 4816SOL    HW126081   1.460   0.778   3.339 -0.1451  2.3860  0.5701
 4816SOL    HW226082   1.385   0.832   3.441 -0.7613  1.1766 -0.7282
 4817SOL     OW26083   2.659   1.872   7.558  0.0656  0.2692 -0.0430
 4817SOL    HW126084   2.717   1.946   7.578  1.4743 -0.9791  0.4744
 4817SOL    HW226085   2.618   1.904   7.478 -0.2468 -0.7157 -0.2656
 4818SOL     OW26086   2.584   1.015  10.203  0.1448 -0.3853 -0.3189
 4818SOL    HW126087   2.652   1.037  10.140  0.5433 -0.6102  0.0308
 4818SOL    HW226088   2.652   1.008  10.270  0.4017  2.2613 -0.3134
 4819SOL     OW26089   4.160   3.973   6.677  0.6066  0.5081  0.6292
 4819SOL    HW126090   4.168   3.915   6.601 -2.5901  2.2386 -0.9955
 4819SOL    HW226091   4.072   3.953   6.707  1.0065 -0.8750  0.9054
 4820SOL     OW26092   1.746   4.257   5.217 -0.6713 -0.0389 -0.1965
 4820SOL    HW126093   1.735   4.244   5.123  0.0680 -0.2765 -0.2519
 4820SOL    HW226094   1.723   4.168   5.241  1.7683 -0.6629 -0.1807
 4821SOL     OW26095   2.871   0.569   4.121 -0.4900  0.0686 -0.4535
 4821SOL    HW126096   2.809   0.600   4.187 -2.1888 -0.9741 -1.5813
 4821SOL    HW226097   2.822   0.563   4.039  3.2899 -2.1161 -2.5258
 4822SOL     OW26098   0.182   2.395   8.514 -0.1785  0.1757  0.1982
 4822SOL    HW126099   0.126   2.468   8.542  1.2580  2.0327 -1.6540
 4822SOL    HW226100   0.117   2.328   8.496  0.1782 -0.4724  1.3407
 4823SOL     OW26101   1.591   4.075   6.976 -0.0173  0.1202  0.0566
 4823SOL    HW126102   1.564   4.074   6.885 -1.1044 -0.7149  0.3853
 4823SOL    HW226103   1.521   4.030   7.025 -1.5199  1.0646 -1.2531
 4824SOL     OW26104   4.313   1.839   6.616  0.1692 -0.0182 -0.2237
 4824SOL    HW126105   4.392   1.817   6.666 -0.3953  0.2005  0.7824
 4824SOL    HW226106   4.270   1.900   6.675 -1.3299 -2.2413  0.9976
 4825SOL     OW26107   0.959   4.417  14.947  0.2583  0.5066  0.5906
 4825SOL    HW126108   0.951   4.383  15.036 -2.2190  2.6762  1.1860
 4825SOL    HW226109   0.960   4.337  14.894  0.7180  0.9227 -0.0291
 4826SOL     OW26110   0.487   3.074   5.077 -0.3798 -0.3020  0.5239
 4826SOL    HW126111   0.434   3.054   5.155 -0.7095  0.8391  0.5908
 4826SOL    HW226112   0.460   3.162   5.050 -2.3076 -0.9729  0.2885
 4827SOL     OW26113   3.506   2.841   9.965 -0.4867  0.9619  0.1204
 4827SOL    HW126114   3.422   2.888   9.968  0.0927  1.9546  0.8572
 4827SOL    HW226115   3.566   2.914   9.981 -2.0823  1.8198  2.3462
 4828SOL     OW26116   2.768   0.522  15.439 -0.4236  0.6109 -0.1400
 4828SOL    HW126117   2.859   0.492  15.447  0.3318  2.3248 -2.1762
 4828SOL    HW226118   2.743   0.501  15.349  1.2373  0.1456 -0.5016
 4829SOL     OW26119   2.666   4.180   2.340 -0.2387 -0.4427  0.8964
 4829SOL    HW126120   2.666   4.102   2.284  1.6354  0.0685  0.1762
 4829SOL    HW226121   2.607   4.249   2.308  0.1368 -0.1562  0.8136
 4830SOL     OW26122   2.525   0.420   2.290 -0.3425  0.6965 -0.1137
 4830SOL    HW126123   2.531   0.433   2.385  0.3547  2.2425 -0.3667
 4830SOL    HW226124   2.432   0.433   2.269  0.2024  1.5209 -1.9771
 4831SOL     OW26125   2.408   1.773  17.577  0.6590 -0.2246  0.2734
 4831SOL    HW126126   2.487   1.735  17.538  0.7627  0.9286 -0.6416
 4831SOL    HW226127   2.379   1.823  17.501 -0.4357 -1.1720  0.0762
 4832SOL     OW26128   3.325   2.234   1.602  0.3061  0.2703  0.4443
 4832SOL    HW126129   3.240   2.261   1.567  0.2330  0.3810  0.7147
 4832SOL    HW226130   3.367   2.193   1.526  1.0682 -0.0422  1.0324
 4833SOL     OW26131   3.473   4.364  16.281  0.2176  0.4164 -0.8905
 4833SOL    HW126132   3.420   4.286  16.297  1.8116 -0.0895  1.9677
 4833SOL    HW226133   3.450   4.384  16.190 -2.7463 -1.1773 -0.4850
 4834SOL     OW26134   4.182   2.873  12.411 -0.7424 -0.2291  0.3395
 4834SOL    HW126135   4.219   2.786  12.400  2.2792  0.8736  1.9142
 4834SOL    HW226136   4.095   2.837  12.429 -1.7494  1.6910 -0.6929
 4835SOL     OW26137   2.983   1.325   7.977  0.0141  0.4757 -0.2059
 4835SOL    HW126138   2.919   1.396   7.978 -0.9832 -0.3967 -1.1516
 4835SOL    HW226139   3.042   1.338   7.902 -0.8265  1.9638 -0.6109
 4836SOL     OW26140   1.102   1.908   3.332  0.1491 -0.0163 -0.0897
 4836SOL    HW126141   1.062   1.958   3.261 -0.6129 -2.4945 -1.4179
 4836SOL    HW226142   1.097   1.972   3.403 -0.1954 -0.4085  0.2405
 4837SOL     OW26143   4.103   0.415  10.527 -0.5131  0.5661  0.2973
 4837SOL    HW126144   4.095   0.476  10.453 -1.6594  0.6469  0.4891
 4837SOL    HW226145   4.064   0.332  10.499  0.9888  0.0698 -0.3426
 4838SOL     OW26146   4.365   0.497   5.964 -0.1492 -0.1252 -0.0444
 4838SOL    HW126147   4.292   0.525   6.020 -1.0068 -0.5291 -0.9534
 4838SOL    HW226148   4.322   0.482   5.880 -1.7388  0.7171  0.6106
 4839SOL     OW26149   0.632   0.157   1.287  0.1028 -0.3609  0.0516
 4839SOL    HW126150   0.634   0.114   1.201 -0.7490  1.0255 -0.6456
 4839SOL    HW226151   0.644   0.080   1.343  0.6644 -0.1368  0.2336
 4840SOL     OW26152   1.207   4.356  13.297 -0.4654  0.3379 -0.5252
 4840SOL    HW126153   1.209   4.320  13.385  0.1737  1.6434 -0.0101
 4840SOL    HW226154   1.261   4.433  13.314  0.3833 -0.5495  0.8096
 4841SOL     OW26155   1.033   1.460  13.680 -0.0728 -0.4440  0.0603
 4841SOL    HW126156   0.937   1.452  13.674 -0.1580  0.3972  0.3870
 4841SOL    HW226157   1.060   1.536  13.629 -0.0369 -0.5664 -0.1050
 4842SOL     OW26158   1.655   1.853   2.387  0.5530 -0.1644  0.3652
 4842SOL    HW126159   1.580   1.876   2.442  1.2253  1.0132  0.7811
 4842SOL    HW226160   1.615   1.830   2.304  1.3584 -0.4916  0.0720
 4843SOL     OW26161   4.074   3.364   6.392 -0.1453 -0.0495  0.0496
 4843SOL    HW126162   4.101   3.420   6.320  0.5027  1.0781  1.1668
 4843SOL    HW226163   4.005   3.313   6.350  0.3805  0.2092 -1.1205
 4844SOL     OW26164   1.665   1.954   7.360 -0.0865  0.2674  0.4001
 4844SOL    HW126165   1.720   1.919   7.290 -0.1082  0.6367  0.2039
 4844SOL    HW226166   1.582   1.959   7.314  1.0532  0.1076 -1.6806
 4845SOL     OW26167   1.497   1.269   4.677  0.0739 -0.1174 -0.1978
 4845SOL    HW126168   1.478   1.178   4.698  2.0385 -0.6602 -0.7326
 4845SOL    HW226169   1.589   1.248   4.659 -0.2007 -1.1040 -0.4523
 4846SOL     OW26170   4.248   4.038   5.786  0.3309  0.3952 -0.5195
 4846SOL    HW126171   4.290   4.099   5.847 -1.7720  0.5693  0.7677
 4846SOL    HW226172   4.322   3.997   5.742 -0.0986  1.5103 -2.3242
 4847SOL     OW26173   3.671   2.721   6.560  0.3562 -0.3888  0.9607
 4847SOL    HW126174   3.591   2.685   6.598 -0.4747 -1.6593 -2.0241
 4847SOL    HW226175   3.715   2.760   6.636  0.9764  3.4260 -1.3765
 4848SOL     OW26176   2.179   0.774   5.922 -0.3758  0.1289  0.2207
 4848SOL    HW126177   2.181   0.679   5.929 -0.4339  0.1255  0.1897
 4848SOL    HW226178   2.238   0.800   5.851  1.4860 -0.4523  1.5338
 4849SOL     OW26179   3.967   2.369   5.067  0.4485 -0.3999 -0.5287
 4849SOL    HW126180   3.961   2.320   4.985 -1.4994 -1.2842  0.1410
 4849SOL    HW226181   4.041   2.321   5.104 -0.8226 -1.6095  0.4365
 4850SOL     OW26182   4.063   0.226   8.771 -0.5766  0.4803  0.0613
 4850SOL    HW126183   3.992   0.185   8.721  0.6989  0.0924 -1.4458
 4850SOL    HW226184   4.118   0.150   8.788 -0.4777  0.4961 -0.1828
 4851SOL     OW26185   0.562   3.532   7.260  0.0699  0.1673  0.9640
 4851SOL    HW126186   0.533   3.452   7.303  1.0560 -1.0335 -0.5681
 4851SOL    HW226187   0.576   3.589   7.336 -0.9654 -0.5786  1.7029
 4852SOL     OW26188   2.943   4.034   3.590 -0.2088 -0.0155 -0.2671
 4852SOL    HW126189   2.926   3.970   3.658 -1.9201 -0.6861 -1.3251
 4852SOL    HW226190   2.941   3.983   3.509  1.9147 -1.2602  0.4537
 4853SOL     OW26191   2.293   2.229   5.456 -0.3336  0.1564  0.2036
 4853SOL    HW126192   2.211   2.243   5.407  0.2427  1.0354 -0.5095
 4853SOL    HW226193   2.330   2.169   5.391  1.1125 -1.9534  3.0090
 4854SOL     OW26194   0.050   1.401   3.547 -0.4656 -0.2634 -0.1359
 4854SOL    HW126195   4.734   1.478   3.548  2.2649  1.7750 -2.2685
 4854SOL    HW226196   0.134   1.434   3.580 -1.0832  0.3106  0.8755
 4855SOL     OW26197   0.252   1.445   8.809  0.2258  0.2497 -0.8266
 4855SOL    HW126198   0.219   1.401   8.887  1.1794  3.5925  1.4487
 4855SOL    HW226199   0.306   1.513   8.848 -0.3365  0.7328 -0.8883
 4856SOL     OW26200   1.917   4.570  16.131  0.6520 -0.0927  0.0759
 4856SOL    HW126201   1.836   4.579  16.082 -0.3971 -0.4398  1.7563
 4856SOL    HW226202   1.909   4.481  16.164 -1.5064 -0.5131 -1.6405
 4857SOL     OW26203   1.238   0.567   4.794 -0.4859 -0.1495 -0.4228
 4857SOL    HW126204   1.144   0.566   4.808 -0.3926 -0.7194  0.1887
 4857SOL    HW226205   1.239   0.559   4.699 -2.3634  0.5053 -0.4896
 4858SOL     OW26206   3.305   2.727   8.842 -0.0155 -0.3927 -0.0600
 4858SOL    HW126207   3.228   2.771   8.806 -0.8970 -1.9649 -0.1043
 4858SOL    HW226208   3.272   2.669   8.911  0.3275 -0.4135  0.0857
 4859SOL     OW26209   1.180   0.237   3.007  0.0733 -0.6588  0.1233
 4859SOL    HW126210   1.147   0.152   3.038 -0.9820 -0.7771 -1.2768
 4859SOL    HW226211   1.141   0.299   3.068  2.8685  1.3371 -0.1335
 4860SOL     OW26212   0.071   0.651  16.451  0.0122 -0.0161  0.1864
 4860SOL    HW126213   0.021   0.580  16.411  1.8373 -0.4298 -1.4008
 4860SOL    HW226214   0.099   0.610  16.534 -2.5228  1.8717  1.9643
 4861SOL     OW26215   0.752   4.662   4.930 -0.2077  0.0100 -0.7063
 4861SOL    HW126216   0.670   4.620   4.955 -0.0660  0.1611  0.0388
 4861SOL    HW226217   0.727   0.009   4.903 -0.7649 -0.0546 -0.4041
 4862SOL     OW26218   0.278   2.196  12.726 -0.2180 -0.3164 -0.4786
 4862SOL    HW126219   0.261   2.105  12.749  1.8382 -1.2735 -2.8457
 4862SOL    HW226220   0.228   2.241  12.795  1.0810  2.4074 -1.3503
 4863SOL     OW26221   3.512   1.057   7.219 -0.4006 -0.7517  0.0293
 4863SOL    HW126222   3.587   1.111   7.241  0.3861 -0.7417 -2.6354
 4863SOL    HW226223   3.476   1.119   7.156  2.3024  0.0910 -0.6397
 4864SOL     OW26224   0.648   2.432   4.197  0.1644  0.7349 -0.0961
 4864SOL    HW126225   0.648   2.353   4.143 -3.1504 -1.0752  2.5526
 4864SOL    HW226226   0.555   2.453   4.190  0.3523  1.3681 -0.6698
 4865SOL     OW26227   2.721   0.906   2.373 -0.2762 -0.6856 -0.2906
 4865SOL    HW126228   2.668   0.939   2.446 -0.4652 -0.6534 -0.4424
 4865SOL    HW226229   2.652   0.856   2.329  0.0622 -0.4793 -1.0647
 4866SOL     OW26230   1.491   3.468  10.719 -0.1423 -0.2106 -0.9343
 4866SOL    HW126231   1.472   3.467  10.625  3.0564 -0.8740 -1.5821
 4866SOL    HW226232   1.512   3.377  10.739 -0.5009  0.0386  0.5887
 4867SOL     OW26233   1.866   2.755  13.743  0.2680  0.0091 -0.6371
 4867SOL    HW126234   1.881   2.823  13.677  0.1033 -0.4929 -1.1841
 4867SOL    HW226235   1.921   2.792  13.813  0.0728 -0.5095 -0.2087
 4868SOL     OW26236   0.192   3.040   4.382  0.3021  0.3463 -0.2546
 4868SOL    HW126237   0.241   2.973   4.431 -0.3417 -1.5427 -2.1492
 4868SOL    HW226238   0.105   3.014   4.410  0.5230 -0.8792 -0.6925
 4869SOL     OW26239   1.159   3.752   1.932  0.0986 -0.6538  0.0819
 4869SOL    HW126240   1.170   3.842   1.902  0.1808 -0.1534  1.5734
 4869SOL    HW226241   1.100   3.767   2.006  1.0983  0.3732  0.6629
 4870SOL     OW26242   2.507   3.320   7.253 -0.2771  0.5810 -0.5250
 4870SOL    HW126243   2.568   3.246   7.259 -1.4264 -0.3666 -0.2483
 4870SOL    HW226244   2.437   3.274   7.206  0.6042 -2.2218  0.8861
 4871SOL     OW26245   3.291   3.906   2.915  0.2726 -1.1102  0.4035
 4871SOL    HW126246   3.241   3.835   2.956 -2.2848  0.1295 -0.6413
 4871SOL    HW226247   3.379   3.900   2.953  0.5401  0.5925  0.0287
 4872SOL     OW26248   1.045   3.469   7.328 -0.6297 -0.1966  0.4033
 4872SOL    HW126249   1.089   3.516   7.258 -1.7599 -0.5846 -0.5559
 4872SOL    HW226250   1.068   3.529   7.400  1.7380 -0.8473  0.1745
 4873SOL     OW26251   3.260   1.359   4.737 -0.8006  0.0602  0.4459
 4873SOL    HW126252   3.282   1.268   4.757  0.8738  0.1176 -1.1275
 4873SOL    HW226253   3.337   1.402   4.775 -0.9397 -0.2077  1.0317
 4874SOL     OW26254   1.933   1.262   4.084 -0.0296 -0.2104  0.6936
 4874SOL    HW126255   1.888   1.328   4.137  2.1131  1.7569  0.0697
 4874SOL    HW226256   2.017   1.268   4.130  1.6224  1.7918 -2.5929
 4875SOL     OW26257   1.790   2.589   5.989  0.5975  0.6375 -0.4959
 4875SOL    HW126258   1.827   2.508   6.025  0.5766  0.2091 -1.4220
 4875SOL    HW226259   1.697   2.581   6.008  0.2190  0.5745 -2.2968
 4876SOL     OW26260   0.034   2.568  17.154  0.4294 -0.5995  0.2028
 4876SOL    HW126261   4.725   2.487  17.164  0.2369 -0.6202 -0.9057
 4876SOL    HW226262   4.715   2.619  17.208  2.8596  2.3602  0.1139
 4877SOL     OW26263   3.198   3.078  16.910  0.1602  0.0237  0.6062
 4877SOL    HW126264   3.246   3.008  16.953  1.1548  0.8311  0.8238
 4877SOL    HW226265   3.245   3.088  16.827 -1.7166  0.9529 -0.3633
 4878SOL     OW26266   3.262   2.817   6.400  0.3951  0.2235  0.7547
 4878SOL    HW126267   3.206   2.823   6.477 -3.3448 -1.3027 -1.8416
 4878SOL    HW226268   3.257   2.723   6.379  0.7260  0.2316  0.6447
 4879SOL     OW26269   1.443   4.136   9.260 -0.0856 -0.1841 -0.2239
 4879SOL    HW126270   1.451   4.221   9.217  1.7353  0.0412  0.5667
 4879SOL    HW226271   1.403   4.086   9.189  0.7017 -1.4820  0.2359
 4880SOL     OW26272   1.012   3.877  15.911 -0.3354 -0.3220  0.3691
 4880SOL    HW126273   0.987   3.842  15.996 -0.0805 -3.1502 -0.7131
 4880SOL    HW226274   1.018   3.796  15.861 -0.9161  1.6092 -2.8339
 4881SOL     OW26275   3.864   2.228  13.253  0.2059  0.5019  0.1837
 4881SOL    HW126276   3.873   2.164  13.182  1.1979  0.3928  0.4004
 4881SOL    HW226277   3.945   2.222  13.303  0.3454 -0.9920 -0.2203
 4882SOL     OW26278   0.650   0.456  13.341  0.3624  0.3079 -0.2519
 4882SOL    HW126279   0.703   0.532  13.363 -1.3221  1.5169 -0.4107
 4882SOL    HW226280   0.678   0.449  13.250  1.7687  0.8720  0.1410
 4883SOL     OW26281   4.660   3.918  11.429  0.3727 -0.1076  0.1339
 4883SOL    HW126282   4.637   4.008  11.408 -0.7136 -1.0133 -2.6098
 4883SOL    HW226283   4.609   3.907  11.510  1.9641 -1.5633  0.9422
 4884SOL     OW26284   0.567   1.504   4.602  0.2794  0.1102  0.7047
 4884SOL    HW126285   0.531   1.461   4.525 -1.2857  1.5306  0.6553
 4884SOL    HW226286   0.647   1.544   4.568  0.9136 -1.6591  0.1292
 4885SOL     OW26287   0.903   4.561   5.739 -0.6060 -0.8867 -0.0321
 4885SOL    HW126288   0.827   4.611   5.710 -0.8478  0.0827  2.2353
 4885SOL    HW226289   0.944   4.630   5.791 -3.7041  0.3652  0.7441
 4886SOL     OW26290   3.128   1.010   0.158 -0.0805  0.5535 -0.0250
 4886SOL    HW126291   3.057   0.978   0.103 -1.0741  1.4004  0.7643
 4886SOL    HW226292   3.138   0.930   0.211 -0.5450 -0.2737 -1.1943
 4887SOL     OW26293   0.477   1.896  12.537  0.1471  0.2114  0.3754
 4887SOL    HW126294   0.419   1.923  12.466 -3.6772 -0.7962  3.1194
 4887SOL    HW226295   0.487   1.972  12.595  1.7794 -0.8436  1.4716
 4888SOL     OW26296   1.164   1.379  11.718 -0.0695  0.2197 -0.3968
 4888SOL    HW126297   1.121   1.337  11.644 -0.9579  1.5439 -0.6167
 4888SOL    HW226298   1.203   1.304  11.764 -0.3929 -0.1584 -0.7438
 4889SOL     OW26299   3.587   2.497   3.257  0.2627  0.2988  0.0415
 4889SOL    HW126300   3.645   2.506   3.333  1.0275 -3.6480 -0.0541
 4889SOL    HW226301   3.650   2.462   3.193 -1.0796  2.3025 -2.3329
 4890SOL     OW26302   0.074   0.459   8.671  0.1251 -0.3374 -0.5677
 4890SOL    HW126303   0.039   0.371   8.687 -0.4317 -0.3301 -1.7334
 4890SOL    HW226304   0.168   0.457   8.692 -0.4692 -2.6756  1.9314
 4891SOL     OW26305   2.997   3.059   0.335  1.2842 -0.2703  0.1651
 4891SOL    HW126306   2.937   2.985   0.338  1.3150 -0.3120 -0.2165
 4891SOL    HW226307   3.018   3.066   0.241  2.3594  0.5925  0.4648
 4892SOL     OW26308   3.024   2.443  16.669  0.0031  0.3751 -0.1328
 4892SOL    HW126309   3.023   2.510  16.737 -0.2182  1.1357 -0.8914
 4892SOL    HW226310   3.051   2.488  16.589  0.1296  2.6156  1.1681
 4893SOL     OW26311   0.819   4.217   2.375  0.2501  0.3304  0.1316
 4893SOL    HW126312   0.906   4.230   2.411  0.9984 -0.0288 -1.5619
 4893SOL    HW226313   0.767   4.297   2.384  1.6085  1.4934 -2.6289
 4894SOL     OW26314   1.457   0.597   7.234  0.4793 -0.8683  0.5233
 4894SOL    HW126315   1.426   0.683   7.206  0.9186 -1.1730 -0.9164
 4894SOL    HW226316   1.428   0.543   7.160  0.3870  1.2297 -0.9897
 4895SOL     OW26317   0.223   3.557   0.493  0.2962  0.0112 -0.3835
 4895SOL    HW126318   0.260   3.552   0.405  0.6116  0.0605 -0.2520
 4895SOL    HW226319   0.129   3.545   0.480  0.2713  0.4258 -0.5824
 4896SOL     OW26320   3.986   3.677   4.863 -0.9919  0.0625 -0.0106
 4896SOL    HW126321   3.948   3.603   4.814  2.7159  0.0329 -2.8204
 4896SOL    HW226322   3.998   3.741   4.793 -0.1576 -1.1160 -0.9432
 4897SOL     OW26323   2.046   2.568   2.489 -0.5986 -0.3882  0.9620
 4897SOL    HW126324   2.096   2.518   2.553 -1.0694  1.3956  2.7229
 4897SOL    HW226325   2.014   2.642   2.540 -2.2274  0.0236 -0.6895
 4898SOL     OW26326   2.225   4.126   4.112 -0.8311  0.3104  0.7012
 4898SOL    HW126327   2.317   4.150   4.102 -0.6067  0.7958  3.8804
 4898SOL    HW226328   2.196   4.198   4.056 -0.6265  0.0710  0.2893
 4899SOL     OW26329   2.482   0.016   3.734  0.2683  0.3144 -0.0189
 4899SOL    HW126330   2.495   4.708   3.653 -4.3563 -2.9250  1.2469
 4899SOL    HW226331   2.471   4.691   3.802  2.9971  0.1224  0.2350
 4900SOL     OW26332   1.322   1.699   4.282 -0.0680  0.5807 -0.3190
 4900SOL    HW126333   1.340   1.752   4.205  0.2361  1.5622  0.4302
 4900SOL    HW226334   1.371   1.753   4.344  1.6796 -0.7878 -0.5191
 4901SOL     OW26335   3.404   2.600  10.256 -0.2808 -0.4565 -0.0477
 4901SOL    HW126336   3.418   2.693  10.269  0.4035 -0.5549 -0.1103
 4901SOL    HW226337   3.435   2.557  10.336  0.2840  0.2012  0.0771
 4902SOL     OW26338   4.093   2.742   1.759  0.3799  0.1031 -0.2359
 4902SOL    HW126339   4.033   2.685   1.807 -0.0653  1.4062  0.7566
 4902SOL    HW226340   4.082   2.708   1.670  1.1198 -0.6281 -0.0436
 4903SOL     OW26341   1.718   1.863   1.924  0.1583  0.4254  0.2728
 4903SOL    HW126342   1.642   1.886   1.977  0.4995 -0.3706  1.1055
 4903SOL    HW226343   1.758   1.799   1.983 -2.2182  0.4868  1.9421
 4904SOL     OW26344   0.540   2.115  13.387 -0.0338  0.3987 -0.3550
 4904SOL    HW126345   0.508   2.205  13.397  1.3712  0.8615 -0.1313
 4904SOL    HW226346   0.551   2.084  13.477  0.8591  1.8138  0.0145
 4905SOL     OW26347   3.552   3.181   8.875 -0.0256 -0.5989  0.0134
 4905SOL    HW126348   3.645   3.186   8.897 -0.2741  1.2051  0.6703
 4905SOL    HW226349   3.510   3.219   8.952 -0.4263  0.8004 -0.8867
 4906SOL     OW26350   3.737   0.923  16.366  0.0982  0.6483 -0.3653
 4906SOL    HW126351   3.787   0.959  16.293  0.1588  1.7288  0.2058
 4906SOL    HW226352   3.666   0.884  16.315  1.3777 -0.5619 -1.1848
 4907SOL     OW26353   3.668   1.262   2.305  0.5765  0.3114 -0.2975
 4907SOL    HW126354   3.603   1.197   2.277 -1.6934  1.9382  1.1454
 4907SOL    HW226355   3.696   1.304   2.224  1.9751  0.7259  0.3997
 4908SOL     OW26356   2.040   0.462   7.846  0.2904 -0.1071  0.2027
 4908SOL    HW126357   2.109   0.413   7.801 -0.6923 -2.7024  1.4978
 4908SOL    HW226358   1.989   0.392   7.886  0.7059 -0.0325  0.8672
 4909SOL     OW26359   0.946   0.605  13.094  0.2670 -0.0836 -0.2386
 4909SOL    HW126360   0.987   0.531  13.139 -0.1218 -1.1366 -1.6265
 4909SOL    HW226361   0.860   0.565  13.086  0.3958  0.0770 -2.4448
 4910SOL     OW26362   0.858   3.620   3.247  0.3927  0.2293 -0.0209
 4910SOL    HW126363   0.928   3.677   3.278 -0.3288  0.3151  1.4329
 4910SOL    HW226364   0.838   3.570   3.325 -0.2970  1.3377  0.5184
 4911SOL     OW26365   3.541   4.040   8.192  0.3225  0.2647 -0.3166
 4911SOL    HW126366   3.473   3.973   8.184 -0.2588  0.6777  1.2191
 4911SOL    HW226367   3.621   3.991   8.173  0.4349 -0.4886  2.1283
 4912SOL     OW26368   3.530   1.172  15.229  0.0470 -0.6385  0.4409
 4912SOL    HW126369   3.495   1.107  15.168 -0.4545  0.0831 -0.0413
 4912SOL    HW226370   3.456   1.183  15.289  0.3219  0.7874  0.5316
 4913SOL     OW26371   3.920   2.851  16.179 -0.3746 -0.6429 -0.2888
 4913SOL    HW126372   3.916   2.947  16.183  0.3009 -0.5492 -2.0091
 4913SOL    HW226373   3.950   2.842  16.269  0.6824 -1.5620 -0.7405
 4914SOL     OW26374   3.851   4.027   4.865  0.6835 -0.3619  0.5314
 4914SOL    HW126375   3.892   4.102   4.823  1.5950 -0.5641  1.0549
 4914SOL    HW226376   3.907   3.951   4.852 -1.5682 -2.3050  2.1211
 4915SOL     OW26377   2.469   0.683  15.648  0.1569  0.5866  0.1576
 4915SOL    HW126378   2.396   0.639  15.604 -0.7731  0.5230  1.7363
 4915SOL    HW226379   2.415   0.754  15.682 -0.7141 -0.2680  0.5766
 4916SOL     OW26380   4.439   2.803  12.596 -0.2506 -0.2049  0.1428
 4916SOL    HW126381   4.467   2.795  12.687 -1.4447 -3.9856  0.1723
 4916SOL    HW226382   4.483   2.726  12.561  0.7590  0.5294 -0.1944
 4917SOL     OW26383   4.457   2.850   1.207  0.5563 -0.5506 -0.0616
 4917SOL    HW126384   4.443   2.806   1.123  1.9175  0.8552 -1.0332
 4917SOL    HW226385   4.364   2.869   1.223  1.1143  2.8920 -0.7854
 4918SOL     OW26386   3.030   4.601   4.310  0.1710 -0.0161 -0.4888
 4918SOL    HW126387   3.052   4.673   4.370  0.2275 -2.0148  1.9015
 4918SOL    HW226388   3.049   4.644   4.227  0.3515 -1.7706 -1.3444
 4919SOL     OW26389   1.897   2.605   3.494 -0.5176 -0.0284  0.0434
 4919SOL    HW126390   1.906   2.522   3.448  0.8289 -0.3953  0.9406
 4919SOL    HW226391   1.888   2.571   3.583  2.0603 -1.8941 -0.4135
 4920SOL     OW26392   2.856   3.071   8.561 -0.4238  0.1627  0.2558
 4920SOL    HW126393   2.878   3.096   8.650 -0.4128  1.7650 -0.2066
 4920SOL    HW226394   2.847   2.976   8.574  1.5852  0.2357  2.2338
 4921SOL     OW26395   2.144   0.104   8.799 -0.4158 -0.2683  0.3630
 4921SOL    HW126396   2.167   0.133   8.888 -2.0394  0.7618  0.4491
 4921SOL    HW226397   2.143   0.009   8.812 -1.2805 -0.7575 -3.3828
 4922SOL     OW26398   3.374   3.182   3.256  0.3415  0.1765 -0.0956
 4922SOL    HW126399   3.289   3.167   3.298 -0.4152 -0.4274 -1.8259
 4922SOL    HW226400   3.408   3.092   3.256 -2.1146 -0.7679  0.9883
 4923SOL     OW26401   2.269   4.061  14.997  0.1233  0.1167  0.0459
 4923SOL    HW126402   2.198   4.003  15.025  2.0847 -1.1121  2.4652
 4923SOL    HW226403   2.271   4.049  14.902 -1.3865  0.5299 -0.0335
 4924SOL     OW26404   2.475   3.969  15.615  0.1302 -0.0605  0.0312
 4924SOL    HW126405   2.413   3.896  15.604 -0.0335 -0.0590  0.9601
 4924SOL    HW226406   2.555   3.917  15.605 -0.0423 -0.5851  1.4325
 4925SOL     OW26407   0.320   0.057  13.612  0.1544 -1.1665 -0.0867
 4925SOL    HW126408   0.378   0.120  13.568  0.6152 -1.0940  0.6186
 4925SOL    HW226409   0.237   0.104  13.606  1.4218  1.1320  0.2729
 4926SOL     OW26410   3.783   1.407   7.728 -0.4227  0.0176  0.2208
 4926SOL    HW126411   3.832   1.342   7.677 -0.0347 -1.3696  2.3903
 4926SOL    HW226412   3.744   1.465   7.663  0.4302  1.0817  0.6657
 4927SOL     OW26413   4.176   2.692  15.115 -0.3434 -0.3241  0.4987
 4927SOL    HW126414   4.133   2.777  15.130 -2.0535 -1.0415 -0.4037
 4927SOL    HW226415   4.221   2.681  15.199  0.3817  0.4398  0.2104
 4928SOL     OW26416   0.049   0.912   6.676 -0.1715 -0.2588  0.6040
 4928SOL    HW126417   0.045   0.974   6.749 -0.1036 -0.2260  0.5793
 4928SOL    HW226418   0.100   0.964   6.614  0.4415  2.2432  3.2158
 4929SOL     OW26419   3.724   0.702   7.897  0.6402  0.1736  0.3349
 4929SOL    HW126420   3.672   0.621   7.888  1.0551  0.1380 -1.8027
 4929SOL    HW226421   3.699   0.722   7.987 -0.8486 -1.8825  0.4045
 4930SOL     OW26422   2.602   3.827  12.210  0.0901 -0.3059  0.0584
 4930SOL    HW126423   2.607   3.786  12.296  0.6180  0.5903  0.4606
 4930SOL    HW226424   2.666   3.786  12.153  0.0259 -1.7782  1.0439
 4931SOL     OW26425   0.047   4.152  15.399  0.0174  0.2799 -0.2224
 4931SOL    HW126426   0.123   4.209  15.401  1.9429 -2.2791 -0.6841
 4931SOL    HW226427   0.059   4.072  15.451  0.1895  1.1289  1.0453
 4932SOL     OW26428   4.483   2.532  13.638  0.2306 -0.2035  0.0912
 4932SOL    HW126429   4.415   2.548  13.573 -0.0744 -0.5196  0.3329
 4932SOL    HW226430   4.438   2.480  13.704 -0.1902 -0.3969 -0.3441
 4933SOL     OW26431   2.451   4.445   4.538  0.2573 -0.1202  0.1619
 4933SOL    HW126432   2.486   4.501   4.469 -0.7040  0.2625 -0.0066
 4933SOL    HW226433   2.530   4.427   4.590 -0.4727  0.6988  1.5378
 4934SOL     OW26434   1.097   2.759   6.481  0.0019 -0.0517  0.6143
 4934SOL    HW126435   1.112   2.717   6.396  2.0463  0.3491  0.7621
 4934SOL    HW226436   1.185   2.789   6.506  0.2366  1.4717 -2.0179
 4935SOL     OW26437   4.646   0.799   7.594 -0.0045  0.2631 -0.0401
 4935SOL    HW126438   4.568   0.852   7.579 -2.0480 -2.1039  2.1274
 4935SOL    HW226439   4.680   0.847   7.669 -0.6415  2.2451 -1.0300
 4936SOL     OW26440   4.691   2.558  12.866 -0.3307 -0.6406 -0.1064
 4936SOL    HW126441   0.022   2.616  12.892 -1.6403  0.8738  0.1532
 4936SOL    HW226442   4.619   2.620  12.871  0.5147  0.2952  0.5322
 4937SOL     OW26443   3.601   1.743   6.952  0.7739 -0.1082 -0.3944
 4937SOL    HW126444   3.612   1.837   6.941  0.0455 -0.0227 -0.4249
 4937SOL    HW226445   3.681   1.723   7.000  0.6549 -1.0392 -0.5902
 4938SOL     OW26446   2.316   2.318   2.660  0.3703  0.7832  0.1456
 4938SOL    HW126447   2.319   2.292   2.568 -0.5482 -0.2101  0.4015
 4938SOL    HW226448   2.224   2.303   2.682  0.0926 -0.7403 -2.1129
 4939SOL     OW26449   3.471   2.278   9.287  0.2195 -0.0320 -0.3279
 4939SOL    HW126450   3.510   2.191   9.303  2.3758  1.4382  2.3404
 4939SOL    HW226451   3.543   2.338   9.306  1.0803 -0.4840 -2.1645
 4940SOL     OW26452   1.221   0.048   8.153 -0.7704 -0.2171  0.3022
 4940SOL    HW126453   1.315   0.033   8.144 -0.7317 -0.7255  1.5101
 4940SOL    HW226454   1.183   4.704   8.130 -1.4671  0.3161 -0.5300
 4941SOL     OW26455   1.200   3.232   7.371  0.1324 -0.1465 -0.0368
 4941SOL    HW126456   1.177   3.174   7.299 -1.5756  0.5797 -0.0930
 4941SOL    HW226457   1.149   3.310   7.349  1.0210  0.1299 -1.1069
 4942SOL     OW26458   1.921   1.481   6.116 -0.0867  0.0826 -0.1756
 4942SOL    HW126459   2.011   1.496   6.089  0.4594 -0.3625  1.3997
 4942SOL    HW226460   1.900   1.393   6.083 -0.5690  0.4402 -0.8125
 4943SOL     OW26461   3.816   2.869   3.875  0.5592  0.3253 -0.3693
 4943SOL    HW126462   3.844   2.958   3.898  1.9737 -0.3613  0.5223
 4943SOL    HW226463   3.842   2.815   3.949 -1.7361  0.0461  0.2536
 4944SOL     OW26464   2.750   1.529   4.750 -0.2077  0.1378  0.3031
 4944SOL    HW126465   2.766   1.537   4.656  2.3726  2.0210  0.8947
 4944SOL    HW226466   2.700   1.448   4.756  0.8198 -0.7100 -2.4739
 4945SOL     OW26467   3.502   2.268   1.800  0.3339 -0.2422  0.1251
 4945SOL    HW126468   3.569   2.211   1.763 -0.2720 -1.1916  0.4978
 4945SOL    HW226469   3.444   2.272   1.724 -0.9300  1.2791  1.1551
 4946SOL     OW26470   1.916   1.348   4.569  0.0439 -0.3497  0.4528
 4946SOL    HW126471   1.943   1.440   4.564  0.5944 -0.4360  1.8332
 4946SOL    HW226472   1.863   1.341   4.490 -3.3123 -1.6452  2.8012
 4947SOL     OW26473   4.513   1.969   1.918  0.0067  0.5137 -0.7670
 4947SOL    HW126474   4.561   2.051   1.934 -0.0302 -0.2941  3.6022
 4947SOL    HW226475   4.571   1.912   1.969 -0.5802  0.6819  0.0976
 4948SOL     OW26476   3.718   1.441  12.034  0.0213 -0.7096  0.8137
 4948SOL    HW126477   3.776   1.374  12.069  0.4275 -0.1950  1.1349
 4948SOL    HW226478   3.656   1.389  11.984  0.2792 -0.0507 -0.1873
 4949SOL     OW26479   1.360   3.750   5.827 -0.0540  0.0124 -0.4531
 4949SOL    HW126480   1.423   3.679   5.818  1.0261  0.9746 -0.5085
 4949SOL    HW226481   1.349   3.737   5.921  0.2453  4.1292  0.1527
 4950SOL     OW26482   2.104   0.884   4.103  0.5140  0.2322 -0.3671
 4950SOL    HW126483   2.121   0.868   4.196 -0.1033  0.0059 -0.2907
 4950SOL    HW226484   2.008   0.886   4.099  0.5898  1.7389 -1.8175
 4951SOL     OW26485   1.806   0.195   7.648 -0.5696  0.2740 -0.2047
 4951SOL    HW126486   1.823   0.204   7.741 -0.2747 -0.8858 -0.1367
 4951SOL    HW226487   1.884   0.147   7.618 -1.0800  1.3816 -3.3237
 4952SOL     OW26488   0.296   2.858   8.102 -0.2590  0.2344 -0.5368
 4952SOL    HW126489   0.307   2.952   8.085  2.4522  0.1436  0.6335
 4952SOL    HW226490   0.323   2.817   8.020 -0.3081 -1.2905  0.2245
 4953SOL     OW26491   4.222   2.992  16.932 -0.0639 -0.0132  0.5161
 4953SOL    HW126492   4.230   3.083  16.961 -3.1630 -0.0769  1.5150
 4953SOL    HW226493   4.316   2.977  16.943  0.4225  0.2007 -3.1954
 4954SOL     OW26494   4.348   1.156   2.399  0.3928  0.2744 -0.3308
 4954SOL    HW126495   4.434   1.167   2.358  1.0664 -1.8644  0.4994
 4954SOL    HW226496   4.371   1.113   2.482 -1.6852 -0.1930  0.0015
 4955SOL     OW26497   4.514   0.679  17.435  0.4483  0.5436  0.5025
 4955SOL    HW126498   4.423   0.695  17.409  0.2084  1.4561  1.9082
 4955SOL    HW226499   4.537   0.591  17.404  0.0753  0.4328  0.5298
 4956SOL     OW26500   0.736   1.121   3.623 -0.0066 -0.1589 -0.2929
 4956SOL    HW126501   0.792   1.076   3.560 -0.1654  0.7789 -1.0895
 4956SOL    HW226502   0.653   1.089   3.587 -1.0862 -0.1574  2.1646
 4957SOL     OW26503   2.474   3.085   3.512 -0.5368 -0.3663 -0.2480
 4957SOL    HW126504   2.505   3.157   3.456  0.7186 -1.9873 -1.6354
 4957SOL    HW226505   2.552   3.036   3.536  0.3650  0.2784 -1.8116
 4958SOL     OW26506   2.417   3.756   7.963 -0.3513  0.0204 -0.0021
 4958SOL    HW126507   2.358   3.773   7.890 -0.6422  1.3246  0.5356
 4958SOL    HW226508   2.383   3.817   8.028 -1.1236 -3.0875  2.5215
 4959SOL     OW26509   1.934   4.449   8.243  0.0662  0.5567 -0.6826
 4959SOL    HW126510   1.970   4.375   8.292 -1.2715 -0.3172 -1.0054
 4959SOL    HW226511   1.976   4.512   8.302  2.8016 -1.6241 -0.2948
 4960SOL     OW26512   1.767   3.340   9.229  0.1627 -0.6617 -0.3323
 4960SOL    HW126513   1.703   3.410   9.241  0.1822 -0.8662  0.9860
 4960SOL    HW226514   1.720   3.270   9.274 -0.1116  1.1551  2.2350
 4961SOL     OW26515   3.198   4.231   2.781 -0.1572  0.1450  0.3314
 4961SOL    HW126516   3.288   4.260   2.796 -0.0551 -0.5524  1.0073
 4961SOL    HW226517   3.217   4.148   2.737 -0.9818 -0.7408  1.6594
 4962SOL     OW26518   1.990   4.211   7.552 -0.4605 -0.2211 -0.4888
 4962SOL    HW126519   1.928   4.218   7.480 -1.4652 -0.4631  0.3398
 4962SOL    HW226520   1.963   4.289   7.600  1.4660 -0.0511  0.3379
 4963SOL     OW26521   0.014   1.112   3.672  0.1220 -0.4378  0.3978
 4963SOL    HW126522   0.078   1.184   3.669 -0.8094  0.4196  1.4041
 4963SOL    HW226523   0.057   1.034   3.637 -0.0244  0.1337 -1.0810
 4964SOL     OW26524   1.391   0.650   9.002 -0.1329  0.2186 -1.2442
 4964SOL    HW126525   1.417   0.658   8.911  1.4524 -1.6022 -0.9624
 4964SOL    HW226526   1.466   0.605   9.043  0.2332  2.3103  0.4108
 4965SOL     OW26527   4.295   0.102   5.893  0.2070  0.6510 -0.0645
 4965SOL    HW126528   4.306   0.109   5.798  1.0174  3.1371  0.2030
 4965SOL    HW226529   4.251   0.182   5.923 -0.3708  0.1484  0.4078
 4966SOL     OW26530   4.550   3.873   2.184 -0.3644  0.6154 -0.2549
 4966SOL    HW126531   4.510   3.953   2.216 -0.6588  1.2580 -2.2002
 4966SOL    HW226532   4.585   3.846   2.269 -0.4058  0.5155 -0.2687
 4967SOL     OW26533   1.722   0.092   0.157  0.0425 -0.3059 -0.2440
 4967SOL    HW126534   1.706   0.185   0.147  0.1751  0.0874  3.2578
 4967SOL    HW226535   1.639   0.052   0.181 -1.8115  1.8797 -3.1474
 4968SOL     OW26536   1.454   4.732   8.323 -0.6611  0.4238 -0.0109
 4968SOL    HW126537   1.544   4.720   8.351 -0.5706  1.7805  0.2728
 4968SOL    HW226538   1.475   0.039   8.243 -1.9030  1.7611  0.4743
 4969SOL     OW26539   3.583   4.041   5.341 -0.2257  0.3837  0.4968
 4969SOL    HW126540   3.677   4.053   5.328  0.1933 -0.9219  2.2320
 4969SOL    HW226541   3.591   4.050   5.436 -1.1965 -0.3279  0.6468
 4970SOL     OW26542   1.890   1.761  15.619  0.9146 -0.2754  0.2448
 4970SOL    HW126543   1.869   1.779  15.711 -1.2204  3.1696 -0.9118
 4970SOL    HW226544   1.807   1.716  15.603 -0.0087  2.4692 -2.6785
 4971SOL     OW26545   0.987   0.846   5.265  0.2583 -0.5451 -0.5285
 4971SOL    HW126546   0.987   0.769   5.208 -2.1105 -1.9540  1.3933
 4971SOL    HW226547   1.031   0.806   5.340 -0.5101  2.1534  1.3686
 4972SOL     OW26548   3.116   2.389   3.099 -0.4121  0.5502 -0.4975
 4972SOL    HW126549   3.136   2.382   3.005  0.6764  0.4342 -0.2666
 4972SOL    HW226550   3.205   2.389   3.135 -1.0185  0.6443  0.9907
 4973SOL     OW26551   1.477   2.287   2.622 -0.5544 -0.4896  0.2007
 4973SOL    HW126552   1.385   2.308   2.636 -0.1998  1.6760 -0.7354
 4973SOL    HW226553   1.464   2.198   2.588  1.0698 -0.0388 -1.6202
 4974SOL     OW26554   3.474   1.595   1.886 -0.3727 -0.1263  0.0436
 4974SOL    HW126555   3.533   1.639   1.825 -0.4526 -0.9912 -0.6419
 4974SOL    HW226556   3.419   1.670   1.907 -0.8514 -0.7298  0.9718
 4975SOL     OW26557   2.174   0.976   3.563  0.2359 -0.2735 -0.4038
 4975SOL    HW126558   2.131   0.913   3.506  0.0531  0.6666 -1.3136
 4975SOL    HW226559   2.114   1.051   3.568  0.6064  0.0298 -0.4423
 4976SOL     OW26560   1.097   3.443   9.788  0.2378  0.8729 -0.0814
 4976SOL    HW126561   1.006   3.423   9.806  0.2444  0.3600 -0.6180
 4976SOL    HW226562   1.115   3.408   9.701  1.2520  0.0369  0.4724
 4977SOL     OW26563   0.008   0.148  13.408  0.6269  0.4429  0.6522
 4977SOL    HW126564   4.693   0.157  13.485 -1.0482  2.6515 -0.8393
 4977SOL    HW226565   0.005   0.054  13.390  0.1337  0.0903  2.6668
 4978SOL     OW26566   2.969   4.731   3.545  0.2593  0.3749 -0.1868
 4978SOL    HW126567   2.889   4.737   3.493 -0.1904 -0.1394  0.4277
 4978SOL    HW226568   3.014   4.650   3.518  2.2496  2.0522 -1.8601
 4979SOL     OW26569   3.598   1.419   1.136 -0.1918  0.2761 -0.2183
 4979SOL    HW126570   3.512   1.385   1.111  0.3188  0.3160 -2.0554
 4979SOL    HW226571   3.580   1.512   1.120 -1.3231  0.1603  0.3780
 4980SOL     OW26572   3.396   3.142   5.028 -0.0353  0.1798  0.3614
 4980SOL    HW126573   3.413   3.210   4.964  0.0492  0.6561  0.8940
 4980SOL    HW226574   3.318   3.096   4.997  1.5575 -3.1808  1.2588
 4981SOL     OW26575   0.179   3.030   7.578 -0.6875  0.4365 -0.1572
 4981SOL    HW126576   0.134   2.980   7.646  0.2037  0.3833  0.3900
 4981SOL    HW226577   0.105   3.056   7.523  0.8372 -0.8217 -2.8046
 4982SOL     OW26578   2.479   1.886   7.798  0.1068  0.8709  1.0381
 4982SOL    HW126579   2.414   1.817   7.790 -0.3054  1.6260 -2.1720
 4982SOL    HW226580   2.494   1.897   7.704 -2.7409 -0.8008  0.3735
 4983SOL     OW26581   4.736   3.942   2.877 -0.3874  0.3124  0.0801
 4983SOL    HW126582   0.078   3.956   2.922  0.6234  2.0123 -2.3094
 4983SOL    HW226583   4.735   3.847   2.864  0.7393  0.2968  0.0825
 4984SOL     OW26584   1.991   1.194   0.671 -0.0218 -0.3741 -0.2748
 4984SOL    HW126585   1.989   1.101   0.648 -1.9693 -0.6311  0.9303
 4984SOL    HW226586   1.908   1.203   0.718  0.4834 -2.3726  0.9911
 4985SOL     OW26587   0.773   0.472  16.530 -0.0764 -0.1068 -0.5219
 4985SOL    HW126588   0.743   0.501  16.444  0.1000 -0.2818 -0.6421
 4985SOL    HW226589   0.793   0.558  16.567 -2.2865  0.1065  0.1569
 4986SOL     OW26590   4.446   3.606   4.867  0.0263  0.5230  0.3003
 4986SOL    HW126591   4.469   3.697   4.882 -0.3963  1.1165 -2.7893
 4986SOL    HW226592   4.405   3.589   4.952  0.2579 -0.8426  0.1403
 4987SOL     OW26593   4.522   0.116  14.056 -0.5823 -0.1761 -0.3605
 4987SOL    HW126594   4.485   0.030  14.039 -1.2776 -0.1039  0.7756
 4987SOL    HW226595   4.516   0.160  13.971  0.4967 -1.7177 -1.2125
 4988SOL     OW26596   3.360   2.268   2.297  0.1819  0.1255 -0.5348
 4988SOL    HW126597   3.342   2.191   2.352 -3.9282  1.0280 -0.6424
 4988SOL    HW226598   3.411   2.228   2.226 -0.4410  0.4459 -1.1683
 4989SOL     OW26599   2.054   4.075   6.572  0.1659  0.2806  0.4223
 4989SOL    HW126600   2.013   4.077   6.658 -0.2721  1.9261  0.1732
 4989SOL    HW226601   2.086   4.165   6.570  0.6280  0.0934 -0.5110
 4990SOL     OW26602   4.667   4.354  14.276  0.1456  0.2032  0.5783
 4990SOL    HW126603   4.707   4.270  14.299 -1.0176  0.2030  2.5908
 4990SOL    HW226604   4.612   4.331  14.202  0.4757 -1.0086  0.7076
 4991SOL     OW26605   2.202   2.312   6.255 -0.2991  0.2735  0.2494
 4991SOL    HW126606   2.178   2.278   6.341 -1.0217  2.0327  0.7607
 4991SOL    HW226607   2.115   2.306   6.217 -1.0412  1.5647  1.7072
 4992SOL     OW26608   2.652   0.728   0.461 -0.1155 -0.6093 -0.0936
 4992SOL    HW126609   2.695   0.645   0.445 -1.6275 -1.3228 -0.4336
 4992SOL    HW226610   2.705   0.782   0.403 -3.4671  1.3753 -1.3324
 4993SOL     OW26611   1.098   3.782   8.088  0.0228  0.8027 -0.0790
 4993SOL    HW126612   1.029   3.717   8.106  1.1596 -0.8922 -1.8769
 4993SOL    HW226613   1.145   3.772   8.171 -1.6031  1.2786  0.8985
 4994SOL     OW26614   2.895   1.204  14.169 -0.3049 -0.6278  0.1050
 4994SOL    HW126615   2.873   1.138  14.235 -1.5978 -1.6140 -1.3321
 4994SOL    HW226616   2.866   1.286  14.210  0.5631 -0.0175 -0.5223
 4995SOL     OW26617   1.271   0.429   1.919  0.1726  0.1865  0.6486
 4995SOL    HW126618   1.255   0.335   1.930 -0.2940  0.3692  1.5652
 4995SOL    HW226619   1.344   0.431   1.858  0.8275  1.3338  1.4663
 4996SOL     OW26620   2.376   0.161   7.135 -0.3772  0.6970  0.3610
 4996SOL    HW126621   2.448   0.211   7.096  1.2475 -0.8682  1.3548
 4996SOL    HW226622   2.430   0.097   7.180 -0.8337 -0.3181 -0.5305
 4997SOL     OW26623   0.083   1.726   7.189  0.3768 -0.3746  0.0766
 4997SOL    HW126624   0.062   1.819   7.196  0.3831 -0.3918  0.3087
 4997SOL    HW226625   0.155   1.711   7.250 -0.5088 -4.1401  0.1543
 4998SOL     OW26626   1.930   0.045   2.419 -0.0356 -1.1363 -0.4908
 4998SOL    HW126627   1.910   4.693   2.415  2.6145 -1.7328  0.6750
 4998SOL    HW226628   1.939   0.062   2.325  0.1064  0.9494 -0.1075
 4999SOL     OW26629   2.305   4.149  16.045  0.1980 -0.6296  0.3819
 4999SOL    HW126630   2.326   4.139  16.138 -1.7439 -1.3998  0.7453
 4999SOL    HW226631   2.367   4.085  16.010  1.7097  0.4660  1.0464
 5000SOL     OW26632   3.555   0.799   4.041  0.0163  0.1078 -0.4807
 5000SOL    HW126633   3.482   0.738   4.053 -0.5218  0.7243 -0.6086
 5000SOL    HW226634   3.534   0.830   3.953 -2.1837 -1.4084 -0.4912
 5001SOL     OW26635   0.768   3.212   3.100 -0.0467 -0.5414 -0.2424
 5001SOL    HW126636   0.781   3.150   3.028 -0.6436 -0.4847 -0.4005
 5001SOL    HW226637   0.724   3.282   3.052 -1.0742  0.9299  2.9041
 5002SOL     OW26638   1.571   3.546   4.927 -0.1447 -0.4302  0.1752
 5002SOL    HW126639   1.617   3.468   4.896  0.5467 -0.1761  0.5669
 5002SOL    HW226640   1.627   3.615   4.891 -1.5626  2.3770  3.3337
 5003SOL     OW26641   3.064   1.520   6.046  0.3134 -0.1210 -0.4788
 5003SOL    HW126642   3.066   1.556   5.957 -0.8166 -1.9407 -1.2226
 5003SOL    HW226643   3.130   1.451   6.044  1.3303  0.8380 -0.4609
 5004SOL     OW26644   2.216   0.655   4.015 -0.1289 -0.2911 -0.2866
 5004SOL    HW126645   2.177   0.739   4.039  2.4042  0.7155  0.2713
 5004SOL    HW226646   2.199   0.669   3.922  2.0223 -0.6355 -0.7203
 5005SOL     OW26647   3.008   0.161   3.069 -0.7405  0.2483  0.0732
 5005SOL    HW126648   2.917   0.147   3.093 -1.5454  2.8974 -1.4284
 5005SOL    HW226649   3.053   0.090   3.115 -0.6411 -1.1384 -2.1743
 5006SOL     OW26650   1.516   2.080   9.854 -0.1864 -0.4652  0.3628
 5006SOL    HW126651   1.548   2.138   9.784 -1.4092  0.4224  0.5509
 5006SOL    HW226652   1.421   2.084   9.852 -0.1363  0.1560 -0.8962
 5007SOL     OW26653   3.506   2.926   4.751 -0.0014  0.1460 -0.1532
 5007SOL    HW126654   3.497   2.885   4.837  1.0166  1.1283  0.4196
 5007SOL    HW226655   3.594   2.892   4.734 -0.1780 -0.2957 -0.1722
 5008SOL     OW26656   3.948   2.075   7.968  0.3510 -0.3566 -0.0532
 5008SOL    HW126657   3.855   2.057   7.955  0.1329  0.6973  0.0645
 5008SOL    HW226658   3.947   2.085   8.063  1.0286 -0.0959 -0.0719
 5009SOL     OW26659   1.227   2.262   7.680 -0.4267  0.1714  0.1425
 5009SOL    HW126660   1.149   2.258   7.735  1.3643  1.4592  2.7605
 5009SOL    HW226661   1.288   2.237   7.749  1.0804  0.9672 -0.9063
 5010SOL     OW26662   2.100   4.399   8.005 -0.2546 -0.2840  0.0903
 5010SOL    HW126663   2.079   4.410   8.098  0.2561  0.4850  0.1226
 5010SOL    HW226664   2.090   4.305   7.995  1.3145 -0.4790  0.3541
 5011SOL     OW26665   0.861   4.242   1.457 -0.0317 -0.5688  0.1247
 5011SOL    HW126666   0.907   4.190   1.392  2.7182  0.9488  0.8496
 5011SOL    HW226667   0.917   4.320   1.456  2.3021 -2.2350  0.0015
 5012SOL     OW26668   0.177   2.637   3.148 -0.0482  0.2465 -0.1598
 5012SOL    HW126669   0.159   2.563   3.206  0.0459  0.8505  0.6511
 5012SOL    HW226670   0.084   2.641   3.126  0.3417 -0.2965 -1.9337
 5013SOL     OW26671   0.630   4.372   2.094  0.3326  0.0167  0.7950
 5013SOL    HW126672   0.624   4.466   2.073 -2.8717 -0.5964 -0.9795
 5013SOL    HW226673   0.660   4.380   2.185  0.2745 -0.9511  0.8941
 5014SOL     OW26674   1.583   3.741  17.137  0.9083  0.2975  1.0470
 5014SOL    HW126675   1.517   3.811  17.148 -0.2590 -0.7555  0.7726
 5014SOL    HW226676   1.552   3.672  17.195 -1.0842  1.2964  1.1787
 5015SOL     OW26677   1.388   0.034   3.408 -0.2617  0.1758  0.1489
 5015SOL    HW126678   1.465   0.067   3.361 -1.5964  0.2458 -1.9938
 5015SOL    HW226679   1.343   0.118   3.418  1.1147  0.8951  0.3294
 5016SOL     OW26680   3.399   1.151   5.053 -0.1870  0.3468  0.3539
 5016SOL    HW126681   3.404   1.198   5.137 -0.2713  3.0879 -1.1536
 5016SOL    HW226682   3.310   1.115   5.058 -0.6264  1.1963 -1.4332
 5017SOL     OW26683   3.763   0.206   3.082  0.2610 -0.0763  0.1088
 5017SOL    HW126684   3.674   0.172   3.083  0.5261 -0.7496  0.8432
 5017SOL    HW226685   3.793   0.163   3.162  1.4498  0.3435 -0.1133
 5018SOL     OW26686   3.807   4.652   6.267  0.0237  0.1034 -0.3638
 5018SOL    HW126687   3.801   4.586   6.336  0.6573  0.7516  0.2996
 5018SOL    HW226688   3.748   4.712   6.312  2.1410  0.2106  2.3249
 5019SOL     OW26689   2.466   1.948  16.951 -0.0672 -0.0591  0.2038
 5019SOL    HW126690   2.406   2.021  16.936  1.0829  0.3444 -2.3965
 5019SOL    HW226691   2.524   1.952  16.875  1.3887  0.4733  1.3367
 5020SOL     OW26692   0.083   2.134   4.688 -0.0347 -0.0735  0.4579
 5020SOL    HW126693   0.131   2.213   4.714 -1.4781  1.2974 -1.0577
 5020SOL    HW226694   0.151   2.099   4.631 -0.8893  1.5464 -1.5503
 5021SOL     OW26695   0.639   1.111   7.261 -0.0711 -0.8485 -0.0689
 5021SOL    HW126696   0.622   1.141   7.171 -3.0050 -1.0159  0.4455
 5021SOL    HW226697   0.720   1.061   7.248  0.1097 -0.2757 -1.1823
 5022SOL     OW26698   2.864   3.792  11.669 -0.2000  0.0789 -0.9280
 5022SOL    HW126699   2.925   3.864  11.688  0.8057 -1.1552  0.5561
 5022SOL    HW226700   2.929   3.722  11.655 -0.5580 -0.3469 -0.4556
 5023SOL     OW26701   1.044   0.454   0.763  0.1858  0.2062  0.2355
 5023SOL    HW126702   1.017   0.488   0.678 -0.0209 -0.5084  0.0167
 5023SOL    HW226703   1.134   0.484   0.760 -0.2932  1.7509  1.1669
 5024SOL     OW26704   1.020   3.791   5.161  0.1070 -0.2822 -0.1119
 5024SOL    HW126705   1.095   3.733   5.156  0.0791 -0.1421 -2.3288
 5024SOL    HW226706   0.943   3.736   5.174  1.1426 -1.4409  1.1043
 5025SOL     OW26707   3.567   0.639  11.654  0.5053 -0.0320 -0.5882
 5025SOL    HW126708   3.570   0.728  11.618 -0.6285  0.0121 -0.5697
 5025SOL    HW226709   3.520   0.662  11.734  1.5788 -0.3917  0.1389
 5026SOL     OW26710   1.466   1.983  15.289 -0.9779 -0.4526 -0.3375
 5026SOL    HW126711   1.553   1.945  15.281 -0.6816  0.6043 -2.2953
 5026SOL    HW226712   1.440   1.991  15.197 -0.6291 -3.8099 -0.7018
 5027SOL     OW26713   4.559   2.726   5.101 -0.2611 -0.1240  0.7992
 5027SOL    HW126714   4.548   2.734   5.196  0.0849  1.7675  0.6815
 5027SOL    HW226715   4.515   2.806   5.073  0.2607  0.0640  0.5101
 5028SOL     OW26716   0.041   3.896   4.804 -0.4792 -0.1231  0.8142
 5028SOL    HW126717   0.109   3.954   4.837 -0.0334  0.0695 -0.4680
 5028SOL    HW226718   0.086   3.813   4.818  1.5859  1.1303  1.5489
 5029SOL     OW26719   2.926   0.650   6.792 -0.0456 -0.3668  0.5062
 5029SOL    HW126720   2.879   0.603   6.723  0.3329  0.2062 -0.1353
 5029SOL    HW226721   2.963   0.580   6.846 -1.4414 -0.8539  0.8437
 5030SOL     OW26722   0.365   1.252   3.140  0.3526 -0.0558 -0.6199
 5030SOL    HW126723   0.326   1.165   3.137 -0.2036  0.1106  1.2598
 5030SOL    HW226724   0.390   1.256   3.233 -0.4327 -1.6860 -0.3460
 5031SOL     OW26725   2.365   0.249   4.808  0.0419  0.0245 -0.1026
 5031SOL    HW126726   2.360   0.304   4.886  0.0303  2.3798 -1.7405
 5031SOL    HW226727   2.330   0.313   4.746 -0.2383 -0.0103  0.0161
 5032SOL     OW26728   2.843   4.206   6.146  0.1964  0.6451 -0.1284
 5032SOL    HW126729   2.838   4.301   6.135 -0.1593  0.6964  0.5214
 5032SOL    HW226730   2.934   4.194   6.118 -0.0990  0.4738 -1.0247
 5033SOL     OW26731   4.360   1.660  12.604  0.1178 -0.3194  0.1226
 5033SOL    HW126732   4.390   1.662  12.695  1.0385 -0.8114 -0.1622
 5033SOL    HW226733   4.344   1.566  12.598 -0.2038 -0.3558  1.5962
 5034SOL     OW26734   2.091   4.734   5.353  0.0266 -0.3070 -0.2187
 5034SOL    HW126735   2.143   0.038   5.287 -0.3174 -3.4024 -2.6214
 5034SOL    HW226736   2.050   4.668   5.297 -1.2914  1.1196 -0.9461
 5035SOL     OW26737   1.441   3.035   2.935 -0.4269  0.9430 -0.7754
 5035SOL    HW126738   1.508   2.971   2.960 -0.6516  1.4542  1.1209
 5035SOL    HW226739   1.466   3.058   2.846  2.1127  0.5056 -0.1865
 5036SOL     OW26740   3.634   1.814   3.957 -0.0056  0.1526 -0.7216
 5036SOL    HW126741   3.641   1.807   4.052  3.9425 -0.5820 -1.0556
 5036SOL    HW226742   3.638   1.722   3.931  2.5735 -0.2639  1.1003
 5037SOL     OW26743   4.716   0.508   1.251 -0.0087  0.0110 -0.1044
 5037SOL    HW126744   4.725   0.470   1.164 -2.1277 -0.7467  0.0152
 5037SOL    HW226745   4.660   0.441   1.290  0.7115 -0.7897 -0.4598
 5038SOL     OW26746   2.722   0.917   8.174  0.0968  0.1806 -0.5638
 5038SOL    HW126747   2.742   0.833   8.134  2.2027  0.0321  0.7909
 5038SOL    HW226748   2.793   0.976   8.150 -0.7910  1.9666  1.1206
 5039SOL     OW26749   2.646   2.638   3.170 -0.6554 -0.0097 -0.0294
 5039SOL    HW126750   2.739   2.619   3.158 -0.2789  1.5606  0.4799
 5039SOL    HW226751   2.626   2.652   3.077 -2.9455 -0.0320  0.4438
 5040SOL     OW26752   4.647   3.051   5.777  0.0270 -0.1517  0.1760
 5040SOL    HW126753   4.664   2.960   5.803  1.7281 -0.6650 -2.8016
 5040SOL    HW226754   4.665   3.092   5.861  0.0159  1.0598 -0.4202
 5041SOL     OW26755   2.990   2.592   1.828 -0.0078  0.2052  0.2501
 5041SOL    HW126756   3.026   2.522   1.883 -0.5844 -0.7088 -0.5356
 5041SOL    HW226757   2.907   2.608   1.873  0.3584 -0.3122  1.1079
 5042SOL     OW26758   0.751   3.110   8.468 -0.2269 -0.3917  0.2145
 5042SOL    HW126759   0.777   3.019   8.454  2.2710  0.6955 -2.0473
 5042SOL    HW226760   0.678   3.119   8.407  0.2842 -0.3856 -0.3943
 5043SOL     OW26761   0.408   0.269  13.392 -0.1644  0.1370 -0.8196
 5043SOL    HW126762   0.361   0.330  13.448  0.0125  0.4862 -1.0529
 5043SOL    HW226763   0.347   0.269  13.319 -1.8587  2.3734  0.6080
 5044SOL     OW26764   1.769   2.984   0.809  0.4671  0.4081  0.0177
 5044SOL    HW126765   1.786   3.078   0.816 -0.4554  0.5943 -0.3122
 5044SOL    HW226766   1.732   2.957   0.893 -1.6268  1.9874 -0.3811
 5045SOL     OW26767   4.641   4.701   8.615 -0.4192  0.0425  0.2631
 5045SOL    HW126768   4.646   4.641   8.689 -0.9082  0.2419  0.4574
 5045SOL    HW226769   4.546   4.701   8.603 -0.1301  0.2559 -2.0872
 5046SOL     OW26770   2.599   1.357  17.013  0.0182  0.3654 -0.1891
 5046SOL    HW126771   2.674   1.361  17.074  0.3252  0.4521 -0.5718
 5046SOL    HW226772   2.549   1.435  17.038 -0.0937  0.3848 -0.4793
 5047SOL     OW26773   3.581   0.594   0.138 -0.0526  0.3471  1.1335
 5047SOL    HW126774   3.674   0.573   0.133  0.1763  1.4955  0.5583
 5047SOL    HW226775   3.577   0.662   0.205 -0.8080  0.8052  0.6239
 5048SOL     OW26776   1.654   0.088   8.743 -0.2659 -0.4669 -0.8776
 5048SOL    HW126777   1.594   0.131   8.681  0.6978  1.4416 -0.4938
 5048SOL    HW226778   1.604   0.007   8.754  0.5053 -0.7014  0.8536
 5049SOL     OW26779   1.607   0.619   1.650  0.2841 -0.0309  0.4433
 5049SOL    HW126780   1.653   0.583   1.574 -0.1069  0.1129  0.1393
 5049SOL    HW226781   1.566   0.693   1.606  1.0615  1.2712  1.8995
 5050SOL     OW26782   3.318   1.384   6.034  0.2902  0.2459  0.0042
 5050SOL    HW126783   3.385   1.444   6.067  1.5304 -0.2194 -1.6426
 5050SOL    HW226784   3.298   1.338   6.115  1.0572  1.8061  1.0936
 5051SOL     OW26785   1.053   0.679  16.534 -0.0995 -0.2683 -0.6056
 5051SOL    HW126786   1.008   0.730  16.467 -3.2932 -0.0209  1.7217
 5051SOL    HW226787   0.985   0.672  16.602 -1.0271 -0.8992 -1.6081
 5052SOL     OW26788   0.792   1.922   8.273 -0.2658 -0.0147  0.6296
 5052SOL    HW126789   0.739   1.959   8.203  0.9156  1.0804  0.3241
 5052SOL    HW226790   0.875   1.962   8.246 -0.7823 -1.4543 -3.0614
 5053SOL     OW26791   1.026   1.149   8.037  0.1126 -0.0357 -0.1541
 5053SOL    HW126792   1.006   1.230   8.083 -1.0503 -2.2368  3.1582
 5053SOL    HW226793   1.098   1.118   8.092  2.0650 -0.4270 -2.9091
 5054SOL     OW26794   2.739   2.603  10.673 -0.1981  0.4387  0.0938
 5054SOL    HW126795   2.729   2.696  10.652  1.4965 -0.0269 -2.7519
 5054SOL    HW226796   2.685   2.560  10.606  1.8935  1.1756 -2.0529
 5055SOL     OW26797   4.698   0.027   3.313  0.2605  0.3973  0.0370
 5055SOL    HW126798   4.689   0.109   3.265  2.8289  0.1383 -0.8546
 5055SOL    HW226799   0.001   0.057   3.392  1.2566 -0.6747 -0.1107
 5056SOL     OW26800   0.587   2.851   3.201 -0.1452  0.0193 -0.1298
 5056SOL    HW126801   0.498   2.882   3.184  0.2729 -0.1889 -2.6618
 5056SOL    HW226802   0.568   2.761   3.228 -0.1780 -0.6503 -2.3877
 5057SOL     OW26803   3.259   3.984   0.395 -0.8262  0.5256 -0.3016
 5057SOL    HW126804   3.195   4.021   0.334  1.1971  0.8115 -2.2492
 5057SOL    HW226805   3.290   3.918   0.333 -0.8648 -0.6183  0.9076
 5058SOL     OW26806   3.555   3.245   2.460  0.1744  0.0148 -0.4396
 5058SOL    HW126807   3.530   3.335   2.440  0.1812  0.1962  0.3610
 5058SOL    HW226808   3.648   3.259   2.473  0.2838  0.4566 -1.7065
 5059SOL     OW26809   1.665   2.884   1.430  0.2586 -0.6023 -0.1174
 5059SOL    HW126810   1.661   2.810   1.368  2.3897 -1.2553  0.5319
 5059SOL    HW226811   1.756   2.882   1.459 -0.3108  1.1082  1.7544
 5060SOL     OW26812   1.415   4.314   0.060  0.2958 -0.1898 -0.0567
 5060SOL    HW126813   1.369   4.282   0.138  1.1019 -1.1678  0.0147
 5060SOL    HW226814   1.498   4.332   0.105  0.5443 -2.3625  0.3699
 5061SOL     OW26815   1.338   0.798   2.652 -0.0076  0.4489  0.5611
 5061SOL    HW126816   1.361   0.777   2.561  1.6498 -0.4202  1.1977
 5061SOL    HW226817   1.298   0.720   2.690  0.5166  0.6815  1.5947
 5062SOL     OW26818   0.061   1.842   7.526  0.2751  0.3467 -0.8230
 5062SOL    HW126819   4.712   1.826   7.498  0.6029 -1.5732 -0.7711
 5062SOL    HW226820   0.075   1.765   7.582 -0.0712  0.4136 -0.6442
 5063SOL     OW26821   0.024   1.742   5.946  0.0467  0.2263 -0.5423
 5063SOL    HW126822   0.040   1.675   5.881 -0.6087  0.9766 -1.4828
 5063SOL    HW226823   4.701   1.700   6.003  1.0231 -0.6034 -0.0490
 5064SOL     OW26824   3.482   1.830   5.030 -0.1457 -0.1623 -0.0402
 5064SOL    HW126825   3.453   1.772   5.101  0.9789  0.8486  1.2496
 5064SOL    HW226826   3.559   1.786   4.993  0.9487  1.7993 -0.0856
 5065SOL     OW26827   3.850   4.463   0.706  0.3762  0.3220  0.7915
 5065SOL    HW126828   3.939   4.442   0.676 -0.3177 -0.6776 -0.5666
 5065SOL    HW226829   3.815   4.386   0.751 -0.2789  0.2462  0.1412
 5066SOL     OW26830   4.366   4.290  14.980 -0.2217  1.3381  0.1156
 5066SOL    HW126831   4.373   4.376  15.023 -0.1179  2.8512 -2.9492
 5066SOL    HW226832   4.336   4.319  14.894  0.5973 -0.1589 -0.6629
 5067SOL     OW26833   2.391   2.361   7.977  0.1004 -0.1998 -0.5566
 5067SOL    HW126834   2.412   2.302   7.904 -1.0311 -1.6819  0.3044
 5067SOL    HW226835   2.295   2.358   7.974 -0.0052  2.1630  0.9215
 5068SOL     OW26836   4.233   2.687   3.511 -0.6070  0.2806  0.1361
 5068SOL    HW126837   4.302   2.739   3.471  0.2800 -0.1868  1.0423
 5068SOL    HW226838   4.179   2.680   3.432  0.8506 -0.5848 -0.7928
 5069SOL     OW26839   2.263   1.485   6.323 -0.2695 -0.5074  0.0770
 5069SOL    HW126840   2.254   1.390   6.313  1.5408 -0.4002 -2.4932
 5069SOL    HW226841   2.230   1.496   6.413  1.0497  2.3555  0.2226
 5070SOL     OW26842   1.866   4.345   6.478 -0.4402  0.1619 -0.0680
 5070SOL    HW126843   1.824   4.406   6.417 -1.2361 -1.1725 -0.8542
 5070SOL    HW226844   1.954   4.378   6.463 -1.0512  0.9886 -1.8978
 5071SOL     OW26845   4.281   4.377   2.660 -0.3774  0.0505  0.1704
 5071SOL    HW126846   4.373   4.402   2.670  0.0628 -1.8931  0.9056
 5071SOL    HW226847   4.231   4.437   2.715 -1.5433 -0.2670 -0.5395
 5072SOL     OW26848   1.773   3.336   3.464 -0.6065 -1.0644  0.4544
 5072SOL    HW126849   1.725   3.316   3.383 -2.5378  1.0260  1.0852
 5072SOL    HW226850   1.746   3.268   3.525 -1.7906 -1.5408 -0.5920
 5073SOL     OW26851   0.973   2.178   4.030 -0.4713 -0.5052  0.3825
 5073SOL    HW126852   0.884   2.147   4.011 -0.5295 -1.9466  3.0398
 5073SOL    HW226853   1.019   2.096   4.047  0.5984  0.4750  2.2671
 5074SOL     OW26854   3.985   0.064   7.827 -0.1627  0.1661 -0.6599
 5074SOL    HW126855   4.009   0.027   7.912  2.3741  2.0745 -0.5500
 5074SOL    HW226856   4.001   4.727   7.774  0.7210 -0.9169  1.2004
 5075SOL     OW26857   2.222   1.553   3.353  0.2935  0.4217 -0.2729
 5075SOL    HW126858   2.289   1.498   3.311  0.4048  0.0227  0.4206
 5075SOL    HW226859   2.169   1.586   3.281 -0.6170  0.1359  0.2744
 5076SOL     OW26860   4.634   2.074   4.468 -0.5401 -0.4755 -0.0841
 5076SOL    HW126861   4.641   1.981   4.448 -4.3311 -0.8223  0.2884
 5076SOL    HW226862   4.716   2.082   4.518 -1.3598  2.6008  0.7481
 5077SOL     OW26863   1.608   3.419   3.080 -0.1396 -0.5899  0.1405
 5077SOL    HW126864   1.525   3.455   3.050  0.0719  0.8354  1.3033
 5077SOL    HW226865   1.655   3.499   3.102  0.5658 -1.2766  1.1104
 5078SOL     OW26866   1.794   4.352   3.636  0.0992 -0.3772  0.3896
 5078SOL    HW126867   1.792   4.380   3.544 -0.8641 -1.0159  0.2143
 5078SOL    HW226868   1.735   4.278   3.645  0.4264 -0.9013 -1.7468
 5079SOL     OW26869   4.111   4.534   1.970 -0.4771  0.5206 -0.5611
 5079SOL    HW126870   4.044   4.522   2.037  0.8558 -0.0109  0.6688
 5079SOL    HW226871   4.109   4.630   1.982  0.6874  0.4228  0.4933
 5080SOL     OW26872   1.914   1.706   8.134 -0.5921  0.1353  0.0864
 5080SOL    HW126873   1.849   1.657   8.084 -0.1714 -2.6126  2.2305
 5080SOL    HW226874   1.972   1.631   8.146  0.7003  0.8836 -1.4650
 5081SOL     OW26875   1.720   3.862   1.642  0.1723 -0.7251 -0.0288
 5081SOL    HW126876   1.794   3.806   1.666  0.1227 -0.7650  0.0288
 5081SOL    HW226877   1.707   3.900   1.728  3.7630 -0.6156  0.4686
 5082SOL     OW26878   2.331   2.634   2.681  0.2903  0.0413  0.0796
 5082SOL    HW126879   2.314   2.641   2.775  0.3705  0.9187  0.0280
 5082SOL    HW226880   2.293   2.712   2.640  0.2249  1.3708  2.5922
 5083SOL     OW26881   4.456   0.392   1.827  0.9284 -0.1840 -0.1120
 5083SOL    HW126882   4.430   0.325   1.764  3.1176 -1.6128  0.4934
 5083SOL    HW226883   4.526   0.341   1.869  1.5052 -1.1452 -2.2427
 5084SOL     OW26884   3.190   0.001   0.763 -0.5498  0.0046  0.1192
 5084SOL    HW126885   3.267   4.713   0.713 -0.0271  0.4118  0.6781
 5084SOL    HW226886   3.118   4.693   0.724 -1.3827  0.3445  1.2436
 5085SOL     OW26887   1.301   3.699   4.875  0.0718  0.0096 -0.7785
 5085SOL    HW126888   1.238   3.631   4.899  0.9548 -0.8505 -0.9243
 5085SOL    HW226889   1.382   3.660   4.907 -0.2013 -2.1054 -2.7068
 5086SOL     OW26890   2.300   1.432   4.945 -0.2799 -0.3070  0.0626
 5086SOL    HW126891   2.258   1.512   4.911  1.2573  0.9598  1.1251
 5086SOL    HW226892   2.311   1.466   5.034  0.5334 -0.8604  0.1691
 5087SOL     OW26893   1.164   2.351  16.380  0.5136 -0.3106 -0.1224
 5087SOL    HW126894   1.172   2.258  16.356  0.2617 -0.3309 -0.1277
 5087SOL    HW226895   1.251   2.370  16.413 -0.2327 -0.2461  1.7827
 5088SOL     OW26896   3.882   3.888  10.917 -0.2416 -0.4099 -0.0958
 5088SOL    HW126897   3.898   3.915  11.007  0.4618 -2.0923  0.2908
 5088SOL    HW226898   3.963   3.911  10.873 -0.2946 -1.1740 -0.5957
 5089SOL     OW26899   0.809   0.719   6.344  0.0420  0.6263 -0.3270
 5089SOL    HW126900   0.733   0.661   6.351  0.1646  0.8291  2.7137
 5089SOL    HW226901   0.806   0.738   6.250  1.3066  0.6969 -0.3583
 5090SOL     OW26902   3.439   4.237  14.391  0.1416  0.1573 -0.3144
 5090SOL    HW126903   3.373   4.195  14.446  1.1062  0.8024  1.3319
 5090SOL    HW226904   3.422   4.328  14.416  2.4450  0.2512  0.9378
 5091SOL     OW26905   0.553   0.005   1.628  0.3335  0.5881  0.5868
 5091SOL    HW126906   0.587   4.698   1.552  2.1440  1.4500  0.8502
 5091SOL    HW226907   0.615   0.078   1.622 -1.9177  2.2787 -1.8264
 5092SOL     OW26908   3.185   2.105   4.210 -0.2592 -0.1435  0.4007
 5092SOL    HW126909   3.260   2.162   4.192 -0.5990 -0.2037 -1.1799
 5092SOL    HW226910   3.236   2.026   4.230 -1.2176 -1.2853 -1.6883
 5093SOL     OW26911   3.942   1.953   7.405 -0.2596 -0.2154 -0.1957
 5093SOL    HW126912   3.984   2.030   7.443  0.1794 -1.1646  1.2429
 5093SOL    HW226913   3.992   1.934   7.326 -0.0910  1.1880 -0.4342
 5094SOL     OW26914   2.200   0.665  15.576 -0.7224  0.4142  0.1733
 5094SOL    HW126915   2.144   0.621  15.511  0.4609 -2.5282  1.1296
 5094SOL    HW226916   2.140   0.676  15.650  0.4458  2.3025  0.8249
 5095SOL     OW26917   4.041   0.167   2.824 -0.9253 -0.4981  0.2918
 5095SOL    HW126918   4.135   0.178   2.807 -0.6688 -2.9131  0.1828
 5095SOL    HW226919   4.031   0.216   2.906 -0.4072 -0.7112  0.4782
 5096SOL     OW26920   4.267   0.406   8.736  0.2336 -0.1375 -0.0559
 5096SOL    HW126921   4.228   0.443   8.657  1.3088  0.7782 -0.1582
 5096SOL    HW226922   4.189   0.363   8.772 -0.2454  1.7007  1.1020
 5097SOL     OW26923   2.923   1.278   7.051 -0.7442  0.1118  0.0443
 5097SOL    HW126924   2.909   1.351   7.111  0.6098 -0.5248  1.1423
 5097SOL    HW226925   2.908   1.302   6.959 -2.2153  1.5459  0.6475
 5098SOL     OW26926   3.358   1.450   2.268  0.4424 -0.3786 -0.1980
 5098SOL    HW126927   3.410   1.473   2.191  1.1467 -0.3309  0.2865
 5098SOL    HW226928   3.432   1.446   2.330 -2.3184 -1.7102  2.9857
 5099SOL     OW26929   3.101   2.716   7.317 -0.0747 -0.0789 -0.0054
 5099SOL    HW126930   3.195   2.732   7.326 -0.2712  0.7144  0.6087
 5099SOL    HW226931   3.067   2.805   7.323 -1.7200 -0.7984  1.2671
 5100SOL     OW26932   3.458   3.396   3.474  0.0773  0.0277 -0.0975
 5100SOL    HW126933   3.400   3.354   3.411  0.3392 -2.2649  1.1745
 5100SOL    HW226934   3.392   3.448   3.520  0.6063  0.2701  0.3897
 5101SOL     OW26935   1.806   0.816   4.153  0.5237 -0.7913  0.4320
 5101SOL    HW126936   1.809   0.723   4.178 -0.6668 -1.4271 -1.8495
 5101SOL    HW226937   1.759   0.808   4.071 -0.9940 -0.4076  1.2632
 5102SOL     OW26938   3.867   0.073   1.680 -0.0264 -0.2199  0.3214
 5102SOL    HW126939   3.840   0.150   1.631  0.5992  1.3588  2.4532
 5102SOL    HW226940   3.952   0.102   1.713 -0.3314  1.0593 -0.0208
 5103SOL     OW26941   0.901   2.707   2.354 -0.1331  0.4853  0.0760
 5103SOL    HW126942   0.983   2.730   2.398 -0.7794  0.0746  1.4884
 5103SOL    HW226943   0.848   2.689   2.432  0.4948 -0.2126  0.3450
 5104SOL     OW26944   1.500   2.424   3.010  0.2266  0.3896 -0.3758
 5104SOL    HW126945   1.405   2.425   3.021  0.4879 -1.2033  2.0589
 5104SOL    HW226946   1.535   2.449   3.096 -0.1804  0.4875 -0.2375
 5105SOL     OW26947   2.075   4.038   2.937  0.7061 -0.4547 -0.7339
 5105SOL    HW126948   2.089   4.048   2.843  0.7618 -1.5093 -0.8410
 5105SOL    HW226949   2.163   4.064   2.961 -0.1901  2.0534 -0.1576
 5106SOL     OW26950   0.407   3.885  15.356 -0.0473 -0.2566  0.1991
 5106SOL    HW126951   0.381   3.950  15.291 -1.9877 -1.2204  0.0023
 5106SOL    HW226952   0.332   3.825  15.361 -0.3372 -0.0485 -1.9448
 5107SOL     OW26953   1.392   1.189  13.681 -0.5526  0.5637  0.5970
 5107SOL    HW126954   1.340   1.269  13.685  0.4165  1.1307  1.8409
 5107SOL    HW226955   1.482   1.205  13.710  0.6352 -4.3343 -0.3228
 5108SOL     OW26956   3.860   4.391   8.283  0.4146  0.0821  0.0691
 5108SOL    HW126957   3.815   4.395   8.199  1.6663 -1.0847 -0.6616
 5108SOL    HW226958   3.827   4.306   8.312  1.1907 -0.9067 -1.9340
 5109SOL     OW26959   3.735   1.687   7.861 -0.3198 -0.2460 -0.1812
 5109SOL    HW126960   3.792   1.759   7.837  0.5441 -0.4416  1.3462
 5109SOL    HW226961   3.745   1.632   7.783  1.2561 -0.9837  0.5524
 5110SOL     OW26962   0.286   0.924  11.709 -0.4444 -0.1804 -0.2687
 5110SOL    HW126963   0.250   0.909  11.796  1.5621 -1.7577  0.2922
 5110SOL    HW226964   0.207   0.932  11.655 -0.7457  2.8287  0.6122
 5111SOL     OW26965   3.378   1.607   5.793  0.0711  0.0955 -0.6362
 5111SOL    HW126966   3.366   1.633   5.884  0.2012 -0.8278 -0.3533
 5111SOL    HW226967   3.286   1.595   5.769 -0.5195  0.5758  1.4511
 5112SOL     OW26968   3.929   4.071   3.453 -0.4919  0.0374  0.3628
 5112SOL    HW126969   4.020   4.091   3.429 -0.8372  1.9308  0.6402
 5112SOL    HW226970   3.906   4.000   3.393 -0.5202  0.4170 -0.0719
 5113SOL     OW26971   2.066   3.617   6.841  0.0402  0.5438  0.0788
 5113SOL    HW126972   1.974   3.636   6.861 -0.1376  1.4967 -1.6023
 5113SOL    HW226973   2.071   3.596   6.748  1.9086 -1.7499  0.7233
 5114SOL     OW26974   0.106   3.919  15.583 -0.0649  0.0302  0.1932
 5114SOL    HW126975   0.028   3.864  15.581  0.9943 -1.4634 -0.1558
 5114SOL    HW226976   0.093   3.969  15.663  0.6418  1.6584 -0.6950
 5115SOL     OW26977   3.259   3.138  13.801  0.9269 -0.5581  0.1307
 5115SOL    HW126978   3.226   3.202  13.738 -1.5893 -0.1415  1.8564
 5115SOL    HW226979   3.200   3.065  13.781 -0.4838  0.9428 -1.2006
 5116SOL     OW26980   0.721   1.645  12.669  0.6093 -0.1188  0.1262
 5116SOL    HW126981   0.743   1.595  12.591  1.7086 -1.3389  1.2057
 5116SOL    HW226982   0.660   1.712  12.640 -0.6578 -1.0675  0.5966
 5117SOL     OW26983   0.114   0.256  14.287 -0.3527 -0.0698  0.3127
 5117SOL    HW126984   0.124   0.256  14.382 -1.4070  2.4108  0.4220
 5117SOL    HW226985   0.193   0.300  14.258 -0.7793 -1.5429 -3.1147
 5118SOL     OW26986   4.402   4.383   5.128 -1.0038  0.6407  0.0174
 5118SOL    HW126987   4.403   4.477   5.111 -0.8099  1.1177  2.6067
 5118SOL    HW226988   4.307   4.372   5.133 -1.2696  3.1939  0.6265
 5119SOL     OW26989   2.255   2.118   5.740 -0.2400  0.0752 -0.1083
 5119SOL    HW126990   2.207   2.147   5.817  1.9965  3.0563  0.1625
 5119SOL    HW226991   2.197   2.158   5.676  0.5252 -1.4539 -1.7724
 5120SOL     OW26992   3.409   3.408   7.789  0.0432 -0.1222 -0.5705
 5120SOL    HW126993   3.313   3.408   7.793  0.1058 -2.4243  0.4939
 5120SOL    HW226994   3.424   3.397   7.695 -2.2668  0.5618 -1.0166
 5121SOL     OW26995   0.592   0.382   8.732 -0.0122 -0.5397 -0.5643
 5121SOL    HW126996   0.675   0.343   8.704  0.6625  1.9513 -2.0404
 5121SOL    HW226997   0.620   0.439   8.804 -2.5313 -1.4320  1.1430
 5122SOL     OW26998   2.951   0.485   3.398 -0.2255 -0.3068 -0.2353
 5122SOL    HW126999   2.950   0.514   3.490  1.3415  0.5870 -0.5138
 5122SOL    HW227000   2.864   0.445   3.389  0.4751 -1.6619 -0.9001
 5123SOL     OW27001   1.187   3.889  16.290 -0.2457  0.1262  0.2660
 5123SOL    HW127002   1.226   3.801  16.293 -0.7543 -0.1232 -0.4910
 5123SOL    HW227003   1.260   3.928  16.242  0.9221 -1.6387  0.5750
 5124SOL     OW27004   2.812   1.618   5.803  0.4226  0.3270  0.1700
 5124SOL    HW127005   2.867   1.694   5.786  1.5293  0.1158  2.7375
 5124SOL    HW227006   2.789   1.653   5.890 -1.0476 -0.7681  0.2338
 5125SOL     OW27007   0.661   0.661   5.002 -0.2854  0.1580 -0.0964
 5125SOL    HW127008   0.685   0.641   5.093 -0.2150  2.8126  0.4769
 5125SOL    HW227009   0.696   0.593   4.945 -1.8825  1.7863 -2.9579
 5126SOL     OW27010   3.064   1.427  14.328  0.2250 -0.2808 -0.2853
 5126SOL    HW127011   3.069   1.352  14.388 -1.2351 -0.0721  0.0968
 5126SOL    HW227012   2.969   1.438  14.325  0.3627  0.6431 -1.3887
 5127SOL     OW27013   1.919   3.097   1.553 -0.4742 -0.4266 -0.4617
 5127SOL    HW127014   1.871   3.137   1.481 -1.2744  1.1994  0.9587
 5127SOL    HW227015   1.969   3.024   1.515  0.2018  0.9521 -2.2056
 5128SOL     OW27016   2.638   2.334  10.912 -0.4567  0.7104 -0.5865
 5128SOL    HW127017   2.710   2.396  10.926  1.0960 -1.0893 -0.6243
 5128SOL    HW227018   2.667   2.261  10.966 -0.2980  1.9549  1.0418
 5129SOL     OW27019   0.313   1.112   7.969  0.3470  0.0454 -1.0423
 5129SOL    HW127020   0.250   1.159   8.024  0.7768  1.4179 -1.7184
 5129SOL    HW227021   0.350   1.049   8.031 -2.5892 -1.4887 -0.9065
 5130SOL     OW27022   4.718   4.438   2.130  0.7093 -0.6519  0.2348
 5130SOL    HW127023   4.692   4.411   2.042 -1.6121  3.5337 -0.3959
 5130SOL    HW227024   4.640   4.432   2.185 -0.0158  0.9552 -0.6282
 5131SOL     OW27025   0.933   2.583   3.743 -0.0160 -0.6565 -0.5065
 5131SOL    HW127026   0.999   2.639   3.783  1.3995 -2.5653 -0.1634
 5131SOL    HW227027   0.938   2.502   3.794 -0.5631 -0.4681 -0.1467
 5132SOL     OW27028   2.990   3.776  12.848 -0.0949 -0.1736 -0.1204
 5132SOL    HW127029   3.072   3.762  12.894  0.1323 -0.7164 -0.6939
 5132SOL    HW227030   3.026   3.794  12.761  2.7255  0.1783  1.1077
 5133SOL     OW27031   0.644   4.024   4.537 -0.7486 -0.5124  0.1180
 5133SOL    HW127032   0.555   4.052   4.559 -1.5480 -1.7553 -1.5067
 5133SOL    HW227033   0.648   3.929   4.543  1.9353 -0.4150 -0.1288
 5134SOL     OW27034   0.853   4.532   4.306 -0.0223 -0.3432 -0.1113
 5134SOL    HW127035   0.937   4.563   4.270 -0.0833 -0.2064 -0.1366
 5134SOL    HW227036   0.881   4.471   4.375 -2.5885 -0.6124  0.6664
 5135SOL     OW27037   3.539   0.913   6.387  0.4971  0.2338 -0.0635
 5135SOL    HW127038   3.478   0.961   6.443  2.1213  0.4898  1.4958
 5135SOL    HW227039   3.616   0.912   6.444 -0.7087  0.2648  1.5566
 5136SOL     OW27040   1.279   3.091   5.156  0.1261  0.7221 -0.0359
 5136SOL    HW127041   1.204   3.042   5.189 -0.7674  0.0499 -3.0780
 5136SOL    HW227042   1.351   3.054   5.207  0.6909  2.1456  0.2185
 5137SOL     OW27043   3.060   3.129   5.194  0.2247 -0.1008  0.1881
 5137SOL    HW127044   3.075   3.069   5.121 -0.2467 -0.6409  0.5289
 5137SOL    HW227045   3.003   3.198   5.162 -0.4847 -1.0971 -0.6770
 5138SOL     OW27046   3.594   2.260  13.312  0.1508  0.6871 -0.4554
 5138SOL    HW127047   3.554   2.187  13.266 -1.4181  1.0587  0.3207
 5138SOL    HW227048   3.685   2.245  13.284 -0.1069  0.0175 -0.9354
 5139SOL     OW27049   3.780   3.925   8.146  0.1000  0.7423 -0.3568
 5139SOL    HW127050   3.768   3.876   8.065  0.8941  0.5941 -0.3867
 5139SOL    HW227051   3.869   3.956   8.128  0.3770  0.8707  1.2265
 5140SOL     OW27052   4.328   3.243   2.970  0.2600 -0.1780 -0.7706
 5140SOL    HW127053   4.339   3.199   2.885 -2.0345 -2.0880 -0.0589
 5140SOL    HW227054   4.308   3.173   3.032  0.6534  1.2338  0.9598
 5141SOL     OW27055   3.403   2.568  15.126  0.0123 -0.2676 -0.6999
 5141SOL    HW127056   3.384   2.646  15.075  2.1281 -0.3021 -1.5434
 5141SOL    HW227057   3.337   2.580  15.194 -3.1093 -1.5832 -3.4980
 5142SOL     OW27058   3.614   2.035  12.980  0.4157  0.7456  0.3744
 5142SOL    HW127059   3.571   1.972  13.038  0.3397 -0.2834 -0.7881
 5142SOL    HW227060   3.580   2.110  13.027  1.0068  1.7043 -0.7408
 5143SOL     OW27061   1.203   1.368   3.366  0.1133  0.4842 -0.2699
 5143SOL    HW127062   1.248   1.452   3.375 -0.2307  0.6458 -0.0913
 5143SOL    HW227063   1.267   1.309   3.407  0.2244 -0.1956 -1.3971
 5144SOL     OW27064   2.240   4.471  15.991  0.3928 -0.2760 -0.6997
 5144SOL    HW127065   2.179   4.540  15.965 -0.9378 -2.3815 -3.1985
 5144SOL    HW227066   2.177   4.402  16.012  0.8338 -1.1445 -2.1859
 5145SOL     OW27067   1.998   3.332   7.256 -0.1344 -0.0718 -0.4004
 5145SOL    HW127068   2.031   3.293   7.175 -0.0518  0.5233 -0.6508
 5145SOL    HW227069   1.995   3.425   7.235  4.1062 -0.1320 -1.3347
 5146SOL     OW27070   1.046   0.718   9.151  0.3447  0.0780 -0.0181
 5146SOL    HW127071   1.044   0.786   9.083  0.8178  0.1951  0.0819
 5146SOL    HW227072   1.089   0.775   9.215 -0.7050  1.9770 -0.9844
 5147SOL     OW27073   4.324   4.111  15.402 -0.2889  0.5655  0.4907
 5147SOL    HW127074   4.405   4.152  15.371 -1.2016  1.1926 -1.0308
 5147SOL    HW227075   4.355   4.028  15.438  1.3001  0.7709 -0.3780
 5148SOL     OW27076   0.005   3.789   2.369  0.1089  0.6664  0.1969
 5148SOL    HW127077   0.028   3.777   2.462  1.4084  0.2168 -0.1776
 5148SOL    HW227078   0.091   3.778   2.329  0.0499  1.5905 -0.1881
 5149SOL     OW27079   3.044   1.217   2.886  0.5166 -0.0018  0.0996
 5149SOL    HW127080   3.109   1.149   2.866 -0.5658 -0.8767 -0.4788
 5149SOL    HW227081   3.066   1.270   2.810 -0.1967  0.9417  0.5472
 5150SOL     OW27082   3.862   2.066  17.615  0.0791  0.2865 -0.3356
 5150SOL    HW127083   3.788   2.037  17.670 -0.3844 -0.3835 -1.3128
 5150SOL    HW227084   3.916   1.987  17.610  2.0845  1.5915  0.9629
 5151SOL     OW27085   4.481   1.698  12.848 -0.1181 -0.0175  0.2422
 5151SOL    HW127086   4.558   1.714  12.902 -1.9195  0.9971  2.4908
 5151SOL    HW227087   4.470   1.789  12.821 -0.6929 -0.3551 -0.6741
 5152SOL     OW27088   3.065   0.519  11.311 -0.5472  0.0863 -0.1840
 5152SOL    HW127089   3.127   0.450  11.335  3.0197  2.4876 -2.3872
 5152SOL    HW227090   3.017   0.519  11.394 -0.7979  0.4655 -0.3280
 5153SOL     OW27091   3.150   2.631   6.182  0.5759 -0.0962  0.1443
 5153SOL    HW127092   3.175   2.716   6.147 -0.9130  0.4392  0.3906
 5153SOL    HW227093   3.116   2.596   6.100 -1.1202  1.9313  0.0064
 5154SOL     OW27094   3.078   3.296   0.495  0.3401  0.0201  0.4027
 5154SOL    HW127095   3.150   3.340   0.448  0.7825 -0.7681  0.3447
 5154SOL    HW227096   3.048   3.241   0.423 -1.5598  0.7244  0.6673
 5155SOL     OW27097   1.329   1.768   5.313 -0.0943 -0.7239  0.6714
 5155SOL    HW127098   1.338   1.676   5.341  3.7815 -0.0553  1.6258
 5155SOL    HW227099   1.412   1.785   5.268 -0.8505  0.7081 -0.1577
 5156SOL     OW27100   4.486   0.690  12.000 -0.1513  0.0130 -0.2386
 5156SOL    HW127101   4.446   0.620  12.053  1.1702 -1.0857 -0.7153
 5156SOL    HW227102   4.442   0.671  11.917  2.3961  0.3026 -1.6213
 5157SOL     OW27103   1.774   4.687  17.248 -0.1427 -0.0511 -0.1406
 5157SOL    HW127104   1.824   4.628  17.305  1.4283  1.6968  0.3023
 5157SOL    HW227105   1.761   0.025  17.300  1.9512 -0.3137  0.8018
 5158SOL     OW27106   0.868   4.534   3.207  0.0578 -0.5788  0.4246
 5158SOL    HW127107   0.810   4.515   3.134  0.2063 -2.0258  0.6823
 5158SOL    HW227108   0.927   4.459   3.198 -0.2648 -0.7892  0.0623
 5159SOL     OW27109   1.046   0.490   5.193 -0.2584 -0.0553  0.4416
 5159SOL    HW127110   1.051   0.450   5.280  2.3914 -0.4367  0.1213
 5159SOL    HW227111   0.964   0.460   5.155  0.0137  0.6230 -0.6905
 5160SOL     OW27112   4.723   4.543   6.036 -0.0736  0.7346 -0.7503
 5160SOL    HW127113   0.001   4.637   6.039  1.2668  0.4333  0.0480
 5160SOL    HW227114   0.067   4.503   6.018  0.7181  1.9825  0.2283
 5161SOL     OW27115   4.721   1.935   8.147 -0.0020  0.5926 -0.0727
 5161SOL    HW127116   0.022   2.021   8.150  0.3552  0.3457  2.5709
 5161SOL    HW227117   4.634   1.961   8.118  0.6027  2.2762 -0.4089
 5162SOL     OW27118   3.355   1.206  15.729  0.4913 -0.5268  0.0276
 5162SOL    HW127119   3.316   1.119  15.726  0.1974 -0.4434  1.3686
 5162SOL    HW227120   3.374   1.203  15.823 -2.1146 -0.1608  0.5669
 5163SOL     OW27121   1.145   1.148  14.432  0.2208 -0.7976 -0.5447
 5163SOL    HW127122   1.226   1.108  14.464  0.3980  0.3989  0.5145
 5163SOL    HW227123   1.151   1.238  14.464 -1.1695 -0.7713 -0.3771
 5164SOL     OW27124   0.338   3.414   5.664 -0.2483 -0.1672  0.2071
 5164SOL    HW127125   0.283   3.342   5.633  1.1439 -1.3673  0.5450
 5164SOL    HW227126   0.262   3.470   5.679  0.6271  1.2655 -0.7331
 5165SOL     OW27127   3.560   2.409   6.445  0.1788 -0.5742 -0.2445
 5165SOL    HW127128   3.624   2.446   6.385 -2.6001  2.5645 -1.2919
 5165SOL    HW227129   3.544   2.318   6.419 -1.5137 -1.1292  2.6811
 5166SOL     OW27130   3.118   0.509   1.224 -0.2504  0.1280  0.6607
 5166SOL    HW127131   3.134   0.500   1.318  2.3975 -2.1114  0.0039
 5166SOL    HW227132   3.152   0.599   1.216 -1.7077  0.6367  0.2158
 5167SOL     OW27133   3.595   0.169   0.186 -0.7135  0.1478 -0.4731
 5167SOL    HW127134   3.683   0.137   0.170 -1.2883 -1.2783 -0.8186
 5167SOL    HW227135   3.548   0.106   0.131  0.9458 -1.4254 -0.0627
 5168SOL     OW27136   2.936   1.858   5.701 -0.1033  0.1534 -0.3821
 5168SOL    HW127137   2.971   1.891   5.784  2.7083 -0.6432 -1.2357
 5168SOL    HW227138   3.000   1.889   5.637 -1.5201  2.0278 -0.8733
 5169SOL     OW27139   2.444   1.302  14.152 -0.3450  0.3593 -0.2766
 5169SOL    HW127140   2.510   1.279  14.086 -2.6468 -3.0373 -1.3763
 5169SOL    HW227141   2.364   1.265  14.116 -1.1207  1.6143  0.1551
 5170SOL     OW27142   3.052   1.165  11.359  0.1378  0.8667 -0.0234
 5170SOL    HW127143   3.003   1.188  11.280 -0.4910  1.7984  0.6366
 5170SOL    HW227144   3.142   1.191  11.340  0.3300  0.1342 -0.1079
 5171SOL     OW27145   3.906   4.466  16.420 -0.4914 -0.4200 -0.1251
 5171SOL    HW127146   3.845   4.416  16.365 -0.3522 -0.6428 -0.0756
 5171SOL    HW227147   3.887   4.556  16.392  0.1428  0.2686  1.6623
 5172SOL     OW27148   0.683   1.276   5.564 -0.5859 -0.3530  0.0841
 5172SOL    HW127149   0.762   1.238   5.526 -0.2780 -0.0721  0.4439
 5172SOL    HW227150   0.627   1.198   5.565 -0.7513 -0.2548 -1.8466
 5173SOL     OW27151   4.594   1.494  17.396 -0.4288  0.0577 -0.3765
 5173SOL    HW127152   4.501   1.485  17.418 -0.2812 -1.1678 -0.2542
 5173SOL    HW227153   4.590   1.476  17.302 -0.2334  1.3558 -0.6420
 5174SOL     OW27154   1.593   0.236   5.752 -0.1476  0.0148 -0.2038
 5174SOL    HW127155   1.605   0.251   5.658  1.4803 -1.5144 -0.2432
 5174SOL    HW227156   1.562   0.145   5.753 -1.1991  0.3694 -0.4970
 5175SOL     OW27157   4.156   0.832   1.599 -0.0117 -0.0246  0.3517
 5175SOL    HW127158   4.078   0.816   1.653 -0.2815 -0.4466 -0.1574
 5175SOL    HW227159   4.224   0.813   1.663  0.6402 -1.2140 -0.6951
 5176SOL     OW27160   3.925   3.348   5.966 -0.3029  0.1336 -0.0550
 5176SOL    HW127161   4.020   3.339   5.961 -0.1117  1.7260  0.8696
 5176SOL    HW227162   3.890   3.262   5.944 -0.4438 -0.1273  1.2215
 5177SOL     OW27163   3.324   3.911   1.045 -0.1302 -0.0085  0.5753
 5177SOL    HW127164   3.290   3.923   1.133 -0.3522  0.7298  0.3833
 5177SOL    HW227165   3.385   3.840   1.069 -0.2153  0.0251  0.8843
 5178SOL     OW27166   4.648   0.385  12.723  0.0586  0.4620 -0.1040
 5178SOL    HW127167   4.587   0.453  12.693 -0.4671  0.4476  0.9557
 5178SOL    HW227168   4.714   0.438  12.768  1.4222 -1.1818 -0.1639
 5179SOL     OW27169   1.342   2.543  14.695 -0.1765  0.4105 -0.7252
 5179SOL    HW127170   1.393   2.623  14.711  0.9975 -0.3907 -0.4460
 5179SOL    HW227171   1.258   2.570  14.732  0.1835  0.1318  0.2964
 5180SOL     OW27172   1.654   4.590   2.527  0.2017  0.2630  0.5380
 5180SOL    HW127173   1.738   4.559   2.494  0.1448  2.3574 -1.5528
 5180SOL    HW227174   1.654   4.579   2.622  1.8564  1.5426  0.6723
 5181SOL     OW27175   1.717   3.085   8.807 -0.3813  0.3967  0.7865
 5181SOL    HW127176   1.684   3.141   8.737 -0.6525 -1.7915 -0.8373
 5181SOL    HW227177   1.792   3.046   8.763  0.1560  0.5179  1.6050
 5182SOL     OW27178   3.908   3.383   1.308 -0.5231  0.3744  0.0463
 5182SOL    HW127179   3.831   3.424   1.348 -0.0223 -2.1698  3.6239
 5182SOL    HW227180   3.957   3.357   1.386 -2.4799 -0.2874  1.0822
 5183SOL     OW27181   3.618   4.214  17.471  0.3648 -0.0315  0.6712
 5183SOL    HW127182   3.689   4.152  17.455 -0.9822 -1.3613 -0.3009
 5183SOL    HW227183   3.622   4.209  17.566 -0.8481 -1.5347  0.6539
 5184SOL     OW27184   3.828   0.564  13.025  0.5082  0.1342  0.1482
 5184SOL    HW127185   3.885   0.508  13.078 -0.7444 -1.0960  0.2004
 5184SOL    HW227186   3.794   0.618  13.098  0.3907  0.4609 -0.1478
 5185SOL     OW27187   2.700   3.961   7.039 -0.1954 -0.0189 -0.6405
 5185SOL    HW127188   2.726   4.051   7.059  1.8323 -0.8499  0.4141
 5185SOL    HW227189   2.753   3.937   6.963 -1.7665  0.5777 -1.9411
 5186SOL     OW27190   3.708   2.841  12.850 -0.6196 -0.4482  0.3273
 5186SOL    HW127191   3.627   2.824  12.802  0.1095 -2.1851 -0.2863
 5186SOL    HW227192   3.772   2.796  12.794 -1.2138 -2.0252  0.9010
 5187SOL     OW27193   0.909   3.288  13.813 -0.1634  0.0475  0.2469
 5187SOL    HW127194   1.004   3.277  13.810  0.0347  1.6398  0.6797
 5187SOL    HW227195   0.872   3.208  13.776 -1.2195  1.5399 -1.9297
 5188SOL     OW27196   3.906   0.512   6.229 -0.8594 -0.4726 -0.0536
 5188SOL    HW127197   3.907   0.516   6.324 -2.1525 -0.7574 -0.0305
 5188SOL    HW227198   3.813   0.531   6.214 -0.6057 -0.4357 -1.5925
 5189SOL     OW27199   2.154   2.724   0.986  0.3527  0.0445 -0.4522
 5189SOL    HW127200   2.121   2.712   1.075  0.1625  1.1003 -0.3865
 5189SOL    HW227201   2.080   2.677   0.947 -0.4341  0.1621  0.9295
 5190SOL     OW27202   4.713   4.493   7.189  0.2333 -0.2486 -0.1801
 5190SOL    HW127203   4.684   4.514   7.278 -2.1372  0.8852 -1.2024
 5190SOL    HW227204   4.633   4.442   7.178  0.3580 -0.4581 -0.1069
 5191SOL     OW27205   4.031   1.535   4.432 -0.1770  0.9298  0.0698
 5191SOL    HW127206   4.000   1.612   4.384 -1.2893  0.9273  0.7787
 5191SOL    HW227207   3.977   1.473   4.383  0.4876 -1.4357  2.3512
 5192SOL     OW27208   1.496   0.725  17.056 -0.2407 -0.1780 -0.1817
 5192SOL    HW127209   1.455   0.758  16.976 -2.5195 -0.2210  0.9634
 5192SOL    HW227210   1.517   0.637  17.024  2.3990  0.9949 -1.5808
 5193SOL     OW27211   3.091   2.459   8.128  0.2546  0.1802  0.1410
 5193SOL    HW127212   3.183   2.445   8.106  0.1380  0.6691 -0.6514
 5193SOL    HW227213   3.090   2.553   8.144 -1.3483  0.3575 -1.0145
 5194SOL     OW27214   0.303   1.300   1.758  0.5078 -0.2340 -0.3470
 5194SOL    HW127215   0.360   1.320   1.684 -0.5413  0.3437 -1.0045
 5194SOL    HW227216   0.347   1.339   1.833  1.0828  0.6300 -1.1311
 5195SOL     OW27217   2.222   1.165   7.268  0.3068 -0.1130  0.3799
 5195SOL    HW127218   2.159   1.136   7.203  1.5151  2.1864 -1.8264
 5195SOL    HW227219   2.307   1.128   7.245  0.0202 -1.9705  2.2814
 5196SOL     OW27220   3.016   1.968   9.678 -0.0218  0.2861  0.1290
 5196SOL    HW127221   2.952   2.036   9.659 -1.7199 -1.8745 -1.8205
 5196SOL    HW227222   3.098   2.015   9.663 -0.0366  1.1433  2.8277
 5197SOL     OW27223   2.589   1.976   9.108  0.3179 -0.5894 -0.1939
 5197SOL    HW127224   2.501   2.003   9.080  0.6154  1.2538  0.6620
 5197SOL    HW227225   2.626   2.061   9.084 -1.6093  0.2239 -0.3391
 5198SOL     OW27226   3.556   4.295   5.996 -0.5859 -0.0743  0.9219
 5198SOL    HW127227   3.621   4.236   6.033 -0.3204  1.3192  2.6306
 5198SOL    HW227228   3.600   4.380   5.995 -3.2417  1.3313  1.8613
 5199SOL     OW27229   3.459   0.551   1.152 -0.3354  0.3795 -1.2448
 5199SOL    HW127230   3.376   0.598   1.152 -0.3143  0.4232  0.2496
 5199SOL    HW227231   3.502   0.607   1.216  0.2147 -1.0586 -0.3465
 5200SOL     OW27232   1.103   1.635   3.035  0.4164  0.2324 -0.3200
 5200SOL    HW127233   1.107   1.730   3.051  0.9900  0.0536  0.5976
 5200SOL    HW227234   1.033   1.611   3.096 -0.1650 -0.7600 -1.4001
 5201SOL     OW27235   0.285   2.334   4.740  0.0677  0.3566  0.0468
 5201SOL    HW127236   0.365   2.291   4.711  0.7492  1.6776 -0.0590
 5201SOL    HW227237   0.308   2.369   4.826  0.3351  1.1475 -0.3368
 5202SOL     OW27238   0.131   0.564   2.430  0.1765 -0.4176  0.4019
 5202SOL    HW127239   0.226   0.563   2.439  0.0378 -1.4234  1.7550
 5202SOL    HW227240   0.111   0.656   2.415  1.1540 -0.0433  1.4788
 5203SOL     OW27241   2.017   1.084   8.504 -0.1561  0.1836  0.0322
 5203SOL    HW127242   2.085   1.042   8.450 -0.7746 -1.0306  0.1990
 5203SOL    HW227243   2.003   1.166   8.456 -1.9307  0.0149  0.2551
 5204SOL     OW27244   3.230   2.797   5.211 -0.3543 -0.2999 -0.4885
 5204SOL    HW127245   3.264   2.729   5.154  2.0274  2.8794 -2.8769
 5204SOL    HW227246   3.250   2.882   5.171 -0.1265  0.5031  1.3130
 5205SOL     OW27247   2.129   1.317   0.293 -0.2304  0.3287  0.5281
 5205SOL    HW127248   2.177   1.289   0.215 -2.5246  1.2567 -1.2224
 5205SOL    HW227249   2.173   1.399   0.316  3.4808 -1.0886 -1.4718
 5206SOL     OW27250   4.228   0.693  17.577  0.5970  0.0310 -0.1672
 5206SOL    HW127251   4.190   0.780  17.590  1.3008  0.2230  0.6189
 5206SOL    HW227252   4.228   0.681  17.482 -0.6644  0.5848 -0.2286
 5207SOL     OW27253   2.768   3.228   5.181  0.6429  0.3224  0.2952
 5207SOL    HW127254   2.781   3.200   5.091  0.8191 -0.8897  0.6997
 5207SOL    HW227255   2.686   3.184   5.201 -0.0660  0.9404 -1.2443
 5208SOL     OW27256   3.187   0.107  12.139 -0.7192  0.5137  0.1013
 5208SOL    HW127257   3.131   0.084  12.214 -1.0243 -0.4338 -0.4226
 5208SOL    HW227258   3.242   0.029  12.134 -0.4809  0.6341  0.9233
 5209SOL     OW27259   2.321   2.891   6.325 -0.6409  0.2333 -0.1627
 5209SOL    HW127260   2.401   2.919   6.281  0.4609 -0.6679  1.2664
 5209SOL    HW227261   2.313   2.797   6.309 -1.3817 -0.1130  2.2352
 5210SOL     OW27262   0.987   4.568   6.552 -0.2350  0.2470  0.4215
 5210SOL    HW127263   1.072   4.561   6.595  0.2379  3.8195  0.0658
 5210SOL    HW227264   0.924   4.512   6.598  0.1372 -0.6821 -0.2007
 5211SOL     OW27265   0.225   2.381   6.814 -0.2904 -0.1867 -0.3276
 5211SOL    HW127266   0.291   2.448   6.796 -0.6905  0.6648  1.3479
 5211SOL    HW227267   0.233   2.350   6.724 -2.2599  1.8236 -1.1913
 5212SOL     OW27268   0.725   2.158   2.857 -0.7574 -0.6627  0.6094
 5212SOL    HW127269   0.670   2.150   2.780  0.7277  1.0477 -0.6219
 5212SOL    HW227270   0.683   2.103   2.924 -1.6925  0.0062  0.5665
 5213SOL     OW27271   2.628   4.126   4.014  0.3027 -0.0712  0.2074
 5213SOL    HW127272   2.538   4.130   3.983  0.7100 -0.9483 -1.0941
 5213SOL    HW227273   2.673   4.192   3.961  0.0768 -0.1178 -0.0392
 5214SOL     OW27274   3.236   1.719  10.317  0.2677  0.2788  0.2107
 5214SOL    HW127275   3.189   1.646  10.275 -1.1065  1.4558 -0.3269
 5214SOL    HW227276   3.244   1.772  10.237  0.3287  0.7159  0.5091
 5215SOL     OW27277   3.236   1.760  16.180 -0.0908  0.5583  0.2327
 5215SOL    HW127278   3.167   1.824  16.199 -1.4571 -0.7979 -0.1166
 5215SOL    HW227279   3.314   1.810  16.157 -1.3433  1.4534 -2.1100
 5216SOL     OW27280   0.640   2.592   3.020  0.1826  0.7869  0.5575
 5216SOL    HW127281   0.723   2.626   3.056  0.5389  2.1717 -1.5668
 5216SOL    HW227282   0.589   2.668   3.047  1.9805  2.0907  0.2995
 5217SOL     OW27283   2.275   4.444  11.138 -0.5586 -0.4540 -0.0838
 5217SOL    HW127284   2.368   4.434  11.115 -0.9428 -2.5110 -0.6510
 5217SOL    HW227285   2.256   4.522  11.085  4.0019  1.2552  0.7829
 5218SOL     OW27286   3.706   3.215   2.891  0.1769 -0.2703  0.0284
 5218SOL    HW127287   3.644   3.143   2.900  0.8519 -1.1010 -1.9093
 5218SOL    HW227288   3.756   3.167   2.825  2.0855  1.6486  0.0975
 5219SOL     OW27289   1.141   0.585   8.607 -0.4244 -0.2396 -0.6614
 5219SOL    HW127290   1.075   0.602   8.674 -0.1187 -0.7633 -0.2257
 5219SOL    HW227291   1.141   0.671   8.564 -2.8052 -1.5713 -3.2750
 5220SOL     OW27292   2.755   1.070  10.649 -0.1383  0.1354 -0.1323
 5220SOL    HW127293   2.826   1.072  10.713 -0.2464 -0.3601 -0.0029
 5220SOL    HW227294   2.700   1.143  10.678  1.9227  2.1719 -1.2838
 5221SOL     OW27295   2.923   0.231   7.217 -0.0716 -0.2310 -0.1612
 5221SOL    HW127296   2.867   0.185   7.279 -0.3480 -0.9406 -0.9257
 5221SOL    HW227297   2.892   0.202   7.131  1.1151  0.0647 -0.6824
 5222SOL     OW27298   3.900   3.345   4.923 -0.4285 -0.2331  0.6020
 5222SOL    HW127299   3.959   3.281   4.883  0.8278  1.8406 -0.8731
 5222SOL    HW227300   3.890   3.304   5.009  2.9009 -0.4386  0.9016
 5223SOL     OW27301   1.603   3.824  12.029  0.2111 -0.2807  0.5733
 5223SOL    HW127302   1.637   3.781  11.951  0.3842  0.5243  0.2073
 5223SOL    HW227303   1.512   3.795  12.030 -1.2533  4.2968  0.5392
 5224SOL     OW27304   1.775   1.212   3.851  0.2677  0.4970  0.6964
 5224SOL    HW127305   1.843   1.202   3.917  3.5259  1.9273 -2.4354
 5224SOL    HW227306   1.805   1.292   3.807 -1.0832  1.3630  1.3625
 5225SOL     OW27307   2.758   1.641   1.634 -0.1805 -0.1928  0.4741
 5225SOL    HW127308   2.721   1.688   1.558 -0.2514  0.3852  0.8643
 5225SOL    HW227309   2.814   1.576   1.591 -1.2166 -0.2384 -0.8045
 5226SOL     OW27310   0.643   2.367   8.415  0.0027  0.0718  0.2993
 5226SOL    HW127311   0.608   2.319   8.490  0.9098 -3.8753 -1.7962
 5226SOL    HW227312   0.564   2.364   8.360 -1.0357  1.1027  1.7213
 5227SOL     OW27313   1.255   0.099   0.444 -0.5885  0.1558  0.5448
 5227SOL    HW127314   1.302   0.025   0.482  0.4295  1.3774  1.6640
 5227SOL    HW227315   1.163   0.075   0.459 -0.5690 -0.4824 -0.3761
 5228SOL     OW27316   1.834   0.812   9.763  0.0515 -0.7824 -0.2091
 5228SOL    HW127317   1.916   0.846   9.800 -1.2213  2.7389 -0.5682
 5228SOL    HW227318   1.766   0.857   9.814  0.4824  0.9117 -1.1215
 5229SOL     OW27319   0.645   4.556   2.742  0.3323 -0.3846 -0.1704
 5229SOL    HW127320   0.584   4.593   2.679  2.2617  0.4765 -1.5647
 5229SOL    HW227321   0.730   4.570   2.699 -0.4328 -1.1169 -1.9197
 5230SOL     OW27322   4.674   2.563   8.752 -0.6329  0.5350  0.0719
 5230SOL    HW127323   4.607   2.628   8.772 -0.9513  0.6162 -1.3034
 5230SOL    HW227324   4.632   2.498   8.697  0.5844 -0.6676  0.5531
 5231SOL     OW27325   4.278   3.297   8.761 -0.3436  0.6456 -0.2116
 5231SOL    HW127326   4.267   3.247   8.842  0.4477 -1.5442 -1.4742
 5231SOL    HW227327   4.191   3.293   8.721 -0.7477 -0.3324  0.7648
 5232SOL     OW27328   0.924   2.211   9.531  0.4632  0.3341 -0.4330
 5232SOL    HW127329   1.003   2.226   9.582 -0.2476  0.2831  0.6892
 5232SOL    HW227330   0.910   2.117   9.542 -1.1931  0.6824  0.5000
 5233SOL     OW27331   3.855   1.591   1.611 -0.1587  0.1066  0.1956
 5233SOL    HW127332   3.781   1.627   1.561 -1.5821 -0.2844  2.0250
 5233SOL    HW227333   3.918   1.660   1.589 -0.2328  0.2798  0.5165
 5234SOL     OW27334   3.380   1.526  17.446  0.1045  0.6833  0.3068
 5234SOL    HW127335   3.289   1.550  17.432 -0.7126 -1.5121  1.8387
 5234SOL    HW227336   3.411   1.576  17.522 -1.2587  2.1113 -0.0821
 5235SOL     OW27337   0.873   1.656  10.917  0.4009  0.2099  0.5148
 5235SOL    HW127338   0.817   1.626  10.988  1.8168 -1.3244  0.9894
 5235SOL    HW227339   0.916   1.731  10.957  3.8682 -0.7149 -1.4379
 5236SOL     OW27340   2.995   1.625   2.451 -0.7754  0.0265  0.1394
 5236SOL    HW127341   2.974   1.557   2.387 -1.6770 -0.4067  0.8983
 5236SOL    HW227342   2.913   1.656   2.490 -2.1118  0.0422 -2.6675
 5237SOL     OW27343   1.247   2.419  10.485 -0.2395 -0.0019 -0.3049
 5237SOL    HW127344   1.259   2.339  10.433 -1.5016 -0.4816  0.1408
 5237SOL    HW227345   1.185   2.392  10.553  0.0686  0.6527  0.2248
 5238SOL     OW27346   0.503   0.028  16.770 -0.2330 -0.0189  0.4177
 5238SOL    HW127347   0.595   0.005  16.756 -0.0528  2.3451 -2.2178
 5238SOL    HW227348   0.514   0.118  16.739 -2.5398  0.8764  2.1195
 5239SOL     OW27349   3.860   4.046   5.152  0.3642  0.0331  0.0584
 5239SOL    HW127350   3.850   3.951   5.148 -1.1385  0.0868  2.4165
 5239SOL    HW227351   3.843   4.072   5.062 -0.0275  0.4032  0.2388
 5240SOL     OW27352   4.657   0.462   2.301  0.3879 -0.0186 -0.0336
 5240SOL    HW127353   4.730   0.486   2.357 -0.7891  1.6924  0.7627
 5240SOL    HW227354   4.674   0.372   2.274 -0.5828  0.0667 -0.9406
 5241SOL     OW27355   0.222   2.495   4.516 -0.1878  0.4435 -0.1873
 5241SOL    HW127356   0.241   2.454   4.601  1.6657  2.2730  0.2995
 5241SOL    HW227357   0.233   2.423   4.455  0.6793 -0.0519  0.5577
 5242SOL     OW27358   2.773   2.103   1.547  0.1073 -0.6897 -0.3227
 5242SOL    HW127359   2.707   2.091   1.479  0.4447  0.9008 -0.9491
 5242SOL    HW227360   2.791   2.194   1.524 -1.0675 -0.4532 -0.3106
 5243SOL     OW27361   2.230   0.430   6.132  0.1962  0.6322 -0.4801
 5243SOL    HW127362   2.185   0.417   6.048 -0.5653  1.2854 -0.1778
 5243SOL    HW227363   2.319   0.446   6.099  0.9502 -1.7758  0.3829
 5244SOL     OW27364   2.225   3.089   8.989 -0.2822  0.0400 -0.6854
 5244SOL    HW127365   2.247   2.998   8.971 -0.3059 -0.6166  2.6848
 5244SOL    HW227366   2.134   3.086   8.959 -0.2788  1.0290 -0.8201
 5245SOL     OW27367   2.894   2.642  15.174 -0.3194 -0.6346  0.7517
 5245SOL    HW127368   2.814   2.659  15.123  0.4279  2.7649  0.7157
 5245SOL    HW227369   2.899   2.714  15.236  0.7431  1.5538 -1.8626
 5246SOL     OW27370   3.738   1.438   6.700  0.0056 -0.1951  0.1958
 5246SOL    HW127371   3.664   1.496   6.719 -0.8679 -1.6301  1.1843
 5246SOL    HW227372   3.809   1.496   6.727  0.1546  0.1171 -0.8477
 5247SOL     OW27373   2.284   1.779   3.845 -0.4847 -0.8824  0.0645
 5247SOL    HW127374   2.281   1.764   3.751 -2.3450  0.0748 -0.0343
 5247SOL    HW227375   2.375   1.806   3.855 -0.5306 -0.4564 -0.6458
 5248SOL     OW27376   2.534   2.546   7.310  0.1371  0.0101 -0.1710
 5248SOL    HW127377   2.501   2.596   7.385  0.9710 -0.5450  0.5637
 5248SOL    HW227378   2.460   2.485   7.313 -0.3717  0.6416 -0.0284
 5249SOL     OW27379   0.256   3.796  11.731  0.3663 -0.2724  0.1999
 5249SOL    HW127380   0.235   3.886  11.708  1.5078  0.2037  1.0142
 5249SOL    HW227381   0.350   3.781  11.718  0.1154 -0.1654 -1.7349
 5250SOL     OW27382   1.220   4.702  12.736  0.4707 -0.0538  0.2352
 5250SOL    HW127383   1.315   4.698  12.733  0.5433  1.2659  0.8079
 5250SOL    HW227384   1.198   4.677  12.826 -1.7307 -2.1231 -0.8851
 5251SOL     OW27385   1.119   3.103   6.326  0.1288  0.5264 -0.3834
 5251SOL    HW127386   1.176   3.150   6.264 -0.7927  0.5425 -1.2184
 5251SOL    HW227387   1.076   3.052   6.257  0.8005 -0.1350 -0.3120
 5252SOL     OW27388   0.873   2.477   9.484  0.1810 -0.0866 -0.6528
 5252SOL    HW127389   0.905   2.393   9.518  2.1769  0.7425 -0.4837
 5252SOL    HW227390   0.818   2.441   9.414 -2.5624 -0.0680  1.5234
 5253SOL     OW27391   1.513   2.696   2.039 -0.5364 -0.0861 -0.3757
 5253SOL    HW127392   1.460   2.770   2.011 -0.8915  0.3250  1.4036
 5253SOL    HW227393   1.498   2.630   1.970 -0.2845 -1.5316  0.9545
 5254SOL     OW27394   4.476   4.425   1.158 -0.0545  0.3830 -0.4121
 5254SOL    HW127395   4.465   4.514   1.193 -0.0948  0.6880 -1.1878
 5254SOL    HW227396   4.565   4.391   1.167  1.0121  2.3640 -3.3106
 5255SOL     OW27397   0.658   3.283   2.670 -0.3643 -0.0582 -0.3806
 5255SOL    HW127398   0.645   3.378   2.670 -1.8573 -0.2602 -0.7026
 5255SOL    HW227399   0.580   3.252   2.716 -0.3029 -1.4475 -1.2026
 5256SOL     OW27400   4.489   0.828   1.672 -0.5379 -0.3223  0.4529
 5256SOL    HW127401   4.572   0.872   1.693 -0.4206 -0.6433  0.6620
 5256SOL    HW227402   4.526   0.770   1.606 -0.9619  0.3503 -0.3834
 5257SOL     OW27403   3.203   3.271   5.622 -0.4558 -0.2426 -0.0399
 5257SOL    HW127404   3.229   3.178   5.626  2.4814  0.6565  2.0210
 5257SOL    HW227405   3.138   3.277   5.691  0.5925  0.0509  0.9270
 5258SOL     OW27406   0.552   4.424   7.720  0.4491 -0.2429  0.0806
 5258SOL    HW127407   0.548   4.353   7.655 -0.3147  0.9293 -1.1563
 5258SOL    HW227408   0.468   4.403   7.761  1.6665 -1.2586  2.0501
 5259SOL     OW27409   1.469   1.017  14.114 -0.2472  0.2896 -0.2210
 5259SOL    HW127410   1.411   1.029  14.038 -3.5452 -1.9224  1.9589
 5259SOL    HW227411   1.420   0.956  14.168  1.1912  0.7224  1.5454
 5260SOL     OW27412   3.511   3.204   9.974 -0.4309  0.0812  0.6763
 5260SOL    HW127413   3.468   3.187  10.058 -2.2567  2.5625  0.2558
 5260SOL    HW227414   3.599   3.179  10.002  0.1635  1.4824  0.0607
 5261SOL     OW27415   0.568   1.565   9.094 -0.3538  0.7924  0.4310
 5261SOL    HW127416   0.648   1.596   9.052 -0.1318 -1.7820 -1.0174
 5261SOL    HW227417   0.504   1.611   9.041 -1.1623 -0.9164 -0.0645
 5262SOL     OW27418   2.821   0.845  14.315  0.1143  0.0105 -0.4458
 5262SOL    HW127419   2.803   0.773  14.375 -0.5668 -1.8300 -2.8721
 5262SOL    HW227420   2.916   0.831  14.321 -0.0830 -1.6112 -1.3267
 5263SOL     OW27421   3.894   0.207   4.611  0.0330  0.5644  0.4611
 5263SOL    HW127422   3.842   0.135   4.648  0.2122 -0.3940 -1.1417
 5263SOL    HW227423   3.906   0.175   4.521  0.8167 -1.8853  1.4404
 5264SOL     OW27424   2.592   0.742  16.710  0.3052 -0.0283  0.4009
 5264SOL    HW127425   2.543   0.735  16.792  1.1812 -0.2292  0.9083
 5264SOL    HW227426   2.567   0.831  16.687  1.8065  0.5559  1.0553
 5265SOL     OW27427   0.036   0.588  15.121 -0.1125 -0.0233  0.3322
 5265SOL    HW127428   0.120   0.633  15.124 -0.2499  0.2052  0.7969
 5265SOL    HW227429   0.054   0.514  15.179 -2.1526 -1.9633 -1.5118
 5266SOL     OW27430   1.544   3.029   0.110  0.0683  0.0421  0.3017
 5266SOL    HW127431   1.471   3.073   0.153 -0.5816 -0.8997  0.1550
 5266SOL    HW227432   1.505   2.945   0.089  0.0041  0.0329  0.4625
 5267SOL     OW27433   2.455   4.683   5.511 -0.4892  0.0730 -0.3719
 5267SOL    HW127434   2.478   4.709   5.421  1.0013 -1.1755 -0.3357
 5267SOL    HW227435   2.375   4.636   5.487 -1.5118  1.6352 -0.0605
 5268SOL     OW27436   0.623   2.586   8.045  0.5712  0.1946  0.3537
 5268SOL    HW127437   0.607   2.656   8.107 -2.7743  0.5931 -0.9466
 5268SOL    HW227438   0.702   2.538   8.070  0.7978  0.3706 -0.0293
 5269SOL     OW27439   0.737   1.148   3.318  0.5485 -0.6074 -0.5626
 5269SOL    HW127440   0.772   1.176   3.234  2.5093 -0.5884  0.2561
 5269SOL    HW227441   0.792   1.197   3.380  0.6869 -1.5787  0.0800
 5270SOL     OW27442   3.630   0.715   6.204 -0.0470 -0.1681  0.1531
 5270SOL    HW127443   3.581   0.770   6.265 -0.8407 -0.5881 -0.0984
 5270SOL    HW227444   3.706   0.774   6.202 -0.8243  0.8786  1.2024
 5271SOL     OW27445   1.120   0.944   9.273 -0.9700 -0.4118 -0.4839
 5271SOL    HW127446   1.197   0.996   9.296 -1.1516 -0.4908  0.2819
 5271SOL    HW227447   1.063   0.972   9.345 -1.0867 -1.2077 -0.2673
 5272SOL     OW27448   2.932   0.419   4.886  0.5070  0.8483 -0.2885
 5272SOL    HW127449   2.952   0.339   4.838  2.5031  0.5531  1.0511
 5272SOL    HW227450   3.001   0.422   4.952  0.5651 -0.4916 -0.2869
 5273SOL     OW27451   3.655   3.066   4.137  0.2745 -0.3553  0.0715
 5273SOL    HW127452   3.730   3.057   4.196  0.7140  1.3436 -0.2378
 5273SOL    HW227453   3.675   3.141   4.081  3.0913 -0.1015  1.4109
 5274SOL     OW27454   0.505   1.756   4.787 -0.2274 -0.3799  0.3395
 5274SOL    HW127455   0.431   1.770   4.729 -0.7495 -1.6497  0.7030
 5274SOL    HW227456   0.532   1.668   4.760 -3.8252 -1.3657 -0.1054
 5275SOL     OW27457   1.440   0.543  13.946 -0.8727 -0.3601 -0.0794
 5275SOL    HW127458   1.429   0.587  13.862  1.7367 -3.2524 -1.9234
 5275SOL    HW227459   1.502   0.605  13.984 -0.2105 -0.4526 -1.0254
 5276SOL     OW27460   4.092   1.164   7.350 -0.2638  0.6832  0.4760
 5276SOL    HW127461   4.127   1.098   7.290  2.2118  2.0130  0.4611
 5276SOL    HW227462   4.137   1.242   7.316  0.0867  0.4888  0.4867
 5277SOL     OW27463   0.460   0.973   5.915 -0.1908 -1.3254  0.1792
 5277SOL    HW127464   0.497   0.983   6.002  0.0444 -0.4233 -0.0259
 5277SOL    HW227465   0.381   0.933   5.952  1.6842 -1.1414  4.3580
 5278SOL     OW27466   3.148   0.625  10.942  0.2439 -0.8929  0.0980
 5278SOL    HW127467   3.138   0.555  10.878 -0.4823  0.4285 -1.2297
 5278SOL    HW227468   3.226   0.593  10.988 -0.0829 -1.1502  0.4727
 5279SOL     OW27469   4.314   4.520   4.357  0.2926  0.4537  0.1454
 5279SOL    HW127470   4.289   4.454   4.293 -1.4809  2.0042 -0.8011
 5279SOL    HW227471   4.397   4.486   4.389  0.2959 -0.7369 -1.1196
 5280SOL     OW27472   2.568   1.561  11.396  0.1552  0.0731  0.8475
 5280SOL    HW127473   2.643   1.535  11.342 -1.5387 -0.6044 -1.1696
 5280SOL    HW227474   2.528   1.479  11.424 -0.9769  0.1249 -0.6462
 5281SOL     OW27475   1.222   2.826   2.963  0.2556  0.1120 -0.2278
 5281SOL    HW127476   1.224   2.896   3.028 -2.1792  2.1362 -2.3022
 5281SOL    HW227477   1.308   2.854   2.930 -0.1196 -0.1053 -1.3901
 5282SOL     OW27478   4.727   1.668   1.815  0.7904  0.2895  0.1053
 5282SOL    HW127479   0.036   1.597   1.855 -1.8525 -0.9610  1.1497
 5282SOL    HW227480   4.668   1.606   1.773  3.8366 -1.7761 -1.1574
 5283SOL     OW27481   3.161   1.759   5.241  0.1125  0.1435 -0.4015
 5283SOL    HW127482   3.254   1.756   5.261  0.2204 -0.1210 -0.9382
 5283SOL    HW227483   3.131   1.679   5.198  2.5015 -0.7289 -0.3913
 5284SOL     OW27484   1.355   1.136  11.236 -0.2687  0.1177 -0.7629
 5284SOL    HW127485   1.307   1.126  11.153 -0.0229  1.6260 -1.0816
 5284SOL    HW227486   1.439   1.121  11.192  0.6063  1.3111  0.5105
 5285SOL     OW27487   4.446   3.184  11.920 -0.4731  0.4174  0.3910
 5285SOL    HW127488   4.412   3.100  11.888  2.2962 -1.0199  1.1528
 5285SOL    HW227489   4.523   3.158  11.972  1.1085 -2.4616 -3.3322
 5286SOL     OW27490   3.375   2.159  13.140 -0.1502 -0.3302 -0.2769
 5286SOL    HW127491   3.357   2.185  13.049  2.1585 -0.0415 -0.6497
 5286SOL    HW227492   3.310   2.211  13.188  0.2561  0.3751 -0.4814
 5287SOL     OW27493   1.315   4.375   7.197 -0.2185  0.4307  0.0302
 5287SOL    HW127494   1.410   4.371   7.185 -0.1115  2.5400  0.0976
 5287SOL    HW227495   1.290   4.429   7.122 -1.3387 -1.1741 -0.7420
 5288SOL     OW27496   2.623   4.335   0.729  0.1662  0.2187  0.5591
 5288SOL    HW127497   2.641   4.243   0.710 -1.8651  0.2619 -1.6377
 5288SOL    HW227498   2.684   4.346   0.801  1.4098  0.3295 -0.5108
 5289SOL     OW27499   1.148   3.860  12.369  0.1466 -0.2487 -0.1391
 5289SOL    HW127500   1.215   3.919  12.402  0.7898  0.1128 -2.0748
 5289SOL    HW227501   1.097   3.848  12.449  0.0766  0.7831 -0.0314
 5290SOL     OW27502   3.357   2.388   4.526 -0.4756  0.1257 -0.0511
 5290SOL    HW127503   3.312   2.440   4.459  0.5815  0.8184 -0.2244
 5290SOL    HW227504   3.388   2.310   4.480 -0.3099  0.5314 -0.6287
 5291SOL     OW27505   2.712   3.224   3.318  0.2938 -0.2410  0.2442
 5291SOL    HW127506   2.680   3.179   3.240 -0.1201 -0.3963  0.5003
 5291SOL    HW227507   2.703   3.317   3.299  0.1905 -0.1403  0.7970
 5292SOL     OW27508   4.534   0.782  13.307 -0.2530 -0.0863 -0.2924
 5292SOL    HW127509   4.607   0.828  13.348 -0.8877  1.1500 -0.5720
 5292SOL    HW227510   4.578   0.701  13.278 -0.1236  0.3659 -1.3639
 5293SOL     OW27511   1.215   2.071   4.613 -0.0391 -0.1320 -0.7518
 5293SOL    HW127512   1.298   2.059   4.660  0.1084 -2.3210 -1.5688
 5293SOL    HW227513   1.167   1.991   4.631 -0.1883  0.1190 -0.0190
 5294SOL     OW27514   0.492   3.213   6.568 -0.4518  0.4209  0.3449
 5294SOL    HW127515   0.544   3.289   6.538 -1.0626  0.7185  0.0338
 5294SOL    HW227516   0.566   3.156   6.547 -1.2691 -0.3518 -0.4184
 5295SOL     OW27517   1.853   1.379  12.857  0.1773  0.7118 -0.0186
 5295SOL    HW127518   1.940   1.359  12.822  0.9185 -0.4364  2.4361
 5295SOL    HW227519   1.817   1.299  12.820  1.4107  1.1827 -2.2244
 5296SOL     OW27520   2.750   2.602   4.788  0.3438 -0.1655  0.3355
 5296SOL    HW127521   2.740   2.512   4.819  0.7776 -1.1296 -2.2942
 5296SOL    HW227522   2.796   2.638   4.863 -0.3981  1.9354 -0.2195
 5297SOL     OW27523   3.703   4.236   1.396  0.2858 -0.9094 -0.0654
 5297SOL    HW127524   3.781   4.275   1.434 -0.2935 -0.2613  0.4608
 5297SOL    HW227525   3.654   4.311   1.362  0.5347  0.6068  2.9697
 5298SOL     OW27526   0.706   0.878   3.858 -0.1724  0.0721  0.0923
 5298SOL    HW127527   0.698   0.959   3.808  1.7574  1.0407  1.3426
 5298SOL    HW227528   0.618   0.848   3.880 -0.1527 -0.0827 -0.0432
 5299SOL     OW27529   0.931   3.002   1.357  0.2103  0.2489 -0.1356
 5299SOL    HW127530   0.952   2.981   1.266 -1.2444  1.0911 -0.6713
 5299SOL    HW227531   0.964   3.090   1.376 -0.5581 -0.0591  2.6603
 5300SOL     OW27532   3.936   3.648   2.590  0.9277  0.2661 -0.3927
 5300SOL    HW127533   3.850   3.691   2.587  0.6128 -0.3830 -0.8165
 5300SOL    HW227534   3.932   3.632   2.684  0.0662  0.1570 -0.4418
 5301SOL     OW27535   0.035   1.251   1.646  0.2904 -0.4362 -0.2969
 5301SOL    HW127536   0.114   1.288   1.684 -0.2645 -1.4212  1.8301
 5301SOL    HW227537   0.040   1.160   1.676  0.1527 -1.1812 -2.5447
 5302SOL     OW27538   3.192   0.862   3.798  0.3958 -0.3285 -0.5247
 5302SOL    HW127539   3.152   0.782   3.832  1.4172 -0.7125 -0.2310
 5302SOL    HW227540   3.212   0.820   3.714  1.7705 -1.6222  0.4493
 5303SOL     OW27541   3.273   0.530   4.752  0.1260 -0.5781  0.1263
 5303SOL    HW127542   3.240   0.476   4.681 -1.7406  0.5325  0.1716
 5303SOL    HW227543   3.303   0.460   4.811 -2.8322  0.6571  3.1306
 5304SOL     OW27544   3.183   4.249  11.300  0.2176  0.4582  0.1041
 5304SOL    HW127545   3.252   4.194  11.338 -0.5852  0.1809  1.1452
 5304SOL    HW227546   3.206   4.337  11.330 -0.7467  0.6720  0.2048
 5305SOL     OW27547   1.157   0.617   2.726  0.0394 -0.3226 -0.0325
 5305SOL    HW127548   1.079   0.601   2.673  0.1355 -2.3727  0.4481
 5305SOL    HW227549   1.139   0.576   2.810  1.3314 -2.1275 -0.6520
 5306SOL     OW27550   1.325   4.737   5.127  0.1755  0.8158  0.2331
 5306SOL    HW127551   1.414   4.731   5.093 -0.0297  0.9134 -0.3189
 5306SOL    HW227552   1.300   4.645   5.114 -2.1656  1.5610 -0.6439
 5307SOL     OW27553   2.922   1.435   1.520  0.5965  0.1020 -0.0684
 5307SOL    HW127554   2.870   1.373   1.571 -1.6852  0.4915 -1.9582
 5307SOL    HW227555   2.892   1.414   1.432  0.1278 -1.0017  0.3494
 5308SOL     OW27556   1.901   2.586  11.927 -0.2525  0.2610  0.1178
 5308SOL    HW127557   1.812   2.619  11.942 -0.1630  0.5714 -0.0327
 5308SOL    HW227558   1.887   2.506  11.878 -0.3728  0.3179  0.0576
 5309SOL     OW27559   1.145   2.850   5.385  0.3078 -0.0714 -0.1159
 5309SOL    HW127560   1.156   2.759   5.356  0.0562 -0.3933  0.7874
 5309SOL    HW227561   1.102   2.885   5.307  1.2871  1.2054 -0.0755
 5310SOL     OW27562   0.988   3.521   8.695 -0.2411 -0.1229 -0.2002
 5310SOL    HW127563   1.029   3.436   8.709 -0.4121 -0.4931 -1.8568
 5310SOL    HW227564   0.942   3.527   8.778 -1.5845  0.5483 -0.9916
 5311SOL     OW27565   0.075   3.951   6.708 -0.0432  0.0553  0.4524
 5311SOL    HW127566   0.143   3.994   6.656 -2.1190  2.1845 -0.5086
 5311SOL    HW227567   0.039   4.025   6.756 -0.9804  0.5092 -0.9551
 5312SOL     OW27568   2.973   3.974   8.352 -0.3041  0.2433  0.3139
 5312SOL    HW127569   2.912   4.013   8.414  0.3332 -0.9778  1.7077
 5312SOL    HW227570   2.910   3.978   8.280  1.7392 -0.9452 -1.5304
 5313SOL     OW27571   4.304   0.130   1.127  0.0264  0.1135 -0.0010
 5313SOL    HW127572   4.373   0.076   1.164  2.4265  0.6917 -3.6556
 5313SOL    HW227573   4.232   0.067   1.129  0.4218 -0.3921 -1.7406
 5314SOL     OW27574   3.878   3.294   8.050 -0.5092 -0.2011 -0.3418
 5314SOL    HW127575   3.801   3.245   8.023 -0.2151  0.9880 -3.3871
 5314SOL    HW227576   3.958   3.249   8.022  1.6927  3.1574  0.4640
 5315SOL     OW27577   0.543   2.315  17.732 -0.3538  0.3203  0.0985
 5315SOL    HW127578   0.534   2.220  17.737 -0.6791  0.4937  2.7884
 5315SOL    HW227579   0.465   2.343  17.683  0.3990  4.1145  1.1169
 5316SOL     OW27580   0.930   0.463   8.398  0.2908  0.3017  0.3270
 5316SOL    HW127581   0.998   0.530   8.393 -1.5172  1.8950 -2.9230
 5316SOL    HW227582   0.900   0.462   8.489  0.8486  0.6788  0.5155
 5317SOL     OW27583   4.638   4.535   0.545 -0.2871 -0.2525 -0.1141
 5317SOL    HW127584   4.653   4.627   0.567  0.8755 -0.5883  0.4869
 5317SOL    HW227585   4.631   4.545   0.450 -3.0458  2.6109  0.3732
 5318SOL     OW27586   3.488   3.650   4.233  0.0827  0.4831 -0.7910
 5318SOL    HW127587   3.540   3.694   4.166  0.0480  0.0330 -1.1070
 5318SOL    HW227588   3.511   3.557   4.237 -2.2215 -0.0442  0.3117
 5319SOL     OW27589   1.089   1.433  13.300  0.2110 -0.2887  0.5006
 5319SOL    HW127590   0.993   1.437  13.299  0.2169 -0.2092  0.3036
 5319SOL    HW227591   1.122   1.507  13.350  0.2843  0.2898 -0.4089
 5320SOL     OW27592   2.685   0.142   6.435 -0.5755  0.5534  0.0226
 5320SOL    HW127593   2.772   0.157   6.397 -0.0376  0.2230  1.1368
 5320SOL    HW227594   2.647   0.115   6.351  0.6476  2.0751 -1.0295
 5321SOL     OW27595   2.659   3.428   7.664 -0.1769 -0.0607 -0.0421
 5321SOL    HW127596   2.645   3.521   7.678 -2.2241 -0.5005  0.9227
 5321SOL    HW227597   2.730   3.423   7.601 -0.0994 -1.7195  0.1780
 5322SOL     OW27598   4.057   3.863   7.296 -0.1201 -0.3198 -0.1780
 5322SOL    HW127599   4.105   3.830   7.220  1.5884 -0.0508  0.7848
 5322SOL    HW227600   4.127   3.877   7.359  0.3152  0.7182 -0.8897
 5323SOL     OW27601   3.533   1.254   7.883  0.2863  0.2732 -0.1313
 5323SOL    HW127602   3.562   1.331   7.835 -0.6769  0.8394  0.2149
 5323SOL    HW227603   3.580   1.184   7.837  0.7371  0.2476  0.3524
 5324SOL     OW27604   4.368   3.103   2.729  0.2134 -0.6884  0.0026
 5324SOL    HW127605   4.324   3.130   2.649 -2.6965 -3.1634  0.7520
 5324SOL    HW227606   4.373   3.008   2.715 -0.8659 -0.5415 -1.3632
 5325SOL     OW27607   4.685   0.940   8.287  0.0561 -0.7135  0.0816
 5325SOL    HW127608   0.021   0.929   8.342 -2.1563 -2.0934  2.9618
 5325SOL    HW227609   4.701   0.888   8.208 -0.4239  2.1975 -1.9400
 5326SOL     OW27610   1.795   0.693   3.436 -0.2116 -0.0639 -0.5343
 5326SOL    HW127611   1.730   0.636   3.395 -2.0487 -0.9975  3.7291
 5326SOL    HW227612   1.746   0.766   3.473  0.4340  1.0773 -1.9145
 5327SOL     OW27613   0.066   3.853   3.288 -0.1915  0.5034 -0.1528
 5327SOL    HW127614   0.039   3.777   3.339  0.7458  0.8539  0.8568
 5327SOL    HW227615   0.118   3.909   3.346  1.3366 -0.8809 -0.2230
 5328SOL     OW27616   2.970   1.735   1.820 -0.7571  0.1903 -0.0384
 5328SOL    HW127617   2.900   1.728   1.755 -0.3779  1.3922 -0.5683
 5328SOL    HW227618   2.996   1.644   1.834 -0.8231  0.4738  1.9244
 5329SOL     OW27619   3.784   0.644   4.046  0.0270 -0.1954 -0.0513
 5329SOL    HW127620   3.790   0.638   4.142 -3.1087  0.8087  0.2101
 5329SOL    HW227621   3.732   0.721   4.024  1.4549  0.6984 -0.3116
 5330SOL     OW27622   4.695   3.264   8.463  0.0997  0.2229  0.0851
 5330SOL    HW127623   4.701   3.172   8.440  0.6113  0.7038 -1.6804
 5330SOL    HW227624   4.660   3.248   8.551 -1.1834  2.0838 -0.0716
 5331SOL     OW27625   0.554   2.575   5.549 -0.3770  0.4896 -0.0242
 5331SOL    HW127626   0.623   2.574   5.615  0.5896 -0.9810 -1.0647
 5331SOL    HW227627   0.562   2.488   5.510  3.9272  1.4913 -1.3750
 5332SOL     OW27628   1.416   3.984  16.050 -1.0782 -0.1576 -0.7281
 5332SOL    HW127629   1.484   3.940  15.998 -1.4344  1.9106 -2.9837
 5332SOL    HW227630   1.460   4.061  16.086 -0.0613 -1.7646  1.4789
 5333SOL     OW27631   1.942   2.130   4.228 -0.7519  0.0195 -0.1694
 5333SOL    HW127632   1.906   2.087   4.305 -2.8127  0.6107 -0.8228
 5333SOL    HW227633   2.025   2.167   4.260 -0.5145  0.0690 -0.8401
 5334SOL     OW27634   2.701   1.697   8.296 -0.0073  0.2819  0.1048
 5334SOL    HW127635   2.627   1.652   8.337 -1.2090  1.7384 -0.4337
 5334SOL    HW227636   2.678   1.790   8.307 -1.8760 -0.1428 -0.1488
 5335SOL     OW27637   2.549   3.025   3.980 -0.2480  0.2292 -0.0499
 5335SOL    HW127638   2.507   3.041   3.896 -1.5502 -1.9985  0.1559
 5335SOL    HW227639   2.595   2.942   3.967  1.6809  1.1166  1.0515
 5336SOL     OW27640   2.978   3.328   2.575  0.2467 -0.4543 -0.3865
 5336SOL    HW127641   3.044   3.322   2.644  1.3194  1.0005 -1.2811
 5336SOL    HW227642   3.026   3.335   2.493  1.0842 -1.3867  0.0344
 5337SOL     OW27643   0.643   0.508   6.905  1.0358 -0.4653 -0.0585
 5337SOL    HW127644   0.655   0.504   6.811 -0.5451 -3.9242 -0.0952
 5337SOL    HW227645   0.667   0.599   6.924  2.9307 -0.5827 -1.9772
 5338SOL     OW27646   1.740   2.477  11.577 -0.2852  0.2364  0.4080
 5338SOL    HW127647   1.800   2.472  11.652  2.3529 -0.9827 -1.7860
 5338SOL    HW227648   1.788   2.528  11.512  1.9468 -1.6990  0.5359
 5339SOL     OW27649   2.098   0.600   8.087 -0.2375 -0.0407  0.3126
 5339SOL    HW127650   2.060   0.552   8.013  0.4552 -1.0373  0.6075
 5339SOL    HW227651   2.186   0.620   8.055 -0.0998  1.3286  1.5559
 5340SOL     OW27652   1.860   2.279  13.353 -0.3804  0.4644  0.5758
 5340SOL    HW127653   1.788   2.271  13.291 -0.6508  0.1296  0.9345
 5340SOL    HW227654   1.887   2.190  13.376  1.6967  1.2346  1.1451
 5341SOL     OW27655   0.036   4.501   4.855  0.5137  0.5621 -0.5014
 5341SOL    HW127656   4.686   4.525   4.841  0.0963  1.1368  3.3122
 5341SOL    HW227657   0.041   4.421   4.803 -3.4569 -1.0069  1.6101
 5342SOL     OW27658   3.908   0.386   4.317  0.4411  0.5034 -0.1130
 5342SOL    HW127659   3.816   0.382   4.344  0.0862 -2.3059 -1.7509
 5342SOL    HW227660   3.933   0.294   4.308  1.7389  1.0424 -2.0156
 5343SOL     OW27661   4.271   0.061   6.705  0.0638 -0.4884 -0.0170
 5343SOL    HW127662   4.296   4.730   6.763 -2.1002 -0.9590  0.3173
 5343SOL    HW227663   4.342   0.125   6.708 -0.3968  0.0708 -1.1954
 5344SOL     OW27664   1.960   4.235   8.539 -0.2687 -0.7570  0.1404
 5344SOL    HW127665   1.884   4.195   8.497 -2.5875  2.3706  1.2771
 5344SOL    HW227666   2.019   4.226   8.465  0.1809  0.2096  0.3825
 5345SOL     OW27667   3.982   4.441   2.199 -0.3577  0.5797  0.4639
 5345SOL    HW127668   3.888   4.453   2.190 -0.3579 -0.4131 -0.8410
 5345SOL    HW227669   4.002   4.434   2.292  1.7716  0.2395 -0.0224
 5346SOL     OW27670   2.887   0.023  13.920 -1.0666 -0.7159  0.3182
 5346SOL    HW127671   2.852   4.684  13.881 -0.7210 -0.6617 -0.1053
 5346SOL    HW227672   2.884   0.079  13.842  1.5684 -1.8080 -0.5411
 5347SOL     OW27673   3.799   4.520   1.055  0.3280 -0.1429  0.3063
 5347SOL    HW127674   3.880   4.473   1.033  0.6684  0.9716 -0.7528
 5347SOL    HW227675   3.812   4.531   1.150  1.6694 -1.3325  0.2675
 5348SOL     OW27676   4.598   2.631   0.141 -0.0852  0.4017 -0.1205
 5348SOL    HW127677   4.595   2.595   0.230 -1.7055  0.4122 -0.1674
 5348SOL    HW227678   4.631   2.552   0.098  0.7712  1.0477 -0.6224
 5349SOL     OW27679   4.417   1.066  14.141 -0.4261 -0.2675  0.5802
 5349SOL    HW127680   4.323   1.051  14.144 -0.6642  1.3017  1.2281
 5349SOL    HW227681   4.445   0.975  14.144 -2.1913 -0.7908  1.0606
 5350SOL     OW27682   1.665   0.395   6.300  0.4377 -0.0051 -0.1085
 5350SOL    HW127683   1.623   0.477   6.274  1.4976  0.2542 -0.9943
 5350SOL    HW227684   1.609   0.332   6.254 -0.2370 -1.8019  3.1729
 5351SOL     OW27685   4.356   2.953   6.827 -0.5354 -0.3953 -0.1268
 5351SOL    HW127686   4.446   2.960   6.794  0.7191  1.3245  3.6945
 5351SOL    HW227687   4.369   2.953   6.922  3.7132  0.3327 -0.7085
 5352SOL     OW27688   0.604   1.179  11.399 -0.1726  0.4473 -0.3452
 5352SOL    HW127689   0.545   1.130  11.456  0.6003 -1.5120 -1.2280
 5352SOL    HW227690   0.642   1.242  11.460 -0.7431 -3.5424  4.1263
 5353SOL     OW27691   0.495   1.871   1.641 -1.1545 -0.1545  0.8886
 5353SOL    HW127692   0.434   1.935   1.605  1.0799 -0.4700 -3.3987
 5353SOL    HW227693   0.566   1.886   1.579 -1.6396 -0.4197  0.2737
 5354SOL     OW27694   3.038   2.478   2.418  0.2490  0.3737  0.0188
 5354SOL    HW127695   3.073   2.444   2.336  1.2847  4.0294 -1.0767
 5354SOL    HW227696   2.943   2.467   2.410  0.1757  0.5792  0.5911
 5355SOL     OW27697   3.152   0.610  14.497 -0.5081  0.4279 -0.0663
 5355SOL    HW127698   3.161   0.702  14.470 -2.1317  0.5407 -0.1894
 5355SOL    HW227699   3.115   0.572  14.417  1.9647  0.1004 -1.0596
 5356SOL     OW27700   4.194   0.262   1.515 -0.3241  0.2325 -0.1743
 5356SOL    HW127701   4.117   0.205   1.518  0.5488 -1.0253 -1.2527
 5356SOL    HW227702   4.254   0.209   1.568 -0.9000 -0.5031 -0.2540
 5357SOL     OW27703   1.540   0.029   4.110  0.5598 -0.0899  0.2550
 5357SOL    HW127704   1.508   4.699   4.055  1.3143  1.2710 -1.9670
 5357SOL    HW227705   1.462   0.054   4.159 -1.6835 -3.1805 -1.7594
 5358SOL     OW27706   3.874   2.492  15.986  0.1146 -0.0534 -0.0853
 5358SOL    HW127707   3.907   2.580  15.967  2.2698 -0.4635  1.7619
 5358SOL    HW227708   3.941   2.452  16.041  0.3609  1.5536  0.8004
 5359SOL     OW27709   4.010   1.975  17.227 -0.5595 -0.1084 -0.0305
 5359SOL    HW127710   4.007   2.039  17.156  1.9404 -0.7883 -0.7292
 5359SOL    HW227711   4.066   2.020  17.290 -0.2002  1.1798 -1.2535
 5360SOL     OW27712   2.219   1.948   8.614 -0.2905 -0.1755 -0.2056
 5360SOL    HW127713   2.237   1.855   8.629  1.9019  0.2825  0.1023
 5360SOL    HW227714   2.199   1.945   8.520  0.4677  0.4877 -0.3901
 5361SOL     OW27715   1.237   2.292  13.208 -0.6695 -0.3186 -0.0121
 5361SOL    HW127716   1.249   2.315  13.116  0.9255 -0.6008  0.1365
 5361SOL    HW227717   1.316   2.330  13.247  0.1489 -1.4334 -0.5739
 5362SOL     OW27718   2.450   0.518   1.531  0.0563  0.4298 -0.2571
 5362SOL    HW127719   2.532   0.552   1.567  0.8381  0.1741 -1.7881
 5362SOL    HW227720   2.458   0.546   1.440  2.1960 -0.3699 -0.3129
 5363SOL     OW27721   1.149   1.772  13.719  0.0829  0.4459  0.1196
 5363SOL    HW127722   1.244   1.778  13.733  0.2151  0.7396 -0.8597
 5363SOL    HW227723   1.136   1.743  13.628 -2.9283  0.1559  0.6527
 5364SOL     OW27724   2.061   3.257   4.264  0.6052  0.1353  0.0099
 5364SOL    HW127725   2.045   3.173   4.222 -2.5837  1.0616 -0.6906
 5364SOL    HW227726   1.981   3.299   4.232  0.1840 -1.7999 -1.4268
 5365SOL     OW27727   0.670   0.598   8.429  0.1423 -0.3141  0.0871
 5365SOL    HW127728   0.728   0.646   8.487 -1.1454 -1.3088  2.2026
 5365SOL    HW227729   0.607   0.662   8.397  0.4360  0.5633  1.2739
 5366SOL     OW27730   0.103   1.915   5.121  0.3794  0.5347 -0.0284
 5366SOL    HW127731   0.194   1.899   5.097  0.1627  0.1487 -0.5767
 5366SOL    HW227732   0.067   1.939   5.036  1.0277  1.3283 -0.0811
 5367SOL     OW27733   4.211   2.902  15.859 -0.0773 -0.8166  0.0030
 5367SOL    HW127734   4.139   2.965  15.862  0.7381  0.0622  1.3605
 5367SOL    HW227735   4.160   2.821  15.850 -0.7743 -0.5157  1.2360
 5368SOL     OW27736   1.713   0.532  13.751 -0.3878  0.2598 -0.1944
 5368SOL    HW127737   1.629   0.571  13.726 -1.2491 -2.1641 -1.1320
 5368SOL    HW227738   1.719   0.531  13.846  3.1208  1.1331 -0.3966
 5369SOL     OW27739   1.107   1.997   6.577 -0.3275  0.1354  0.0443
 5369SOL    HW127740   1.089   2.030   6.488 -0.1494  0.0917 -0.0071
 5369SOL    HW227741   1.167   2.064   6.609  0.2849 -1.4383  2.2080
 5370SOL     OW27742   2.237   0.130   9.086  0.2616  0.0197 -0.3754
 5370SOL    HW127743   2.210   0.039   9.103  0.6405 -0.0630 -0.2149
 5370SOL    HW227744   2.275   0.154   9.171 -1.2050 -3.0342  1.1735
 5371SOL     OW27745   4.227   4.088  17.264  0.1679 -0.1378 -0.6588
 5371SOL    HW127746   4.144   4.074  17.218 -1.0292  1.6962  0.9574
 5371SOL    HW227747   4.197   4.138  17.340  0.2923 -2.1654  0.7048
 5372SOL     OW27748   0.355   1.972   3.826 -0.0844  0.2023  0.0046
 5372SOL    HW127749   0.323   1.911   3.893 -1.4514 -0.8091 -1.5778
 5372SOL    HW227750   0.441   1.933   3.811  0.5382  1.5428  0.0901
 5373SOL     OW27751   0.403   4.592  13.804  0.0660 -0.1920 -0.2811
 5373SOL    HW127752   0.353   4.667  13.770  1.6653  1.2298  0.4660
 5373SOL    HW227753   0.483   4.625  13.764 -0.3678  0.8636 -0.2949
 5374SOL     OW27754   3.312   0.274  14.415  0.2972  0.8062  0.3146
 5374SOL    HW127755   3.370   0.334  14.463  1.2059 -2.7483  3.6885
 5374SOL    HW227756   3.370   0.241  14.347 -0.1467  1.5612 -0.4345
 5375SOL     OW27757   2.411   4.422   5.215  0.1946 -0.2172  0.6211
 5375SOL    HW127758   2.466   4.367   5.271 -0.5275 -2.1822 -0.6245
 5375SOL    HW227759   2.407   4.378   5.130 -1.9692 -1.3011  1.2866
 5376SOL     OW27760   1.226   2.789   0.197 -0.5136 -0.1795  0.2080
 5376SOL    HW127761   1.218   2.738   0.278 -0.8607 -1.1062 -0.4015
 5376SOL    HW227762   1.308   2.764   0.154 -0.3077  1.2295 -0.2102
 5377SOL     OW27763   2.813   0.941  10.066 -0.4831 -0.0216  0.0050
 5377SOL    HW127764   2.906   0.920  10.073 -0.2437  1.2056  0.4718
 5377SOL    HW227765   2.817   0.997   9.988  0.8514 -0.5530 -0.3110
 5378SOL     OW27766   1.389   1.617   7.467 -0.4964 -0.3920  0.1714
 5378SOL    HW127767   1.317   1.591   7.525 -0.6842  1.3588  0.7312
 5378SOL    HW227768   1.341   1.685   7.420  1.7216  1.8451  1.1551
 5379SOL     OW27769   2.790   1.546   7.470 -0.0185 -0.4635 -0.5753
 5379SOL    HW127770   2.872   1.594   7.460 -1.1563  1.7994  0.7643
 5379SOL    HW227771   2.770   1.553   7.564  1.5001 -0.9281 -0.2109
 5380SOL     OW27772   4.557   2.504   6.606 -0.3627 -0.0368  0.3790
 5380SOL    HW127773   4.523   2.440   6.669  0.1035  0.1217  0.7882
 5380SOL    HW227774   4.621   2.557   6.654  0.0959 -0.1700 -0.0864
 5381SOL     OW27775   3.574   1.712   1.540  0.7156  0.1377 -0.6618
 5381SOL    HW127776   3.589   1.769   1.616  1.0293  0.2465 -0.8059
 5381SOL    HW227777   3.492   1.748   1.508  0.0044  1.0438  2.1484
 5382SOL     OW27778   1.912   1.147   3.347 -0.2479  0.9002 -0.3615
 5382SOL    HW127779   1.991   1.175   3.302  1.1592 -1.0642  0.8935
 5382SOL    HW227780   1.952   1.149   3.434 -1.3631 -2.1402  0.2345
 5383SOL     OW27781   2.978   0.132   5.244  0.5388 -0.3509  0.7188
 5383SOL    HW127782   3.022   0.216   5.230 -0.9153  0.9043  3.7042
 5383SOL    HW227783   2.896   0.125   5.196  1.3761  2.7146 -1.1442
 5384SOL     OW27784   4.693   1.821  15.982 -0.1568 -0.3975  0.2179
 5384SOL    HW127785   4.732   1.808  16.069  0.0938 -0.2003  0.1351
 5384SOL    HW227786   0.014   1.890  15.958 -2.0089  1.4624  0.7548
 5385SOL     OW27787   1.399   3.993   3.674  0.5461 -0.1302 -0.2125
 5385SOL    HW127788   1.331   4.037   3.726 -1.6119 -1.5632 -1.8060
 5385SOL    HW227789   1.366   3.903   3.669  2.7959 -1.0431  1.7830
 5386SOL     OW27790   0.259   3.131   5.643 -0.7531  0.2733 -0.4280
 5386SOL    HW127791   0.260   3.060   5.707 -1.1656  2.2931  1.8110
 5386SOL    HW227792   0.180   3.108   5.593 -1.2223  0.0095  0.4317
 5387SOL     OW27793   0.401   0.065   8.963 -0.3733  0.7644  0.1886
 5387SOL    HW127794   0.343   0.088   8.890 -0.1804  1.2720  0.1948
 5387SOL    HW227795   0.333   0.061   9.030  0.2300 -2.7468  0.5485
 5388SOL     OW27796   3.857   3.666   3.705  0.6018 -0.5101 -0.1388
 5388SOL    HW127797   3.834   3.598   3.642  1.0153 -0.3566 -0.4535
 5388SOL    HW227798   3.834   3.620   3.786  0.9651  0.3066  0.4340
 5389SOL     OW27799   2.478   1.253   6.312  0.0122 -0.0147  0.4856
 5389SOL    HW127800   2.539   1.289   6.376  0.4492  1.5753 -0.8285
 5389SOL    HW227801   2.415   1.209   6.369  2.2749 -2.5604  1.0424
 5390SOL     OW27802   2.528   1.582   6.246 -0.1660 -0.4550  0.0690
 5390SOL    HW127803   2.441   1.550   6.268 -0.2022 -0.4235 -0.0287
 5390SOL    HW227804   2.509   1.675   6.234  0.8306 -0.0062  1.8968
 5391SOL     OW27805   0.753   0.021  12.251 -0.5067 -0.0313 -0.4641
 5391SOL    HW127806   0.815   4.694  12.274 -0.6356 -0.1843 -0.5655
 5391SOL    HW227807   0.681   0.012  12.314  0.1065 -0.5495  0.1573
 5392SOL     OW27808   2.747   4.336   5.666 -0.4735  0.0277  0.1670
 5392SOL    HW127809   2.724   4.429   5.675 -0.2531  0.0974  0.0280
 5392SOL    HW227810   2.839   4.345   5.638 -0.2805  1.2197  1.1962
 5393SOL     OW27811   4.049   2.652   3.894 -0.8959  0.3625 -0.0920
 5393SOL    HW127812   4.095   2.734   3.913 -1.9325  1.0376 -0.4940
 5393SOL    HW227813   4.127   2.597   3.903 -0.9062  0.3717  0.0466
 5394SOL     OW27814   0.221   2.835   8.370 -0.2305 -0.1574  0.2003
 5394SOL    HW127815   0.250   2.899   8.435 -0.0660  0.3496 -0.3833
 5394SOL    HW227816   0.260   2.861   8.287 -0.2364  0.3838  0.3685
 5395SOL     OW27817   4.374   3.330   2.244  0.1059  0.1700  0.3490
 5395SOL    HW127818   4.309   3.385   2.202  1.4462 -0.2003 -2.2149
 5395SOL    HW227819   4.440   3.397   2.264 -1.1292  2.2888 -2.7485
 5396SOL     OW27820   4.372   1.499   7.690  0.4325 -0.1298  0.0972
 5396SOL    HW127821   4.354   1.406   7.699  2.0855 -0.3604  1.0567
 5396SOL    HW227822   4.290   1.533   7.726  0.2610 -1.3978  0.8870
 5397SOL     OW27823   3.656   3.488   1.119 -0.2833 -0.4770 -0.1351
 5397SOL    HW127824   3.630   3.450   1.204 -0.7557 -0.9472 -0.4898
 5397SOL    HW227825   3.641   3.415   1.060 -1.7751 -0.3456  0.0735
 5398SOL     OW27826   2.136   2.635  14.825  0.4232  0.1715  0.5021
 5398SOL    HW127827   2.059   2.583  14.801  1.6469 -0.6739 -1.5905
 5398SOL    HW227828   2.151   2.595  14.910 -2.2674  3.3282  2.4848
 5399SOL     OW27829   0.911   3.703   4.611  0.3264 -0.2880  0.2351
 5399SOL    HW127830   0.992   3.655   4.590  2.0983  2.5965  0.5430
 5399SOL    HW227831   0.935   3.761   4.683 -1.3670  1.1841 -0.3965
 5400SOL     OW27832   2.410   3.783   1.758 -0.5029 -0.8004 -0.5420
 5400SOL    HW127833   2.397   3.876   1.742  0.3738 -0.7296 -0.9020
 5400SOL    HW227834   2.445   3.764   1.670  0.4905  0.8534 -0.5120
 5401SOL     OW27835   0.323   0.450   8.762 -0.4307  0.8847  0.0107
 5401SOL    HW127836   0.410   0.433   8.727  0.1461  1.8472  0.9477
 5401SOL    HW227837   0.315   0.373   8.819 -0.1658  0.1624 -0.9359
 5402SOL     OW27838   1.785   2.005  12.497  0.6948 -0.5147 -0.0651
 5402SOL    HW127839   1.690   2.019  12.497  0.6008 -1.1508  0.1691
 5402SOL    HW227840   1.791   1.916  12.463 -0.7081 -1.2067  1.4803
 5403SOL     OW27841   1.229   0.719  12.144  0.0810  0.1313 -0.0219
 5403SOL    HW127842   1.226   0.625  12.162  0.5365  0.4557  1.8179
 5403SOL    HW227843   1.225   0.747  12.236  0.3684  1.3899 -0.3876
 5404SOL     OW27844   0.090   4.080   4.496  0.2093  0.3498  0.2652
 5404SOL    HW127845   0.009   4.083   4.546 -0.6762  1.4392 -1.2624
 5404SOL    HW227846   0.066   4.035   4.416  0.0859 -0.2616  0.6425
 5405SOL     OW27847   2.314   2.156  12.211  0.3652  0.2491 -0.8390
 5405SOL    HW127848   2.370   2.081  12.233 -1.9509 -1.6623 -1.5266
 5405SOL    HW227849   2.250   2.139  12.280 -0.1718  0.0084 -1.4005
 5406SOL     OW27850   3.869   2.510   4.324  0.2270  0.6976 -0.0138
 5406SOL    HW127851   3.860   2.418   4.298 -2.2955  1.1470 -0.7479
 5406SOL    HW227852   3.961   2.515   4.302 -0.2343 -0.0793 -2.1301
 5407SOL     OW27853   4.038   0.493   0.883 -0.0384  0.1343 -0.1935
 5407SOL    HW127854   4.010   0.408   0.848 -1.2285  0.9906 -1.2942
 5407SOL    HW227855   4.132   0.480   0.888 -0.0408  0.0876 -0.2705
 5408SOL     OW27856   4.738   2.342   3.605  0.2564 -0.3287  0.3480
 5408SOL    HW127857   0.068   2.363   3.665  0.9508  0.1045 -0.6288
 5408SOL    HW227858   4.678   2.318   3.675 -1.6334  0.5696 -0.9634
 5409SOL     OW27859   3.062   3.070  12.098  0.4164  0.2897  0.3028
 5409SOL    HW127860   3.080   3.058  12.005  0.2604  1.8438  0.0775
 5409SOL    HW227861   3.041   3.163  12.101  1.4320  0.6115 -2.2991
 5410SOL     OW27862   3.847   3.154   3.180  0.0012 -0.1117  0.2979
 5410SOL    HW127863   3.813   3.198   3.258 -0.3139  0.0949  0.0397
 5410SOL    HW227864   3.780   3.182   3.117  0.2362 -2.3263 -0.9122
 5411SOL     OW27865   1.422   0.060   7.280  0.1830  0.5364  0.1017
 5411SOL    HW127866   1.390   0.150   7.272 -0.0276  0.2265 -2.4897
 5411SOL    HW227867   1.508   0.090   7.311  0.9835 -0.7419 -0.9125
 5412SOL     OW27868   0.306   3.524  16.769  0.0816  0.4118  0.2344
 5412SOL    HW127869   0.336   3.561  16.686 -0.8180 -1.0872 -0.7559
 5412SOL    HW227870   0.333   3.601  16.819  1.7463  0.0520 -0.1102
 5413SOL     OW27871   3.798   0.923  17.118 -0.6486 -0.1202 -0.0959
 5413SOL    HW127872   3.717   0.903  17.164 -0.4704  2.1150  1.2256
 5413SOL    HW227873   3.800   1.014  17.148 -0.3090 -0.2601  0.3003
 5414SOL     OW27874   2.963   0.986  12.191  0.2639 -0.5372 -0.2249
 5414SOL    HW127875   2.958   0.943  12.105 -1.0737 -0.0701 -0.3667
 5414SOL    HW227876   2.991   1.076  12.171 -0.0024  0.2630  2.9485
 5415SOL     OW27877   3.861   3.138   9.013 -0.2528  0.1711  0.0135
 5415SOL    HW127878   3.796   3.091   9.066 -1.4535  1.6676 -0.1383
 5415SOL    HW227879   3.900   3.064   8.968 -0.1284 -0.4998  1.2104
 5416SOL     OW27880   1.986   2.771   5.211 -0.4301 -0.4865  0.1277
 5416SOL    HW127881   1.921   2.840   5.195 -0.7134 -1.0153 -0.9505
 5416SOL    HW227882   2.064   2.827   5.219 -1.4547  1.4297 -3.2823
 5417SOL     OW27883   2.580   1.859  11.914 -0.5332 -0.7120  0.3314
 5417SOL    HW127884   2.620   1.945  11.903  1.2366 -1.8896 -2.6556
 5417SOL    HW227885   2.663   1.811  11.918 -0.6946 -1.3130 -3.1752
 5418SOL     OW27886   2.663   1.032   3.456  0.8606  0.4268 -0.1090
 5418SOL    HW127887   2.615   0.958   3.495  0.4600  1.0677  0.6062
 5418SOL    HW227888   2.659   1.002   3.365  1.2381 -1.3300  0.4442
 5419SOL     OW27889   2.645   3.354   6.232  0.5243 -0.6598 -0.6720
 5419SOL    HW127890   2.728   3.401   6.231  0.0583  0.1634 -0.7838
 5419SOL    HW227891   2.610   3.397   6.154 -0.5179  1.0266  0.7126
 5420SOL     OW27892   0.203   2.030   2.905 -0.9476 -0.2633 -0.5041
 5420SOL    HW127893   0.211   2.125   2.914 -1.4115 -0.2439 -0.3073
 5420SOL    HW227894   0.281   2.006   2.953 -0.5087  1.8720 -0.1237
 5421SOL     OW27895   4.555   4.458   2.708 -0.4652 -0.0540  0.0517
 5421SOL    HW127896   4.619   4.478   2.777 -2.6260  0.4054  1.9415
 5421SOL    HW227897   4.613   4.434   2.636  0.8799  1.2635  0.6647
 5422SOL     OW27898   4.734   0.274   1.424 -1.2357  0.4140 -0.2928
 5422SOL    HW127899   4.643   0.296   1.443 -1.7411 -1.8605 -0.2075
 5422SOL    HW227900   0.035   0.281   1.510  1.0495  2.5534 -1.5527
 5423SOL     OW27901   4.406   2.983   9.332 -0.1244 -0.3227 -0.4888
 5423SOL    HW127902   4.479   2.933   9.369  1.2887  0.8587 -1.6270
 5423SOL    HW227903   4.402   3.064   9.383  2.0472 -0.4259 -0.1363
 5424SOL     OW27904   2.964   3.504   7.540 -0.7066 -0.4330 -0.1751
 5424SOL    HW127905   2.992   3.500   7.448  0.4210  1.3085  0.0901
 5424SOL    HW227906   2.910   3.582   7.528 -2.3626 -1.5598 -0.0339
 5425SOL     OW27907   0.042   0.563  12.136  0.5645  0.4016 -0.5573
 5425SOL    HW127908   4.722   0.513  12.190  0.0952 -0.3418 -1.7744
 5425SOL    HW227909   0.052   0.644  12.186 -0.2798  0.0237  0.2244
 5426SOL     OW27910   2.932   1.986   8.977  0.3093  0.3188 -0.0868
 5426SOL    HW127911   3.000   2.007   9.040 -1.8020 -0.3950  2.4214
 5426SOL    HW227912   2.885   2.069   8.978 -0.0471  0.1129  0.1630
 5427SOL     OW27913   0.654   1.494   8.331 -0.2964  0.0175 -0.1044
 5427SOL    HW127914   0.664   1.506   8.236  0.4292 -1.7988 -0.2451
 5427SOL    HW227915   0.568   1.454   8.346 -0.3366 -1.2050 -3.4992
 5428SOL     OW27916   2.953   2.664  14.393 -0.0263 -0.3899 -0.1711
 5428SOL    HW127917   2.885   2.706  14.341 -1.5535 -0.3190  1.9104
 5428SOL    HW227918   2.951   2.576  14.357 -2.8903 -0.4081  0.0679
 5429SOL     OW27919   0.322   0.975   5.400 -0.2259 -0.1462  0.4671
 5429SOL    HW127920   0.236   0.995   5.437  0.5147 -0.0178  2.1475
 5429SOL    HW227921   0.331   1.050   5.341  2.4527  0.5194  1.7303
 5430SOL     OW27922   1.465   1.249   3.406  0.5776  0.0184 -0.5373
 5430SOL    HW127923   1.502   1.335   3.426 -0.7919  0.4921  0.0161
 5430SOL    HW227924   1.546   1.199   3.405  0.7404  0.3332 -4.5060
 5431SOL     OW27925   3.878   1.023   3.783 -0.0346 -0.0151 -0.2144
 5431SOL    HW127926   3.796   1.041   3.737 -0.9802 -0.0118  1.4634
 5431SOL    HW227927   3.908   0.946   3.735 -0.8903 -0.5875  0.1650
 5432SOL     OW27928   1.892   3.089   1.924 -0.2616  0.3185 -0.3267
 5432SOL    HW127929   1.872   3.124   1.837 -2.4810  0.9296  0.4425
 5432SOL    HW227930   1.814   3.043   1.953  0.9464 -0.5973  1.4688
 5433SOL     OW27931   2.236   4.638   7.897  0.4257 -0.3380 -0.4286
 5433SOL    HW127932   2.189   4.561   7.929 -0.6037  0.8940  1.0184
 5433SOL    HW227933   2.224   4.685   7.980  1.5086 -0.7323 -0.0431
 5434SOL     OW27934   2.881   4.322  10.084  0.0496 -0.0675 -0.1966
 5434SOL    HW127935   2.790   4.293  10.076 -0.2595  1.1443 -1.1975
 5434SOL    HW227936   2.863   4.411  10.115  0.8893  0.3103 -0.7863
 5435SOL     OW27937   0.079   0.415  13.400 -0.2542  0.1058 -0.1719
 5435SOL    HW127938   0.149   0.412  13.465 -0.8027  2.5549  0.5208
 5435SOL    HW227939   0.076   0.323  13.374 -2.5159  0.1320  0.0020
 5436SOL     OW27940   1.082   3.281   2.997 -0.3444  0.2712 -0.2552
 5436SOL    HW127941   1.024   3.357   2.995 -0.7945 -0.0449  1.5712
 5436SOL    HW227942   1.092   3.269   2.902 -0.8464  2.4895 -0.5817
 5437SOL     OW27943   2.644   4.204   8.239 -0.3776  0.1055  0.4699
 5437SOL    HW127944   2.715   4.229   8.298  0.7367  2.3056 -1.8150
 5437SOL    HW227945   2.600   4.288   8.227 -0.9341 -0.0064  1.6916
 5438SOL     OW27946   1.138   1.295   2.556 -0.4231  0.4283 -0.3086
 5438SOL    HW127947   1.226   1.263   2.577 -1.5662 -0.6638  2.7529
 5438SOL    HW227948   1.093   1.219   2.518  3.2380 -2.3457  0.8224
 5439SOL     OW27949   3.830   4.674   2.838  0.0208 -0.0889  0.3654
 5439SOL    HW127950   3.879   4.638   2.912 -1.1936 -1.9554  0.2604
 5439SOL    HW227951   3.902   4.719   2.795 -2.5278  1.6343 -2.1388
 5440SOL     OW27952   1.751   0.931   5.538  0.0886  0.1548 -0.1009
 5440SOL    HW127953   1.840   0.896   5.540  0.3276  0.7739  0.0692
 5440SOL    HW227954   1.697   0.869   5.587  0.4232 -0.4861 -0.5455
 5441SOL     OW27955   4.678   0.428  16.391 -0.0288 -0.3277  0.4663
 5441SOL    HW127956   0.015   0.373  16.382  0.0454  0.2811 -2.4234
 5441SOL    HW227957   4.616   0.363  16.423  0.1345  0.2330  1.9155
 5442SOL     OW27958   2.542   4.224   3.098 -0.3930  0.1653  0.2141
 5442SOL    HW127959   2.589   4.235   3.015  0.2966 -0.7815  0.4824
 5442SOL    HW227960   2.619   4.220   3.156  0.6606  0.0406 -1.1932
 5443SOL     OW27961   1.264   4.739   3.993  0.1573 -0.4056 -0.0987
 5443SOL    HW127962   1.251   0.093   3.996 -0.1089 -0.4485  0.2112
 5443SOL    HW227963   1.175   4.712   4.017  0.2428 -0.8918 -0.3283
 5444SOL     OW27964   0.277   0.790   9.068  0.5290  0.0410 -0.1461
 5444SOL    HW127965   0.338   0.809   8.996  3.3874 -0.1954  2.1908
 5444SOL    HW227966   0.297   0.698   9.083 -1.5347 -0.9758 -3.5573
 5445SOL     OW27967   0.433   4.659   2.638  0.3952 -0.0615  0.2421
 5445SOL    HW127968   0.389   4.684   2.719  0.2581 -2.5698  0.9318
 5445SOL    HW227969   0.460   0.001   2.598  0.8792  0.1120  0.9306
 5446SOL     OW27970   1.474   2.185   3.462  0.0839  1.0875 -0.3051
 5446SOL    HW127971   1.537   2.119   3.433  0.8626  1.0776  1.3707
 5446SOL    HW227972   1.543   2.235   3.506  0.9490 -0.5147  0.1711
 5447SOL     OW27973   2.488   1.240  11.130  0.1699  0.2801  0.0347
 5447SOL    HW127974   2.410   1.283  11.095  0.1363 -1.1114 -1.5856
 5447SOL    HW227975   2.447   1.159  11.159  0.1706  0.0160 -0.6940
 5448SOL     OW27976   3.520   3.994   9.130  0.2837  0.3874  0.2262
 5448SOL    HW127977   3.468   3.937   9.074 -2.3163  1.3627  1.6746
 5448SOL    HW227978   3.480   3.982   9.216  1.4671  0.8322  0.8459
 5449SOL     OW27979   3.451   0.003   7.622  0.1870 -0.3346 -0.2361
 5449SOL    HW127980   3.544   0.023   7.633 -0.1670  1.0177  0.2736
 5449SOL    HW227981   3.429   0.028   7.532 -1.4290 -0.3100  0.1709
 5450SOL     OW27982   3.148   2.206   9.482 -0.0496  0.0512  0.1635
 5450SOL    HW127983   3.054   2.193   9.498  0.2532 -2.3096  0.1022
 5450SOL    HW227984   3.179   2.187   9.571 -0.4367  1.5365  0.6130
 5451SOL     OW27985   4.003   2.014  16.003  0.0211 -0.1173 -0.7994
 5451SOL    HW127986   3.960   1.930  16.016  0.5004 -0.2963 -0.4038
 5451SOL    HW227987   3.938   2.058  15.947  0.6712  0.2698 -1.2554
 5452SOL     OW27988   3.988   1.332  17.418 -0.1577  0.2116  0.2430
 5452SOL    HW127989   4.060   1.315  17.357 -0.7831  1.5280 -0.8699
 5452SOL    HW227990   3.916   1.328  17.354 -0.1177 -2.1258  0.3357
 5453SOL     OW27991   3.819   0.667   9.871 -0.3811  0.2782  0.1778
 5453SOL    HW127992   3.737   0.619   9.880  0.3333 -0.8273  0.7564
 5453SOL    HW227993   3.792   0.749   9.913  1.7376  1.2196 -0.2652
 5454SOL     OW27994   3.484   2.621  11.777 -0.0766  1.0281  0.9193
 5454SOL    HW127995   3.522   2.692  11.829 -0.6926  1.2322  1.0925
 5454SOL    HW227996   3.515   2.659  11.695 -0.6018  1.4114  0.8994
 5455SOL     OW27997   1.525   1.517  16.507  0.2635 -0.4647  0.2007
 5455SOL    HW127998   1.488   1.518  16.595  0.0197 -0.4685  0.0974
 5455SOL    HW227999   1.530   1.424  16.486 -0.6405 -0.5348  0.3214
 5456SOL     OW28000   2.664   4.424   4.702 -0.0282 -0.0891  0.3795
 5456SOL    HW128001   2.613   4.461   4.773 -1.7289  2.2021 -2.0315
 5456SOL    HW228002   2.729   4.370   4.747  0.1753 -0.9025 -0.8844
 5457SOL     OW28003   2.559   3.009   7.561 -0.1621 -0.2547  0.0174
 5457SOL    HW128004   2.544   3.047   7.648  0.4206 -0.8823  0.3919
 5457SOL    HW228005   2.582   2.918   7.582 -0.2527 -0.5305 -1.0897
 5458SOL     OW28006   4.027   1.366  14.354  0.0288  0.1932  0.3400
 5458SOL    HW128007   3.952   1.307  14.363 -1.5859  2.0633 -0.7224
 5458SOL    HW228008   3.987   1.414  14.281  2.9536  0.8096 -0.8418
 5459SOL     OW28009   0.145   0.442   4.236 -0.5617  0.1401 -0.8150
 5459SOL    HW128010   0.212   0.387   4.195 -1.9398 -1.5835 -0.7924
 5459SOL    HW228011   0.195   0.523   4.245 -1.4833  0.4421  1.7416
 5460SOL     OW28012   3.327   0.062   8.413  0.4377  0.0299  0.1423
 5460SOL    HW128013   3.378   0.116   8.352 -1.8138  1.5952 -0.3409
 5460SOL    HW228014   3.390   0.062   8.485 -1.2452  2.4057  1.6327
 5461SOL     OW28015   2.474   3.090   3.162 -0.6306 -0.4786 -0.1356
 5461SOL    HW128016   2.439   3.166   3.116  0.2656 -0.1165 -0.2236
 5461SOL    HW228017   2.404   3.059   3.218 -1.5301  1.3969 -0.2322
 5462SOL     OW28018   1.321   3.125  15.036  0.6931 -0.4600 -0.6218
 5462SOL    HW128019   1.229   3.104  15.053 -0.1969  0.9108 -3.8992
 5462SOL    HW228020   1.311   3.210  14.993  0.9892  0.4198  1.0410
 5463SOL     OW28021   3.606   2.787   2.668 -0.2377 -0.1068 -0.5420
 5463SOL    HW128022   3.544   2.857   2.687 -1.1178 -1.3617  1.1658
 5463SOL    HW228023   3.641   2.832   2.591 -2.3766 -0.0284 -1.4830
 5464SOL     OW28024   3.174   3.139   3.698  0.8280  0.4251  0.2379
 5464SOL    HW128025   3.134   3.196   3.763  0.5835  0.3574  0.1455
 5464SOL    HW228026   3.172   3.196   3.621 -0.8042 -0.3028 -0.2622
 5465SOL     OW28027   1.882   4.560  13.088 -0.1417  0.0370 -0.3798
 5465SOL    HW128028   1.961   4.582  13.138 -0.2911 -2.0021  0.7834
 5465SOL    HW228029   1.844   4.646  13.074  0.1646  0.1725 -0.3739
 5466SOL     OW28030   2.023   0.388   4.750  0.2013 -0.5223 -0.2172
 5466SOL    HW128031   1.972   0.339   4.685  0.9650 -0.4868 -0.8533
 5466SOL    HW228032   1.974   0.375   4.831  2.2313 -1.2155  0.8928
 5467SOL     OW28033   3.078   2.652   3.415  0.2492  0.0436 -0.3126
 5467SOL    HW128034   3.025   2.642   3.337 -1.5830  0.5890  0.8635
 5467SOL    HW228035   3.015   2.695   3.474  1.4046 -0.3237  1.2023
 5468SOL     OW28036   0.663   3.546   6.681 -0.3222  0.1701 -0.4025
 5468SOL    HW128037   0.636   3.514   6.595  0.4571  0.8325 -0.8897
 5468SOL    HW228038   0.667   3.641   6.668  0.6640  0.2207  0.2539
 5469SOL     OW28039   2.737   1.827   6.646  0.0755  0.1389 -0.0565
 5469SOL    HW128040   2.696   1.865   6.568  1.9489 -0.1686 -1.1920
 5469SOL    HW228041   2.705   1.895   6.705  0.3499 -0.1203  0.3925
 5470SOL     OW28042   3.257   1.909  15.433 -0.0575  0.2914  0.6128
 5470SOL    HW128043   3.216   1.895  15.347  1.3374 -1.1651  0.1791
 5470SOL    HW228044   3.179   1.935  15.481  0.2302 -1.4335  2.0017
 5471SOL     OW28045   4.279   1.629   3.508  0.1131  0.1707  0.0023
 5471SOL    HW128046   4.212   1.698   3.512  1.0821  1.0303  0.9904
 5471SOL    HW228047   4.225   1.553   3.530  1.2528 -0.0577  1.9124
 5472SOL     OW28048   3.353   4.181   7.315  0.1226 -0.5065  0.0204
 5472SOL    HW128049   3.400   4.255   7.352 -0.9090  0.2769 -0.2392
 5472SOL    HW228050   3.414   4.133   7.258  0.2371 -0.2532 -0.0703
 5473SOL     OW28051   3.284   4.719   5.240 -0.1086  0.8473 -0.1111
 5473SOL    HW128052   3.198   4.681   5.224 -0.6080  2.2542 -0.7850
 5473SOL    HW228053   3.276   4.727   5.335  0.3149  0.7429 -0.0679
 5474SOL     OW28054   0.374   1.822   8.549 -0.0768  0.1936 -0.0060
 5474SOL    HW128055   0.329   1.902   8.576 -3.5761 -1.7743  0.0072
 5474SOL    HW228056   0.307   1.757   8.567  1.1128 -0.3280  2.6089
 5475SOL     OW28057   0.347   3.684   6.963  0.2001 -0.1041 -0.3642
 5475SOL    HW128058   0.298   3.752   7.009  0.7950 -0.3407  0.6249
 5475SOL    HW228059   0.347   3.615   7.028 -1.3396  0.2856  0.0548
 5476SOL     OW28060   1.943   1.987   5.017 -0.2407  0.3570  0.3784
 5476SOL    HW128061   1.967   1.913   5.073  1.9048  0.2572 -0.6593
 5476SOL    HW228062   1.849   2.000   5.029 -0.8034 -2.4307 -0.7595
 5477SOL     OW28063   3.364   0.089   7.387  0.4604  0.8881  0.3024
 5477SOL    HW128064   3.299   0.136   7.334 -0.9065 -2.9771 -1.4338
 5477SOL    HW228065   3.441   0.144   7.372  0.0245  0.6796 -2.7532
 5478SOL     OW28066   0.913   3.893   9.176  0.0479 -0.3293 -0.7357
 5478SOL    HW128067   0.971   3.820   9.197  0.1976 -0.8452 -2.9137
 5478SOL    HW228068   0.979   3.962   9.179 -0.6706  0.3293 -0.0848
 5479SOL     OW28069   0.782   1.059   9.931  0.2397 -0.5056  0.8026
 5479SOL    HW128070   0.779   0.985   9.991  1.9485 -0.4615  0.9406
 5479SOL    HW228071   0.822   1.129   9.984 -0.3911  1.0071 -0.7178
 5480SOL     OW28072   3.294   0.233   4.370 -0.0993 -0.1289  0.2354
 5480SOL    HW128073   3.254   0.151   4.342 -2.4499  0.4832  1.7043
 5480SOL    HW228074   3.386   0.217   4.350 -0.6706  0.2127 -2.5560
 5481SOL     OW28075   2.822   1.946  14.059  0.4199 -0.2245  0.4982
 5481SOL    HW128076   2.790   1.871  14.109  0.4320 -1.3904 -1.2431
 5481SOL    HW228077   2.895   1.970  14.115  1.5182  0.7203 -1.3200
 5482SOL     OW28078   4.515   0.194   7.183  0.1136  0.2551  0.4780
 5482SOL    HW128079   4.523   0.123   7.119  0.6198  0.8103 -0.0731
 5482SOL    HW228080   4.594   0.188   7.237  0.1316 -0.7560  0.3328
 5483SOL     OW28081   0.186   2.667   8.824 -0.0033 -0.5725 -0.6958
 5483SOL    HW128082   0.102   2.624   8.806 -2.9056  3.3140  3.3046
 5483SOL    HW228083   0.172   2.733   8.892  0.9112 -0.8851 -0.2050
 5484SOL     OW28084   4.271   2.064   8.178 -0.5000  0.5311 -0.8356
 5484SOL    HW128085   4.179   2.076   8.200 -0.2167 -1.0363  1.1637
 5484SOL    HW228086   4.311   2.060   8.265 -0.0217  2.0157 -0.9752
 5485SOL     OW28087   2.049   2.922  13.552  0.3828 -0.1357 -0.5582
 5485SOL    HW128088   1.967   2.971  13.559  0.4987  0.0669 -0.6123
 5485SOL    HW228089   2.037   2.867  13.474  2.1378  1.3173 -1.8622
 5486SOL     OW28090   0.326   4.319  16.825  0.0520 -0.4634  0.3571
 5486SOL    HW128091   0.341   4.375  16.749 -0.6271 -0.9112 -0.1100
 5486SOL    HW228092   0.231   4.315  16.835 -0.1504 -2.3426 -2.1998
 5487SOL     OW28093   4.273   4.222   1.678 -0.2699  0.3970 -0.1411
 5487SOL    HW128094   4.288   4.313   1.704 -1.1815  0.2735  0.8090
 5487SOL    HW228095   4.224   4.195   1.756 -0.0756  0.1815 -0.0924
 5488SOL     OW28096   2.744   0.132   9.699  0.2361  0.0129 -0.4970
 5488SOL    HW128097   2.753   0.142   9.604 -1.5419 -1.8219 -0.8438
 5488SOL    HW228098   2.832   0.162   9.725 -0.7373  0.7269  1.9198
 5489SOL     OW28099   3.232   3.608   3.300 -0.0586  0.0782 -0.4781
 5489SOL    HW128100   3.140   3.583   3.293 -0.8551  2.5045  1.0868
 5489SOL    HW228101   3.268   3.547   3.364  0.8604  0.3234 -0.7592
 5490SOL     OW28102   3.635   0.353   1.100 -0.8019 -0.5888  0.6702
 5490SOL    HW128103   3.579   0.428   1.085  3.4057  2.2474 -0.9273
 5490SOL    HW228104   3.660   0.339   1.009  2.6841 -0.9274  1.6735
 5491SOL     OW28105   1.222   0.457   3.682  0.0172 -0.1258 -0.7853
 5491SOL    HW128106   1.157   0.473   3.750  0.0725  1.1443 -1.0192
 5491SOL    HW228107   1.272   0.387   3.724  1.0633  0.4284 -1.0955
 5492SOL     OW28108   2.748   2.594   7.123  0.6863 -0.4770 -0.5324
 5492SOL    HW128109   2.705   2.560   7.201  0.5648  1.7482  0.3653
 5492SOL    HW228110   2.737   2.683   7.157 -0.0190 -0.8858  0.2995
 5493SOL     OW28111   0.223   3.374   1.353  0.0157 -0.1578  0.7738
 5493SOL    HW128112   0.202   3.411   1.439  0.2540  0.3615  0.6094
 5493SOL    HW228113   0.191   3.284   1.358  0.3275 -0.5237 -4.4581
 5494SOL     OW28114   3.902   2.157   3.729  0.0204  0.5238  0.1744
 5494SOL    HW128115   3.860   2.228   3.777  0.0001 -0.0835  1.0518
 5494SOL    HW228116   3.983   2.199   3.701  0.1951 -0.8251 -1.3132
 5495SOL     OW28117   2.993   3.704   6.453  0.1554 -0.3372 -0.1717
 5495SOL    HW128118   3.009   3.799   6.451 -1.8632  0.0530  1.7284
 5495SOL    HW228119   2.994   3.680   6.546  0.3140 -0.6252 -0.2466
 5496SOL     OW28120   4.240   2.734   4.991 -0.1177  0.3407 -0.1248
 5496SOL    HW128121   4.177   2.702   4.927 -3.0037 -0.9972  3.3938
 5496SOL    HW228122   4.199   2.696   5.069  1.5603 -0.5296  0.3235
 5497SOL     OW28123   0.516   1.761  15.134  0.0880  0.1812 -0.1652
 5497SOL    HW128124   0.502   1.841  15.083  2.1134  0.9412  0.4545
 5497SOL    HW228125   0.597   1.733  15.091 -0.0713  0.8614 -0.9056
 5498SOL     OW28126   2.776   2.780   1.537  0.5589 -0.7541 -0.2018
 5498SOL    HW128127   2.867   2.765   1.562  0.2168 -3.0712 -0.4288
 5498SOL    HW228128   2.778   2.786   1.441  1.0428  0.5117 -0.1176
 5499SOL     OW28129   4.289   1.590   1.548  0.1393 -0.1983 -0.2558
 5499SOL    HW128130   4.273   1.526   1.617 -1.3053  1.2757  0.7771
 5499SOL    HW228131   4.312   1.660   1.609 -1.5037  0.0691  0.0572
 5500SOL     OW28132   1.188   0.711  12.975 -0.1600  0.3955  0.0173
 5500SOL    HW128133   1.120   0.706  13.042  1.1948 -2.2102  1.1983
 5500SOL    HW228134   1.256   0.655  13.013 -2.6259 -1.4959  1.6529
 5501SOL     OW28135   0.174   0.483   0.283  0.1591  0.2610 -0.4557
 5501SOL    HW128136   0.211   0.542   0.349  0.5456  1.0689 -1.4007
 5501SOL    HW228137   0.247   0.423   0.268 -1.5706 -1.7951 -0.6758
 5502SOL     OW28138   4.558   0.061   6.552 -0.1054 -0.2107  0.7693
 5502SOL    HW128139   4.510   0.084   6.472  2.5055 -0.4210 -0.8409
 5502SOL    HW228140   4.538   0.140   6.602 -0.7263  0.1859 -0.1054
 5503SOL     OW28141   4.442   0.431  14.795 -0.3103  0.2681  0.1105
 5503SOL    HW128142   4.484   0.491  14.857 -1.1737 -0.2860  1.2345
 5503SOL    HW228143   4.413   0.362  14.856  1.6004 -0.8921 -0.2953
 5504SOL     OW28144   1.338   1.962  15.047  0.2420 -0.2489  0.4111
 5504SOL    HW128145   1.319   2.052  15.020  0.9068 -0.4607 -0.7787
 5504SOL    HW228146   1.267   1.902  15.025 -2.7236  3.7510 -1.1033
 5505SOL     OW28147   3.226   1.820   4.521 -0.4165  0.0915  0.0912
 5505SOL    HW128148   3.140   1.778   4.524 -0.6924  0.7606  1.6328
 5505SOL    HW228149   3.215   1.884   4.591 -0.8218  1.1849 -0.9538
 5506SOL     OW28150   2.738   2.623   1.943  0.2441 -0.0218 -0.2069
 5506SOL    HW128151   2.656   2.600   1.986  0.3223  2.7676  1.3504
 5506SOL    HW228152   2.766   2.703   1.987 -0.1269 -0.2745  0.4877
 5507SOL     OW28153   4.401   0.465   0.873  0.1200  0.0751  0.2927
 5507SOL    HW128154   4.478   0.512   0.907  1.1717 -0.0947 -1.8353
 5507SOL    HW228155   4.351   0.441   0.951  0.8648  0.6139  0.9414
 5508SOL     OW28156   2.395   3.309   3.016  0.6053 -0.0895 -0.1657
 5508SOL    HW128157   2.334   3.334   2.947  1.7185  2.9707 -0.0130
 5508SOL    HW228158   2.448   3.389   3.012 -0.1237  0.2965 -2.0659
 5509SOL     OW28159   4.350   4.061   3.790  0.0773  0.4596 -0.0069
 5509SOL    HW128160   4.311   3.994   3.733  1.8865 -0.5002 -0.1193
 5509SOL    HW228161   4.369   4.138   3.736 -0.7202  0.9027  0.3314
 5510SOL     OW28162   1.748   0.497   2.042  0.1046  0.2241 -0.7022
 5510SOL    HW128163   1.744   0.589   2.067  1.7598 -0.3958  1.8456
 5510SOL    HW228164   1.808   0.516   1.970 -0.3108  0.3311 -1.0184
 5511SOL     OW28165   3.260   0.124   2.342  0.7078  0.3442  0.4327
 5511SOL    HW128166   3.249   0.156   2.432  1.1626  1.1819  0.1836
 5511SOL    HW228167   3.296   0.199   2.296  2.0962 -0.6895 -0.1730
 5512SOL     OW28168   3.422   1.851   5.638  0.4882  0.3076 -0.3116
 5512SOL    HW128169   3.396   1.777   5.693 -3.1320  2.4618  0.9087
 5512SOL    HW228170   3.491   1.817   5.580 -0.2015 -1.4148 -0.1323
 5513SOL     OW28171   2.032   0.805  15.262  0.5736 -0.1490 -0.0549
 5513SOL    HW128172   1.994   0.846  15.340 -1.3348  0.2161 -1.1997
 5513SOL    HW228173   1.951   0.763  15.232  0.7276 -1.4192  1.2788
 5514SOL     OW28174   3.985   1.366   6.481 -0.1828  0.0673 -0.3863
 5514SOL    HW128175   3.959   1.457   6.494  0.7922 -0.1477  3.0697
 5514SOL    HW228176   4.063   1.374   6.427 -0.2714 -0.8698 -0.6609
 5515SOL     OW28177   3.213   3.901  15.351 -0.1008 -0.0118 -0.3707
 5515SOL    HW128178   3.273   3.904  15.277 -1.8798 -1.1664 -1.8631
 5515SOL    HW228179   3.264   3.846  15.411 -1.5738  0.0174  0.9142
 5516SOL     OW28180   3.169   1.320   1.169 -0.0496 -0.0036 -0.5718
 5516SOL    HW128181   3.086   1.352   1.203 -0.7065  0.3776 -2.5035
 5516SOL    HW228182   3.219   1.401   1.157  2.6096 -1.6019 -0.1485
 5517SOL     OW28183   0.813   4.090   8.499 -0.3122  0.2204  0.1022
 5517SOL    HW128184   0.788   4.103   8.591  0.0493  1.0209  0.0888
 5517SOL    HW228185   0.728   4.127   8.473  0.4719  1.6431 -0.4579
 5518SOL     OW28186   1.154   3.567  15.948  0.1054  0.2173  0.1588
 5518SOL    HW128187   1.082   3.582  15.887  0.9022  1.5977 -0.4436
 5518SOL    HW228188   1.205   3.646  15.926  0.8213  0.1722  1.6558
 5519SOL     OW28189   2.740   4.709   3.391 -1.0186 -0.5126  0.4370
 5519SOL    HW128190   2.781   4.631   3.353  0.9921  0.9784 -0.4425
 5519SOL    HW228191   2.733   0.017   3.310 -0.7462  0.0221  0.7356
 5520SOL     OW28192   2.065   2.217   6.757 -0.1913 -0.0538 -0.2896
 5520SOL    HW128193   2.156   2.229   6.784 -1.3367 -0.2674  3.6795
 5520SOL    HW228194   2.057   2.300   6.710  1.2558  1.5902  2.3460
 5521SOL     OW28195   1.780   0.932  13.881 -0.2432 -0.1434  1.0230
 5521SOL    HW128196   1.770   0.883  13.963  0.3340 -1.0774  0.5400
 5521SOL    HW228197   1.825   0.869  13.824 -0.7881  0.5095 -0.1270
 5522SOL     OW28198   1.007   2.406  10.660  0.3598 -0.4994 -0.7976
 5522SOL    HW128199   0.915   2.380  10.668  0.4665 -1.5353 -2.7244
 5522SOL    HW228200   1.047   2.367  10.737  0.8586 -1.7516 -1.6882
 5523SOL     OW28201   3.042   4.086  15.482  0.2827 -0.3199  0.3463
 5523SOL    HW128202   3.108   4.114  15.546  0.5649  0.1032 -0.1286
 5523SOL    HW228203   3.111   4.041  15.433 -0.4867 -1.9617  0.7677
 5524SOL     OW28204   3.146   0.071   9.179  0.1273  0.2676 -0.5962
 5524SOL    HW128205   3.077   0.126   9.215 -1.0083 -2.3617  1.3035
 5524SOL    HW228206   3.217   0.081   9.242 -2.0197  1.0365  1.7032
 5525SOL     OW28207   2.755   2.677  13.173  0.2340 -0.2899  0.1483
 5525SOL    HW128208   2.834   2.647  13.128  0.5118  1.6305 -0.6567
 5525SOL    HW228209   2.768   2.767  13.141  1.2276 -0.7188 -0.6554
 5526SOL     OW28210   1.681   3.400  10.365  0.2664 -0.0201 -0.1228
 5526SOL    HW128211   1.611   3.351  10.410 -2.3567  2.4473 -1.4785
 5526SOL    HW228212   1.759   3.350  10.389  1.0478  1.4402  0.3658
 5527SOL     OW28213   0.027   3.032   7.982 -0.4347  0.1141  0.4336
 5527SOL    HW128214   0.114   3.064   8.006 -0.0943 -0.8961  0.5537
 5527SOL    HW228215   4.713   3.074   8.049  1.6976  1.4149  1.3747
 5528SOL     OW28216   4.433   2.731   3.782 -0.0640 -0.6969  0.1341
 5528SOL    HW128217   4.430   2.702   3.691 -2.8266 -1.5526  0.4870
 5528SOL    HW228218   4.395   2.817   3.766 -0.0655 -0.4337  1.5214
 5529SOL     OW28219   0.412   1.887   1.971  0.0285  0.3899  0.0715
 5529SOL    HW128220   0.335   1.859   2.021 -0.3190  0.1145 -0.6064
 5529SOL    HW228221   0.467   1.923   2.040  0.6579  2.1293 -1.3297
 5530SOL     OW28222   2.633   2.377   9.980  0.3445  0.4681 -0.0671
 5530SOL    HW128223   2.618   2.350   9.890 -2.0418  1.0448  0.1598
 5530SOL    HW228224   2.727   2.356   9.982  0.8299  2.6073 -0.0314
 5531SOL     OW28225   0.018   4.388   1.649  0.0919 -0.1500 -0.5388
 5531SOL    HW128226   0.003   4.340   1.568  0.5258  0.2378 -0.8459
 5531SOL    HW228227   4.732   4.324   1.716  0.6865  0.0767 -0.0809
 5532SOL     OW28228   2.005   1.492   7.244  0.2875 -0.5724 -0.0919
 5532SOL    HW128229   2.022   1.443   7.324 -0.2151 -0.1972  0.2410
 5532SOL    HW228230   1.909   1.494   7.248  0.4534  1.9227  2.6293
 5533SOL     OW28231   0.067   2.444  10.308 -0.1574 -0.3042 -0.2698
 5533SOL    HW128232   4.739   2.386  10.277 -0.5643  0.6723 -1.2002
 5533SOL    HW228233   0.099   2.396  10.384 -0.3857  1.1474  0.7472
 5534SOL     OW28234   4.060   2.550  17.142 -0.4426 -0.1076  0.4484
 5534SOL    HW128235   4.065   2.455  17.129 -1.0504 -0.3236  1.8593
 5534SOL    HW228236   4.078   2.577  17.052 -1.8547 -0.3353  0.1022
 5535SOL     OW28237   2.113   1.608   4.528  0.8197  0.7418 -0.6739
 5535SOL    HW128238   2.144   1.528   4.485  0.1135  0.6433 -0.9887
 5535SOL    HW228239   2.186   1.669   4.516  0.3261  1.5125  0.2203
 5536SOL     OW28240   3.854   1.893   3.785  0.8959 -0.8339 -0.3900
 5536SOL    HW128241   3.791   1.911   3.854  1.5580  1.0812 -0.2925
 5536SOL    HW228242   3.870   1.983   3.758  0.5306 -0.7921 -0.4738
 5537SOL     OW28243   2.315   2.058  10.699  0.3092  0.1033 -0.6656
 5537SOL    HW128244   2.407   2.039  10.684  0.6002 -0.8268  2.2439
 5537SOL    HW228245   2.294   1.985  10.757  1.6383 -0.6673 -1.1671
 5538SOL     OW28246   2.679   3.802   0.612 -0.2613  0.3433  0.6862
 5538SOL    HW128247   2.733   3.729   0.639  2.3761  1.6536 -1.1079
 5538SOL    HW228248   2.715   3.887   0.639 -0.4349  0.3852  0.7933
 5539SOL     OW28249   1.370   4.144  15.525  0.1948  0.9023  0.1402
 5539SOL    HW128250   1.282   4.177  15.544 -0.4015 -0.3764 -0.4214
 5539SOL    HW228251   1.350   4.070  15.468  2.4541  1.1068 -0.9218
 5540SOL     OW28252   3.422   2.544   1.810  0.3607 -0.1606 -0.2636
 5540SOL    HW128253   3.489   2.511   1.750  0.9226 -1.0768  0.8602
 5540SOL    HW228254   3.405   2.458   1.849 -0.3273  0.7619  1.4346
 5541SOL     OW28255   2.545   4.077  11.697  0.2433  0.5181  0.1874
 5541SOL    HW128256   2.546   4.031  11.614 -1.4558  0.6014  0.1197
 5541SOL    HW228257   2.591   4.160  11.684 -1.3583  1.7633  2.3075
 5542SOL     OW28258   1.958   0.853   6.879 -0.6488 -0.7286 -0.6550
 5542SOL    HW128259   1.884   0.909   6.856 -1.4625 -0.9974  1.3054
 5542SOL    HW228260   1.999   0.825   6.797  0.0753  4.2666 -1.9609
 5543SOL     OW28261   0.619   3.321  14.941  0.0757  0.1514  0.1062
 5543SOL    HW128262   0.646   3.243  14.892  1.1377  0.7112 -0.1961
 5543SOL    HW228263   0.560   3.288  15.009  0.1301 -1.7038 -0.7343
 5544SOL     OW28264   2.252   0.362   3.131 -0.2332 -0.1098  0.2682
 5544SOL    HW128265   2.215   0.284   3.173 -0.2184 -0.0547  0.3826
 5544SOL    HW228266   2.181   0.425   3.143 -0.4439 -0.1931 -0.4984
 5545SOL     OW28267   1.828   2.818   3.783 -0.4150  0.1346  0.4373
 5545SOL    HW128268   1.917   2.826   3.749 -1.0925  4.0914 -0.4042
 5545SOL    HW228269   1.804   2.736   3.739  0.8204 -0.6511  1.2319
 5546SOL     OW28270   2.461   1.435  14.618  0.3500 -0.0016 -0.1515
 5546SOL    HW128271   2.409   1.355  14.622  0.7520 -0.3704 -2.4954
 5546SOL    HW228272   2.465   1.453  14.524 -0.8105  0.5539 -0.0941
 5547SOL     OW28273   0.954   0.153   5.532 -0.0621 -0.0587  0.1450
 5547SOL    HW128274   0.998   0.098   5.467  0.5563 -1.6768  1.9258
 5547SOL    HW228275   0.991   0.240   5.516 -2.2427  0.9533  0.6429
 5548SOL     OW28276   2.914   4.296   5.171 -0.5526  0.7391  0.1043
 5548SOL    HW128277   2.832   4.273   5.214  0.6811 -2.2669  0.8660
 5548SOL    HW228278   2.943   4.225   5.112  1.9424  0.9048  1.1595
 5549SOL     OW28279   1.188   2.563   5.368  0.0753  0.1164  0.3435
 5549SOL    HW128280   1.197   2.521   5.283 -2.6977 -0.6848  0.4413
 5549SOL    HW228281   1.276   2.555   5.406  1.4889  0.2425 -2.9712
 5550SOL     OW28282   0.508   1.701   3.533 -0.0890  0.4962 -0.0922
 5550SOL    HW128283   0.523   1.671   3.622  1.9628 -2.5249 -1.4731
 5550SOL    HW228284   0.425   1.658   3.512 -1.2947  2.7203  0.0283
 5551SOL     OW28285   0.914   1.532  15.714 -0.1544 -0.0385 -0.1241
 5551SOL    HW128286   0.855   1.518  15.640 -2.1176 -2.8702  1.9548
 5551SOL    HW228287   0.895   1.625  15.729  2.3988  0.4967 -0.2373
 5552SOL     OW28288   1.109   3.203  12.266  0.3624 -0.3221  0.5365
 5552SOL    HW128289   1.195   3.187  12.306  0.8326  1.3748  0.2096
 5552SOL    HW228290   1.055   3.220  12.343  1.9468 -1.2449  1.8624
 5553SOL     OW28291   2.686   1.635   7.705  0.4618 -0.3366  0.0803
 5553SOL    HW128292   2.758   1.695   7.724  1.8498 -1.9192 -0.2401
 5553SOL    HW228293   2.627   1.700   7.666  0.2703 -0.3594  0.3265
 5554SOL     OW28294   0.023   3.305   3.864  0.0670 -0.2145  0.0822
 5554SOL    HW128295   0.056   3.236   3.922  0.6141  1.5221  1.8734
 5554SOL    HW228296   0.069   3.383   3.895 -0.0576  0.0718 -0.4517
 5555SOL     OW28297   1.025   0.495   3.860  0.4887  0.4710  0.2632
 5555SOL    HW128298   0.976   0.569   3.825 -1.4245 -1.6415 -1.5555
 5555SOL    HW228299   0.956   0.428   3.861  1.4737 -0.5524 -1.3882
 5556SOL     OW28300   2.425   4.347   6.137 -0.1764  0.3441  0.5201
 5556SOL    HW128301   2.445   4.321   6.227  1.0951  1.4528  0.5462
 5556SOL    HW228302   2.360   4.414   6.157  1.2959  2.3172 -1.3647
 5557SOL     OW28303   3.538   2.812  12.001 -0.1884  0.3074 -1.0430
 5557SOL    HW128304   3.450   2.842  12.025 -0.2138  0.0293 -0.7812
 5557SOL    HW228305   3.601   2.882  12.011 -0.2907  0.0530  1.3470
 5558SOL     OW28306   0.516   2.787   8.562 -0.0694 -0.3301  0.7005
 5558SOL    HW128307   0.449   2.854   8.553  0.0845 -0.1370  0.9929
 5558SOL    HW228308   0.468   2.721   8.613 -1.4496 -0.5383 -0.8714
 5559SOL     OW28309   3.655   0.307   0.827  0.1199 -0.4544 -0.7705
 5559SOL    HW128310   3.562   0.287   0.817 -0.2562  0.6270  0.5662
 5559SOL    HW228311   3.699   0.222   0.819 -1.2592 -1.2961  0.4657
 5560SOL     OW28312   1.703   1.258   6.022  0.3993 -0.2610 -0.3557
 5560SOL    HW128313   1.659   1.175   6.001 -3.1838  1.4320  0.4028
 5560SOL    HW228314   1.790   1.226   6.043 -0.4825 -1.2325  1.7453
 5561SOL     OW28315   2.522   1.454   4.350  0.2615 -0.1787  0.3122
 5561SOL    HW128316   2.576   1.390   4.304  1.5583  0.2771  1.1789
 5561SOL    HW228317   2.549   1.533   4.303  1.0475 -0.5066  0.2159
 5562SOL     OW28318   3.182   3.413   2.381  0.2282  0.2667 -0.4131
 5562SOL    HW128319   3.263   3.463   2.373  1.0639 -1.2785 -1.6972
 5562SOL    HW228320   3.194   3.332   2.331  1.3055  0.1603  0.0206
 5563SOL     OW28321   4.603   3.913  10.446  0.0419  0.4043 -0.3689
 5563SOL    HW128322   4.697   3.920  10.428  0.1985 -0.2660  0.1743
 5563SOL    HW228323   4.566   4.001  10.436 -0.7352  0.5273  3.5265
 5564SOL     OW28324   4.401   2.252   6.068 -0.2452 -0.8548 -0.0779
 5564SOL    HW128325   4.462   2.326   6.073  1.4954 -2.2069 -1.2710
 5564SOL    HW228326   4.447   2.194   6.129 -1.9889 -3.1153 -0.9492
 5565SOL     OW28327   3.133   0.885  11.031  0.0290 -0.0125 -0.8015
 5565SOL    HW128328   3.043   0.919  11.035 -0.1635 -0.8049  1.5680
 5565SOL    HW228329   3.130   0.813  10.968  1.5767 -0.1440 -0.7212
 5566SOL     OW28330   4.227   4.104  15.135 -0.4801  0.1421 -0.2709
 5566SOL    HW128331   4.277   4.112  15.216  2.2487  0.4092 -1.9912
 5566SOL    HW228332   4.249   4.184  15.087  0.6225  0.3433  0.5774
 5567SOL     OW28333   2.824   0.464   9.628 -0.4572  0.0091 -0.2165
 5567SOL    HW128334   2.844   0.556   9.646 -0.5839  0.0129 -0.0925
 5567SOL    HW228335   2.862   0.429   9.709 -0.8995  0.8771  0.3628
 5568SOL     OW28336   2.079   1.203  17.682  0.2125  0.2567 -0.3908
 5568SOL    HW128337   2.123   1.269  17.736  1.0528  0.3886 -1.2279
 5568SOL    HW228338   2.098   1.235  17.594  1.3556 -0.1892 -0.2955
 5569SOL     OW28339   0.463   2.399   6.417 -0.2463 -0.2070  0.0799
 5569SOL    HW128340   0.506   2.374   6.335  0.6050 -0.6203  0.6524
 5569SOL    HW228341   0.524   2.358   6.478 -0.7678  1.6454  1.8800
 5570SOL     OW28342   0.383   1.877   5.004  0.0420 -0.0159 -0.0434
 5570SOL    HW128343   0.441   1.848   4.934  1.4898 -1.5575  1.8160
 5570SOL    HW228344   0.389   1.971   4.983  0.6248  0.1754  0.9746
 5571SOL     OW28345   1.000   3.429   4.010  0.3182 -0.5615  0.0385
 5571SOL    HW128346   0.956   3.344   4.009  1.1540 -0.9929  0.0001
 5571SOL    HW228347   0.972   3.463   4.095  3.4940  2.5510 -0.1497
 5572SOL     OW28348   2.154   0.511   8.352 -0.3988  0.0763  0.3871
 5572SOL    HW128349   2.140   0.544   8.264 -0.3224 -3.1208 -0.8220
 5572SOL    HW228350   2.076   0.457   8.368  0.5245 -1.9710 -2.0266
 5573SOL     OW28351   2.559   2.276   9.153  0.0365  0.1913  0.2882
 5573SOL    HW128352   2.502   2.305   9.081  0.6000 -1.3194 -0.7677
 5573SOL    HW228353   2.644   2.262   9.111 -1.1464  0.0758 -2.0833
 5574SOL     OW28354   3.893   0.355   5.643 -0.5069  0.4980  0.6379
 5574SOL    HW128355   3.861   0.284   5.698  0.5145  1.1647  2.1030
 5574SOL    HW228356   3.908   0.426   5.706  1.9399  0.2645  0.3304
 5575SOL     OW28357   0.266   4.561   1.844 -0.2500 -0.1433  0.8051
 5575SOL    HW128358   0.255   4.471   1.813  2.2362 -0.1349 -0.1215
 5575SOL    HW228359   0.227   4.616   1.776 -0.9797 -0.4317  0.9911
 5576SOL     OW28360   0.252   0.305   5.848  0.2605 -0.6447 -0.2256
 5576SOL    HW128361   0.264   0.394   5.880 -0.4573 -0.7936  0.4585
 5576SOL    HW228362   0.166   0.320   5.807  0.6280  1.0722 -0.3544
 5577SOL     OW28363   2.041   3.529   8.634 -0.0277 -0.4680  0.1798
 5577SOL    HW128364   2.112   3.467   8.617 -0.0707 -0.1858 -1.0297
 5577SOL    HW228365   2.041   3.532   8.730 -2.9232 -0.2867  0.1664
 5578SOL     OW28366   2.655   4.604   9.768  0.0830  0.0528  0.2549
 5578SOL    HW128367   2.680   4.696   9.755  0.2472 -0.3097 -2.1247
 5578SOL    HW228368   2.585   4.582   9.706  2.0654 -2.0144 -1.2830
 5579SOL     OW28369   2.847   2.906   2.337  0.3499  0.1586  0.7767
 5579SOL    HW128370   2.913   2.888   2.404  0.1193  2.3599  1.5942
 5579SOL    HW228371   2.821   2.994   2.364  1.8073  0.9251 -0.2832
 5580SOL     OW28372   1.742   1.425  13.583  0.2340  0.3817 -0.2243
 5580SOL    HW128373   1.826   1.382  13.594 -0.3581 -0.5409  0.7196
 5580SOL    HW228374   1.694   1.368  13.523 -1.9888  0.2848  1.6135
 5581SOL     OW28375   2.169   3.930   4.304  0.2303 -0.2150  0.3705
 5581SOL    HW128376   2.205   3.981   4.231  0.4814  0.5435  1.0305
 5581SOL    HW228377   2.196   3.982   4.379  1.2469 -1.6775  1.0144
 5582SOL     OW28378   4.314   2.903   2.540  0.3112  0.0325  0.6185
 5582SOL    HW128379   4.306   2.826   2.597  0.4626  0.1343  0.7798
 5582SOL    HW228380   4.375   2.872   2.474  1.2869 -0.5903  1.7978
 5583SOL     OW28381   0.850   3.807   6.798  0.0026  0.0156 -0.3322
 5583SOL    HW128382   0.897   3.744   6.743 -0.0574 -0.1741 -0.1698
 5583SOL    HW228383   0.927   3.828   6.852 -0.8663 -1.7551  1.6192
 5584SOL     OW28384   3.358   3.880  13.537 -0.8643  0.3424 -0.0996
 5584SOL    HW128385   3.435   3.829  13.560 -0.4525  2.3238  2.9344
 5584SOL    HW228386   3.320   3.902  13.622 -1.4943  0.2587 -0.3550
 5585SOL     OW28387   1.382   1.282   7.454 -0.5719 -0.0900 -0.1933
 5585SOL    HW128388   1.410   1.192   7.437 -2.3838 -0.6692 -0.1712
 5585SOL    HW228389   1.295   1.264   7.491 -0.9178 -0.0780 -0.9899
 5586SOL     OW28390   3.176   0.367   5.711  0.0493 -0.4792 -0.1378
 5586SOL    HW128391   3.092   0.362   5.758  0.4641  0.1029  0.6635
 5586SOL    HW228392   3.140   0.305   5.648  3.3371 -2.7794  0.2672
 5587SOL     OW28393   3.811   3.105  16.192 -0.0876  0.0095 -0.0948
 5587SOL    HW128394   3.730   3.119  16.143 -0.7630 -0.3874  0.9117
 5587SOL    HW228395   3.853   3.191  16.189  0.9966 -0.4767  1.5183
 5588SOL     OW28396   3.086   1.564   7.065  0.0673 -0.0996  0.3417
 5588SOL    HW128397   3.180   1.555   7.048 -0.2762  1.8277 -2.4668
 5588SOL    HW228398   3.079   1.589   7.157 -1.6302  0.0902  0.1516
 5589SOL     OW28399   4.168   4.216   3.964 -0.4386  0.4494  0.6745
 5589SOL    HW128400   4.081   4.189   3.934  0.1231 -0.7570  0.0819
 5589SOL    HW228401   4.236   4.157   3.930 -1.5184 -0.4667  0.1296
 5590SOL     OW28402   0.503   1.923  14.347  0.1043  0.0589 -0.4014
 5590SOL    HW128403   0.417   1.887  14.325  0.6065 -0.6632 -1.1733
 5590SOL    HW228404   0.481   2.016  14.346  0.8094  0.2445  1.2326
 5591SOL     OW28405   3.772   2.733  13.410 -0.1291  0.2873  0.0557
 5591SOL    HW128406   3.757   2.642  13.383  2.9365 -0.5886  1.2554
 5591SOL    HW228407   3.854   2.731  13.461 -0.3344  1.5398  0.4274
 5592SOL     OW28408   0.368   3.077   2.414  0.2217 -0.2615  0.7584
 5592SOL    HW128409   0.332   3.076   2.325  1.3510 -0.4650  0.2950
 5592SOL    HW228410   0.284   3.069   2.459  0.9013 -0.3159  2.0115
 5593SOL     OW28411   4.421   0.776  15.995  0.1060  0.5909 -0.1324
 5593SOL    HW128412   4.508   0.764  16.035  0.3768 -1.3795 -1.3156
 5593SOL    HW228413   4.416   0.698  15.940 -0.1229 -0.1241  0.8900
 5594SOL     OW28414   0.796   1.623   4.547  0.0751 -0.0994 -0.5544
 5594SOL    HW128415   0.861   1.680   4.507  0.6447 -1.1074 -1.0545
 5594SOL    HW228416   0.852   1.569   4.602  0.5994  0.9117 -0.0949
 5595SOL     OW28417   1.201   3.553   7.890 -0.8569  0.1008 -0.5137
 5595SOL    HW128418   1.178   3.637   7.930 -2.1473 -0.8483  0.7585
 5595SOL    HW228419   1.126   3.493   7.894  0.5620 -1.5516  1.5861
 5596SOL     OW28420   4.170   3.230  11.330  0.3488  0.6275  0.0235
 5596SOL    HW128421   4.256   3.271  11.340  1.5368 -1.4494 -1.6124
 5596SOL    HW228422   4.180   3.219  11.235 -2.1566 -0.7258 -0.0517
 5597SOL     OW28423   1.634   4.510   2.789 -0.4006  0.1888  0.3284
 5597SOL    HW128424   1.713   4.461   2.766  0.5861  2.6814 -1.6183
 5597SOL    HW228425   1.614   4.462   2.869  1.4266 -0.9582  0.0823
 5598SOL     OW28426   0.188   1.608   6.621  0.0799 -0.2855  0.3411
 5598SOL    HW128427   0.194   1.570   6.708 -0.4295 -0.3829  0.3315
 5598SOL    HW228428   0.232   1.536   6.576 -0.0860 -0.0734 -0.1604
 5599SOL     OW28429   2.688   1.743   9.077  0.3975 -0.1916 -0.4352
 5599SOL    HW128430   2.651   1.830   9.093 -1.8850 -1.5157  1.4317
 5599SOL    HW228431   2.729   1.724   9.161 -0.4332 -0.0620 -0.0031
 5600SOL     OW28432   3.656   3.866  16.008 -0.2928 -0.6162 -0.1688
 5600SOL    HW128433   3.678   3.859  15.915  1.6293 -1.7590  0.3674
 5600SOL    HW228434   3.682   3.956  16.026  0.0438 -0.2141 -2.6021
 5601SOL     OW28435   2.036   2.393   2.700  0.3284 -0.2338 -0.2774
 5601SOL    HW128436   1.945   2.407   2.675  0.1506  1.1526  1.1644
 5601SOL    HW228437   2.043   2.449   2.777  1.1233  0.1630 -0.6385
 5602SOL     OW28438   3.884   3.603   5.278  0.5068 -0.1584  0.7290
 5602SOL    HW128439   3.838   3.663   5.219  1.4250 -1.7880 -1.5953
 5602SOL    HW228440   3.846   3.622   5.364  1.6211 -2.5248  1.7208
 5603SOL     OW28441   4.526   0.572   0.386 -0.4089 -0.3387 -0.0906
 5603SOL    HW128442   4.531   0.661   0.353 -1.0458 -0.2989 -0.0768
 5603SOL    HW228443   4.445   0.548   0.340  0.6422 -2.4351 -0.8630
 5604SOL     OW28444   0.750   3.600   3.723 -0.6523 -0.3044 -0.5928
 5604SOL    HW128445   0.758   3.679   3.777 -0.6792  0.2671 -1.4186
 5604SOL    HW228446   0.841   3.574   3.709 -0.9585 -1.2114 -0.8750
 5605SOL     OW28447   2.307   3.407   5.299  0.4940 -0.2214 -0.5119
 5605SOL    HW128448   2.260   3.472   5.248  2.4739  1.2237 -0.4547
 5605SOL    HW228449   2.394   3.442   5.317 -0.5328  1.4633  1.1340
 5606SOL     OW28450   1.235   0.873  15.415 -0.1079 -0.1321  0.6682
 5606SOL    HW128451   1.323   0.851  15.446  1.2432  1.1448 -2.2499
 5606SOL    HW228452   1.176   0.805  15.447 -1.1532 -0.2065 -1.4093
 5607SOL     OW28453   0.832   3.527   8.956 -0.5499 -0.8084  0.1074
 5607SOL    HW128454   0.808   3.617   8.934 -1.3643 -1.2373 -0.7617
 5607SOL    HW228455   0.747   3.484   8.964 -0.3075 -0.6943  3.2002
 5608SOL     OW28456   4.349   3.020   5.713 -0.6619  1.2271  0.6984
 5608SOL    HW128457   4.309   3.085   5.656  0.6372  2.2718  0.9839
 5608SOL    HW228458   4.437   3.012   5.675 -0.5988 -2.0488  1.5056
 5609SOL     OW28459   3.024   0.885   9.604 -0.2714 -0.7878  0.3036
 5609SOL    HW128460   3.063   0.869   9.518 -1.8445  0.5116 -0.6388
 5609SOL    HW228461   3.105   0.895   9.655  1.1293  1.9053 -2.4386
 5610SOL     OW28462   2.732   0.145   0.537  0.0127 -0.1410  0.1873
 5610SOL    HW128463   2.788   0.213   0.499  0.6061  0.0198  1.3508
 5610SOL    HW228464   2.762   0.062   0.500  1.3240  0.3067  0.2217
 5611SOL     OW28465   4.735   2.250   7.471 -0.4498  0.8567 -0.5367
 5611SOL    HW128466   4.667   2.300   7.516 -0.7505  0.7249 -0.8420
 5611SOL    HW228467   4.694   2.232   7.386  1.2829 -1.7953 -0.8022
 5612SOL     OW28468   1.300   1.845   6.174 -0.0260  0.1076  0.2647
 5612SOL    HW128469   1.377   1.846   6.117  0.4686 -1.9426  0.9312
 5612SOL    HW228470   1.298   1.751   6.190  2.4356 -0.0687 -0.5000
 5613SOL     OW28471   4.160   2.165   5.185  0.2108 -0.1964 -0.8024
 5613SOL    HW128472   4.229   2.121   5.137  0.9510  0.1632 -0.0697
 5613SOL    HW228473   4.095   2.095   5.195  0.6904 -0.4240  0.7187
 5614SOL     OW28474   2.398   2.616   0.900  0.0359  0.1338  0.4406
 5614SOL    HW128475   2.365   2.540   0.853  0.4286  0.8366 -0.9618
 5614SOL    HW228476   2.322   2.640   0.953 -1.1933  0.2978 -1.3851
 5615SOL     OW28477   1.054   4.222   6.768  0.3601 -0.4476 -0.1286
 5615SOL    HW128478   1.089   4.310   6.752 -2.1738  0.9447  1.9216
 5615SOL    HW228479   1.125   4.180   6.816 -0.2881  1.9999  2.9600
 5616SOL     OW28480   1.056   3.138  16.939  1.0318 -0.2212  0.6764
 5616SOL    HW128481   0.992   3.149  17.009 -0.8200  1.1120 -1.1990
 5616SOL    HW228482   1.014   3.194  16.873 -1.0781 -1.2702  1.1147
 5617SOL     OW28483   3.561   3.384  16.427 -0.6277  0.3922  0.9356
 5617SOL    HW128484   3.542   3.299  16.466 -0.9403  0.6468  1.3405
 5617SOL    HW228485   3.503   3.374  16.351  1.0013  1.5335 -0.4448
 5618SOL     OW28486   1.742   4.594   6.417 -0.0714 -0.2028 -0.2910
 5618SOL    HW128487   1.767   4.686   6.414 -0.0438 -0.1636  1.0977
 5618SOL    HW228488   1.659   4.597   6.463 -1.1397 -0.9074 -2.1915
 5619SOL     OW28489   3.559   4.440  12.382 -0.4662  1.0405 -0.0570
 5619SOL    HW128490   3.639   4.488  12.402 -0.2931  0.2292  1.2124
 5619SOL    HW228491   3.582   4.395  12.301 -0.7315 -1.0521  1.0363
 5620SOL     OW28492   2.129   3.566   5.148  1.1863  0.1311 -0.0553
 5620SOL    HW128493   2.070   3.525   5.085  1.2949  1.1202 -0.8084
 5620SOL    HW228494   2.185   3.623   5.095  1.1248 -1.1748 -1.5036
 5621SOL     OW28495   1.483   0.297   0.407  0.2196 -0.2058 -0.3252
 5621SOL    HW128496   1.420   0.227   0.427  1.4505 -1.5875 -1.2699
 5621SOL    HW228497   1.568   0.261   0.432  0.8054  0.3982 -1.4428
 5622SOL     OW28498   0.051   2.636  10.783 -0.0102  0.0127  0.5148
 5622SOL    HW128499   4.711   2.678  10.756  0.5973 -1.2800 -3.4873
 5622SOL    HW228500   0.109   2.669  10.713 -1.7253 -0.1794 -0.9952
 5623SOL     OW28501   0.559   0.785   0.383  0.5759 -0.2006 -0.0946
 5623SOL    HW128502   0.644   0.756   0.350  0.4141 -0.1000 -0.6092
 5623SOL    HW228503   0.499   0.765   0.311  0.0794  0.0082  0.2665
 5624SOL     OW28504   4.246   2.491   7.923  0.2562  0.2839 -0.0774
 5624SOL    HW128505   4.194   2.562   7.885 -0.7725 -1.0418 -1.1378
 5624SOL    HW228506   4.201   2.481   8.006 -1.5186  2.0482 -0.8331
 5625SOL     OW28507   2.926   0.288   0.402  0.1300 -0.2183  0.0632
 5625SOL    HW128508   2.934   0.257   0.312  2.0485 -1.3892  0.6317
 5625SOL    HW228509   3.009   0.254   0.436  0.9133  0.7133 -0.9403
 5626SOL     OW28510   1.195   1.809   9.625 -0.0143 -0.5244  0.2498
 5626SOL    HW128511   1.202   1.793   9.531 -0.3589  0.7109  0.0018
 5626SOL    HW228512   1.116   1.757   9.641  0.2149 -0.9011  0.1545
 5627SOL     OW28513   2.054   3.412   3.532 -0.6874 -0.1411 -0.0131
 5627SOL    HW128514   1.993   3.379   3.466 -0.7550 -0.9877  0.4744
 5627SOL    HW228515   2.123   3.457   3.483  0.2142 -2.2305 -0.6292
 5628SOL     OW28516   3.163   4.633   2.277 -0.2723  0.3875  0.2947
 5628SOL    HW128517   3.107   4.666   2.208 -0.5010 -1.3372 -0.3438
 5628SOL    HW228518   3.208   4.714   2.304 -2.4015  1.3780  0.8725
 5629SOL     OW28519   1.772   2.556   8.367  1.0902  0.5020  0.6803
 5629SOL    HW128520   1.811   2.470   8.354  1.0721  0.4637  0.8936
 5629SOL    HW228521   1.693   2.530   8.413  1.6464  0.5338  1.6485
 5630SOL     OW28522   0.224   4.021   6.236 -0.1881 -0.2552  0.5855
 5630SOL    HW128523   0.137   4.044   6.203  1.2576  3.5182 -0.6179
 5630SOL    HW228524   0.247   4.103   6.279 -2.6204  0.2776  0.9025
 5631SOL     OW28525   0.027   1.566   5.704 -0.3703 -0.3124 -0.4905
 5631SOL    HW128526   0.101   1.506   5.699 -0.1076  0.2391 -3.2003
 5631SOL    HW228527   4.704   1.508   5.746 -0.2047  0.6420  1.0410
 5632SOL     OW28528   4.227   2.181  12.197  0.0092 -0.6262 -0.2834
 5632SOL    HW128529   4.167   2.238  12.149  0.0056  0.5099  1.0664
 5632SOL    HW228530   4.248   2.114  12.132  1.5756  2.3207 -2.8380
 5633SOL     OW28531   2.507   0.235   9.761 -0.5515 -0.3494  0.4733
 5633SOL    HW128532   2.544   0.316   9.796 -2.9564  1.0811 -0.3207
 5633SOL    HW228533   2.589   0.194   9.732  0.4674  1.3465  0.9757
 5634SOL     OW28534   2.841   4.575   9.061 -0.1222 -0.1213 -0.5355
 5634SOL    HW128535   2.809   4.623   9.137  0.1665 -1.1905  0.2649
 5634SOL    HW228536   2.857   4.487   9.096 -0.2781  0.9481  2.2010
 5635SOL     OW28537   3.306   1.647  15.361 -0.5642 -0.0259 -0.6891
 5635SOL    HW128538   3.393   1.616  15.385 -0.5954  0.3365 -0.1218
 5635SOL    HW228539   3.308   1.736  15.395 -0.5875  0.0072 -0.7733
 5636SOL     OW28540   0.229   0.012   5.959 -0.7056 -0.8842  0.0685
 5636SOL    HW128541   0.239   0.095   5.913  0.8760 -2.1619 -1.8998
 5636SOL    HW228542   0.217   0.039   6.050  1.1599  0.2991 -0.0418
 5637SOL     OW28543   0.724   0.334   9.696 -0.3283 -0.1384  0.0349
 5637SOL    HW128544   0.706   0.290   9.779 -0.4046 -0.0028  0.0890
 5637SOL    HW228545   0.735   0.426   9.720 -0.8441 -0.4443  1.4262
 5638SOL     OW28546   2.106   2.148   5.171  0.1399 -0.6564  0.3475
 5638SOL    HW128547   2.157   2.109   5.241  2.1820 -1.4270 -1.5706
 5638SOL    HW228548   2.097   2.081   5.103 -0.8214  1.0625 -1.2353
 5639SOL     OW28549   3.863   0.980  16.131 -0.5903 -0.3358  0.3717
 5639SOL    HW128550   3.884   1.014  16.044  1.9262 -1.0389  0.6929
 5639SOL    HW228551   3.894   0.889  16.123  1.1215  0.1053  1.9397
 5640SOL     OW28552   0.106   0.232  13.724 -0.3535  0.5874  0.2084
 5640SOL    HW128553   0.099   0.232  13.820  0.8615 -0.3242  0.3004
 5640SOL    HW228554   0.028   0.183  13.699  1.0494 -1.3553 -0.3784
 5641SOL     OW28555   0.124   3.554   7.704 -0.4969  0.4842 -0.0890
 5641SOL    HW128556   0.143   3.490   7.636  1.3535  0.8675  0.0696
 5641SOL    HW228557   0.118   3.501   7.784 -0.8182  1.5040  0.5638
 5642SOL     OW28558   1.577   0.049   4.645 -1.0206  0.8827  0.0351
 5642SOL    HW128559   1.500   0.007   4.607 -1.1548  0.0274  1.2196
 5642SOL    HW228560   1.536   0.093   4.719  2.7680  0.4388  2.4147
 5643SOL     OW28561   3.440   3.759   1.552 -0.2814 -0.3886  0.5498
 5643SOL    HW128562   3.528   3.726   1.570  0.5822  1.1900 -0.8511
 5643SOL    HW228563   3.391   3.689   1.508  1.1829 -2.4209  2.1624
 5644SOL     OW28564   3.525   0.631   8.487  0.1639  0.1361 -0.3496
 5644SOL    HW128565   3.453   0.621   8.425 -0.1258  0.0773 -0.0082
 5644SOL    HW228566   3.605   0.628   8.435 -0.0795  0.0281 -0.7197
 5645SOL     OW28567   4.417   0.383   0.206  0.4138  0.4375  0.5399
 5645SOL    HW128568   4.382   0.324   0.273  0.2129 -0.9069 -0.7286
 5645SOL    HW228569   4.511   0.382   0.222  1.1357  0.8201 -3.6887
 5646SOL     OW28570   2.330   3.415   1.681 -0.0726  0.3513  0.0031
 5646SOL    HW128571   2.249   3.364   1.673  0.0428  0.0903  0.5286
 5646SOL    HW228572   2.395   3.346   1.696 -1.1531  0.1758  3.7762
 5647SOL     OW28573   4.320   4.554   7.189  0.5374 -0.4565 -0.1435
 5647SOL    HW128574   4.278   4.585   7.269  0.7270 -0.8146  0.0951
 5647SOL    HW228575   4.365   4.474   7.215  1.4256 -0.0184 -0.3170
 5648SOL     OW28576   3.809   4.400   4.904  0.0918  0.1080  0.2558
 5648SOL    HW128577   3.817   4.489   4.938 -1.8683 -0.6230  2.6591
 5648SOL    HW228578   3.752   4.364   4.972 -1.4409  1.0777 -0.5128
 5649SOL     OW28579   1.995   2.639   8.589  0.6802 -0.0403 -0.0273
 5649SOL    HW128580   1.951   2.694   8.653 -2.9266 -0.6120 -2.0577
 5649SOL    HW228581   1.926   2.609   8.530  0.3177  1.8088 -0.5427
 5650SOL     OW28582   0.163   1.783  11.703 -0.1571  0.2684  0.1900
 5650SOL    HW128583   0.243   1.800  11.754 -0.3681  2.5479 -0.2450
 5650SOL    HW228584   0.180   1.823  11.618  0.7030 -0.0606  0.2021
 5651SOL     OW28585   0.708   3.800  12.238 -0.3940  0.0111  0.5414
 5651SOL    HW128586   0.759   3.880  12.224 -1.6027  0.4403 -1.4388
 5651SOL    HW228587   0.757   3.738  12.184  1.6083  2.3718 -0.3858
 5652SOL     OW28588   0.803   4.418  11.705  0.1334 -0.4262  0.1785
 5652SOL    HW128589   0.749   4.380  11.635  2.0466 -1.6455 -0.6175
 5652SOL    HW228590   0.806   4.507  11.668 -0.3082  0.0589  1.3198
 5653SOL     OW28591   3.423   2.700   4.597  0.1620  0.1284  0.4312
 5653SOL    HW128592   3.359   2.656   4.653 -0.7888  0.0927 -0.6753
 5653SOL    HW228593   3.433   2.786   4.639  2.2526  0.2969 -0.4225
 5654SOL     OW28594   2.344   3.140   5.375  0.0108  0.2343  0.3382
 5654SOL    HW128595   2.427   3.167   5.335 -1.4920  1.6301 -1.7877
 5654SOL    HW228596   2.315   3.231   5.375  0.6237  0.4424 -2.2375
 5655SOL     OW28597   0.676   1.937   5.663  0.2088 -0.2874  0.3133
 5655SOL    HW128598   0.604   1.958   5.723 -0.9776  0.5447 -1.4143
 5655SOL    HW228599   0.649   2.003   5.599 -2.6069  1.6177  3.4089
 5656SOL     OW28600   3.820   3.540   6.168  0.1620 -0.7754  0.3236
 5656SOL    HW128601   3.731   3.509   6.182  0.2220 -0.7368  0.7680
 5656SOL    HW228602   3.852   3.488   6.094 -0.7742 -0.8346 -0.0449
 5657SOL     OW28603   3.806   0.947   6.210 -0.1870  0.1164  0.4549
 5657SOL    HW128604   3.790   1.030   6.255  1.4672  1.0067 -0.6139
 5657SOL    HW228605   3.890   0.916   6.245 -0.4867 -1.2176 -0.0238
 5658SOL     OW28606   0.764   0.445   6.174  0.1451  0.1555 -0.1755
 5658SOL    HW128607   0.698   0.410   6.113  0.1640  0.4531 -0.3678
 5658SOL    HW228608   0.701   0.463   6.244  1.6945  0.4860  1.1366
 5659SOL     OW28609   2.713   2.547   1.659  0.8112 -0.5018 -0.2355
 5659SOL    HW128610   2.673   2.584   1.738  2.5398 -0.7825  0.7771
 5659SOL    HW228611   2.739   2.632   1.622  0.2362 -0.3568 -0.3133
 5660SOL     OW28612   2.897   2.542   1.318  0.3337  0.2015  0.2107
 5660SOL    HW128613   2.982   2.505   1.294 -1.0334 -1.9076 -1.4775
 5660SOL    HW228614   2.919   2.634   1.333 -1.0880  0.5826 -0.0592
 5661SOL     OW28615   2.284   2.997  10.800  0.4317 -0.3044 -0.4705
 5661SOL    HW128616   2.315   2.945  10.726 -0.9444 -0.3313 -1.0255
 5661SOL    HW228617   2.229   3.056  10.747 -1.7332 -1.1384  0.8756
 5662SOL     OW28618   2.194   2.539   3.694  0.3732  0.0597  0.1146
 5662SOL    HW128619   2.143   2.459   3.681  1.1401 -0.1077 -1.9049
 5662SOL    HW228620   2.200   2.546   3.789 -1.2386 -1.6781  0.3416
 5663SOL     OW28621   0.154   3.635   9.462 -0.0733  0.4829 -0.0351
 5663SOL    HW128622   0.186   3.714   9.506  1.9901 -0.4539  0.1012
 5663SOL    HW228623   0.225   3.576   9.487 -0.0351  0.0585 -1.1475
 5664SOL     OW28624   0.610   1.905   9.244  0.2936 -0.1041 -0.2740
 5664SOL    HW128625   0.690   1.925   9.195  1.1275  0.3187  1.2552
 5664SOL    HW228626   0.641   1.942   9.327 -1.1058 -1.6511  0.9455
 5665SOL     OW28627   4.513   1.028   2.587 -0.5591 -0.3641  0.0585
 5665SOL    HW128628   4.556   1.064   2.665 -1.2090 -0.6228  0.5312
 5665SOL    HW228629   4.469   0.946   2.611  1.2604 -1.1966  0.6289
 5666SOL     OW28630   0.062   2.652  13.116 -0.1989 -0.1438  0.0206
 5666SOL    HW128631   4.720   2.673  13.157 -0.4448  1.0978 -1.1227
 5666SOL    HW228632   0.119   2.634  13.192 -0.3302 -0.1010  0.1282
 5667SOL     OW28633   0.679   2.299   7.930 -0.1407 -0.6547  0.2129
 5667SOL    HW128634   0.626   2.368   7.889 -0.2362 -0.2164  1.0848
 5667SOL    HW228635   0.697   2.246   7.852  3.8204 -0.9997  1.3807
 5668SOL     OW28636   0.649   1.769   0.035 -0.5606  0.2443 -0.7869
 5668SOL    HW128637   0.735   1.732   0.013 -0.6436 -0.9514  0.8515
 5668SOL    HW228638   0.616   1.718   0.109 -2.1570  2.8513  0.2643
 5669SOL     OW28639   3.834   0.805   5.564 -0.7503  0.1031 -0.0803
 5669SOL    HW128640   3.865   0.886   5.604 -0.1708 -0.6741  1.0485
 5669SOL    HW228641   3.781   0.834   5.491  1.0258  0.6220 -1.1624
 5670SOL     OW28642   2.517   3.877   4.395  0.4759 -0.0043  0.4886
 5670SOL    HW128643   2.602   3.899   4.435  0.7585  1.1343 -0.7404
 5670SOL    HW228644   2.486   3.967   4.384  0.5091  0.1187  1.3549
 5671SOL     OW28645   0.903   3.865   8.391  0.3087  0.2144 -0.3784
 5671SOL    HW128646   0.860   3.934   8.442 -0.3335  1.5385 -2.7378
 5671SOL    HW228647   0.979   3.861   8.449 -0.1052  0.9063  0.2123
 5672SOL     OW28648   0.612   0.799  15.702  0.1262 -0.3928 -0.4077
 5672SOL    HW128649   0.658   0.855  15.639  0.5545 -1.0485 -0.6695
 5672SOL    HW228650   0.640   0.838  15.785 -1.5483  0.3780 -0.1873
 5673SOL     OW28651   3.220   0.146   7.672 -0.4051 -0.3930 -0.1582
 5673SOL    HW128652   3.297   0.094   7.699 -0.0373 -1.2881 -2.8641
 5673SOL    HW228653   3.188   0.074   7.617 -3.5267  0.2050  0.9279
 5674SOL     OW28654   0.736   0.060   0.806 -0.2890  0.1075 -0.3751
 5674SOL    HW128655   0.810   0.114   0.832 -0.8006  0.2760  0.7066
 5674SOL    HW228656   0.662   0.116   0.830 -0.6515 -0.0676 -1.0975
 5675SOL     OW28657   4.016   1.773   3.504 -0.1283  0.5953  0.3108
 5675SOL    HW128658   3.924   1.765   3.530 -0.6514  0.8623 -1.4482
 5675SOL    HW228659   4.041   1.849   3.556 -2.4830  1.2330  0.5330
 5676SOL     OW28660   0.054   1.154   3.250 -0.3831 -0.3694 -0.2283
 5676SOL    HW128661   0.077   1.131   3.341  2.0983  0.7938 -0.5536
 5676SOL    HW228662   4.719   1.098   3.240  0.2528 -1.3607  0.4663
 5677SOL     OW28663   2.873   0.814   0.811 -0.0756 -0.0830 -0.4263
 5677SOL    HW128664   2.962   0.826   0.777 -0.2088  0.0188 -0.7433
 5677SOL    HW228665   2.851   0.721   0.804  0.8342 -0.4459  1.5281
 5678SOL     OW28666   1.524   0.015   1.946  0.2957 -0.0321  0.1744
 5678SOL    HW128667   1.474   4.674   1.948  1.4846 -0.8112 -2.1897
 5678SOL    HW228668   1.614   4.729   1.964  0.8929 -0.2560 -3.0921
 5679SOL     OW28669   3.592   1.813   6.247 -0.1383 -0.4238 -0.9904
 5679SOL    HW128670   3.605   1.851   6.334  0.6637 -1.0793 -0.8150
 5679SOL    HW228671   3.658   1.744   6.255  0.8399  0.4325 -1.6329
 5680SOL     OW28672   2.906   2.104   3.364 -0.1554 -0.6454 -1.0298
 5680SOL    HW128673   2.867   2.024   3.329 -1.1730 -0.4732 -0.2977
 5680SOL    HW228674   2.933   2.089   3.455 -3.5399  2.1258  0.4331
 5681SOL     OW28675   2.979   3.655   9.176 -0.2183 -0.2525 -0.0500
 5681SOL    HW128676   2.965   3.652   9.081 -2.2548  1.9783  0.1779
 5681SOL    HW228677   3.004   3.746   9.194 -1.3610  0.3090 -1.2959
 5682SOL     OW28678   1.547   0.862  12.185  0.5017  0.0882  0.0766
 5682SOL    HW128679   1.511   0.927  12.246 -0.6561  0.5495 -1.0946
 5682SOL    HW228680   1.492   0.882  12.110  1.3129 -0.2203 -0.5931
 5683SOL     OW28681   3.851   2.244   4.141 -0.1353  0.0525  0.3044
 5683SOL    HW128682   3.896   2.164   4.116 -0.2249  1.0180 -3.0067
 5683SOL    HW228683   3.836   2.278   4.052  0.1276 -0.4425  0.0727
 5684SOL     OW28684   2.357   4.684   8.359 -1.2723  0.3671  0.4148
 5684SOL    HW128685   2.364   0.005   8.432  0.5217  1.2015 -0.4420
 5684SOL    HW228686   2.409   4.722   8.287  2.7123  1.1712  3.7200
 5685SOL     OW28687   3.960   2.990   0.351  0.9408 -0.2049  0.5827
 5685SOL    HW128688   3.954   3.062   0.289  1.9953 -0.6416 -0.0185
 5685SOL    HW228689   3.912   3.031   0.424  1.2002  2.0837 -0.5217
 5686SOL     OW28690   0.095   1.849   1.974  0.3204  0.0182 -0.6029
 5686SOL    HW128691   0.032   1.835   2.044  0.4115 -0.4659 -0.6167
 5686SOL    HW228692   0.049   1.795   1.909  0.8672  1.0740 -1.8672
 5687SOL     OW28693   1.589   0.467  11.597 -0.1328  0.1720  0.5005
 5687SOL    HW128694   1.542   0.391  11.631  0.4457 -0.3495  0.1281
 5687SOL    HW228695   1.522   0.536  11.599 -0.3340  0.0215 -1.1444
 5688SOL     OW28696   4.730   0.937  17.707 -0.4799 -0.2515 -0.0480
 5688SOL    HW128697   4.716   0.944  17.613  0.9783  1.1825 -0.1574
 5688SOL    HW228698   4.669   0.874  17.746 -0.0981 -2.4755 -3.0645
 5689SOL     OW28699   4.655   3.886  10.995  0.0178 -0.1503 -0.0603
 5689SOL    HW128700   4.646   3.870  11.089 -2.3832  0.1630 -0.2196
 5689SOL    HW228701   4.725   3.824  10.977  0.0240  0.9476 -3.9124
 5690SOL     OW28702   1.006   1.669   7.757 -0.6831  0.1308  0.4256
 5690SOL    HW128703   1.064   1.735   7.794 -0.2576 -1.4962  2.7252
 5690SOL    HW228704   1.070   1.597   7.758 -0.0647  0.6855  0.8951
 5691SOL     OW28705   0.706   3.981   7.561 -0.0986  1.0885  0.3149
 5691SOL    HW128706   0.707   4.007   7.653  1.2250 -0.6401  0.7949
 5691SOL    HW228707   0.649   4.050   7.526 -1.1462  0.9682  1.7700
 5692SOL     OW28708   3.281   2.456   3.446  0.3102  0.3426  1.1283
 5692SOL    HW128709   3.311   2.428   3.360 -0.7541 -1.1385  1.2416
 5692SOL    HW228710   3.224   2.532   3.430 -0.7820 -1.1089 -1.7257
 5693SOL     OW28711   2.414   1.900   5.744 -0.4675 -0.2670 -0.2909
 5693SOL    HW128712   2.383   1.841   5.676  1.7081 -1.0011 -0.6380
 5693SOL    HW228713   2.350   1.969   5.729 -0.6763 -0.4636 -0.3105
 5694SOL     OW28714   2.484   3.598   2.312  0.0330  0.1570  0.2232
 5694SOL    HW128715   2.426   3.611   2.237  1.0220 -0.1714 -0.5931
 5694SOL    HW228716   2.426   3.594   2.389  0.2180  0.3942  0.3773
 5695SOL     OW28717   2.008   2.849   0.696 -0.1111 -0.2398 -0.7762
 5695SOL    HW128718   1.941   2.904   0.737  1.5556  1.3386 -0.1571
 5695SOL    HW228719   1.979   2.768   0.738  0.0353  0.5763  0.9041
 5696SOL     OW28720   4.013   2.758   6.723 -0.2136  0.9113 -0.4011
 5696SOL    HW128721   4.068   2.694   6.768 -0.4911  1.8626  1.3092
 5696SOL    HW228722   4.065   2.759   6.643 -0.4969 -0.2939 -0.5992
 5697SOL     OW28723   1.111   4.533   2.689 -0.1918  0.7172  0.3857
 5697SOL    HW128724   1.059   4.479   2.749 -0.8450  0.0590 -0.7877
 5697SOL    HW228725   1.190   4.545   2.742  0.2351  1.1416 -0.3497
 5698SOL     OW28726   3.571   0.746   8.144 -0.1249 -0.2093 -0.1153
 5698SOL    HW128727   3.507   0.682   8.113  0.7952  0.0346 -2.5580
 5698SOL    HW228728   3.554   0.823   8.089  1.6469  0.0796 -0.2523
 5699SOL     OW28729   2.140   3.504  13.362 -0.4530 -0.3883  0.1784
 5699SOL    HW128730   2.206   3.532  13.298 -0.8388  0.6962  0.2401
 5699SOL    HW228731   2.154   3.568  13.432 -3.7885 -1.2437  1.6073
 5700SOL     OW28732   3.755   0.992   5.813  0.3182  0.2767  0.3265
 5700SOL    HW128733   3.695   1.058   5.779 -1.5472 -1.1711  0.7725
 5700SOL    HW228734   3.778   1.037   5.895  2.1301 -0.0772  0.0167
 5701SOL     OW28735   3.270   4.693   9.627  0.1475 -0.0013  0.1241
 5701SOL    HW128736   3.218   4.638   9.568  0.1389  0.3334 -0.1860
 5701SOL    HW228737   3.290   4.626   9.692 -0.0079  0.1411  0.3168
 5702SOL     OW28738   3.190   0.454  13.876  0.1847 -0.3670  0.3021
 5702SOL    HW128739   3.243   0.387  13.834  2.3421  0.5348  1.5910
 5702SOL    HW228740   3.139   0.404  13.940 -2.7478  2.0917 -0.0999
 5703SOL     OW28741   0.126   3.730   6.448 -0.4527 -0.1389 -0.2248
 5703SOL    HW128742   0.102   3.823   6.457 -0.8671 -0.5196  2.5221
 5703SOL    HW228743   0.051   3.685   6.486 -1.9220  1.9187 -0.7002
 5704SOL     OW28744   2.817   4.221   8.439 -0.2210 -0.8064 -0.0857
 5704SOL    HW128745   2.821   4.253   8.529 -1.6786 -1.3039  0.1391
 5704SOL    HW228746   2.873   4.281   8.390 -0.3846 -0.2778  0.3715
 5705SOL     OW28747   1.397   3.617   9.143  0.1893 -0.4459  0.5006
 5705SOL    HW128748   1.483   3.612   9.185 -0.7246  3.0174  2.8468
 5705SOL    HW228749   1.368   3.528   9.165  0.0570 -0.4480  0.3112
 5706SOL     OW28750   0.259   0.566   6.721 -0.1201  0.1423 -0.4211
 5706SOL    HW128751   0.310   0.532   6.795  1.7165  1.8958 -0.8792
 5706SOL    HW228752   0.174   0.588   6.759 -0.0485 -1.7132  0.8199
 5707SOL     OW28753   2.674   3.839   5.250 -0.0077  0.2184 -0.6012
 5707SOL    HW128754   2.607   3.777   5.279  0.2581  0.5833  0.8374
 5707SOL    HW228755   2.748   3.790   5.215 -0.9564 -1.5546 -0.1026
 5708SOL     OW28756   3.235   1.875  13.163 -0.0766 -0.5009  0.6860
 5708SOL    HW128757   3.265   1.963  13.144 -0.6761  0.1025  2.4887
 5708SOL    HW228758   3.197   1.844  13.081 -0.5107  0.2240  0.6161
 5709SOL     OW28759   0.192   0.177   1.234  0.4972  0.1357 -0.5648
 5709SOL    HW128760   0.142   0.186   1.315  1.5977  2.0095 -0.0883
 5709SOL    HW228761   0.141   0.111   1.188  1.1402 -1.4700  1.0480
 5710SOL     OW28762   0.530   1.953   2.955  0.4340 -0.2764 -0.6958
 5710SOL    HW128763   0.472   1.997   2.892 -0.1498 -1.6132 -1.0970
 5710SOL    HW228764   0.526   1.862   2.928  0.5917 -0.6687  0.5963
 5711SOL     OW28765   2.812   3.944   9.681 -0.0345 -0.0459  0.2144
 5711SOL    HW128766   2.779   3.939   9.592 -2.2844 -0.0574  1.0457
 5711SOL    HW228767   2.768   3.871   9.724 -0.0123 -0.7028 -0.8748
 5712SOL     OW28768   0.958   3.392   4.570 -0.2497 -0.1561  0.3690
 5712SOL    HW128769   1.036   3.447   4.583 -1.2931  1.8922 -2.0761
 5712SOL    HW228770   0.984   3.307   4.605  1.3416  1.0916  2.2317
 5713SOL     OW28771   4.627   0.774  14.703 -0.0668 -0.0414 -0.3696
 5713SOL    HW128772   4.650   0.867  14.696 -0.9318  0.0919 -1.4265
 5713SOL    HW228773   4.682   0.740  14.774  0.3364 -0.6147 -0.9608
 5714SOL     OW28774   0.639   2.160   1.701  0.0129 -0.2838 -0.1709
 5714SOL    HW128775   0.632   2.184   1.608  0.0303 -1.4315 -0.4778
 5714SOL    HW228776   0.549   2.149   1.731 -0.1991  0.3419 -0.5827
 5715SOL     OW28777   0.654   1.339   8.821  0.1647  0.1489 -0.3545
 5715SOL    HW128778   0.631   1.422   8.779  2.2104  0.7096 -0.3771
 5715SOL    HW228779   0.747   1.355   8.837  0.1457  1.4381 -1.5728
 5716SOL     OW28780   0.503   1.325   7.928 -0.3699  0.4082  0.5348
 5716SOL    HW128781   0.467   1.242   7.897  1.6252 -0.3965  0.3456
 5716SOL    HW228782   0.434   1.388   7.910  0.8635  1.1801 -1.5242
 5717SOL     OW28783   4.477   3.747   4.324 -0.2244  0.2894  0.0083
 5717SOL    HW128784   4.390   3.783   4.309  0.7085  3.2513  1.7339
 5717SOL    HW228785   4.520   3.818   4.277  0.8900 -0.5605 -0.2584
 5718SOL     OW28786   3.348   2.734  12.843  0.6722  0.5099  0.5504
 5718SOL    HW128787   3.353   2.645  12.807 -1.4134  0.4235  0.5014
 5718SOL    HW228788   3.409   2.775  12.782 -0.6793  1.9434  0.1670
 5719SOL     OW28789   1.432   0.075   9.198 -0.3831  0.1698  0.9161
 5719SOL    HW128790   1.472   0.069   9.112  1.1926  0.5226  1.6206
 5719SOL    HW228791   1.398   0.165   9.200 -0.0261  0.3140  0.4243
 5720SOL     OW28792   2.255   1.843  10.848  0.1155 -0.5285  0.2138
 5720SOL    HW128793   2.264   1.748  10.846 -2.8629 -0.7988 -1.8123
 5720SOL    HW228794   2.199   1.848  10.926  0.8330  1.5260  0.5906
 5721SOL     OW28795   2.644   0.291   8.334  0.3712 -0.1231  0.1494
 5721SOL    HW128796   2.618   0.236   8.261  0.2103 -0.5895  0.5582
 5721SOL    HW228797   2.566   0.345   8.344  1.2085  0.9875  0.6724
 5722SOL     OW28798   3.580   4.651   1.810  0.4275 -0.2799 -0.5823
 5722SOL    HW128799   3.508   4.654   1.873  0.8437 -1.5732 -0.0396
 5722SOL    HW228800   3.543   4.705   1.740 -0.7553  0.9252  0.9519
 5723SOL     OW28801   0.940   2.120   3.108  0.4999 -0.5179 -0.1135
 5723SOL    HW128802   0.909   2.195   3.058 -0.2945  0.8069  2.3424
 5723SOL    HW228803   0.959   2.162   3.192  2.1201 -0.0538 -0.7092
 5724SOL     OW28804   3.254   4.719   5.502  0.2798 -0.1153  0.1987
 5724SOL    HW128805   3.160   4.708   5.511  0.1229  1.7110  0.9593
 5724SOL    HW228806   3.279   4.730   5.594 -0.5710  2.2183  0.1426
 5725SOL     OW28807   1.625   1.573   8.897  0.1131 -0.0166 -0.6567
 5725SOL    HW128808   1.603   1.645   8.956  1.5513  0.9702 -1.3308
 5725SOL    HW228809   1.655   1.506   8.959  1.1155  0.1874 -0.9133
 5726SOL     OW28810   0.128   1.291   2.215 -0.4490  0.2083 -0.1813
 5726SOL    HW128811   0.118   1.218   2.276  0.0378 -1.3855 -2.0044
 5726SOL    HW228812   0.052   1.279   2.159  0.0143  0.9043 -0.9577
 5727SOL     OW28813   0.680   1.504   4.294  0.4857 -0.2757 -0.4521
 5727SOL    HW128814   0.625   1.442   4.341  0.9998 -0.4187 -0.0387
 5727SOL    HW228815   0.766   1.493   4.334  0.0623 -0.0888  0.5035
 5728SOL     OW28816   1.756   0.388   2.755 -0.0061 -0.2088 -0.0860
 5728SOL    HW128817   1.807   0.354   2.681  0.8517  0.4056  0.2235
 5728SOL    HW228818   1.769   0.481   2.737 -0.3448  0.2884  2.2150
 5729SOL     OW28819   3.233   3.641   9.561 -0.1815 -0.2243 -0.5545
 5729SOL    HW128820   3.186   3.605   9.485 -0.5564 -1.4448  0.2438
 5729SOL    HW228821   3.167   3.651   9.630  2.7851 -0.7399  2.3769
 5730SOL     OW28822   4.267   3.881   4.218 -0.0229 -0.4121 -0.3659
 5730SOL    HW128823   4.324   3.948   4.180  0.4806 -1.6644 -1.8283
 5730SOL    HW228824   4.198   3.939   4.251 -0.3965 -1.3907  0.5767
 5731SOL     OW28825   0.862   3.200   4.060  0.5495  0.4391 -0.0957
 5731SOL    HW128826   0.875   3.133   3.994  0.5769 -0.3344  0.7001
 5731SOL    HW228827   0.776   3.175   4.094  0.7357 -0.1257 -0.0551
 5732SOL     OW28828   3.196   1.114   1.393 -0.6863 -0.3406  0.1288
 5732SOL    HW128829   3.198   1.167   1.472  1.1990  0.4303 -0.4358
 5732SOL    HW228830   3.248   1.160   1.328 -0.5590 -0.7229 -0.0430
 5733SOL     OW28831   1.970   3.077   3.372 -0.1525 -0.2784  0.1010
 5733SOL    HW128832   1.932   3.094   3.458  1.6652 -0.3993  0.9289
 5733SOL    HW228833   1.941   2.990   3.346 -1.3490  0.3592 -0.6484
 5734SOL     OW28834   2.204   0.964   8.339 -0.5513  0.1677  0.1311
 5734SOL    HW128835   2.171   0.959   8.249 -0.1020 -0.5284  0.0040
 5734SOL    HW228836   2.291   0.998   8.318  0.2186 -0.8819  1.5938
 5735SOL     OW28837   2.585   0.856  10.665  0.6199  0.1811  0.3347
 5735SOL    HW128838   2.652   0.923  10.650  0.1381  0.1025 -2.1743
 5735SOL    HW228839   2.535   0.848  10.584  0.3913  1.2815  0.3632
 5736SOL     OW28840   4.508   4.153   4.786  0.7671  0.1321 -0.4257
 5736SOL    HW128841   4.464   4.150   4.871 -0.4707 -0.8901 -1.1170
 5736SOL    HW228842   4.522   4.248   4.776 -0.1511  0.5726  2.3621
 5737SOL     OW28843   1.814   1.579   8.714  0.1431 -0.8362 -0.0667
 5737SOL    HW128844   1.761   1.569   8.794 -0.6924 -2.4504 -0.8117
 5737SOL    HW228845   1.888   1.606   8.768  0.6836 -1.8723 -0.2883
 5738SOL     OW28846   3.485   2.710   3.087  0.5082 -0.2031 -0.2580
 5738SOL    HW128847   3.528   2.680   3.168  0.3347 -0.3237 -0.2098
 5738SOL    HW228848   3.392   2.715   3.109  0.4375 -0.6256 -0.4693
 5739SOL     OW28849   1.217   1.701   2.695  0.0878 -0.0167 -0.6259
 5739SOL    HW128850   1.199   1.766   2.763 -1.7575 -1.2398  0.0522
 5739SOL    HW228851   1.146   1.639   2.716  0.4637  0.6894  2.7954
 5740SOL     OW28852   0.932   4.624  11.920 -0.4074  0.3394  0.3441
 5740SOL    HW128853   1.000   4.689  11.935 -2.0134  1.9974  0.5242
 5740SOL    HW228854   0.876   4.665  11.854 -1.9269 -1.4294  0.5209
 5741SOL     OW28855   3.670   0.567   2.198 -0.4348 -0.0863  1.0506
 5741SOL    HW128856   3.752   0.558   2.245  0.0020  1.4227  0.5645
 5741SOL    HW228857   3.612   0.597   2.269 -0.5546 -1.2046  1.4213
 5742SOL     OW28858   3.037   2.030  14.205 -0.1223  0.0087 -0.3189
 5742SOL    HW128859   3.127   2.057  14.227  0.4595 -1.8265 -0.4301
 5742SOL    HW228860   2.986   2.047  14.284 -0.5219  0.3324 -0.6497
 5743SOL     OW28861   1.968   2.017  13.334 -0.0102 -0.1467  0.4933
 5743SOL    HW128862   1.983   2.050  13.246  1.5000  1.4535  1.3356
 5743SOL    HW228863   2.048   1.965  13.335  1.5381  2.2338  0.7556
 5744SOL     OW28864   4.052   1.123   4.733  0.9591  0.7256 -0.1312
 5744SOL    HW128865   4.134   1.168   4.717  1.5890 -0.2582  0.2762
 5744SOL    HW228866   4.082   1.032   4.729 -1.7277 -0.1318 -0.6181
 5745SOL     OW28867   1.143   4.319  12.767  0.5929  0.3788 -0.2664
 5745SOL    HW128868   1.131   4.386  12.835 -2.5437 -1.2136  0.7404
 5745SOL    HW228869   1.195   4.365  12.701 -1.0980  0.5830 -1.4452
 5746SOL     OW28870   0.944   3.089   4.437  0.3384 -0.7560  0.1541
 5746SOL    HW128871   0.921   3.012   4.385 -1.4270  0.3695 -0.7359
 5746SOL    HW228872   0.882   3.156   4.409 -1.3448 -3.1357 -1.7062
 5747SOL     OW28873   0.152   0.531   1.447 -0.2925 -0.1400 -0.1468
 5747SOL    HW128874   0.087   0.517   1.378 -0.9921 -1.3215  0.7540
 5747SOL    HW228875   0.217   0.461   1.438  2.0226  2.1049 -0.7505
 5748SOL     OW28876   0.353   4.652  16.234  0.1515  0.3678 -0.2069
 5748SOL    HW128877   0.422   4.639  16.169  0.5818  1.1791  0.0963
 5748SOL    HW228878   0.315   4.727  16.188 -1.7179 -1.3036 -1.3978
 5749SOL     OW28879   1.965   1.214   6.081 -0.0508 -0.8715 -0.1000
 5749SOL    HW128880   1.997   1.123   6.075 -1.7860 -1.5599  1.0163
 5749SOL    HW228881   2.003   1.255   6.004  1.0123 -2.1838 -0.2815
 5750SOL     OW28882   0.968   0.754   7.739 -0.4675  0.3324 -0.1009
 5750SOL    HW128883   0.903   0.793   7.798  0.6509  0.0139  1.3605
 5750SOL    HW228884   0.982   0.671   7.786 -1.0486  0.6414  0.6118
 5751SOL     OW28885   3.921   1.158   5.987 -0.6142 -0.9154  0.0908
 5751SOL    HW128886   3.982   1.147   6.061  0.9984 -2.5013 -1.4586
 5751SOL    HW228887   3.849   1.207   6.026  1.0225  0.5052  1.3325
 5752SOL     OW28888   3.226   4.277  14.578  0.1276 -0.0026  0.2213
 5752SOL    HW128889   3.183   4.301  14.659 -2.8517 -0.2911 -1.2888
 5752SOL    HW228890   3.228   4.362  14.534  0.9625  0.5930  1.4360
 5753SOL     OW28891   4.544   2.050   2.889  0.0035  0.1840 -0.2642
 5753SOL    HW128892   4.612   1.984   2.877 -1.1731 -0.6979 -2.1740
 5753SOL    HW228893   4.478   1.993   2.929 -0.3345  1.2045  0.6155
 5754SOL     OW28894   1.383   4.307   9.777  0.2207 -0.1699 -0.3428
 5754SOL    HW128895   1.439   4.303   9.700 -1.7472  0.0149 -1.7934
 5754SOL    HW228896   1.383   4.402   9.790  3.7416 -0.0401 -1.2982
 5755SOL     OW28897   1.618   2.643   7.735 -0.3472  0.0048  0.3456
 5755SOL    HW128898   1.659   2.681   7.657 -2.3642  0.0525 -0.6974
 5755SOL    HW228899   1.547   2.600   7.687  2.8496 -1.4357 -3.1448
 5756SOL     OW28900   1.954   3.411   1.778  0.6677  0.2846 -0.5904
 5756SOL    HW128901   1.923   3.426   1.688 -0.5497  0.1300 -0.1977
 5756SOL    HW228902   1.943   3.499   1.814  1.7677  0.0814  0.2364
 5757SOL     OW28903   2.581   2.312   2.466  0.6157 -0.3625  0.5201
 5757SOL    HW128904   2.570   2.218   2.480  0.5581  0.3134  5.1475
 5757SOL    HW228905   2.640   2.336   2.538  0.4457  0.7729  0.2815
 5758SOL     OW28906   4.317   1.129   8.078  0.2379  0.0527  0.2290
 5758SOL    HW128907   4.235   1.153   8.035  0.3952 -0.5676 -0.4222
 5758SOL    HW228908   4.301   1.043   8.116  0.1816  0.0160  0.1233
 5759SOL     OW28909   4.530   3.701   6.830  0.1037  0.0913  0.3154
 5759SOL    HW128910   4.514   3.664   6.917 -2.5333  1.0441  0.2185
 5759SOL    HW228911   4.625   3.692   6.838 -0.1658  0.3298  3.7717
 5760SOL     OW28912   1.422   2.280   9.213  0.8422 -0.7483 -0.3464
 5760SOL    HW128913   1.349   2.231   9.249 -0.2064  0.1192 -1.2946
 5760SOL    HW228914   1.381   2.327   9.140  0.0273  0.7143  1.0696
 5761SOL     OW28915   0.389   1.186   5.733  0.0307 -0.1317 -0.4573
 5761SOL    HW128916   0.388   1.140   5.817 -1.7551 -2.8693 -1.9384
 5761SOL    HW228917   0.429   1.116   5.681 -1.3177 -0.6846 -0.7399
 5762SOL     OW28918   1.393   3.911   7.112 -0.7437  0.3887  0.3315
 5762SOL    HW128919   1.348   3.831   7.139 -0.2060 -0.3998 -1.1187
 5762SOL    HW228920   1.354   3.979   7.167 -0.6537  0.8768 -0.1999
 5763SOL     OW28921   1.244   4.213   7.651  0.6741 -0.3146  0.1017
 5763SOL    HW128922   1.251   4.305   7.679 -1.2547 -0.3314  0.6176
 5763SOL    HW228923   1.265   4.224   7.558  0.4346  1.0904  0.2099
 5764SOL     OW28924   1.388   2.643   2.601  0.0893 -0.1608 -0.1333
 5764SOL    HW128925   1.465   2.669   2.551  0.0432  3.7009  1.7995
 5764SOL    HW228926   1.426   2.647   2.689  1.0564  1.9997 -0.6690
 5765SOL     OW28927   2.177   0.088   8.085 -0.0839  0.2151  0.0520
 5765SOL    HW128928   2.187   0.119   7.995  1.5771 -0.8623 -0.1250
 5765SOL    HW228929   2.237   0.150   8.126  1.2295 -2.6837  2.5479
 5766SOL     OW28930   2.875   1.316   3.773  0.5459  0.4140  0.2912
 5766SOL    HW128931   2.933   1.242   3.757  2.2495  1.6551  0.6775
 5766SOL    HW228932   2.794   1.285   3.732  0.6490  1.4611 -0.7156
 5767SOL     OW28933   4.709   1.770   5.540  0.0869  0.3086 -0.6383
 5767SOL    HW128934   4.723   1.709   5.612  1.4594  0.4520 -0.7864
 5767SOL    HW228935   0.007   1.848   5.578  1.0919 -1.5419  2.1287
 5768SOL     OW28936   1.659   4.485   8.226 -0.3246 -0.5001 -0.2248
 5768SOL    HW128937   1.682   4.543   8.298  0.5733 -2.2068  0.8546
 5768SOL    HW228938   1.740   4.435   8.219 -0.3193 -0.3246 -1.5742
 5769SOL     OW28939   0.044   3.776   3.963 -0.1169  0.4310 -0.2050
 5769SOL    HW128940   0.132   3.782   3.925  0.4103  0.0915  0.9417
 5769SOL    HW228941   0.017   3.692   3.926  2.4439  0.2507 -1.6595
 5770SOL     OW28942   2.643   4.553   8.110  0.1657  0.0512  0.0540
 5770SOL    HW128943   2.714   4.579   8.168  1.6603  1.5299 -2.4048
 5770SOL    HW228944   2.582   4.515   8.173  0.4341 -0.5836 -0.0751
 5771SOL     OW28945   0.871   3.990   8.057  0.4835  0.0439 -0.0151
 5771SOL    HW128946   0.959   3.956   8.073  0.4094  0.8428  2.1532
 5771SOL    HW228947   0.832   3.903   8.064  1.0114 -0.2318 -0.5539
 5772SOL     OW28948   2.074   2.230   4.813  0.5727 -0.1539 -0.1492
 5772SOL    HW128949   2.156   2.190   4.784  0.8313 -0.3087  0.8097
 5772SOL    HW228950   2.053   2.268   4.728 -2.3805  0.9493  1.0881
 5773SOL     OW28951   2.612   0.343  12.876  0.4908  0.3061  0.0742
 5773SOL    HW128952   2.611   0.321  12.969 -1.2904  0.3298  0.0641
 5773SOL    HW228953   2.641   0.434  12.885  2.9861 -0.4098 -0.8074
 5774SOL     OW28954   2.457   0.883   7.603  0.1217 -0.9323 -0.4412
 5774SOL    HW128955   2.439   0.865   7.695  1.4642 -0.1990 -0.0318
 5774SOL    HW228956   2.538   0.933   7.615 -0.3668  0.3236 -2.3611
 5775SOL     OW28957   1.250   2.532   0.994  0.2019 -0.0020 -0.0324
 5775SOL    HW128958   1.326   2.504   1.046  0.8491 -1.2955 -1.7034
 5775SOL    HW228959   1.266   2.624   0.973  0.6894  0.2763  1.5025
 5776SOL     OW28960   0.168   1.614   3.805 -0.4663  0.3729  0.3482
 5776SOL    HW128961   0.141   1.664   3.728  1.2260  0.4799 -0.1825
 5776SOL    HW228962   0.113   1.663   3.866 -0.1368  0.1206  0.8527
 5777SOL     OW28963   2.012   3.944   4.766  0.3477 -0.1481 -0.2316
 5777SOL    HW128964   2.075   3.873   4.767  0.0610 -0.4512 -2.4495
 5777SOL    HW228965   1.932   3.897   4.742  0.3108 -0.6182  0.7962
 5778SOL     OW28966   2.635   4.021   8.520  0.2416  0.8213 -0.3029
 5778SOL    HW128967   2.584   4.091   8.561 -0.8175  0.2248 -0.6074
 5778SOL    HW228968   2.677   4.072   8.450  1.3693  1.8915  1.1502
 5779SOL     OW28969   3.781   0.450  11.642 -0.4528 -0.0277  0.0084
 5779SOL    HW128970   3.849   0.513  11.665  0.3534 -0.7053 -0.5167
 5779SOL    HW228971   3.698   0.495  11.659 -1.5964 -2.2363  0.3159
 5780SOL     OW28972   3.646   0.997   5.395  0.1156 -0.6359  0.2719
 5780SOL    HW128973   3.618   1.085   5.369 -0.4013 -0.8756  0.0234
 5780SOL    HW228974   3.558   0.961   5.401  0.3717 -1.2346  0.3570
 5781SOL     OW28975   1.160   0.767   1.314 -0.7560  0.2387 -0.3916
 5781SOL    HW128976   1.071   0.778   1.283 -1.1209  0.5190  0.7645
 5781SOL    HW228977   1.140   0.721   1.396 -0.4416  2.2445  0.8082
 5782SOL     OW28978   1.861   1.195   9.622 -0.4794 -0.3887 -0.0456
 5782SOL    HW128979   1.800   1.140   9.673 -1.1107 -0.9618 -1.4295
 5782SOL    HW228980   1.905   1.131   9.566 -0.2779  0.4048 -0.7845
 5783SOL     OW28981   3.435   2.381   7.402 -0.3049 -0.0745  0.0879
 5783SOL    HW128982   3.370   2.449   7.420  0.2719  0.7546 -0.9656
 5783SOL    HW228983   3.511   2.410   7.452 -0.5991  1.0347 -0.1112
 5784SOL     OW28984   3.380   3.964   9.363  0.0283 -0.3840 -0.4125
 5784SOL    HW128985   3.330   3.998   9.438  0.0069  1.0620 -1.0902
 5784SOL    HW228986   3.316   3.983   9.295  0.0836  0.4980 -0.2182
 5785SOL     OW28987   4.235   2.677   7.468  0.2443 -0.0392  0.0035
 5785SOL    HW128988   4.285   2.597   7.452  1.0865  0.4205  0.3506
 5785SOL    HW228989   4.304   2.727   7.512 -0.3472  0.4983  0.3158
 5786SOL     OW28990   3.075   2.167   8.176 -0.0679 -0.2423  0.4106
 5786SOL    HW128991   3.097   2.260   8.182 -1.8907  0.2396 -0.6454
 5786SOL    HW228992   2.988   2.168   8.136  0.6770 -0.8206 -1.2116
 5787SOL     OW28993   4.704   2.183   4.202 -0.1769  0.2086  0.7062
 5787SOL    HW128994   4.691   2.172   4.296 -1.0862  0.0706  0.5582
 5787SOL    HW228995   0.025   2.116   4.172 -2.6983 -2.4034  1.3618
 5788SOL     OW28996   1.763   2.591   2.794 -0.2596 -0.3304 -0.0872
 5788SOL    HW128997   1.673   2.623   2.798  0.1902  0.6441  1.7186
 5788SOL    HW228998   1.746   2.519   2.733  0.7937  0.0858 -0.8716
 5789SOL     OW28999   1.376   4.620   2.724 -0.1880  0.5875  0.3504
 5789SOL    HW129000   1.448   4.574   2.767 -1.6371 -1.3861  0.6436
 5789SOL    HW229001   1.427   4.690   2.683  2.2518 -0.9480  0.7685
 5790SOL     OW29002   2.466   2.168   4.318 -0.2577 -1.0979 -0.0346
 5790SOL    HW129003   2.526   2.109   4.364  0.9748 -0.7044 -1.1433
 5790SOL    HW229004   2.493   2.140   4.231 -1.6881 -0.5042 -0.6750
 5791SOL     OW29005   1.808   2.740   1.028 -0.0625 -0.3640 -0.3790
 5791SOL    HW129006   1.838   2.827   1.056 -0.8873  0.1969 -1.2494
 5791SOL    HW229007   1.779   2.710   1.115  0.8822 -2.1206 -0.6801
 5792SOL     OW29008   1.338   0.993   3.012 -0.1648 -0.0183 -0.3411
 5792SOL    HW129009   1.358   1.076   3.056  0.2299  0.0676 -0.6834
 5792SOL    HW229010   1.343   1.015   2.919 -0.4574 -0.7597 -0.5286
 5793SOL     OW29011   3.231   1.586   7.632  0.0788 -0.0313  0.1963
 5793SOL    HW129012   3.302   1.527   7.608 -1.7406 -2.6607  1.2297
 5793SOL    HW229013   3.199   1.547   7.714  0.0234 -0.8794 -0.2268
 5794SOL     OW29014   2.672   1.157  10.961 -0.0149  0.2439  0.2193
 5794SOL    HW129015   2.601   1.188  11.017  0.2959 -1.5902  1.6390
 5794SOL    HW229016   2.626   1.120  10.885  1.2622 -2.8871  0.9663
 5795SOL     OW29017   0.498   1.058  11.615 -0.0019  0.0147 -0.2143
 5795SOL    HW129018   0.575   1.006  11.635 -0.1395 -0.2799 -0.4397
 5795SOL    HW229019   0.430   1.009  11.660  0.6681 -0.1369  0.6174
 5796SOL     OW29020   2.518   0.605   7.780  0.2031  0.3644  0.1110
 5796SOL    HW129021   2.489   0.614   7.689 -0.4688  1.1711  0.4135
 5796SOL    HW229022   2.603   0.648   7.771 -0.1735  1.1084  0.1037
 5797SOL     OW29023   2.646   1.340   6.517  0.1320 -0.4918 -0.1199
 5797SOL    HW129024   2.652   1.288   6.597  1.2026 -0.8687 -0.4468
 5797SOL    HW229025   2.568   1.393   6.535  1.2972  0.8029  1.1160
 5798SOL     OW29026   3.382   1.294   5.754 -0.0383 -0.3342  0.0663
 5798SOL    HW129027   3.357   1.209   5.791  0.5484  0.4778  2.3577
 5798SOL    HW229028   3.361   1.354   5.826 -0.8793 -0.3730 -0.1403
 5799SOL     OW29029   4.238   0.270   7.175 -0.2873  0.2083 -0.5828
 5799SOL    HW129030   4.317   0.264   7.121 -0.0084  0.0418 -0.1577
 5799SOL    HW229031   4.193   0.191   7.147 -1.0793  0.4761 -0.0844
 5800SOL     OW29032   0.862   0.090   7.707 -0.2870 -0.3326 -0.2860
 5800SOL    HW129033   0.829   0.001   7.722 -0.1395 -0.4140 -0.4393
 5800SOL    HW229034   0.934   0.079   7.769 -1.3450 -0.4201  0.9260
 5801SOL     OW29035   4.725   0.154   0.870 -0.6946  0.0785  0.7006
 5801SOL    HW129036   4.727   0.083   0.934  0.8454 -1.4365 -1.0211
 5801SOL    HW229037   4.633   0.177   0.859 -0.5270  0.4246  0.0419
 5802SOL     OW29038   0.883   0.859   4.085 -0.5872  0.3025 -0.3782
 5802SOL    HW129039   0.789   0.842   4.072 -0.2738 -0.4207 -1.7018
 5802SOL    HW229040   0.898   0.916   4.009  1.4870 -1.0247 -0.9659
 5803SOL     OW29041   0.400   2.272   7.199  0.8245 -0.7587  0.3427
 5803SOL    HW129042   0.364   2.209   7.261  3.3206 -2.0307  0.4857
 5803SOL    HW229043   0.389   2.352   7.250  1.8847  0.1278 -0.8152
 5804SOL     OW29044   2.204   2.837   2.326 -0.3604  0.3211 -0.0297
 5804SOL    HW129045   2.140   2.888   2.276  0.3833  0.6898 -0.6078
 5804SOL    HW229046   2.173   2.748   2.307  1.3659 -0.2548 -0.0951
 5805SOL     OW29047   0.142   0.270   0.684  0.5644  0.5747  0.0506
 5805SOL    HW129048   0.088   0.221   0.746  1.7634  1.3787  1.7386
 5805SOL    HW229049   0.079   0.339   0.662 -0.1554 -0.4208 -1.0148
 5806SOL     OW29050   1.080   0.232   2.672  0.3667  0.2135 -0.1955
 5806SOL    HW129051   1.163   0.236   2.624  0.2130  0.4961 -0.4342
 5806SOL    HW229052   1.107   0.240   2.763  1.7984  0.7037 -0.6658
 5807SOL     OW29053   3.660   0.640   5.715  0.2141 -0.5208 -0.0392
 5807SOL    HW129054   3.718   0.701   5.669  1.0148  0.2267  1.9952
 5807SOL    HW229055   3.635   0.699   5.786  3.0755 -0.2999  0.7711
 5808SOL     OW29056   2.640   4.251   2.842  0.0183 -0.4937 -0.8250
 5808SOL    HW129057   2.726   4.234   2.804  0.6112 -0.4554  0.4731
 5808SOL    HW229058   2.583   4.218   2.773  0.4510 -0.1355 -1.3536
 5809SOL     OW29059   3.251   1.275  14.210  0.0805  0.9501  0.3038
 5809SOL    HW129060   3.224   1.187  14.236 -0.0024  0.4552 -1.4513
 5809SOL    HW229061   3.174   1.329  14.228 -1.2447 -0.7330 -0.3017
 5810SOL     OW29062   3.418   1.434   7.511  0.1611 -0.1462  0.4301
 5810SOL    HW129063   3.487   1.367   7.512  1.4644  1.1800 -0.5008
 5810SOL    HW229064   3.422   1.471   7.423 -1.5548  0.2614  0.5235
 5811SOL     OW29065   0.645   1.049   4.887 -0.4116  0.0645 -0.3309
 5811SOL    HW129066   0.637   1.061   4.981 -1.4761  2.1158 -0.6733
 5811SOL    HW229067   0.625   1.137   4.853 -0.3452  0.1076 -0.2569
 5812SOL     OW29068   0.877   2.819  15.311 -0.5822 -0.3048 -0.8770
 5812SOL    HW129069   0.956   2.817  15.365 -0.7362  0.5944 -0.6124
 5812SOL    HW229070   0.824   2.863  15.377  1.8959  3.0922 -1.2001
 5813SOL     OW29071   2.180   3.973   3.599 -0.2544  0.1145 -0.3121
 5813SOL    HW129072   2.171   4.068   3.589  2.0128  0.2266 -1.3275
 5813SOL    HW229073   2.150   3.957   3.688 -0.1572  0.6240 -0.1886
 5814SOL     OW29074   2.495   0.548   7.101  0.2192  0.2881  0.3809
 5814SOL    HW129075   2.528   0.618   7.045 -0.6952  1.2441  1.0207
 5814SOL    HW229076   2.460   0.603   7.171  0.8224  0.0845  0.8394
 5815SOL     OW29077   3.082   3.332   4.698  0.0168  0.3756 -0.0589
 5815SOL    HW129078   3.072   3.249   4.650  1.3084  0.5145 -0.5646
 5815SOL    HW229079   3.084   3.394   4.625 -1.1321  1.3243  0.7034
 5816SOL     OW29080   2.388   1.947   5.286 -0.0062 -0.0593 -0.3700
 5816SOL    HW129081   2.481   1.950   5.309 -0.1672  1.3099  0.0682
 5816SOL    HW229082   2.397   1.924   5.193 -1.4308  0.3366 -0.6046
 5817SOL     OW29083   0.489   4.378  17.014  0.3296 -0.2509 -0.0686
 5817SOL    HW129084   0.537   4.369  16.932 -2.6324 -2.9928 -1.4955
 5817SOL    HW229085   0.408   4.333  16.992 -0.0264 -0.5538  1.8478
 5818SOL     OW29086   3.408   2.585   5.472 -0.1698  0.0338  0.0505
 5818SOL    HW129087   3.365   2.670   5.467 -2.6362 -1.2499 -0.1823
 5818SOL    HW229088   3.437   2.565   5.383 -1.3250  0.3220 -0.3797
 5819SOL     OW29089   3.050   1.130  17.504  0.4254 -0.1927  0.2079
 5819SOL    HW129090   3.093   1.174  17.577 -2.4579  0.4264  1.5459
 5819SOL    HW229091   3.071   1.039  17.527 -0.7429 -0.8649 -1.3169
 5820SOL     OW29092   0.016   0.421   7.116  0.1907  0.2574  0.6962
 5820SOL    HW129093   0.027   0.433   7.210 -0.0979 -1.7817  0.9891
 5820SOL    HW229094   0.103   0.401   7.081 -0.0669 -1.8249  1.2647
 5821SOL     OW29095   0.667   2.780   0.219  0.8644  0.5016 -0.3764
 5821SOL    HW129096   0.749   2.830   0.222 -0.9559  3.3989  1.0259
 5821SOL    HW229097   0.616   2.816   0.292  0.5513 -0.8361  0.0689
 5822SOL     OW29098   1.215   0.883   0.812  0.1944  0.6506 -0.0263
 5822SOL    HW129099   1.170   0.828   0.748  1.0891  0.7167 -0.7128
 5822SOL    HW229100   1.143   0.882   0.875  1.7803 -1.1793  1.7855
 5823SOL     OW29101   1.707   2.115   2.495  0.0720  0.0355 -0.7706
 5823SOL    HW129102   1.621   2.074   2.498  0.6386 -1.0467  0.4900
 5823SOL    HW229103   1.742   2.078   2.414  2.4382  0.3570  0.0960
 5824SOL     OW29104   2.820   2.844   2.068  0.4563  0.0265 -0.0594
 5824SOL    HW129105   2.910   2.854   2.036  1.7504 -2.0789  3.0243
 5824SOL    HW229106   2.822   2.842   2.163 -2.1381  2.5987  0.0533
 5825SOL     OW29107   3.038   2.318   2.684 -0.3687  0.1211  0.4078
 5825SOL    HW129108   3.004   2.269   2.609  2.2062 -1.6909  0.4322
 5825SOL    HW229109   3.100   2.380   2.647 -1.5110 -1.7729 -4.6395
 5826SOL     OW29110   0.249   0.165   8.781  0.1479 -0.3802  0.5523
 5826SOL    HW129111   0.154   0.173   8.775  0.2775  0.6823 -0.0769
 5826SOL    HW229112   0.279   0.170   8.690  1.3358 -1.6047  0.8712
 5827SOL     OW29113   3.836   1.991   1.016  1.1856 -0.0382 -0.1241
 5827SOL    HW129114   3.810   1.962   0.928 -1.0515  0.8316  0.2326
 5827SOL    HW229115   3.876   1.918   1.063  0.8498 -1.2621 -1.7245
 5828SOL     OW29116   3.986   0.109   6.169 -0.2711 -0.1180 -0.2175
 5828SOL    HW129117   3.919   0.047   6.197 -2.4201  1.9401 -0.7865
 5828SOL    HW229118   3.983   0.177   6.237  2.0952 -0.9724  0.7353
 5829SOL     OW29119   2.266   2.892  16.621  0.1512  0.0476 -0.7056
 5829SOL    HW129120   2.304   2.979  16.614 -2.0187  1.0374 -0.2141
 5829SOL    HW229121   2.206   2.884  16.546 -0.2221  0.0920 -0.4139
 5830SOL     OW29122   0.652   1.602  11.121 -0.1988 -0.7523 -0.7501
 5830SOL    HW129123   0.573   1.553  11.097 -0.4033 -0.6095 -0.3658
 5830SOL    HW229124   0.616   1.661  11.187 -0.5424 -0.4229 -1.2384
 5831SOL     OW29125   2.629   0.331   5.821  0.0991 -0.1673 -0.7459
 5831SOL    HW129126   2.605   0.326   5.914 -0.2815  0.7711 -0.7944
 5831SOL    HW229127   2.578   0.263   5.778  2.0883 -2.4993  0.5677
 5832SOL     OW29128   1.176   4.588  11.743  0.2592  0.5433 -0.0138
 5832SOL    HW129129   1.193   4.500  11.774 -0.4018 -0.3215 -2.1212
 5832SOL    HW229130   1.081   4.581  11.731  0.2823 -0.6112  0.5931
 5833SOL     OW29131   4.357   0.613   3.080 -0.4535 -0.6466  0.0595
 5833SOL    HW129132   4.366   0.587   2.988 -0.4530 -1.1388  0.2008
 5833SOL    HW229133   4.297   0.687   3.074 -0.1276 -0.3079  1.0778
 5834SOL     OW29134   3.956   0.295   0.072 -0.2061 -0.3706  0.1792
 5834SOL    HW129135   3.979   0.287  17.741  3.2090  0.3457  0.9947
 5834SOL    HW229136   3.914   0.212   0.094  2.2677 -1.5524  0.3963
 5835SOL     OW29137   3.754   2.076   1.410 -0.3664 -0.3676  0.3379
 5835SOL    HW129138   3.759   2.125   1.328 -1.4305  1.0307  1.1053
 5835SOL    HW229139   3.794   1.995   1.378 -0.5589  0.6745 -2.5503
 5836SOL     OW29140   4.376   0.930   1.900  0.3077  0.4541 -0.6436
 5836SOL    HW129141   4.394   0.863   1.833  1.2351 -1.4156  1.4922
 5836SOL    HW229142   4.326   0.996   1.852  0.5409  0.5572 -0.7456
 5837SOL     OW29143   0.959   3.487  12.989  0.7810  0.3187  0.7879
 5837SOL    HW129144   1.028   3.540  12.949  1.4393 -1.7981 -0.8657
 5837SOL    HW229145   1.003   3.403  12.980 -1.2065 -0.6441  0.0726
 5838SOL     OW29146   2.838   3.223   7.360  0.0666 -0.6002 -0.1461
 5838SOL    HW129147   2.895   3.287   7.318 -0.6395 -0.7816 -1.4062
 5838SOL    HW229148   2.879   3.206   7.445 -0.8475  2.6176  0.9397
 5839SOL     OW29149   1.592   3.897   6.066  0.3743 -0.2497 -0.4672
 5839SOL    HW129150   1.527   3.829   6.052 -0.6461  0.4309  1.0441
 5839SOL    HW229151   1.599   3.911   6.160  0.8832  0.8158 -0.6608
 5840SOL     OW29152   1.337   1.256   4.955 -0.1152 -0.3618  0.9766
 5840SOL    HW129153   1.425   1.270   4.919 -0.6043  0.4236  0.0905
 5840SOL    HW229154   1.294   1.256   4.870  0.4833 -0.4665  0.6721
 5841SOL     OW29155   1.987   1.980  12.222 -0.2121  0.2940 -0.3732
 5841SOL    HW129156   2.028   2.042  12.283  0.4245  0.2880 -0.7946
 5841SOL    HW229157   1.895   1.989  12.247 -0.0457  1.3365 -0.1382
 5842SOL     OW29158   0.754   2.652   6.943  0.6912 -0.2671 -0.6468
 5842SOL    HW129159   0.793   2.733   6.910  1.3094  0.2434  1.3462
 5842SOL    HW229160   0.808   2.638   7.021 -1.8675  0.6203  1.2613
 5843SOL     OW29161   3.779   4.728   6.838  0.6828  0.6419 -0.0161
 5843SOL    HW129162   3.776   0.081   6.825 -1.1685  0.4805 -0.7769
 5843SOL    HW229163   3.864   4.713   6.796  0.4025  3.5469 -1.6240
 5844SOL     OW29164   3.097   1.802  11.977 -0.7993  0.2338  0.0808
 5844SOL    HW129165   3.104   1.836  12.066  1.1247  0.3171 -0.1167
 5844SOL    HW229166   3.123   1.880  11.929  2.3553  1.0095  3.1067
 5845SOL     OW29167   2.636   2.996   2.696 -0.1626  0.0706  0.0092
 5845SOL    HW129168   2.590   2.957   2.771 -0.0998 -0.2890 -0.1378
 5845SOL    HW229169   2.565   2.993   2.632 -0.2843 -0.4352  0.1648
 5846SOL     OW29170   4.664   1.003   5.186  0.5596 -0.6271  0.1887
 5846SOL    HW129171   4.723   1.068   5.223  0.9382 -1.0457  0.3112
 5846SOL    HW229172   4.693   0.993   5.095  0.2387 -0.4715  0.0679
 5847SOL     OW29173   0.791   2.991  15.131 -0.6972  0.3079 -0.0145
 5847SOL    HW129174   0.743   2.952  15.058  0.7465 -0.0769 -0.7370
 5847SOL    HW229175   0.815   2.912  15.178 -0.9819  1.0855  1.4601
 5848SOL     OW29176   2.041   3.334   5.332  0.1357  0.5840 -0.2735
 5848SOL    HW129177   2.042   3.309   5.424 -0.1395  1.1552 -0.1134
 5848SOL    HW229178   2.126   3.380   5.330 -0.9033  2.5567  0.8891
 5849SOL     OW29179   1.989   0.174  15.900 -0.3375 -0.5108  0.1593
 5849SOL    HW129180   1.981   0.203  15.809 -1.0865  0.2897  0.4849
 5849SOL    HW229181   1.984   0.259  15.944 -1.3460 -0.9230  0.8445
 5850SOL     OW29182   0.886   4.613   2.555 -0.1313  0.4621  0.5831
 5850SOL    HW129183   0.914   4.599   2.464  1.3724  0.3322  1.0743
 5850SOL    HW229184   0.956   4.577   2.609 -1.2868 -0.9318  1.1797
 5851SOL     OW29185   0.861   4.529  12.331 -0.2137 -0.0169  0.7609
 5851SOL    HW129186   0.810   4.479  12.267  1.8693  1.0155 -1.7147
 5851SOL    HW229187   0.938   4.473  12.338 -0.6250 -0.6381  0.2519
 5852SOL     OW29188   4.733   2.509   3.383  0.1005 -0.7055 -0.1374
 5852SOL    HW129189   0.010   2.597   3.417  0.7945 -1.6549  1.9618
 5852SOL    HW229190   4.737   2.453   3.461 -1.0149 -0.8173 -0.1581
 5853SOL     OW29191   1.305   2.511   7.846  0.2946 -0.0777  0.0387
 5853SOL    HW129192   1.310   2.605   7.862  3.4539 -0.1134 -0.8193
 5853SOL    HW229193   1.222   2.496   7.800  0.4658  0.7041 -0.5328
 5854SOL     OW29194   2.459   0.354   6.839  0.3644 -0.1568  0.1328
 5854SOL    HW129195   2.516   0.357   6.763  1.4910  0.8476  1.0155
 5854SOL    HW229196   2.517   0.383   6.910  0.7042  2.2149 -1.1044
 5855SOL     OW29197   4.701   2.235   8.487 -0.2705 -0.1316  0.3023
 5855SOL    HW129198   4.655   2.226   8.404 -0.1381  2.2934 -0.0292
 5855SOL    HW229199   4.639   2.282   8.544 -1.4675  0.1235 -1.2266
 5856SOL     OW29200   4.670   0.986  12.985 -0.1585 -0.5985 -0.0333
 5856SOL    HW129201   4.731   0.998  12.912  0.2438  0.9658  0.5472
 5856SOL    HW229202   4.710   0.919  13.041 -2.5112 -2.0957 -0.1482
 5857SOL     OW29203   0.155   1.808   6.879 -0.5255 -0.9601  0.4851
 5857SOL    HW129204   0.220   1.851   6.934 -0.1423  1.7753 -2.0784
 5857SOL    HW229205   0.209   1.756   6.819  0.0649  1.9899 -1.5734
 5858SOL     OW29206   3.207   2.704   4.820 -0.1057  0.0807  0.1667
 5858SOL    HW129207   3.294   2.712   4.860 -0.9485 -0.0401  1.9964
 5858SOL    HW229208   3.187   2.611   4.833  1.3115 -0.4583 -1.4449
 5859SOL     OW29209   1.779   1.420  13.107  0.0800 -0.3294 -0.5031
 5859SOL    HW129210   1.821   1.401  13.023 -1.1808 -1.2742 -0.9119
 5859SOL    HW229211   1.705   1.472  13.076  2.2057  2.3601 -1.0071
 5860SOL     OW29212   3.859   4.555   1.318  0.3344 -0.2679 -0.1872
 5860SOL    HW129213   3.884   4.490   1.384 -0.5671  0.1052  0.5158
 5860SOL    HW229214   3.826   4.631   1.365  0.1445 -1.0016  0.8710
 5861SOL     OW29215   2.426   4.034   0.867 -0.2448  0.2135  0.2691
 5861SOL    HW129216   2.385   4.120   0.875 -0.4521  0.3232 -1.9992
 5861SOL    HW229217   2.360   3.979   0.825 -0.4070 -0.2525  1.1250
 5862SOL     OW29218   0.314   1.033   6.583 -0.0635  0.3664  0.0366
 5862SOL    HW129219   0.366   0.969   6.534 -1.4582 -1.5397  0.9999
 5862SOL    HW229220   0.316   1.110   6.528  1.2700  0.2330 -0.0871
 5863SOL     OW29221   2.914   2.187  17.541 -0.5355  0.1721  0.1500
 5863SOL    HW129222   2.970   2.127  17.591  0.9600  1.3985 -0.0440
 5863SOL    HW229223   2.866   2.136  17.475 -0.5837 -0.1070  0.4004
 5864SOL     OW29224   2.539   0.189   2.624  0.0782 -0.0587  0.1744
 5864SOL    HW129225   2.551   0.158   2.714  1.0634  1.7829  0.6641
 5864SOL    HW229226   2.556   0.104   2.581  1.0536 -0.2103  0.8422
 5865SOL     OW29227   4.715   0.461   3.742 -0.0689  0.5980 -0.7262
 5865SOL    HW129228   0.019   0.546   3.744  1.2167 -0.0319 -3.1897
 5865SOL    HW229229   0.046   0.405   3.770 -0.2897  0.6529 -0.0320
 5866SOL     OW29230   1.239   2.054   5.063  0.2009 -0.0048  0.2987
 5866SOL    HW129231   1.279   1.993   5.001 -0.8019  0.0205 -0.3756
 5866SOL    HW229232   1.313   2.090   5.112 -0.2139 -0.1428  1.0365
 5867SOL     OW29233   1.720   2.774   9.607 -0.5170 -0.1259  0.1761
 5867SOL    HW129234   1.767   2.733   9.535  0.0014  1.5915 -0.4596
 5867SOL    HW229235   1.698   2.859   9.570 -0.3956  0.3674  1.2284
 5868SOL     OW29236   3.603   2.811   5.936 -1.0947 -0.5616  0.4413
 5868SOL    HW129237   3.507   2.815   5.931 -0.8921  2.1497 -1.2386
 5868SOL    HW229238   3.615   2.904   5.914  0.9341 -1.1189 -0.8028
 5869SOL     OW29239   2.569   0.881   6.377 -0.1949 -0.1177 -0.3927
 5869SOL    HW129240   2.536   0.925   6.455  1.3216  0.5831 -0.1413
 5869SOL    HW229241   2.489   0.864   6.326 -1.8449  2.3414  1.3599
 5870SOL     OW29242   4.568   0.426  17.388  0.1065 -0.2233 -0.4571
 5870SOL    HW129243   4.489   0.373  17.381  1.0142 -1.3637 -2.0250
 5870SOL    HW229244   4.615   0.382  17.459 -0.9809  1.0713  1.0592
 5871SOL     OW29245   1.194   4.008   4.473 -0.5245  0.1210 -0.3482
 5871SOL    HW129246   1.198   3.974   4.563  0.1629 -1.4842 -0.9846
 5871SOL    HW229247   1.099   4.016   4.467 -0.5722  0.9106  1.6005
 5872SOL     OW29248   3.624   4.498   0.265 -0.0411  0.0807  0.1152
 5872SOL    HW129249   3.639   4.528   0.354  0.3636 -1.3484  0.5305
 5872SOL    HW229250   3.675   4.417   0.257  0.5072  0.3653  0.8081
 5873SOL     OW29251   2.863   0.965  10.973 -0.0421 -0.3248 -0.4115
 5873SOL    HW129252   2.798   1.035  10.975 -3.1054 -3.1775 -1.3733
 5873SOL    HW229253   2.810   0.885  10.972  0.6131 -0.7850  0.8611
 5874SOL     OW29254   0.424   1.504   5.563 -0.1483 -0.2748 -0.7303
 5874SOL    HW129255   0.408   1.418   5.601  0.1614 -0.5806 -1.3051
 5874SOL    HW229256   0.350   1.492   5.504 -1.7639  3.0764  0.5742
 5875SOL     OW29257   0.957   4.313  14.516 -0.8131  0.0444  0.4043
 5875SOL    HW129258   0.947   4.278  14.604  0.3539 -1.9946 -0.2514
 5875SOL    HW229259   0.971   4.235  14.461 -2.2040 -0.7965  1.2236
 5876SOL     OW29260   1.761   0.434   3.281  0.4616 -1.0841 -0.3284
 5876SOL    HW129261   1.711   0.414   3.360 -1.3805  1.7906 -0.7922
 5876SOL    HW229262   1.710   0.508   3.248  2.3034  0.7711  1.0064
 5877SOL     OW29263   0.640   0.356   8.295  0.6978 -0.1242 -0.0326
 5877SOL    HW129264   0.652   0.444   8.329  1.2036 -0.5883  0.9900
 5877SOL    HW229265   0.717   0.319   8.338  0.0418  2.3134  3.1987
 5878SOL     OW29266   2.678   2.974   1.698 -0.1687 -0.1571 -0.0519
 5878SOL    HW129267   2.702   2.893   1.653 -1.0131  0.9043 -2.4510
 5878SOL    HW229268   2.640   2.943   1.780  0.2001 -1.7567 -0.4903
 5879SOL     OW29269   1.043   0.035   3.144 -0.3539  0.0710 -1.0166
 5879SOL    HW129270   1.009   0.073   3.225  0.8016 -2.3495  0.5723
 5879SOL    HW229271   0.979   4.707   3.127  0.5106 -1.6028  2.6070
 5880SOL     OW29272   3.870   3.881   2.073 -0.2190  0.5230 -0.0945
 5880SOL    HW129273   3.831   3.968   2.073  0.2685  0.7408 -0.9412
 5880SOL    HW229274   3.825   3.848   2.151 -0.4481  0.4692 -0.2492
 5881SOL     OW29275   1.609   4.205   0.318  0.1016  0.9077  0.4345
 5881SOL    HW129276   1.594   4.232   0.409  1.1815  0.2685  0.7966
 5881SOL    HW229277   1.703   4.191   0.318  0.3524  2.5297 -0.6491
 5882SOL     OW29278   0.954   3.866   4.303 -0.0963 -0.4048  0.2873
 5882SOL    HW129279   0.903   3.942   4.274  0.8965  0.6003  1.1769
 5882SOL    HW229280   1.027   3.851   4.244  1.9586  0.7302  2.5215
 5883SOL     OW29281   1.640   1.099   7.573  0.3870 -0.1653 -0.1900
 5883SOL    HW129282   1.559   1.094   7.522  0.1961  0.0827  0.0822
 5883SOL    HW229283   1.676   1.026   7.523 -2.1629 -1.6217  0.0588
 5884SOL     OW29284   0.957   1.799  15.789  0.2555 -0.3333 -0.4152
 5884SOL    HW129285   1.020   1.812  15.860  1.0091 -2.0878 -0.7732
 5884SOL    HW229286   1.025   1.795  15.721 -0.1294 -1.2457 -0.7451
 5885SOL     OW29287   3.336   4.695   4.220 -0.1430  0.3665 -0.3806
 5885SOL    HW129288   3.266   4.680   4.156 -0.4061  0.4414 -0.1094
 5885SOL    HW229289   3.348   4.617   4.274  0.4214  0.9782  0.3696
 5886SOL     OW29290   2.569   1.324   8.621  0.2130 -0.0253  0.0798
 5886SOL    HW129291   2.553   1.408   8.664 -0.9381 -1.8540  3.2355
 5886SOL    HW229292   2.557   1.266   8.696  0.7002 -0.6326 -0.3162
 5887SOL     OW29293   1.896   1.738   6.067  0.0760  0.1318  0.4495
 5887SOL    HW129294   1.885   1.643   6.077 -0.5858  0.0108 -1.5017
 5887SOL    HW229295   1.919   1.767   6.156  0.9609  3.3113 -0.8260
 5888SOL     OW29296   0.052   1.912   2.703 -0.0623  0.3009 -0.1637
 5888SOL    HW129297   0.131   1.936   2.753  0.2738  1.1405 -1.1013
 5888SOL    HW229298   0.043   1.825   2.743  1.6644 -0.3118 -1.1004
 5889SOL     OW29299   1.113   2.955   7.551 -0.2322 -0.0155  0.6574
 5889SOL    HW129300   1.107   3.044   7.516 -1.9278 -0.5665 -0.4734
 5889SOL    HW229301   1.197   2.920   7.523  0.4440  1.1219  1.2595
 5890SOL     OW29302   2.160   2.559  11.856  0.2509  0.8153 -0.3803
 5890SOL    HW129303   2.202   2.637  11.891 -2.2737  1.9884  0.0386
 5890SOL    HW229304   2.072   2.584  11.883 -1.0660 -2.0606 -2.0500
 5891SOL     OW29305   1.459   3.481   3.749 -0.4410  0.3470  0.6228
 5891SOL    HW129306   1.541   3.450   3.787 -1.0185 -2.3646 -0.4134
 5891SOL    HW229307   1.478   3.500   3.657  1.9651 -1.3260  0.7837
 5892SOL     OW29308   3.181   3.377   6.030 -0.3473  0.4892  0.1136
 5892SOL    HW129309   3.268   3.355   5.997 -0.2356 -1.2791  1.5853
 5892SOL    HW229310   3.198   3.444   6.097  0.3051 -0.1470  0.5829
 5893SOL     OW29311   0.411   1.821   5.497 -0.2940  0.1367 -0.1611
 5893SOL    HW129312   0.346   1.751   5.484  0.7916 -0.9020  0.0049
 5893SOL    HW229313   0.460   1.776   5.566  0.9440 -1.3606 -2.0283
 5894SOL     OW29314   1.024   4.639   4.082 -0.5316 -0.0115  0.1065
 5894SOL    HW129315   0.964   4.714   4.083  0.0111  0.4246  0.0297
 5894SOL    HW229316   0.987   4.574   4.023  2.2887  0.3948 -2.1300
 5895SOL     OW29317   2.558   3.896   8.801  0.6004  0.2467  0.5430
 5895SOL    HW129318   2.599   3.982   8.802 -0.3803  0.7334 -1.6143
 5895SOL    HW229319   2.512   3.905   8.718  1.1592  3.1309  0.5709
 5896SOL     OW29320   2.900   0.631   5.915 -0.1744 -0.4027 -0.9730
 5896SOL    HW129321   2.841   0.703   5.935  0.0889 -0.1173 -1.2137
 5896SOL    HW229322   2.985   0.653   5.952  0.5327 -0.5332 -2.4883
 5897SOL     OW29323   1.986   2.988   7.702 -0.0684  0.0853 -0.3677
 5897SOL    HW129324   2.052   3.045   7.741 -2.5331  2.1305  0.7640
 5897SOL    HW229325   1.913   2.994   7.762 -0.2123  0.4702 -0.5794
 5898SOL     OW29326   2.180   3.295  12.651 -0.3731  0.0594 -0.1933
 5898SOL    HW129327   2.255   3.291  12.591 -1.7918  0.7944 -2.0196
 5898SOL    HW229328   2.217   3.291  12.739 -0.7372 -0.6860 -0.0713
 5899SOL     OW29329   1.066   4.246   2.475 -0.1941  0.4071  0.3666
 5899SOL    HW129330   1.133   4.237   2.407 -0.9440  0.9173 -0.4453
 5899SOL    HW229331   1.060   4.342   2.478  0.5339  0.4610  0.1013
 5900SOL     OW29332   0.319   1.081   4.837  0.5159 -0.1644  0.2545
 5900SOL    HW129333   0.317   1.036   4.752 -2.8670 -0.4344  0.4702
 5900SOL    HW229334   0.409   1.067   4.866  1.4471  2.4383 -1.3672
 5901SOL     OW29335   2.465   1.014   6.605 -0.6020  1.0573 -0.9113
 5901SOL    HW129336   2.510   1.086   6.650  1.9355 -1.5546  0.7001
 5901SOL    HW229337   2.463   0.940   6.665 -2.4768  1.0575 -0.9933
 5902SOL     OW29338   3.489   4.736  17.750  0.0699  0.0562  0.1516
 5902SOL    HW129339   3.482   4.651   0.031 -0.3623 -0.8089 -1.6128
 5902SOL    HW229340   3.562   4.727  17.689  0.3162 -0.9741  0.6022
 5903SOL     OW29341   1.765   3.521   6.332 -0.2822 -0.3743 -0.2526
 5903SOL    HW129342   1.803   3.575   6.263  2.4690  0.7060  2.0742
 5903SOL    HW229343   1.834   3.536   6.397 -0.5677 -1.2477  0.2626
 5904SOL     OW29344   2.888   2.927  15.224 -0.0009  0.1337  0.5757
 5904SOL    HW129345   2.834   3.001  15.251  0.1855 -0.1196  1.6412
 5904SOL    HW229346   2.872   2.935  15.130 -0.6596  2.1789  0.8559
 5905SOL     OW29347   3.485   1.884   2.780 -0.1146 -0.1685 -1.1475
 5905SOL    HW129348   3.529   1.852   2.858  0.3750  1.1288 -0.9013
 5905SOL    HW229349   3.413   1.937   2.814  1.3609  1.2153 -0.2055
 5906SOL     OW29350   1.539   0.450   3.468 -0.4415 -0.0153  0.3529
 5906SOL    HW129351   1.473   0.381   3.478 -1.1017  0.5975  0.1619
 5906SOL    HW229352   1.496   0.530   3.496  1.9110  0.2906  3.2417
 5907SOL     OW29353   1.285   1.879   5.571  0.3825 -0.5153  0.7457
 5907SOL    HW129354   1.288   1.886   5.476 -0.3681  0.9215  0.8322
 5907SOL    HW229355   1.371   1.908   5.602 -0.0432 -0.2752  1.7109
 5908SOL     OW29356   1.888   1.325   0.462  1.0242 -0.5668  0.0369
 5908SOL    HW129357   1.918   1.303   0.551  1.0082  1.3912  0.5308
 5908SOL    HW229358   1.970   1.333   0.414  0.9868  0.1085  0.0878
 5909SOL     OW29359   3.013   4.443   5.673  0.0300 -0.3192  0.1721
 5909SOL    HW129360   3.084   4.379   5.671 -0.5417 -0.9512  0.2774
 5909SOL    HW229361   3.001   4.456   5.579  0.5340 -0.9357  0.0200
 5910SOL     OW29362   2.457   3.637  13.596  0.4995 -0.6988  0.1690
 5910SOL    HW129363   2.497   3.655  13.511  0.7841  0.9565  0.6647
 5910SOL    HW229364   2.515   3.569  13.630 -1.1855 -2.3412 -0.2254
 5911SOL     OW29365   4.565   0.718  11.314 -0.6617 -1.3010 -0.3308
 5911SOL    HW129366   4.571   0.653  11.245 -0.5016  0.0475 -1.5927
 5911SOL    HW229367   4.635   0.689  11.372 -0.6895 -1.2997 -0.2965
 5912SOL     OW29368   2.141   4.556  12.278 -0.3350 -0.4596  0.2368
 5912SOL    HW129369   2.215   4.615  12.291 -0.5320 -0.3123  0.6894
 5912SOL    HW229370   2.104   4.560  12.366  0.0204  0.4640  0.3422
 5913SOL     OW29371   3.574   2.842   5.130 -0.3990  0.7537  0.1304
 5913SOL    HW129372   3.651   2.819   5.181 -0.3217 -1.0747 -0.8213
 5913SOL    HW229373   3.567   2.938   5.135 -2.1377  0.7154 -1.3255
 5914SOL     OW29374   4.331   1.986   5.397 -0.2219 -0.4027  0.3889
 5914SOL    HW129375   4.266   2.055   5.413  0.1937  0.3341 -1.1132
 5914SOL    HW229376   4.408   2.039   5.378 -1.1195  0.1593 -1.6585
 5915SOL     OW29377   0.837   1.887  13.517  0.6089  0.3479 -0.3525
 5915SOL    HW129378   0.792   1.951  13.462  0.0478 -1.0947 -1.5483
 5915SOL    HW229379   0.781   1.811  13.507  0.3790  0.3238  1.1966
 5916SOL     OW29380   2.608   2.685  13.401  0.3620  0.3128 -0.3330
 5916SOL    HW129381   2.683   2.724  13.445 -0.0696  2.4123 -1.4174
 5916SOL    HW229382   2.648   2.692  13.314  1.1707  1.0431  0.0945
 5917SOL     OW29383   2.745   3.111   5.893 -0.0473 -0.6861 -0.0943
 5917SOL    HW129384   2.753   3.019   5.870  0.0493 -0.7956  0.3821
 5917SOL    HW229385   2.701   3.134   5.811 -1.5824 -0.5809  0.7661
 5918SOL     OW29386   2.377   4.166   8.347 -0.4680  0.4987  0.0177
 5918SOL    HW129387   2.465   4.160   8.310 -1.2822 -1.7354 -1.5139
 5918SOL    HW229388   2.367   4.074   8.368 -3.8056  0.4826 -1.5535
 5919SOL     OW29389   3.909   3.570   2.863 -0.0449 -0.5049 -0.7530
 5919SOL    HW129390   3.961   3.490   2.855 -0.0375 -0.6550  0.7384
 5919SOL    HW229391   3.820   3.537   2.878  0.0182 -0.9991 -1.4844
 5920SOL     OW29392   3.939   0.242  11.148 -0.0885 -0.0824 -0.0981
 5920SOL    HW129393   4.007   0.239  11.215  1.0716  1.8017 -1.1947
 5920SOL    HW229394   3.863   0.244  11.206 -1.2571 -0.4812 -1.6074
 5921SOL     OW29395   2.629   4.080   0.626  0.1653  0.1764 -0.8720
 5921SOL    HW129396   2.628   4.081   0.530  0.7023 -1.8306 -0.8954
 5921SOL    HW229397   2.558   4.017   0.638  2.7567 -2.2911  1.4713
 5922SOL     OW29398   3.360   1.057   5.911  0.0436 -0.2856  0.2585
 5922SOL    HW129399   3.429   1.025   5.969  1.5736 -0.8704 -1.9095
 5922SOL    HW229400   3.299   1.078   5.982 -0.3174 -1.2147  0.2237
 5923SOL     OW29401   4.166   2.438   7.032  0.3985 -0.0938  0.8425
 5923SOL    HW129402   4.107   2.491   6.979  1.7299  0.9356  0.3850
 5923SOL    HW229403   4.132   2.349   7.024 -1.3196  0.3951  2.6928
 5924SOL     OW29404   2.100   4.601   8.400  0.5005 -0.2871 -0.2247
 5924SOL    HW129405   2.129   4.544   8.471  0.4269  0.7751  0.6693
 5924SOL    HW229406   2.186   4.620   8.364  2.0605  0.1733  3.6925
 5925SOL     OW29407   3.954   3.639   2.305 -0.2667 -0.2014 -0.0216
 5925SOL    HW129408   3.939   3.550   2.272 -0.8598 -0.0325 -0.2110
 5925SOL    HW229409   3.953   3.632   2.400  2.5919  0.1941  0.0195
 5926SOL     OW29410   0.027   2.202   8.084 -0.0550 -0.3190  0.3119
 5926SOL    HW129411   4.709   2.277   8.079 -0.4160 -0.6675 -0.7133
 5926SOL    HW229412   0.110   2.245   8.067  0.5034 -1.5238  0.0037
 5927SOL     OW29413   3.000   4.628  17.553  0.0155 -0.0334  0.0413
 5927SOL    HW129414   3.038   4.632  17.641  0.1134  0.5330 -0.0292
 5927SOL    HW229415   3.082   4.635  17.504 -0.5281  2.0485 -0.5474
 5928SOL     OW29416   3.291   0.411   1.938  0.0257 -0.4478 -0.4600
 5928SOL    HW129417   3.374   0.422   1.891  0.9504  1.7526  1.6662
 5928SOL    HW229418   3.307   0.479   2.003 -1.9261 -2.2766  1.9291
 5929SOL     OW29419   0.312   1.498   7.538 -0.5910 -0.0971 -0.3757
 5929SOL    HW129420   0.315   1.402   7.531  2.2147 -0.2672  3.5374
 5929SOL    HW229421   0.402   1.516   7.562 -0.3695 -0.0600 -1.2160
 5930SOL     OW29422   0.057   1.203   7.616 -0.6872 -0.1386 -0.1364
 5930SOL    HW129423   0.045   1.131   7.678  1.2270  0.1379  0.5429
 5930SOL    HW229424   0.138   1.175   7.574 -1.7019  0.3525 -2.3747
 5931SOL     OW29425   3.014   1.190   0.364  0.1626  0.2009 -0.3010
 5931SOL    HW129426   3.027   1.112   0.418  0.4892  1.0136  0.7995
 5931SOL    HW229427   3.046   1.152   0.283  1.1401 -0.1795  0.2574
 5932SOL     OW29428   3.582   4.443  13.289 -0.2565 -0.3173 -0.2087
 5932SOL    HW129429   3.564   4.444  13.383  2.2406 -0.8197  0.2855
 5932SOL    HW229430   3.652   4.378  13.287  1.0854  1.2272 -3.0630
 5933SOL     OW29431   3.082   2.085  12.545  0.3983  0.6965 -0.0842
 5933SOL    HW129432   3.140   2.070  12.470 -0.7901 -2.7333 -0.2971
 5933SOL    HW229433   3.139   2.048  12.612 -0.9415 -0.1093  0.6002
 5934SOL     OW29434   2.847   2.531  10.908  0.0936 -0.6020  0.2942
 5934SOL    HW129435   2.823   2.576  10.827 -1.0527  1.5203  1.8267
 5934SOL    HW229436   2.869   2.597  10.974 -1.6575 -1.2023  1.4743
 5935SOL     OW29437   2.747   0.973   8.514 -0.0970 -0.0068  0.2881
 5935SOL    HW129438   2.814   0.939   8.454  0.0102 -0.2528  0.5468
 5935SOL    HW229439   2.777   0.945   8.600 -0.2691 -0.5679  0.1623
 5936SOL     OW29440   0.368   1.491  12.501 -0.1633 -0.5610  0.6411
 5936SOL    HW129441   0.322   1.513  12.420  1.2503  2.4122  0.6321
 5936SOL    HW229442   0.309   1.417  12.517  1.0099 -2.1189 -2.2016
 5937SOL     OW29443   0.969   4.660  11.368  0.2152 -0.1727 -0.0871
 5937SOL    HW129444   1.005   4.578  11.334 -2.3478 -1.1495 -0.4250
 5937SOL    HW229445   0.886   4.647  11.323 -1.3328  1.3682  2.3114
 5938SOL     OW29446   2.079   0.120   6.426  0.1273  0.7054 -0.3492
 5938SOL    HW129447   2.132   0.159   6.355 -0.7828 -0.0828 -1.4644
 5938SOL    HW229448   2.031   0.052   6.379 -0.0976  0.3909  0.3369
 5939SOL     OW29449   2.610   1.989  16.724 -0.2972  0.2036 -0.5165
 5939SOL    HW129450   2.603   2.081  16.698  2.7070  0.3665 -0.7483
 5939SOL    HW229451   2.658   1.946  16.654 -0.3259  0.6028 -0.7813
 5940SOL     OW29452   2.780   4.143   3.226  0.1691 -0.4173 -0.1150
 5940SOL    HW129453   2.862   4.164   3.183  0.6826  0.6958  1.4318
 5940SOL    HW229454   2.800   4.135   3.319 -2.9196 -0.5672  0.5677
 5941SOL     OW29455   2.013   4.183  17.357  0.0820  0.1066 -0.3351
 5941SOL    HW129456   2.019   4.248  17.287 -1.4828 -0.5124 -1.0293
 5941SOL    HW229457   2.068   4.219  17.427  1.2335  1.0907 -1.7519
 5942SOL     OW29458   2.337   1.723   8.021 -0.8111 -0.0643 -0.3406
 5942SOL    HW129459   2.263   1.780   8.041 -0.8210 -0.1264 -0.1972
 5942SOL    HW229460   2.319   1.702   7.929  0.0353 -1.1941 -0.2624
 5943SOL     OW29461   0.766   4.183   6.010  0.5725  0.2026 -0.3008
 5943SOL    HW129462   0.732   4.165   5.922  0.9957  1.7125 -0.7735
 5943SOL    HW229463   0.806   4.269   5.995 -0.0234  0.1384 -2.2835
 5944SOL     OW29464   0.258   0.728   5.266 -0.2182  0.0358 -0.2885
 5944SOL    HW129465   0.302   0.804   5.305  2.1582 -2.6346  2.2112
 5944SOL    HW229466   0.205   0.701   5.341  1.1327  0.1035  0.7022
 5945SOL     OW29467   0.302   1.644   1.822  0.7074  0.6460  0.3563
 5945SOL    HW129468   0.255   1.575   1.870  3.4188  0.0974  2.2165
 5945SOL    HW229469   0.241   1.717   1.833 -0.6840 -0.5318  0.5228
 5946SOL     OW29470   0.200   3.394  15.720 -0.3497  0.0267 -0.1441
 5946SOL    HW129471   0.222   3.303  15.699 -1.5104 -0.2768 -0.0107
 5946SOL    HW229472   0.131   3.380  15.784 -0.5248 -0.0680 -0.3516
 5947SOL     OW29473   1.245   2.459   9.355  0.1794 -0.6890 -0.4590
 5947SOL    HW129474   1.259   2.446   9.448 -0.1625  0.8546 -0.1956
 5947SOL    HW229475   1.329   2.421   9.327 -0.1347 -0.4581 -1.7504
 5948SOL     OW29476   2.744   0.753  15.589  0.3279 -0.0476  0.3990
 5948SOL    HW129477   2.765   0.685  15.524  1.2537 -0.0821  0.7407
 5948SOL    HW229478   2.669   0.713  15.634  0.6467 -0.3763  0.6387
 5949SOL     OW29479   3.938   3.835   2.955 -0.6908  0.4829  0.5317
 5949SOL    HW129480   3.920   3.747   2.923  0.5988  0.4558 -0.1153
 5949SOL    HW229481   3.923   3.885   2.875  3.9436 -0.2397 -0.8030
 5950SOL     OW29482   3.039   1.023   4.221  0.1692  0.4826  0.3685
 5950SOL    HW129483   3.106   1.047   4.285 -2.3178  1.1770  2.7345
 5950SOL    HW229484   3.044   1.102   4.168  0.3681 -1.0526 -1.8887
 5951SOL     OW29485   1.194   2.646   3.470  0.6896 -0.1465 -0.1400
 5951SOL    HW129486   1.119   2.675   3.418  0.8649  2.9942  1.3608
 5951SOL    HW229487   1.205   2.716   3.534 -1.1759  0.7803 -0.8280
 5952SOL     OW29488   1.977   1.117   4.682 -0.4858 -0.1311  0.1326
 5952SOL    HW129489   1.885   1.114   4.710  0.2998  1.0850  2.8909
 5952SOL    HW229490   1.978   1.198   4.630 -0.1124  0.3600  0.9003
 5953SOL     OW29491   2.448   3.947   2.941  0.6019 -0.1338 -1.0721
 5953SOL    HW129492   2.444   3.915   2.850 -1.0483  1.4644 -1.5634
 5953SOL    HW229493   2.383   4.016   2.928  1.4629  0.8251 -0.1811
 5954SOL     OW29494   2.426   1.167   2.055 -0.0922 -0.4497  0.5643
 5954SOL    HW129495   2.332   1.150   2.051 -0.1588 -0.6903  3.1936
 5954SOL    HW229496   2.446   1.129   2.140  2.0392  2.4869  1.3820
 5955SOL     OW29497   0.232   2.743  10.612 -0.3372 -0.2852 -0.4026
 5955SOL    HW129498   0.314   2.706  10.581 -0.2679 -0.9160  0.5360
 5955SOL    HW229499   0.263   2.803  10.680 -0.0210  1.9251 -2.4746
 5956SOL     OW29500   3.775   2.555   3.449  0.2671  0.2205 -0.4579
 5956SOL    HW129501   3.842   2.576   3.514 -1.3629  1.3127  0.8372
 5956SOL    HW229502   3.744   2.470   3.482 -0.1145  0.7282  0.4779
 5957SOL     OW29503   1.542   4.621   9.383  0.0204 -0.2277 -0.3886
 5957SOL    HW129504   1.487   4.678   9.330 -1.4075  0.3640  1.7250
 5957SOL    HW229505   1.580   4.685   9.443 -0.3306  1.3469 -1.8306
 5958SOL     OW29506   1.042   2.231   4.491  0.1476 -0.1203  0.3598
 5958SOL    HW129507   1.011   2.270   4.572  0.8412  1.0541  0.0530
 5958SOL    HW229508   1.111   2.176   4.528  0.9252 -0.0806 -1.0351
 5959SOL     OW29509   4.366   0.550   2.370 -0.1028  0.0830  0.8627
 5959SOL    HW129510   4.324   0.614   2.312 -0.4031 -0.9072 -0.0033
 5959SOL    HW229511   4.449   0.528   2.327 -1.4853 -0.3808 -1.5391
 5960SOL     OW29512   2.355   2.234   6.778 -0.1119 -0.0432  0.8200
 5960SOL    HW129513   2.363   2.293   6.853  0.1016  1.0978 -0.0999
 5960SOL    HW229514   2.411   2.282   6.717  0.5913 -1.6850  0.1812
 5961SOL     OW29515   4.472   3.774  11.588 -0.0462  0.1031 -0.3934
 5961SOL    HW129516   4.558   3.771  11.631  0.0814  1.4441 -0.5533
 5961SOL    HW229517   4.471   3.681  11.565  2.8063  0.1960 -0.8949
 5962SOL     OW29518   3.038   1.348   4.296 -0.5220  0.4838 -0.1053
 5962SOL    HW129519   3.114   1.397   4.265 -1.0270  0.5967 -1.1697
 5962SOL    HW229520   2.998   1.336   4.210 -0.3301 -0.5759 -0.0412
 5963SOL     OW29521   2.882   3.480   6.239  0.8841  0.7126  0.0404
 5963SOL    HW129522   2.888   3.573   6.261 -2.2073  1.1701 -1.0399
 5963SOL    HW229523   2.874   3.482   6.144 -0.1754 -0.1488  0.1139
 5964SOL     OW29524   2.535   1.866  11.601  0.1001  0.2257 -0.3337
 5964SOL    HW129525   2.564   1.814  11.676  0.5356 -1.7086 -1.8477
 5964SOL    HW229526   2.475   1.926  11.644  1.3347  0.4118  1.1268
 5965SOL     OW29527   0.947   2.843   6.857 -0.2510 -0.2650 -0.6699
 5965SOL    HW129528   0.997   2.906   6.908  0.6366  0.0659 -1.9582
 5965SOL    HW229529   1.009   2.772   6.871  0.9199  1.0240  0.7524
 5966SOL     OW29530   1.758   4.347   3.111 -0.8944  0.3564 -1.0763
 5966SOL    HW129531   1.849   4.360   3.084  0.5560 -1.2542  3.0747
 5966SOL    HW229532   1.729   4.260   3.083  0.5073 -0.4399 -0.0826
 5967SOL     OW29533   0.910   1.340   8.180  0.0676  0.3549  0.6471
 5967SOL    HW129534   0.837   1.371   8.126 -0.5174 -0.8677  0.7434
 5967SOL    HW229535   0.941   1.430   8.192  2.3661 -0.2371 -0.8683
 5968SOL     OW29536   1.510   2.617   8.180 -0.3184 -0.5655 -0.2431
 5968SOL    HW129537   1.437   2.660   8.226 -1.3714  1.0733 -3.4036
 5968SOL    HW229538   1.524   2.541   8.237 -1.1824  0.5444  1.4684
 5969SOL     OW29539   1.453   4.022  13.508 -0.0847 -0.6470  0.1652
 5969SOL    HW129540   1.444   4.012  13.413  2.0910  0.6587 -0.1610
 5969SOL    HW229541   1.531   4.077  13.510 -0.3263 -0.2166 -1.9553
 5970SOL     OW29542   2.668   0.219   3.676 -0.1285 -0.2051 -0.5079
 5970SOL    HW129543   2.588   0.270   3.690  1.7354  2.3345  0.8435
 5970SOL    HW229544   2.626   0.133   3.675 -1.1054  0.2593  1.3639
 5971SOL     OW29545   4.331   3.434   7.209  0.4196 -0.3782  0.3957
 5971SOL    HW129546   4.311   3.506   7.269 -1.3754 -1.8629  1.5757
 5971SOL    HW229547   4.264   3.374   7.242 -2.0643  2.3297  0.2617
 5972SOL     OW29548   3.126   0.769   8.902  0.1866  0.9402 -0.4259
 5972SOL    HW129549   3.083   0.798   8.821 -0.0522 -1.0324 -1.0018
 5972SOL    HW229550   3.200   0.715   8.872  0.3852  1.2129 -0.4313
 5973SOL     OW29551   3.115   2.996   2.682 -0.8146  0.3040  0.5820
 5973SOL    HW129552   3.082   3.033   2.763 -0.3288 -0.0418  0.9464
 5973SOL    HW229553   3.183   3.060   2.663 -0.5255  0.2451  1.4073
 5974SOL     OW29554   0.557   2.017   8.399 -0.5456 -0.3148  0.1987
 5974SOL    HW129555   0.622   2.023   8.329  0.0750 -2.9315  0.5358
 5974SOL    HW229556   0.586   1.939   8.447 -1.8223  0.1643  1.7737
 5975SOL     OW29557   4.231   0.976   4.956 -0.1445 -0.4662 -0.1808
 5975SOL    HW129558   4.282   1.048   4.995 -1.6636 -0.3388  1.5705
 5975SOL    HW229559   4.291   0.910   4.993  0.7149  0.8729  0.8196
 5976SOL     OW29560   0.027   0.135   9.513 -0.1043 -0.3967 -0.4369
 5976SOL    HW129561   0.109   0.147   9.464  0.4159 -0.5650  0.3980
 5976SOL    HW229562   0.049   0.060   9.567 -0.2634 -0.7907 -0.9257
 5977SOL     OW29563   4.050   2.464   4.587 -1.1086  0.1311 -0.9640
 5977SOL    HW129564   4.114   2.511   4.533  3.4174 -0.9753  3.5109
 5977SOL    HW229565   4.110   2.394   4.612 -1.2399  0.5957  0.6401
 5978SOL     OW29566   0.295   1.090  16.432 -0.0294  0.4150  0.3571
 5978SOL    HW129567   0.358   1.127  16.371  0.9667 -1.9860 -0.0848
 5978SOL    HW229568   0.258   1.167  16.475 -2.6508 -1.1330  0.8665
 5979SOL     OW29569   4.621   0.474  17.049 -0.6966  0.2003 -0.6815
 5979SOL    HW129570   4.590   0.503  17.135 -0.5928 -0.4959 -0.4162
 5979SOL    HW229571   4.696   0.534  17.044  0.9536 -1.8437 -0.0708
 5980SOL     OW29572   0.408   4.343   5.983 -0.7759 -0.5673  0.1754
 5980SOL    HW129573   0.322   4.367   5.948 -0.9339 -0.4356  0.6543
 5980SOL    HW229574   0.418   4.253   5.953 -0.6020 -0.3364 -0.4400
 5981SOL     OW29575   3.939   0.777   6.008  0.1927  0.1131  0.4255
 5981SOL    HW129576   3.909   0.857   6.053  0.6802  0.5878 -0.0963
 5981SOL    HW229577   3.940   0.815   5.920  0.9353  4.0435  2.1104
 5982SOL     OW29578   2.046   2.295   9.347 -0.5631 -0.0692 -0.2007
 5982SOL    HW129579   2.094   2.241   9.411  1.8052  0.4891 -1.4902
 5982SOL    HW229580   2.030   2.376   9.396  0.3576 -1.0549  1.7280
 5983SOL     OW29581   3.735   2.185   1.160  0.0132 -0.0024 -0.3128
 5983SOL    HW129582   3.752   2.269   1.119  2.4994 -0.2848  0.1543
 5983SOL    HW229583   3.781   2.119   1.108  0.8826 -1.0235  1.7690
 5984SOL     OW29584   1.003   0.964   3.150 -0.2929  0.4578 -0.3572
 5984SOL    HW129585   1.076   0.909   3.121 -0.3079  1.1551 -1.7376
 5984SOL    HW229586   1.046   1.048   3.169  0.4215 -0.2158  1.0318
 5985SOL     OW29587   2.106   3.086   5.038  0.2443 -0.1860 -0.1309
 5985SOL    HW129588   2.147   3.119   4.958  1.0752  0.5794  0.6131
 5985SOL    HW229589   2.051   3.162   5.057  1.0763  0.4867 -0.4214
 5986SOL     OW29590   2.268   4.000  14.721  0.1853 -0.0193  0.0655
 5986SOL    HW129591   2.214   3.921  14.719  1.7057 -1.0920  1.2976
 5986SOL    HW229592   2.317   3.983  14.641  1.1063 -0.6096  0.7485
 5987SOL     OW29593   0.046   1.156   2.968  0.6058 -0.2298 -0.1524
 5987SOL    HW129594   0.071   1.245   2.995  0.5866 -0.0568 -0.7042
 5987SOL    HW229595   0.064   1.113   3.052  1.7303  0.0598 -0.2377
 5988SOL     OW29596   3.328   4.151   3.160  0.2799 -0.1293  0.1673
 5988SOL    HW129597   3.371   4.101   3.090 -0.3696 -1.9081  1.0227
 5988SOL    HW229598   3.235   4.139   3.142 -0.1587  0.1179  2.3654
 5989SOL     OW29599   1.824   1.776   9.099  0.1322  0.2811 -0.1436
 5989SOL    HW129600   1.792   1.865   9.085  1.0187  0.0873 -3.2832
 5989SOL    HW229601   1.843   1.778   9.193 -0.0955  1.1252 -0.1116
 5990SOL     OW29602   3.167   2.101   4.620 -0.5170  0.1991 -0.4322
 5990SOL    HW129603   3.254   2.133   4.597  0.4369 -0.7026  1.9360
 5990SOL    HW229604   3.182   2.056   4.703  1.3340  0.4609 -0.6321
 5991SOL     OW29605   3.130   4.364   0.364  0.2505 -0.5156 -0.5204
 5991SOL    HW129606   3.212   4.318   0.385  0.5062  0.4822  0.6921
 5991SOL    HW229607   3.070   4.297   0.332  0.8459 -1.5975  0.6054
 5992SOL     OW29608   4.452   0.719   3.310  0.1768  0.2478 -0.3218
 5992SOL    HW129609   4.429   0.675   3.228 -1.3815  0.4746 -0.0034
 5992SOL    HW229610   4.535   0.679   3.334  0.8619  0.8217 -1.7160
 5993SOL     OW29611   0.562   0.735  13.064  0.1843 -0.7243 -0.2470
 5993SOL    HW129612   0.510   0.705  13.139 -2.5146  1.9530 -1.0410
 5993SOL    HW229613   0.626   0.664  13.058  0.7354 -0.4171  2.0084
 5994SOL     OW29614   2.779   0.735   9.215  0.4717  0.0547  0.3390
 5994SOL    HW129615   2.798   0.663   9.275 -0.6461 -2.1830 -1.9890
 5994SOL    HW229616   2.835   0.709   9.141 -0.0727  1.7309 -0.6660
 5995SOL     OW29617   2.593   3.776  10.257  0.0862  0.3306  0.0283
 5995SOL    HW129618   2.504   3.759  10.285 -0.1362  1.1682 -0.1537
 5995SOL    HW229619   2.635   3.729  10.329 -1.1340 -0.8794 -0.0750
 5996SOL     OW29620   4.097   1.813  13.044 -0.1882 -0.3628 -0.1782
 5996SOL    HW129621   4.026   1.873  13.070 -0.3052  0.5906 -2.6710
 5996SOL    HW229622   4.166   1.865  13.004 -0.2386 -0.6350 -0.6117
 5997SOL     OW29623   2.989   2.494  14.656  0.1839  0.1073  0.4289
 5997SOL    HW129624   2.939   2.427  14.608 -0.6721  1.1843 -0.1797
 5997SOL    HW229625   3.078   2.490  14.621  0.5493 -0.1711  1.3895
 5998SOL     OW29626   3.554   2.408   8.277  1.0366 -0.4660 -0.4000
 5998SOL    HW129627   3.511   2.359   8.348 -0.1745  1.7866  0.4149
 5998SOL    HW229628   3.520   2.370   8.196  1.7882 -1.6386 -0.1684
 5999SOL     OW29629   1.189   1.130  15.285  0.2140 -0.5672  0.5447
 5999SOL    HW129630   1.109   1.107  15.239 -0.7216  1.3587  1.2379
 5999SOL    HW229631   1.193   1.065  15.355  0.3735 -1.3348 -0.1752
 6000SOL     OW29632   4.171   0.407  10.785  0.2325  0.0787  0.1064
 6000SOL    HW129633   4.199   0.497  10.764 -1.3325  0.8471  1.3454
 6000SOL    HW229634   4.135   0.382  10.700  1.5472 -0.6764 -0.2334
 6001SOL     OW29635   4.223   1.973   6.826 -1.2985  0.2195 -0.4317
 6001SOL    HW129636   4.251   1.957   6.917  0.9961 -0.9918 -1.3673
 6001SOL    HW229637   4.220   2.069   6.825  0.5113  0.3015  1.4962
 6002SOL     OW29638   1.878   1.244   1.623 -0.1387  0.1733 -0.2724
 6002SOL    HW129639   1.884   1.151   1.645 -1.3325  0.2517  0.3827
 6002SOL    HW229640   1.962   1.270   1.586  1.0069  0.6344  2.7079
 6003SOL     OW29641   1.076   0.207   8.470  0.4333  0.2565 -0.7042
 6003SOL    HW129642   1.105   0.116   8.472  0.5582  0.2506 -2.5178
 6003SOL    HW229643   0.981   0.196   8.473  0.4487  0.0235 -1.0610
 6004SOL     OW29644   3.257   3.471   6.531 -0.1247 -0.0262  0.0904
 6004SOL    HW129645   3.271   3.381   6.559 -0.2466  0.6931  2.4737
 6004SOL    HW229646   3.161   3.472   6.535 -0.1968  1.5078 -1.8208
 6005SOL     OW29647   4.481   1.792   3.867 -0.8014 -0.2587 -0.6031
 6005SOL    HW129648   4.393   1.774   3.833 -1.0319  0.5030 -0.4244
 6005SOL    HW229649   4.467   1.820   3.957 -0.9115 -2.2914 -0.0083
 6006SOL     OW29650   0.346   0.039  16.466  0.3441 -0.6702  0.1995
 6006SOL    HW129651   0.341   0.011  16.374 -1.7201 -2.5569  0.8911
 6006SOL    HW229652   0.428   0.087  16.471 -0.1011  0.1674 -0.3664
 6007SOL     OW29653   2.086   0.620  10.841 -0.3147  0.3618 -0.0610
 6007SOL    HW129654   2.103   0.526  10.850 -0.6694  0.3540  0.5484
 6007SOL    HW229655   2.001   0.618  10.797  0.0401  0.7540 -0.7655
 6008SOL     OW29656   0.002   2.212   2.628 -0.5084  0.0614 -0.3896
 6008SOL    HW129657   0.011   2.157   2.706  0.7563 -0.4854 -0.9260
 6008SOL    HW229658   0.055   2.177   2.556  0.1645 -2.7298  1.4976
 6009SOL     OW29659   3.364   1.690   7.101  0.5642 -0.1735 -0.2771
 6009SOL    HW129660   3.421   1.740   7.043  1.5492  0.9226  1.5992
 6009SOL    HW229661   3.282   1.739   7.092 -0.2776 -1.5688 -0.1006
 6010SOL     OW29662   2.134   4.604   8.915  0.5540 -0.2402  0.2849
 6010SOL    HW129663   2.145   4.609   9.010  0.2669 -1.3779  0.3730
 6010SOL    HW229664   2.100   4.516   8.902  0.7041 -0.4670  1.4649
 6011SOL     OW29665   4.205   1.391   7.264  0.6248 -0.4414  0.1528
 6011SOL    HW129666   4.132   1.453   7.268  0.7633 -0.4193  2.2639
 6011SOL    HW229667   4.277   1.445   7.296  1.1467 -1.9817  1.5015
 6012SOL     OW29668   1.012   1.121   9.432 -0.5251 -0.2825  0.2001
 6012SOL    HW129669   1.086   1.181   9.445 -0.6170 -0.2807  0.7291
 6012SOL    HW229670   0.965   1.134   9.514  1.0644 -0.7171  1.1765
 6013SOL     OW29671   1.111   2.810   1.238 -0.6888  0.3577  0.0911
 6013SOL    HW129672   1.131   2.717   1.252  1.9596  0.6957 -1.3638
 6013SOL    HW229673   1.150   2.849   1.317  2.8869 -0.3886 -1.2912
 6014SOL     OW29674   3.787   3.801   8.441  0.3944 -0.7280  0.1994
 6014SOL    HW129675   3.740   3.844   8.370  0.8677  0.0370  0.3548
 6014SOL    HW229676   3.823   3.869   8.498  1.0969 -2.4321  1.8257
 6015SOL     OW29677   4.662   4.652   0.257 -0.3517 -0.3029  0.3869
 6015SOL    HW129678   4.663   4.727   0.197  0.7146 -0.6758 -0.0475
 6015SOL    HW229679   4.668   4.685   0.346  2.2786  0.2995 -0.0232
 6016SOL     OW29680   2.940   2.280   6.189 -0.4569  0.4481 -0.5740
 6016SOL    HW129681   2.970   2.343   6.255  1.3657 -0.7823 -0.2156
 6016SOL    HW229682   3.013   2.263   6.129 -0.1984 -0.8788  0.1101
 6017SOL     OW29683   1.096   4.079   7.047  0.0484  0.0177  0.1643
 6017SOL    HW129684   1.148   4.084   7.127  0.4939 -0.3940 -0.0951
 6017SOL    HW229685   1.025   4.141   7.064  0.6379  1.1149 -1.3887
 6018SOL     OW29686   2.697   3.706   9.235 -0.0344  0.2831 -0.6790
 6018SOL    HW129687   2.789   3.691   9.256 -0.1369  0.1011 -0.3605
 6018SOL    HW229688   2.704   3.765   9.160  0.1532 -1.2974 -1.9087
 6019SOL     OW29689   0.756   1.899   2.574  0.0463 -0.5618  0.2679
 6019SOL    HW129690   0.791   1.862   2.655 -1.0913 -2.2681 -0.0224
 6019SOL    HW229691   0.682   1.952   2.606  1.1748 -0.0616  2.0459
 6020SOL     OW29692   2.466   1.162   1.740 -0.1777  0.0937  0.0350
 6020SOL    HW129693   2.486   1.229   1.806  1.1531  0.9870 -1.2663
 6020SOL    HW229694   2.519   1.093   1.782  0.4271 -0.9976 -2.5484
 6021SOL     OW29695   1.943   4.005   5.780 -0.1532 -0.3863  0.2723
 6021SOL    HW129696   2.037   3.987   5.778  0.0351  0.4899  0.9462
 6021SOL    HW229697   1.921   4.022   5.689  0.0776 -2.4880 -0.1762
 6022SOL     OW29698   4.163   4.302   3.198  0.4874  0.3168 -0.4837
 6022SOL    HW129699   4.196   4.270   3.282 -3.2413 -3.2015 -0.3065
 6022SOL    HW229700   4.161   4.225   3.141  3.7466 -0.3185  0.3108
 6023SOL     OW29701   3.155   0.508   5.294  0.1676  0.1117  0.0930
 6023SOL    HW129702   3.246   0.534   5.279  0.4445 -2.2804 -2.5272
 6023SOL    HW229703   3.135   0.538   5.382 -0.4323  0.3675 -0.1351
 6024SOL     OW29704   0.288   1.915  13.648  0.2900 -0.5144  0.1756
 6024SOL    HW129705   0.381   1.904  13.630  0.5983  0.2699  1.3082
 6024SOL    HW229706   0.253   1.828  13.626  0.6594 -1.2290  2.3651
 6025SOL     OW29707   4.077   0.962   2.185  0.1194 -0.2723  0.2718
 6025SOL    HW129708   4.045   0.879   2.151  1.2585  0.3328 -2.2727
 6025SOL    HW229709   4.170   0.942   2.195  0.2508  0.3909  0.3797
 6026SOL     OW29710   2.967   0.723   9.811  0.4390 -0.0095  0.3266
 6026SOL    HW129711   2.933   0.776   9.740  2.0812  0.2109 -0.2841
 6026SOL    HW229712   2.986   0.788   9.879 -0.6716  0.9664 -0.2978
 6027SOL     OW29713   2.528   1.582   2.133  0.1677 -0.0838 -0.2626
 6027SOL    HW129714   2.580   1.502   2.138 -1.0480 -1.0286 -2.6044
 6027SOL    HW229715   2.479   1.559   2.055  1.0152 -0.3334 -0.7239
 6028SOL     OW29716   0.319   2.879   7.143 -0.0749  0.3659 -0.3838
 6028SOL    HW129717   0.243   2.923   7.180 -0.1697  0.5094 -0.7528
 6028SOL    HW229718   0.340   2.938   7.071  1.0497  0.2021 -0.1982
 6029SOL     OW29719   3.307   4.238   6.032  0.2190  0.1518  0.2875
 6029SOL    HW129720   3.401   4.255   6.035 -0.1437  2.0237  0.8749
 6029SOL    HW229721   3.275   4.328   6.033 -0.6706 -0.1382 -1.6954
 6030SOL     OW29722   3.959   0.895   1.761  0.1871 -0.3686 -0.3705
 6030SOL    HW129723   3.906   0.831   1.810  1.1680 -1.8392 -1.2323
 6030SOL    HW229724   3.917   0.976   1.790  0.1724 -0.6793  0.4867
 6031SOL     OW29725   4.117   0.438   3.632  0.3739  0.3876 -0.0203
 6031SOL    HW129726   4.198   0.403   3.595  0.4829  0.5693  0.0465
 6031SOL    HW229727   4.154   0.512   3.681 -0.2482  1.5952 -1.3633
 6032SOL     OW29728   1.706   2.858   5.667  0.3589  0.3617 -0.0830
 6032SOL    HW129729   1.760   2.837   5.591 -2.1100 -0.5214 -1.5981
 6032SOL    HW229730   1.619   2.873   5.630 -0.4699 -3.0209  0.4678
 6033SOL     OW29731   2.741   0.719   7.436 -0.0324  0.2042 -0.7531
 6033SOL    HW129732   2.830   0.685   7.437 -1.2593 -2.9348  0.5522
 6033SOL    HW229733   2.748   0.785   7.505 -0.5335 -0.3140 -0.2140
 6034SOL     OW29734   0.521   1.003  13.063 -0.3184 -0.0806 -0.2125
 6034SOL    HW129735   0.542   0.910  13.063 -1.5888 -0.3580  0.1077
 6034SOL    HW229736   0.599   1.049  13.097  0.0451  0.7595 -2.1551
 6035SOL     OW29737   4.287   0.034   3.401  0.3417  0.0416 -0.2628
 6035SOL    HW129738   4.199   0.034   3.440 -0.1085  1.7179 -1.2834
 6035SOL    HW229739   4.338   0.089   3.460 -0.1008 -0.0577  0.2138
 6036SOL     OW29740   4.400   0.763   7.457 -0.0761 -0.3260  0.8993
 6036SOL    HW129741   4.415   0.670   7.477  0.2919 -0.7747 -1.4279
 6036SOL    HW229742   4.398   0.803   7.543  0.7022  0.3404  0.6081
 6037SOL     OW29743   2.341   2.679   7.758  0.2370  0.1987  0.1268
 6037SOL    HW129744   2.347   2.648   7.848 -0.0865  1.7834  0.6881
 6037SOL    HW229745   2.260   2.729   7.763 -0.8825 -1.5302 -0.5612
 6038SOL     OW29746   3.562   1.915   3.374 -0.2405  0.1483 -0.1917
 6038SOL    HW129747   3.519   1.847   3.426  0.2621 -0.2964 -0.3593
 6038SOL    HW229748   3.492   1.962   3.328 -0.1364 -0.5153 -1.0317
 6039SOL     OW29749   4.271   0.858  13.358 -0.1044  0.3629 -0.1320
 6039SOL    HW129750   4.352   0.828  13.317  0.5141  0.4487  1.0155
 6039SOL    HW229751   4.256   0.785  13.419 -1.4322 -1.6168 -2.8432
 6040SOL     OW29752   2.830   0.473   1.479  0.8821  0.1920  0.0234
 6040SOL    HW129753   2.830   0.541   1.412 -1.5363 -1.2487 -1.4304
 6040SOL    HW229754   2.800   0.518   1.558 -1.2653  0.6194 -1.0434
 6041SOL     OW29755   1.594   4.458   5.971  0.0419 -0.1642 -0.0439
 6041SOL    HW129756   1.593   4.439   5.877 -3.5242 -4.0164  0.8165
 6041SOL    HW229757   1.674   4.506   5.996 -0.7665  1.2287 -0.1386
 6042SOL     OW29758   1.785   3.696   8.214  0.1100 -0.2226 -0.2149
 6042SOL    HW129759   1.727   3.631   8.174 -0.9968  0.4384  0.3398
 6042SOL    HW229760   1.717   3.736   8.268 -1.3403 -4.7086  1.3510
 6043SOL     OW29761   3.945   1.306   4.133 -0.5527 -0.0342  0.2176
 6043SOL    HW129762   3.881   1.242   4.102  0.9804 -1.9900  1.1016
 6043SOL    HW229763   3.933   1.276   4.223  0.1033 -0.0580  0.2906
 6044SOL     OW29764   3.098   3.022   8.102 -0.6573  0.0041 -0.2706
 6044SOL    HW129765   3.150   3.094   8.065  0.8192 -0.8288  0.2085
 6044SOL    HW229766   3.041   3.072   8.162 -0.1473  1.2659 -0.8534
 6045SOL     OW29767   3.028   3.296   5.842 -0.4755  0.6223 -0.0350
 6045SOL    HW129768   2.960   3.238   5.876 -0.3947  0.6332  0.1452
 6045SOL    HW229769   3.083   3.320   5.916  1.6152 -4.1699 -0.0800
 6046SOL     OW29770   2.972   3.158   6.423 -0.0295 -0.0632 -0.0972
 6046SOL    HW129771   2.913   3.106   6.369 -0.6580  0.2778  0.2720
 6046SOL    HW229772   3.015   3.204   6.350 -2.2666  0.0462 -1.3594
 6047SOL     OW29773   2.300   0.482   6.394 -0.2137  0.0455  0.6871
 6047SOL    HW129774   2.265   0.439   6.316 -0.6472  2.4009 -0.3842
 6047SOL    HW229775   2.294   0.573   6.367 -0.4279 -0.2794 -0.3424
 6048SOL     OW29776   1.225   1.205  13.351  0.0775  0.1076  0.0199
 6048SOL    HW129777   1.172   1.280  13.324 -1.1049 -0.6681  0.1911
 6048SOL    HW229778   1.287   1.255  13.403 -1.6224  0.4414  1.7215
 6049SOL     OW29779   3.035   2.701  16.517  0.7808  0.4867  0.2166
 6049SOL    HW129780   3.130   2.714  16.524  0.6116  1.6879  0.1184
 6049SOL    HW229781   3.005   2.762  16.584  2.8615  0.9108  0.7832
 6050SOL     OW29782   3.561   1.799   3.030  0.4374  0.1929 -0.6762
 6050SOL    HW129783   3.641   1.746   3.024 -2.0521 -3.3982 -1.8961
 6050SOL    HW229784   3.514   1.763   3.105 -1.2372 -1.4573 -2.5284
 6051SOL     OW29785   2.091   2.762   7.830 -0.1049  0.0850 -0.1300
 6051SOL    HW129786   2.002   2.732   7.849 -0.4792  1.6285  0.5339
 6051SOL    HW229787   2.071   2.822   7.758  1.7338  1.2683  0.3462
 6052SOL     OW29788   1.275   1.740   5.801  0.0229 -0.3752 -0.1466
 6052SOL    HW129789   1.233   1.780   5.725  1.4756 -0.7893 -1.1860
 6052SOL    HW229790   1.310   1.816   5.847 -2.5873  1.6592 -1.5528
 6053SOL     OW29791   1.707   0.943   4.456 -0.2212 -0.2871  0.0768
 6053SOL    HW129792   1.728   0.868   4.401  3.3743 -0.8949  2.3156
 6053SOL    HW229793   1.779   0.948   4.519  1.4730  0.3522 -1.9061
 6054SOL     OW29794   3.804   0.479   4.661 -0.7531 -0.0327 -0.5246
 6054SOL    HW129795   3.887   0.507   4.622 -0.1259 -0.6080  0.3987
 6054SOL    HW229796   3.788   0.395   4.618  0.0877  0.1998 -1.2971
 6055SOL     OW29797   4.501   4.505   7.681 -0.1893  0.4017 -0.3537
 6055SOL    HW129798   4.514   4.572   7.748 -3.4063  0.9749 -0.2971
 6055SOL    HW229799   4.444   4.444   7.727  1.8567 -1.7761 -0.7287
 6056SOL     OW29800   0.749   1.993   3.916  0.3511 -0.6319 -0.0879
 6056SOL    HW129801   0.706   2.050   3.980 -0.0551  0.5615 -1.4168
 6056SOL    HW229802   0.682   1.934   3.882 -1.1354 -0.5226  2.7206
 6057SOL     OW29803   4.552   0.408   5.250  0.1497 -0.4827 -0.3922
 6057SOL    HW129804   4.580   0.444   5.334  4.6249 -1.5892 -1.3936
 6057SOL    HW229805   4.595   0.461   5.183  0.1484  0.1012  0.0685
 6058SOL     OW29806   0.268   3.810   5.622 -0.1116  0.1275  0.4095
 6058SOL    HW129807   0.184   3.768   5.605  0.1537 -0.3143  0.1948
 6058SOL    HW229808   0.240   3.898   5.648 -1.7783  0.2127 -1.6837
 6059SOL     OW29809   4.460   1.228   7.793 -0.2144 -0.4320 -0.1821
 6059SOL    HW129810   4.376   1.223   7.839 -0.8151  0.4877 -1.1790
 6059SOL    HW229811   4.526   1.207   7.859  1.1183 -1.5839 -1.8862
 6060SOL     OW29812   1.317   3.190   6.171  0.3137 -0.1457  0.8809
 6060SOL    HW129813   1.398   3.239   6.160 -0.1746  0.9407  2.1235
 6060SOL    HW229814   1.317   3.121   6.105 -2.5558 -1.9817  2.7664
 6061SOL     OW29815   4.240   3.310   7.617 -0.2044  0.1300  0.3471
 6061SOL    HW129816   4.205   3.228   7.653  0.9124 -0.4195  0.1817
 6061SOL    HW229817   4.297   3.278   7.547  0.0054  0.1411  0.5110
 6062SOL     OW29818   0.049   4.529  15.572  0.2790 -0.2574  0.3936
 6062SOL    HW129819   4.718   4.535  15.510 -1.4479 -0.7036  2.3795
 6062SOL    HW229820   0.006   4.582  15.639 -2.2308 -1.1155 -0.5789
 6063SOL     OW29821   1.071   1.049   7.781 -0.1446 -0.2234 -0.0209
 6063SOL    HW129822   1.044   1.075   7.869  1.0775  1.0866 -0.0172
 6063SOL    HW229823   1.047   0.957   7.785 -2.9140  0.5095  0.0711
 6064SOL     OW29824   1.607   1.826  16.278 -0.5564  0.2590 -0.2881
 6064SOL    HW129825   1.642   1.898  16.225 -0.3093 -1.2260 -2.1217
 6064SOL    HW229826   1.523   1.862  16.307 -1.1517 -0.3495 -1.2522
 6065SOL     OW29827   0.245   4.707  15.424  0.0327 -0.0365  0.3025
 6065SOL    HW129828   0.216   4.629  15.472 -2.1893  0.9353  0.5411
 6065SOL    HW229829   0.162   0.005  15.400  0.1318 -0.8835 -1.4015
 6066SOL     OW29830   4.242   0.410  14.605 -0.0058 -0.2377  0.3550
 6066SOL    HW129831   4.279   0.409  14.517 -2.3168  0.0736 -0.6337
 6066SOL    HW229832   4.318   0.423  14.662  0.7401 -0.2296 -0.6426
 6067SOL     OW29833   0.076   4.724  16.524  0.0047  0.6773 -0.1281
 6067SOL    HW129834   0.164   0.017  16.540  0.5545  0.5145 -2.8166
 6067SOL    HW229835   0.072   4.681  16.439 -2.5195  0.7297 -0.0367
 6068SOL     OW29836   2.627   3.685  12.421 -0.6213 -0.4366 -0.2078
 6068SOL    HW129837   2.696   3.701  12.486 -0.2881  2.8593 -1.3993
 6068SOL    HW229838   2.544   3.681  12.469 -2.2430 -1.1953 -3.0635
 6069SOL     OW29839   0.242   4.635   1.522 -0.6744 -0.8030  0.0862
 6069SOL    HW129840   0.168   4.574   1.513 -0.1605 -1.1057 -2.1155
 6069SOL    HW229841   0.286   4.620   1.439 -0.0239  0.9178  0.1452
 6070SOL     OW29842   2.447   1.093   4.582  0.2877  0.6383 -0.5574
 6070SOL    HW129843   2.461   1.031   4.511 -0.6156 -1.1241  0.8310
 6070SOL    HW229844   2.530   1.142   4.581  1.8466 -2.0287 -0.1785
 6071SOL     OW29845   0.871   0.217   9.090  0.4143 -0.0440 -0.1871
 6071SOL    HW129846   0.809   0.204   9.018  0.9562 -0.6359 -0.5502
 6071SOL    HW229847   0.829   0.246   9.171  0.8405  0.6795 -0.2224
 6072SOL     OW29848   1.067   2.080   3.555 -0.3461  0.0830  0.6875
 6072SOL    HW129849   0.981   2.122   3.560 -1.6106 -2.4520  0.1556
 6072SOL    HW229850   1.066   2.060   3.649 -1.9966  0.2615  0.7009
 6073SOL     OW29851   4.197   2.466   6.664 -0.5211 -0.3208 -0.1302
 6073SOL    HW129852   4.234   2.532   6.724  4.4162 -2.0817 -1.2525
 6073SOL    HW229853   4.179   2.517   6.585 -0.2916 -0.5478 -0.3297
 6074SOL     OW29854   1.347   4.091   6.482 -0.4587  0.3783  1.3480
 6074SOL    HW129855   1.403   4.050   6.416  3.3292  2.7481  3.0795
 6074SOL    HW229856   1.377   4.179   6.457  0.6518 -0.1213  0.8995
 6075SOL     OW29857   3.483   1.472   5.439  0.1685 -0.6476  0.0438
 6075SOL    HW129858   3.505   1.518   5.520  1.1304 -2.2933  0.7180
 6075SOL    HW229859   3.393   1.444   5.455 -0.6994  2.2161  0.2544
 6076SOL     OW29860   2.922   1.020   3.556 -0.6757  0.0421  0.5090
 6076SOL    HW129861   2.977   0.986   3.485 -0.5212 -1.7617  1.5114
 6076SOL    HW229862   2.841   1.043   3.511 -0.8663 -1.1561  0.2326
 6077SOL     OW29863   1.691   0.464   7.246 -0.5546 -0.3439 -0.5705
 6077SOL    HW129864   1.737   0.548   7.249 -3.5815  1.3516 -1.6921
 6077SOL    HW229865   1.601   0.496   7.247 -0.9399 -1.4176 -1.3558
 6078SOL     OW29866   1.598   1.674   6.105 -0.2980 -0.3443  0.1991
 6078SOL    HW129867   1.678   1.715   6.071 -0.4930  0.1251  0.3044
 6078SOL    HW229868   1.557   1.738   6.163 -0.9646 -1.9226  1.4741
 6079SOL     OW29869   1.115   0.018   1.735  0.1712 -0.2756  0.7653
 6079SOL    HW129870   1.106   0.000   1.828  0.8110 -0.1415  0.8549
 6079SOL    HW229871   1.208   4.737   1.727  1.2796  4.7104 -0.1896
 6080SOL     OW29872   2.165   0.824   4.373  0.6162 -0.3352  0.5786
 6080SOL    HW129873   2.183   0.860   4.460  0.6516 -0.3182  0.5641
 6080SOL    HW229874   2.112   0.749   4.399 -0.5027 -0.2532 -1.4832
 6081SOL     OW29875   4.598   3.581  14.927 -0.3984 -0.2953 -0.1392
 6081SOL    HW129876   4.623   3.656  14.873  2.1277  0.1582  1.6877
 6081SOL    HW229877   4.602   3.621  15.014 -2.2283  1.2579 -0.7872
 6082SOL     OW29878   3.244   4.134   2.142 -0.2630 -0.1578 -0.1088
 6082SOL    HW129879   3.266   4.226   2.154 -1.1321 -0.2217  1.9727
 6082SOL    HW229880   3.275   4.090   2.221  1.8668  0.7607 -0.4427
 6083SOL     OW29881   1.106   3.236   0.706 -0.2544 -0.3445  0.1704
 6083SOL    HW129882   1.171   3.193   0.650  3.3242  2.3278  2.2909
 6083SOL    HW229883   1.129   3.329   0.705  0.9149 -0.6342  0.1583
 6084SOL     OW29884   3.052   4.736   8.437 -0.4646  0.0755 -0.7626
 6084SOL    HW129885   3.146   0.010   8.429 -0.0187 -1.6231  1.1859
 6084SOL    HW229886   3.021   0.035   8.518 -1.0850  1.1981 -1.5497
 6085SOL     OW29887   3.573   3.442   8.745 -0.5111 -0.4207  0.1877
 6085SOL    HW129888   3.501   3.460   8.685 -0.0967 -2.6287 -0.9702
 6085SOL    HW229889   3.557   3.350   8.766  1.3889 -0.7910 -0.0642
 6086SOL     OW29890   1.013   2.262   7.863  1.0437 -0.5724  0.4529
 6086SOL    HW129891   0.924   2.235   7.886  0.2664  1.1603 -0.5234
 6086SOL    HW229892   1.048   2.301   7.944  1.8862  1.7991 -1.0642
 6087SOL     OW29893   2.871   1.702   4.931 -0.6566 -0.3800 -0.1711
 6087SOL    HW129894   2.840   1.629   4.877 -1.3452 -0.0260 -0.2464
 6087SOL    HW229895   2.960   1.670   4.945 -1.2256 -0.6071  2.7854
 6088SOL     OW29896   0.637   1.854   6.697 -0.4366  0.4635 -0.0301
 6088SOL    HW129897   0.605   1.944   6.690  2.5076  1.9246  4.7722
 6088SOL    HW229898   0.584   1.811   6.631  0.0558 -0.5190  0.2171
 6089SOL     OW29899   1.965   3.617  11.197  0.2197 -0.1929  0.0734
 6089SOL    HW129900   1.999   3.534  11.165  0.0394  0.4032 -1.6603
 6089SOL    HW229901   1.931   3.639  11.110 -0.8531  1.3512  0.8670
 6090SOL     OW29902   0.132   3.732   5.346  0.3593  0.6984  0.2505
 6090SOL    HW129903   0.101   3.696   5.429 -0.3843  2.7817  0.8729
 6090SOL    HW229904   0.223   3.702   5.351  0.5966  1.2802 -0.5223
 6091SOL     OW29905   4.347   4.600   6.881  0.2966 -0.3316 -0.2758
 6091SOL    HW129906   4.320   4.609   6.972 -0.6409  3.5598 -0.9247
 6091SOL    HW229907   4.340   4.505   6.876  0.0002 -0.4654  2.5056
 6092SOL     OW29908   0.575   0.787   9.700  0.0625 -0.1820 -0.6083
 6092SOL    HW129909   0.627   0.713   9.730  0.5836 -0.3983 -2.0238
 6092SOL    HW229910   0.603   0.777   9.609  0.8295 -1.4147 -0.2324
 6093SOL     OW29911   0.025   3.362   5.391 -0.4347 -0.8620  0.0585
 6093SOL    HW129912   4.681   3.368   5.348 -0.7033  2.7186  1.0216
 6093SOL    HW229913   0.086   3.374   5.318 -2.1006  0.3036 -1.1570
 6094SOL     OW29914   2.819   1.795  10.852 -0.1359 -0.3402  0.4494
 6094SOL    HW129915   2.757   1.862  10.824  1.8036  1.0657 -0.5057
 6094SOL    HW229916   2.904   1.835  10.833 -0.2120 -0.8142 -0.8815
 6095SOL     OW29917   4.423   1.787   5.603  0.0000 -0.5520 -0.2647
 6095SOL    HW129918   4.500   1.743   5.566 -1.8023 -1.3174 -3.1007
 6095SOL    HW229919   4.398   1.845   5.531 -1.4219  0.7118  1.2505
 6096SOL     OW29920   3.780   1.074  10.715 -0.4682  0.0221 -0.4279
 6096SOL    HW129921   3.717   1.143  10.736 -0.1956  0.0330  0.3452
 6096SOL    HW229922   3.721   0.999  10.721 -1.4152  0.8525  0.4575
 6097SOL     OW29923   0.675   1.569  10.163 -0.1123 -0.2637 -0.5015
 6097SOL    HW129924   0.622   1.612  10.231 -1.0875 -2.7540  0.3347
 6097SOL    HW229925   0.756   1.619  10.176  0.5156 -1.2612 -0.5687
 6098SOL     OW29926   2.955   1.052   5.742  0.0787  0.0052  0.1728
 6098SOL    HW129927   2.984   1.016   5.826  1.6250 -0.6460 -0.6410
 6098SOL    HW229928   2.993   0.989   5.682  3.3238  1.3328  0.8291
 6099SOL     OW29929   3.737   4.298  16.232 -0.2574 -0.5289  0.1033
 6099SOL    HW129930   3.709   4.258  16.150  1.8349 -2.5793  0.3756
 6099SOL    HW229931   3.657   4.315  16.281 -0.6579  1.2510 -1.1998
 6100SOL     OW29932   1.457   0.010   5.728 -0.1440 -0.6861 -0.5041
 6100SOL    HW129933   1.449   4.662   5.692  0.6769 -1.2551  0.7348
 6100SOL    HW229934   1.365   0.036   5.725  0.3289  1.0347  0.1941
 6101SOL     OW29935   3.261   0.226   2.928  0.2228  0.3504 -0.2953
 6101SOL    HW129936   3.174   0.260   2.906  0.0685  0.8296  1.1034
 6101SOL    HW229937   3.243   0.132   2.931 -1.1558  0.5810 -1.2976
 6102SOL     OW29938   2.167   4.550   6.549  0.0903 -0.3901  0.0636
 6102SOL    HW129939   2.107   4.618   6.519 -0.9309  0.8468  4.8940
 6102SOL    HW229940   2.177   4.581   6.639  2.1537 -0.3893 -0.1485
 6103SOL     OW29941   3.083   2.593   6.795  0.3511  0.1092 -0.8554
 6103SOL    HW129942   3.057   2.572   6.884 -1.2998  0.5021 -1.2439
 6103SOL    HW229943   3.170   2.555   6.805  0.0292 -0.3141  0.2614
 6104SOL     OW29944   0.424   3.379   8.197 -0.0724  0.5446  0.7346
 6104SOL    HW129945   0.416   3.456   8.140 -0.0693  0.5222  0.7036
 6104SOL    HW229946   0.477   3.416   8.267 -0.7852  0.0087  1.5467
 6105SOL     OW29947   3.647   1.714   5.513 -0.4475 -0.0621  0.1696
 6105SOL    HW129948   3.635   1.641   5.574  2.9192 -0.7179  0.0403
 6105SOL    HW229949   3.723   1.765   5.540  0.3293 -0.9700 -0.2944
 6106SOL     OW29950   2.546   1.093   7.965 -0.3337 -0.1887 -0.0114
 6106SOL    HW129951   2.635   1.058   7.974 -0.5266 -0.5939  0.3098
 6106SOL    HW229952   2.512   1.083   8.054  1.3506  2.6582  0.9667
 6107SOL     OW29953   0.393   0.582   4.991 -0.1123 -0.3281 -0.1976
 6107SOL    HW129954   0.376   0.542   5.076 -0.2450 -1.8849 -0.9568
 6107SOL    HW229955   0.475   0.629   5.006 -0.3163 -0.3591  1.0024
 6108SOL     OW29956   2.729   3.517  17.475  0.0263  0.0840 -0.3922
 6108SOL    HW129957   2.641   3.556  17.470  0.0563 -0.1114 -2.2818
 6108SOL    HW229958   2.710   3.425  17.494 -1.4174  0.6681  1.0176
 6109SOL     OW29959   3.016   0.186  10.429  0.4985 -0.9044 -0.2500
 6109SOL    HW129960   2.999   0.276  10.459  0.4956  0.0633 -3.1912
 6109SOL    HW229961   3.100   0.179  10.474 -0.0566  2.1512  1.2773
 6110SOL     OW29962   0.102   2.284  16.028  0.1344  0.1337  0.2786
 6110SOL    HW129963   0.098   2.369  16.072  0.1982  0.2360  0.0871
 6110SOL    HW229964   0.149   2.314  15.950  0.3646  0.0183  0.3742
 6111SOL     OW29965   1.057   4.405  11.279  0.0505 -0.1535 -0.3005
 6111SOL    HW129966   1.040   4.312  11.294  1.0204 -0.4428 -1.0484
 6111SOL    HW229967   1.138   4.411  11.229 -0.4643  1.6554 -0.9002
 6112SOL     OW29968   0.784   0.405   2.922  0.3365 -0.2534 -0.4810
 6112SOL    HW129969   0.787   0.318   2.962 -0.8562 -0.4214 -0.7528
 6112SOL    HW229970   0.876   0.428   2.912 -0.0196  1.1960 -0.3461
 6113SOL     OW29971   3.566   1.663   6.680 -0.0859 -0.3677  0.5005
 6113SOL    HW129972   3.515   1.695   6.755 -2.1112 -0.4815 -0.8186
 6113SOL    HW229973   3.519   1.694   6.602 -0.1241 -0.6402  0.4170
 6114SOL     OW29974   4.034   0.831  14.031  0.1641 -0.0954  0.4939
 6114SOL    HW129975   4.089   0.769  14.078 -1.7950 -1.6892  0.6753
 6114SOL    HW229976   3.960   0.775  14.007 -0.1621  0.8531 -0.6822
 6115SOL     OW29977   2.446   0.779   6.777 -0.2057 -0.2648 -0.1326
 6115SOL    HW129978   2.375   0.743   6.829 -0.7979  1.7493  0.4522
 6115SOL    HW229979   2.517   0.791   6.840  0.1505  1.3570 -0.8500
 6116SOL     OW29980   2.641   0.756   8.984 -0.4384  1.0791 -0.3013
 6116SOL    HW129981   2.618   0.669   8.953 -2.4419  1.5687 -0.1626
 6116SOL    HW229982   2.687   0.737   9.066  2.4838  3.0902 -1.4939
 6117SOL     OW29983   3.074   0.951   3.330  0.3757 -0.5347 -0.4762
 6117SOL    HW129984   3.078   0.856   3.319  0.5947 -0.5121 -0.5923
 6117SOL    HW229985   3.076   0.982   3.239 -0.8133 -0.0640 -0.3289
 6118SOL     OW29986   2.155   2.426   8.709 -0.1652 -0.1071 -0.4249
 6118SOL    HW129987   2.104   2.492   8.662  1.1961  0.4523 -1.1116
 6118SOL    HW229988   2.104   2.346   8.694  0.7099 -1.2801  2.8948
 6119SOL     OW29989   2.598   3.960  13.087  0.3055  0.0271 -0.3342
 6119SOL    HW129990   2.572   3.871  13.062  0.3878 -0.1209  0.1149
 6119SOL    HW229991   2.667   3.954  13.153 -0.0092 -0.3200 -0.0416
 6120SOL     OW29992   0.993   3.272   1.220 -0.5352  0.1807 -0.1731
 6120SOL    HW129993   0.899   3.292   1.213 -0.8266 -0.3024  2.6374
 6120SOL    HW229994   1.019   3.328   1.293 -1.1290  1.0024 -0.5857
 6121SOL     OW29995   1.296   1.824   9.100 -0.0742 -0.2130 -0.4240
 6121SOL    HW129996   1.315   1.739   9.061  1.0854 -0.7586  1.2921
 6121SOL    HW229997   1.334   1.878   9.031  0.5071 -0.3762 -0.2367
 6122SOL     OW29998   0.447   1.591   3.791 -0.1384  0.3255 -0.1195
 6122SOL    HW129999   0.475   1.518   3.847 -0.2331  2.1159  2.2601
 6122SOL    HW230000   0.352   1.602   3.804  0.0009  0.9016  0.4194
 6123SOL     OW30001   3.857   4.432   2.620 -0.2018 -0.2172 -0.0332
 6123SOL    HW130002   3.846   4.361   2.684 -0.8943  0.0435  0.1355
 6123SOL    HW230003   3.949   4.458   2.632 -0.1853 -1.0983  1.7551
 6124SOL     OW30004   0.386   0.997  17.001  0.4777 -0.0005 -0.5380
 6124SOL    HW130005   0.364   0.927  17.063 -1.0961  0.4273 -0.6252
 6124SOL    HW230006   0.477   1.007  17.028 -0.0365 -0.3945  1.3493
 6125SOL     OW30007   3.759   1.986   8.436  0.4684  0.1250 -0.0385
 6125SOL    HW130008   3.689   1.967   8.499  0.4301  0.9126  0.1595
 6125SOL    HW230009   3.808   2.053   8.483  0.3213 -0.7014  1.2746
 6126SOL     OW30010   3.527   1.939   4.670  0.5149  0.3764 -0.3675
 6126SOL    HW130011   3.596   2.001   4.649  1.0186  0.3467  1.1919
 6126SOL    HW230012   3.573   1.858   4.653 -0.5163 -0.4521  0.7586
 6127SOL     OW30013   2.355   1.865  10.427  0.4557 -0.0185  0.4928
 6127SOL    HW130014   2.425   1.807  10.397  0.5326  0.2501  0.1470
 6127SOL    HW230015   2.405   1.945  10.442 -0.6064  0.7965 -0.2561
 6128SOL     OW30016   1.529   2.017  17.325 -0.1055  0.1744  0.2996
 6128SOL    HW130017   1.603   2.075  17.309 -2.1572  3.3787  2.5253
 6128SOL    HW230018   1.460   2.060  17.275 -0.0840 -0.2745 -0.1128
 6129SOL     OW30019   0.292   1.855  11.483 -0.5671 -0.0858  0.2262
 6129SOL    HW130020   0.284   1.913  11.407 -1.8035 -1.6775 -0.8772
 6129SOL    HW230021   0.379   1.817  11.468 -1.2519 -1.2251 -0.8478
 6130SOL     OW30022   1.095   2.728   2.565  0.3140  0.0069 -0.2521
 6130SOL    HW130023   1.062   2.749   2.653  1.7659 -1.7082  0.7068
 6130SOL    HW230024   1.182   2.701   2.593 -0.0218 -0.9994 -0.1691
 6131SOL     OW30025   3.530   0.902  11.623 -0.0092 -0.4424  0.6100
 6131SOL    HW130026   3.494   0.940  11.543 -0.5319  0.1381  1.1160
 6131SOL    HW230027   3.504   0.966  11.690 -0.6097 -0.3277  0.2616
 6132SOL     OW30028   2.409   3.649   0.737 -0.0002  0.1012  0.0804
 6132SOL    HW130029   2.401   3.577   0.674  1.1551 -1.4902  1.7584
 6132SOL    HW230030   2.392   3.719   0.673 -0.5769 -1.3339 -1.3480
 6133SOL     OW30031   3.035   2.704   1.592 -0.5657  0.3832 -0.5734
 6133SOL    HW130032   3.129   2.697   1.577 -0.6084 -1.6175 -0.0138
 6133SOL    HW230033   3.026   2.653   1.673 -3.9790  1.5968 -0.2079
 6134SOL     OW30034   4.217   1.514   9.858 -0.7251  0.4944  0.5825
 6134SOL    HW130035   4.185   1.436   9.812 -1.0519  0.1747  1.3465
 6134SOL    HW230036   4.278   1.477   9.921  3.2769  0.4838 -3.3061
 6135SOL     OW30037   3.993   2.664   5.111 -0.1076  0.1557  0.2998
 6135SOL    HW130038   3.938   2.591   5.138 -1.4135  0.2370 -2.1211
 6135SOL    HW230039   3.958   2.675   5.022  0.3724 -0.2775  0.0571
 6136SOL     OW30040   1.731   3.382   2.255 -0.7077 -0.1926 -0.0253
 6136SOL    HW130041   1.653   3.422   2.217  0.4408  0.2132 -1.9282
 6136SOL    HW230042   1.736   3.404   2.348  1.8060  2.5406 -0.8173
 6137SOL     OW30043   0.512   0.996   3.506 -0.2222  0.2248  0.7801
 6137SOL    HW130044   0.451   0.937   3.461 -1.1067  0.7948  1.2458
 6137SOL    HW230045   0.454   1.045   3.564  0.0922 -0.8329  1.9925
 6138SOL     OW30046   0.666   3.549   5.419 -0.9429  0.7901 -0.1871
 6138SOL    HW130047   0.745   3.602   5.408 -0.5737  0.4455  0.8001
 6138SOL    HW230048   0.668   3.541   5.515 -0.9141  2.6346 -0.0275
 6139SOL     OW30049   0.915   3.879  10.527  0.0086 -0.8121  0.6669
 6139SOL    HW130050   0.909   3.868  10.432 -1.4773 -2.2903  0.9229
 6139SOL    HW230051   1.010   3.876  10.539  0.0229 -1.3090  0.4472
 6140SOL     OW30052   0.009   3.965   7.041 -0.0855  0.0670 -0.4937
 6140SOL    HW130053   0.102   3.983   7.032 -0.0078  0.0012  0.1829
 6140SOL    HW230054   4.714   4.020   6.972  0.3124 -1.0340 -1.5931
 6141SOL     OW30055   2.177   1.826   2.727 -0.2055 -0.5375 -0.5892
 6141SOL    HW130056   2.214   1.856   2.810  0.1251 -0.7757 -0.6498
 6141SOL    HW230057   2.230   1.746   2.731 -0.4671 -0.7349 -1.1087
 6142SOL     OW30058   2.774   1.152   6.310 -0.3573 -0.1457 -0.1596
 6142SOL    HW130059   2.698   1.096   6.324 -0.1069  0.3037  2.8914
 6142SOL    HW230060   2.772   1.213   6.383  0.2628  1.8038 -1.7538
 6143SOL     OW30061   1.705   2.032   9.037 -0.2244 -0.0219  0.0418
 6143SOL    HW130062   1.635   2.082   8.996  0.2639  0.2782 -0.4193
 6143SOL    HW230063   1.761   2.100   9.074 -1.5588  1.7364 -1.1966
 6144SOL     OW30064   0.685   1.946   1.423  0.0294 -0.1974 -0.0306
 6144SOL    HW130065   0.644   1.922   1.340 -0.0918 -0.4608  0.1031
 6144SOL    HW230066   0.670   2.040   1.425  1.4066 -0.0623  3.4104
 6145SOL     OW30067   2.878   2.947  16.171  0.0108  0.0321 -0.2582
 6145SOL    HW130068   2.879   2.867  16.225 -1.9321  0.2994  0.1598
 6145SOL    HW230069   2.968   2.972  16.195 -0.4894  0.6233  1.0126
 6146SOL     OW30070   1.729   1.393  13.863 -0.0613  0.0925  0.2320
 6146SOL    HW130071   1.728   1.407  13.768 -1.5183  0.1620  0.2593
 6146SOL    HW230072   1.730   1.298  13.851  0.9394 -0.1883  2.4463
 6147SOL     OW30073   3.967   1.139  16.301  0.2308 -0.1625 -0.8595
 6147SOL    HW130074   3.941   1.070  16.240  2.0319  0.1695 -2.0030
 6147SOL    HW230075   3.883   1.163  16.340  1.8555  1.8311  1.4387
 6148SOL     OW30076   2.852   1.739   7.157 -0.1256  0.1530 -0.7574
 6148SOL    HW130077   2.798   1.812   7.126  0.2514  0.5959 -0.3721
 6148SOL    HW230078   2.909   1.745   7.080 -0.7896 -2.2934 -1.4522
 6149SOL     OW30079   1.137   1.684   2.020 -0.3615 -0.2854 -0.0650
 6149SOL    HW130080   1.170   1.774   2.016  1.0525 -0.7855  0.2362
 6149SOL    HW230081   1.050   1.710   2.052 -0.1553  0.9275 -0.4817
 6150SOL     OW30082   3.441   0.285   8.238  0.0317  0.3086 -0.5972
 6150SOL    HW130083   3.412   0.363   8.284 -0.2881 -0.1122 -0.0879
 6150SOL    HW230084   3.535   0.287   8.256  0.0510  0.2103 -0.6873
 6151SOL     OW30085   3.367   4.117   5.173 -0.0942 -0.4278  0.0763
 6151SOL    HW130086   3.328   4.202   5.194  0.2428 -0.0691 -0.7420
 6151SOL    HW230087   3.436   4.100   5.237 -0.0350 -0.6751 -0.0518
 6152SOL     OW30088   4.440   3.885  15.502  0.3240 -0.3285  0.5486
 6152SOL    HW130089   4.496   3.818  15.541  0.5123  0.5673  1.8084
 6152SOL    HW230090   4.446   3.866  15.408  0.4908  0.0731  0.4759
 6153SOL     OW30091   1.841   3.541   7.883  0.4755  0.0991  0.6184
 6153SOL    HW130092   1.844   3.465   7.824 -0.1815 -0.5284  1.3848
 6153SOL    HW230093   1.893   3.611   7.844  1.6617  0.2818  2.5308
 6154SOL     OW30094   2.596   4.732   7.189  0.4997 -0.1664  0.4600
 6154SOL    HW130095   2.589   4.662   7.254 -0.1289  0.2087  0.8052
 6154SOL    HW230096   2.574   4.682   7.111 -1.9262 -0.4533  1.3278
 6155SOL     OW30097   4.401   1.857  16.346 -0.5173 -0.0348 -0.0429
 6155SOL    HW130098   4.311   1.882  16.323 -0.9712 -2.7878 -1.3000
 6155SOL    HW230099   4.393   1.765  16.370 -3.0655  0.8700  2.5181
 6156SOL     OW30100   2.278   1.434   8.989 -0.4225 -0.2645  0.2420
 6156SOL    HW130101   2.317   1.519   8.968 -1.1997  0.3764  1.4041
 6156SOL    HW230102   2.195   1.437   8.943 -0.4023 -1.6864  0.1093
 6157SOL     OW30103   0.333   0.069   4.453  0.4053 -0.1189 -0.0444
 6157SOL    HW130104   0.266   0.054   4.386  1.3435 -0.8258 -0.8207
 6157SOL    HW230105   0.349   4.721   4.484  1.4677 -0.5673 -1.8296
 6158SOL     OW30106   1.864   0.156   4.365 -0.5938  0.4591 -0.0285
 6158SOL    HW130107   1.956   0.129   4.368 -0.8172  0.1207  3.5216
 6158SOL    HW230108   1.850   0.106   4.285 -2.2447  0.0955  0.5018
 6159SOL     OW30109   4.296   3.014  17.267 -0.2235 -0.1231  0.0340
 6159SOL    HW130110   4.342   3.010  17.183  0.5811 -0.5212  0.4995
 6159SOL    HW230111   4.328   2.939  17.317  0.2104 -1.4082 -2.1518
 6160SOL     OW30112   1.141   2.151   6.123 -0.3545 -0.1329  0.7335
 6160SOL    HW130113   1.049   2.127   6.130 -1.4317  3.1728 -1.8831
 6160SOL    HW230114   1.168   2.120   6.036 -0.9253 -2.5740  1.4106
 6161SOL     OW30115   2.569   4.378   3.362 -0.1551 -0.5736  0.1782
 6161SOL    HW130116   2.556   4.335   3.277 -1.2704 -1.2877  0.7194
 6161SOL    HW230117   2.654   4.340   3.384 -0.7324 -1.3709  1.0173
 6162SOL     OW30118   0.267   0.417  13.598  0.0832 -1.0035 -0.1879
 6162SOL    HW130119   0.302   0.495  13.643 -0.5341 -0.3111 -0.9019
 6162SOL    HW230120   0.231   0.355  13.660  0.6317 -0.5957  0.5467
 6163SOL     OW30121   3.412   2.277   5.557 -0.1221  0.2188  0.2101
 6163SOL    HW130122   3.436   2.233   5.476 -0.3528  0.6896 -0.1127
 6163SOL    HW230123   3.390   2.364   5.523 -2.1339 -1.0773 -1.8272
 6164SOL     OW30124   3.905   3.381   4.226  0.1354 -0.2409  0.4217
 6164SOL    HW130125   3.986   3.333   4.205  0.0785  0.0201 -0.3816
 6164SOL    HW230126   3.925   3.474   4.217  0.5652 -0.0676  3.1105
 6165SOL     OW30127   2.539   4.431  11.042 -0.3610 -0.1232  0.5152
 6165SOL    HW130128   2.590   4.490  11.097  0.4070  1.3652 -1.8044
 6165SOL    HW230129   2.611   4.385  11.000 -0.6254  0.6625 -0.8392
 6166SOL     OW30130   1.415   2.824   5.251  0.1627 -0.3119  0.2450
 6166SOL    HW130131   1.479   2.772   5.203  0.5147  0.7465 -0.4460
 6166SOL    HW230132   1.337   2.798   5.201  1.6109 -0.6521 -1.8667
 6167SOL     OW30133   1.103   0.270   6.462  0.1735 -0.7784  0.2525
 6167SOL    HW130134   1.054   0.344   6.428 -0.9929 -1.2324  0.9364
 6167SOL    HW230135   1.188   0.291   6.424  1.3837 -2.4566  2.0245
 6168SOL     OW30136   3.277   0.145  17.612 -0.0628 -0.8290 -0.2022
 6168SOL    HW130137   3.351   0.085  17.626  0.5065 -0.1769 -0.4261
 6168SOL    HW230138   3.209   0.078  17.617 -2.2474  1.3938 -0.3611
 6169SOL     OW30139   0.272   0.596   5.941 -0.3515 -0.3422 -0.3230
 6169SOL    HW130140   0.219   0.650   5.883 -0.2573 -0.2129 -0.2883
 6169SOL    HW230141   0.359   0.615   5.906 -0.3808  1.1230  0.4153
 6170SOL     OW30142   0.332   2.709   4.271  0.2048  0.4402  0.4187
 6170SOL    HW130143   0.329   2.733   4.363  0.1440 -3.2617  1.3856
 6170SOL    HW230144   0.287   2.624   4.273 -0.1654  0.5919 -1.4183
 6171SOL     OW30145   3.644   3.769   6.035  0.4279 -0.4332 -0.5928
 6171SOL    HW130146   3.692   3.703   5.987  2.2030  0.4790 -0.0983
 6171SOL    HW230147   3.606   3.721   6.109 -0.1778  3.1023  1.4173
 6172SOL     OW30148   1.694   1.894   1.652  0.2984 -0.2728 -0.4572
 6172SOL    HW130149   1.698   1.889   1.747 -0.8197  1.0143 -0.3476
 6172SOL    HW230150   1.628   1.833   1.620 -0.3828  0.1821  0.1097
 6173SOL     OW30151   2.989   2.858   6.095  0.3672  0.1846 -0.3577
 6173SOL    HW130152   3.053   2.929   6.105 -0.3890  0.9397 -0.8684
 6173SOL    HW230153   2.937   2.866   6.175  1.5812 -0.3159  0.4658
 6174SOL     OW30154   4.456   1.880   5.906  0.1935 -0.5878 -0.5090
 6174SOL    HW130155   4.472   1.905   5.815 -1.4559  2.0817 -0.0684
 6174SOL    HW230156   4.385   1.818   5.891 -2.4096  2.1993  0.2217
 6175SOL     OW30157   1.578   0.992   8.949  0.3118  0.2206  0.8305
 6175SOL    HW130158   1.489   0.967   8.974  0.1060 -0.6780 -0.7706
 6175SOL    HW230159   1.555   1.045   8.873 -0.5133 -1.2580  0.0482
 6176SOL     OW30160   1.290   2.443   3.858 -0.2974 -0.0421  0.3589
 6176SOL    HW130161   1.349   2.368   3.848  1.1262  1.1671 -0.3938
 6176SOL    HW230162   1.206   2.403   3.836 -1.3510  1.0833  2.3897
 6177SOL     OW30163   1.506   1.206   2.566  0.4688 -0.3201 -0.0014
 6177SOL    HW130164   1.555   1.279   2.604  0.8137  0.4760 -1.9806
 6177SOL    HW230165   1.578   1.144   2.559  1.4249  0.6955  0.8493
 6178SOL     OW30166   3.347   4.324   9.023  0.6792 -0.3991  0.2165
 6178SOL    HW130167   3.397   4.387   8.971 -2.6135  3.8138  2.1235
 6178SOL    HW230168   3.372   4.335   9.114  1.0574 -2.3095  0.3284
 6179SOL     OW30169   1.152   0.885  11.782 -0.4457 -0.5103 -0.1293
 6179SOL    HW130170   1.140   0.821  11.713 -1.0883 -0.1162 -0.3846
 6179SOL    HW230171   1.060   0.913  11.780  0.2970  2.0413  1.2087
 6180SOL     OW30172   1.264   4.494   8.444  0.4366  0.6626  0.5934
 6180SOL    HW130173   1.325   4.520   8.512 -0.4129 -2.4197  2.5591
 6180SOL    HW230174   1.213   4.575   8.438  2.5993  2.0463  1.1543
 6181SOL     OW30175   2.647   2.736   1.263 -0.1862 -0.1721  0.5976
 6181SOL    HW130176   2.707   2.738   1.188  2.7454 -1.9983  2.9154
 6181SOL    HW230177   2.636   2.831   1.270  1.7636  0.0597  0.5521
 6182SOL     OW30178   2.353   3.413   5.768 -0.2672  0.3002 -0.1045
 6182SOL    HW130179   2.328   3.498   5.733 -2.5132  0.1796  1.2594
 6182SOL    HW230180   2.314   3.352   5.705 -0.3834  1.0290 -0.7419
 6183SOL     OW30181   4.285   0.364  17.709 -0.0931 -0.2904  0.5327
 6183SOL    HW130182   4.326   0.375   0.033 -0.1574  0.7580  0.4334
 6183SOL    HW230183   4.270   0.457  17.690  0.1438 -0.1575  1.0209
 6184SOL     OW30184   3.012   3.309   1.132  0.0565  0.4525  0.2805
 6184SOL    HW130185   2.968   3.225   1.145  2.4986 -0.7202  0.9514
 6184SOL    HW230186   2.959   3.346   1.061  0.5537  2.0400  0.7554
 6185SOL     OW30187   1.130   0.829  12.634 -0.4428  0.0048  0.8897
 6185SOL    HW130188   1.058   0.891  12.623 -0.9618 -1.1869 -2.2757
 6185SOL    HW230189   1.190   0.894  12.669  0.6176 -0.9269  0.7863
 6186SOL     OW30190   2.585   1.970   7.310 -0.4426 -0.1702  0.0181
 6186SOL    HW130191   2.565   1.900   7.247 -0.0835  0.1673 -0.4659
 6186SOL    HW230192   2.579   2.052   7.262 -0.9318 -0.2727 -0.1054
 6187SOL     OW30193   1.927   3.862   7.264  0.1535 -0.0183  0.0399
 6187SOL    HW130194   1.983   3.880   7.339  2.4829 -0.1190 -1.6864
 6187SOL    HW230195   1.982   3.878   7.188 -1.0832  2.4029 -0.3370
 6188SOL     OW30196   1.244   3.871   7.458  0.3555  0.1392  0.5231
 6188SOL    HW130197   1.226   3.780   7.435 -2.2206  1.1075 -1.2967
 6188SOL    HW230198   1.264   3.899   7.369  0.5774 -1.0980  0.1828
 6189SOL     OW30199   4.327   2.149   5.781  0.6710  0.0152  0.3986
 6189SOL    HW130200   4.349   2.130   5.872 -1.5322  1.6557  1.2782
 6189SOL    HW230201   4.261   2.081   5.767 -1.9834  2.3932  1.1967
 6190SOL     OW30202   1.344   1.823   3.458  0.2000  0.2830 -0.2393
 6190SOL    HW130203   1.258   1.851   3.429  0.1374  2.1565  1.7443
 6190SOL    HW230204   1.389   1.803   3.376  0.3524  0.5908 -0.2329
 6191SOL     OW30205   2.589   3.547   2.658  0.4268  0.3054  0.2597
 6191SOL    HW130206   2.519   3.520   2.598  0.9949  1.2248 -0.8291
 6191SOL    HW230207   2.568   3.515   2.745 -1.8804 -0.4398 -0.5766
 6192SOL     OW30208   1.561   1.493   3.020  0.6344  0.4958  0.3004
 6192SOL    HW130209   1.507   1.469   2.945 -1.2387  0.5637  1.6234
 6192SOL    HW230210   1.629   1.537   2.970 -0.0642  2.2153  0.8620
 6193SOL     OW30211   2.864   4.561   1.890  0.1028  0.2773  0.4288
 6193SOL    HW130212   2.834   4.586   1.977  0.5145 -0.7677  0.8734
 6193SOL    HW230213   2.902   4.475   1.908  2.1137  0.8234 -1.2270
 6194SOL     OW30214   1.171   3.306   4.303 -0.0307 -0.4174  0.5657
 6194SOL    HW130215   1.247   3.253   4.280  0.7876  0.9489  0.1699
 6194SOL    HW230216   1.144   3.246   4.373  0.5251 -0.4143  0.7800
 6195SOL     OW30217   2.435   0.929   8.909  0.2555 -0.1552 -0.3719
 6195SOL    HW130218   2.483   0.873   8.970  0.1906  0.8296  0.5859
 6195SOL    HW230219   2.365   0.869   8.883 -0.7540  0.7337  0.3234
 6196SOL     OW30220   0.479   1.870   5.955 -0.0135  0.5157  0.1811
 6196SOL    HW130221   0.414   1.928   5.917 -0.4149 -0.1180 -0.0967
 6196SOL    HW230222   0.435   1.786   5.939 -1.0165  0.9299  0.7386
 6197SOL     OW30223   2.921   3.720   0.029  0.2812  0.7102 -0.7079
 6197SOL    HW130224   2.849   3.657   0.038  0.0705  1.2268  1.1904
 6197SOL    HW230225   2.943   3.713  17.697 -1.4494 -1.2870 -0.9647
 6198SOL     OW30226   3.100   3.495   1.299 -0.4552  0.4129  0.0536
 6198SOL    HW130227   3.075   3.420   1.246 -1.1205  1.0813 -0.5922
 6198SOL    HW230228   3.055   3.571   1.260  0.2096 -0.3460 -2.2022
 6199SOL     OW30229   3.779   1.208   6.331  0.6620  0.0347 -0.0654
 6199SOL    HW130230   3.860   1.243   6.367  0.0134  1.5749 -0.0942
 6199SOL    HW230231   3.720   1.276   6.364 -0.4958 -0.2453 -1.5649
 6200SOL     OW30232   4.294   1.766   5.052 -0.1659  0.4344  0.2483
 6200SOL    HW130233   4.230   1.771   4.981 -0.2173  0.3907  0.2920
 6200SOL    HW230234   4.372   1.737   5.004  0.2805 -1.1438  1.9449
 6201SOL     OW30235   1.886   4.217  16.946  0.3297 -0.2601 -0.0071
 6201SOL    HW130236   1.827   4.147  16.977 -1.1585  0.3194 -1.5165
 6201SOL    HW230237   1.952   4.158  16.910 -1.0546 -0.6193 -1.9577
 6202SOL     OW30238   3.114   3.773   5.279  0.0168 -0.0584 -0.7696
 6202SOL    HW130239   3.030   3.777   5.233 -0.6857  1.0463  0.6299
 6202SOL    HW230240   3.137   3.680   5.272 -0.5987 -0.3552  1.1914
 6203SOL     OW30241   2.879   4.129   1.003 -0.4347  0.3857 -0.3836
 6203SOL    HW130242   2.974   4.138   1.004 -0.3420 -0.5634 -0.4131
 6203SOL    HW230243   2.885   4.034   1.017  2.0736  0.7868  1.0659
 6204SOL     OW30244   1.751   2.134   4.659 -0.1868  0.4903  0.4455
 6204SOL    HW130245   1.785   2.152   4.746 -2.2929  2.2382  0.9231
 6204SOL    HW230246   1.729   2.220   4.622  3.3840  0.4635 -1.7080
 6205SOL     OW30247   4.412   0.970   6.711  0.1456  0.0192  0.2737
 6205SOL    HW130248   4.441   1.051   6.755 -0.6505  0.2315  0.4049
 6205SOL    HW230249   4.425   0.999   6.620  0.1904  1.1943  0.6494
 6206SOL     OW30250   2.493   3.861  13.732  0.5016  1.1826  0.2473
 6206SOL    HW130251   2.474   3.789  13.672  3.9228  1.3536 -1.0455
 6206SOL    HW230252   2.563   3.903  13.682 -0.5548  0.4733 -1.8183
 6207SOL     OW30253   3.193   1.940   2.926 -0.5345 -0.1083 -0.0253
 6207SOL    HW130254   3.182   1.925   2.832  0.6026  1.3277 -0.3887
 6207SOL    HW230255   3.165   2.031   2.935  0.6164  0.3637 -1.1220
 6208SOL     OW30256   3.940   2.253   4.828 -0.1877  0.0225 -0.5668
 6208SOL    HW130257   3.859   2.236   4.780 -0.8335  0.6787  0.2840
 6208SOL    HW230258   4.015   2.239   4.771 -0.2190 -1.1917 -0.3116
 6209SOL     OW30259   1.807   2.564   5.143  0.0925 -0.1596  0.7323
 6209SOL    HW130260   1.866   2.639   5.137 -0.5083  0.4696  2.5389
 6209SOL    HW230261   1.858   2.508   5.086  0.1590  1.6110 -0.9651
 6210SOL     OW30262   3.112   3.384   3.446 -0.4704 -0.0269 -0.0074
 6210SOL    HW130263   3.069   3.438   3.512 -1.4164 -2.6221  1.5021
 6210SOL    HW230264   3.057   3.415   3.374 -0.9532 -0.0291  0.3630
 6211SOL     OW30265   3.947   0.650  11.686 -0.2385  0.6210 -0.1409
 6211SOL    HW130266   3.987   0.684  11.605 -1.7021  2.2269 -0.1847
 6211SOL    HW230267   4.024   0.603  11.719  0.0052  1.6059  0.6826
 6212SOL     OW30268   3.934   3.487   1.584  0.4269  0.1547 -0.2178
 6212SOL    HW130269   3.981   3.564   1.551  0.2936  1.1016  1.7874
 6212SOL    HW230270   4.009   3.428   1.590  0.9261  0.8304  0.3142
 6213SOL     OW30271   0.094   1.424   1.915 -0.1608  1.0840 -0.1152
 6213SOL    HW130272   0.138   1.342   1.893 -0.6330  0.8981 -0.3717
 6213SOL    HW230273   0.037   1.388   1.984  1.3377 -0.1895  0.4513
 6214SOL     OW30274   2.620   1.393  10.450 -0.6350 -0.0365 -0.7936
 6214SOL    HW130275   2.558   1.328  10.416 -0.3029 -0.7046 -0.1077
 6214SOL    HW230276   2.658   1.413  10.364 -1.4604  1.9259 -0.7081
 6215SOL     OW30277   0.576   2.026  17.741  0.5894  0.3846  0.3368
 6215SOL    HW130278   0.619   1.942  17.755 -0.5498 -0.3606 -0.6528
 6215SOL    HW230279   0.559   2.021  17.647  0.3981 -2.7401  0.5642
 6216SOL     OW30280   1.888   0.460  13.117  0.5817 -0.4388 -0.2520
 6216SOL    HW130281   1.948   0.485  13.188 -0.8036  1.0991  0.3797
 6216SOL    HW230282   1.869   0.370  13.140  1.2423 -0.6860 -0.6642
 6217SOL     OW30283   0.953   2.608   5.177 -0.3864  0.0588 -0.0902
 6217SOL    HW130284   0.908   2.631   5.259 -0.9720 -0.9597 -0.1310
 6217SOL    HW230285   0.882   2.624   5.115 -1.2427 -1.1885  0.5552
 6218SOL     OW30286   1.960   1.817  13.073 -0.8852  0.1464  0.4589
 6218SOL    HW130287   2.006   1.774  13.146  0.8012 -1.8414 -1.7964
 6218SOL    HW230288   2.031   1.823  13.010 -0.1672  0.6806  1.3105
 6219SOL     OW30289   4.007   2.801  14.599  0.0885 -0.1473  0.3948
 6219SOL    HW130290   4.077   2.832  14.657  1.0002 -2.0844  0.3161
 6219SOL    HW230291   4.063   2.778  14.525 -0.1996  1.2245 -0.2599
 6220SOL     OW30292   4.716   0.835   7.039  0.3745  0.2949 -0.0816
 6220SOL    HW130293   0.023   0.760   7.074 -2.3151 -1.2357  0.4037
 6220SOL    HW230294   4.654   0.860   7.108  0.6532 -1.1352  0.6805
 6221SOL     OW30295   0.289   4.481   8.837 -0.2832  0.6215  0.8567
 6221SOL    HW130296   0.290   4.391   8.806  0.9904  0.9071  0.0946
 6221SOL    HW230297   0.241   4.529   8.770 -2.3964 -1.7955  0.6134
 6222SOL     OW30298   0.624   1.118   1.918  0.1976 -0.2289 -0.0274
 6222SOL    HW130299   0.569   1.095   1.843 -1.9279  1.0626  1.1334
 6222SOL    HW230300   0.651   1.029   1.942 -1.8736 -0.4258  1.5627
 6223SOL     OW30301   0.684   4.537   7.998 -0.2469  0.6421  0.3286
 6223SOL    HW130302   0.734   4.619   7.994  1.6683 -0.4633  1.9300
 6223SOL    HW230303   0.698   4.511   7.908 -0.2735 -0.3855  0.6247
 6224SOL     OW30304   4.654   2.930   4.103  0.7065  0.1970  0.6450
 6224SOL    HW130305   4.654   2.858   4.166 -0.1503 -1.3559 -1.1669
 6224SOL    HW230306   4.564   2.958   4.121  0.0974 -1.8027  0.6777
 6225SOL     OW30307   0.548   2.147   8.814 -0.1463 -0.7391 -0.5233
 6225SOL    HW130308   0.629   2.115   8.775  0.5294 -0.8820  0.9854
 6225SOL    HW230309   0.494   2.170   8.739 -1.0224  0.6299  0.5184
 6226SOL     OW30310   2.526   0.275   3.126 -0.5469  0.3921  0.3104
 6226SOL    HW130311   2.513   0.251   3.218 -1.1011 -0.9585 -0.1213
 6226SOL    HW230312   2.434   0.292   3.103 -0.9312 -2.4638 -0.2877
 6227SOL     OW30313   2.700   0.603  10.744  0.0616 -0.1284  0.3363
 6227SOL    HW130314   2.676   0.694  10.722 -1.1905 -0.1635  1.6296
 6227SOL    HW230315   2.739   0.588  10.657 -2.2795  0.8584 -0.8893
 6228SOL     OW30316   4.312   3.088   1.450  0.6881 -0.8893 -0.6093
 6228SOL    HW130317   4.279   3.017   1.396 -1.4640 -0.2507 -0.1152
 6228SOL    HW230318   4.340   3.041   1.529  0.9118 -0.3307 -0.3481
 6229SOL     OW30319   3.759   4.116   6.071  0.5236  0.1263  0.2044
 6229SOL    HW130320   3.840   4.164   6.055  1.1602 -1.2574 -0.7812
 6229SOL    HW230321   3.756   4.053   5.998  1.2247 -0.2592  0.5070
 6230SOL     OW30322   1.167   0.822   8.123 -0.5541 -0.6914  0.1202
 6230SOL    HW130323   1.091   0.807   8.068 -1.9478  0.8561  1.6494
 6230SOL    HW230324   1.143   0.898   8.176  1.3119  0.1983 -0.3117
 6231SOL     OW30325   1.744   4.167   8.370 -0.5522  0.6307 -0.5205
 6231SOL    HW130326   1.699   4.084   8.387  0.4241 -0.0657 -1.2800
 6231SOL    HW230327   1.721   4.176   8.277  0.7789 -1.5090 -1.0571
 6232SOL     OW30328   1.603   3.847   4.231 -0.1076 -0.3411  0.0696
 6232SOL    HW130329   1.517   3.826   4.194 -0.0777 -1.2189  0.5228
 6232SOL    HW230330   1.661   3.793   4.177  1.6031 -1.5776  3.1360
 6233SOL     OW30331   3.602   4.442   2.743  0.3212  0.1794 -0.1592
 6233SOL    HW130332   3.617   4.507   2.812 -0.3044 -0.6966  0.8040
 6233SOL    HW230333   3.686   4.440   2.697  0.1216  1.1795 -0.5781
 6234SOL     OW30334   0.438   2.171  12.983 -0.0177  0.1393  0.0618
 6234SOL    HW130335   0.376   2.122  13.037  0.6024  1.0706  1.5970
 6234SOL    HW230336   0.419   2.263  13.001 -1.7665  0.0379 -1.2642
 6235SOL     OW30337   0.829   4.358   6.655 -0.4953  0.4631  0.6275
 6235SOL    HW130338   0.846   4.291   6.590 -0.0829  0.8118  0.3754
 6235SOL    HW230339   0.836   4.310   6.738  0.1828  1.6612  1.2625
 6236SOL     OW30340   2.825   2.307  10.641 -0.6618  0.1716  0.1236
 6236SOL    HW130341   2.826   2.387  10.694  1.2195 -0.8196  1.5652
 6236SOL    HW230342   2.734   2.278  10.648 -0.4618 -0.0962  1.5508
 6237SOL     OW30343   2.826   2.117  14.819  0.4729 -0.0441  0.9945
 6237SOL    HW130344   2.766   2.047  14.791  1.1505  0.7903 -2.5058
 6237SOL    HW230345   2.861   2.122  14.730  0.9393 -0.1377  1.1742
 6238SOL     OW30346   0.315   0.632   7.004  0.0675 -0.2405  0.1002
 6238SOL    HW130347   0.369   0.711   7.007  0.0015 -0.2264  0.9745
 6238SOL    HW230348   0.250   0.656   7.070  0.2941  0.2300  0.1522
 6239SOL     OW30349   0.299   3.027   8.535  0.5388  0.1038  0.5582
 6239SOL    HW130350   0.244   3.044   8.611 -1.0172 -0.2808 -0.4658
 6239SOL    HW230351   0.316   3.112   8.495  0.5003 -0.5585 -0.8718
 6240SOL     OW30352   3.008   0.601   2.380 -0.0147 -0.4075  0.4306
 6240SOL    HW130353   2.969   0.662   2.442  0.2430  0.3389 -0.1446
 6240SOL    HW230354   2.936   0.575   2.322 -0.1122  2.5937 -0.7715
 6241SOL     OW30355   1.763   3.331   5.442  0.6283 -0.2712  0.1528
 6241SOL    HW130356   1.850   3.303   5.413  1.2079  1.8775 -0.1793
 6241SOL    HW230357   1.778   3.420   5.472  0.2926  0.0137 -0.5069
 6242SOL     OW30358   3.447   2.104   1.386 -0.2307  0.2892  0.0261
 6242SOL    HW130359   3.534   2.068   1.402 -1.0863 -1.6099  0.3454
 6242SOL    HW230360   3.436   2.097   1.291  2.5273 -1.6400 -0.1688
 6243SOL     OW30361   4.412   1.655   1.258 -0.1871 -0.0949 -0.1692
 6243SOL    HW130362   4.382   1.650   1.349 -0.1189 -0.0702 -0.1456
 6243SOL    HW230363   4.366   1.737   1.239  1.1340  0.7755  0.4450
 6244SOL     OW30364   3.101   2.306   9.820 -0.1112  0.0900  0.3454
 6244SOL    HW130365   3.194   2.290   9.830  0.2492  1.7980 -0.4100
 6244SOL    HW230366   3.109   2.356   9.739  0.2575  1.1560  1.0500
 6245SOL     OW30367   4.735   2.642   7.819 -0.1320  0.4856  0.3418
 6245SOL    HW130368   0.026   2.562   7.778  0.4042  0.4806  0.7739
 6245SOL    HW230369   4.729   2.617   7.911 -2.4757 -2.2685 -0.5486
 6246SOL     OW30370   1.347   0.922   9.028  0.5284 -0.2211 -0.0088
 6246SOL    HW130371   1.358   0.827   9.034  0.9697 -0.0551  1.8792
 6246SOL    HW230372   1.315   0.940   9.117 -0.6001  2.9754 -1.0556
 6247SOL     OW30373   1.455   4.432   5.124  0.1458 -0.3966 -0.0425
 6247SOL    HW130374   1.443   4.384   5.042  1.3136  1.5465 -1.3643
 6247SOL    HW230375   1.550   4.443   5.121  0.1453 -0.3262  0.1634
 6248SOL     OW30376   1.137   3.552   1.765  0.0517  0.0488 -0.1531
 6248SOL    HW130377   1.154   3.624   1.826  1.7418 -0.3964 -0.1072
 6248SOL    HW230378   1.050   3.528   1.797  0.1944 -0.9322 -0.4974
 6249SOL     OW30379   1.025   0.384  16.376  0.2278 -0.3838  0.2742
 6249SOL    HW130380   1.032   0.478  16.395  3.1913 -0.1701 -1.7810
 6249SOL    HW230381   0.954   0.356  16.433  1.0646 -0.8636  1.0727
 6250SOL     OW30382   1.674   2.587   6.353  0.2352  0.1522  0.0093
 6250SOL    HW130383   1.650   2.676   6.329 -0.4609  0.5824  2.3082
 6250SOL    HW230384   1.590   2.543   6.361 -0.4357  1.7378  1.5135
 6251SOL     OW30385   2.637   2.238   5.111  0.1618  0.2809 -0.3118
 6251SOL    HW130386   2.652   2.279   5.196  2.3950 -0.2137 -0.4696
 6251SOL    HW230387   2.625   2.148   5.141 -0.8150  0.0985 -1.2304
 6252SOL     OW30388   3.980   0.979  11.570  0.0065  0.1411  0.1795
 6252SOL    HW130389   3.993   0.902  11.515 -2.7034  0.1582 -0.4951
 6252SOL    HW230390   3.888   0.993  11.548 -0.3060 -0.6554  0.9937
 6253SOL     OW30391   0.518   3.861  14.136 -0.0383  0.0961  0.2165
 6253SOL    HW130392   0.436   3.898  14.104  1.0874  2.2463 -0.1758
 6253SOL    HW230393   0.552   3.940  14.179 -2.5455 -1.2217  4.6915
 6254SOL     OW30394   2.262   0.126   9.823 -0.6355  0.0148 -0.4756
 6254SOL    HW130395   2.277   0.065   9.751  0.4213 -2.0009  1.4287
 6254SOL    HW230396   2.346   0.172   9.823  1.0204 -2.9594  2.1500
 6255SOL     OW30397   0.866   1.663   3.750  0.1524 -0.2808  0.6249
 6255SOL    HW130398   0.882   1.590   3.809  1.3359  0.2628  0.9743
 6255SOL    HW230399   0.952   1.691   3.719 -0.0899 -0.8939 -0.5682
 6256SOL     OW30400   0.303   2.854   4.567 -0.3391  0.3035 -0.3335
 6256SOL    HW130401   0.315   2.928   4.626  1.3041  2.3457 -3.2335
 6256SOL    HW230402   0.367   2.791   4.601  0.8140  1.9795  0.6385
 6257SOL     OW30403   1.109   3.006   7.028 -0.3216  0.3002  0.1738
 6257SOL    HW130404   1.102   3.102   7.028 -1.7167  0.2082 -0.3823
 6257SOL    HW230405   1.190   3.006   7.078 -0.6861  0.1887  0.7694
 6258SOL     OW30406   4.409   4.069   6.295 -0.3464  0.3135 -0.2415
 6258SOL    HW130407   4.429   4.153   6.337 -0.5241  0.6187 -0.7599
 6258SOL    HW230408   4.316   4.060   6.315 -0.0577  0.1635  1.0074
 6259SOL     OW30409   4.481   4.049   3.411 -0.4154  0.3061  0.2435
 6259SOL    HW130410   4.495   4.009   3.326  0.5495 -0.9996  1.0144
 6259SOL    HW230411   4.474   4.137   3.373  1.4962 -0.0451 -0.9489
 6260SOL     OW30412   2.222   3.127   4.778  0.3184  0.1277  0.1345
 6260SOL    HW130413   2.267   3.210   4.788  1.8360 -0.6165 -0.4760
 6260SOL    HW230414   2.226   3.112   4.684 -1.7690 -0.0510  0.0738
 6261SOL     OW30415   2.030   0.532  13.335 -0.2272 -0.0382  0.0807
 6261SOL    HW130416   1.994   0.619  13.353  0.4993  0.4696 -0.8614
 6261SOL    HW230417   2.116   0.535  13.376 -0.4789 -2.0595  0.7523
 6262SOL     OW30418   0.062   0.988   4.937  0.7611 -0.3971 -0.3863
 6262SOL    HW130419   0.147   1.027   4.957 -0.2346  1.6711 -0.1446
 6262SOL    HW230420   0.095   0.902   4.961 -0.6890 -0.3065  1.9130
 6263SOL     OW30421   2.173   2.895   8.084 -0.1832 -0.0902 -0.3731
 6263SOL    HW130422   2.162   2.825   8.148 -2.4938 -0.4206 -1.1647
 6263SOL    HW230423   2.119   2.862   8.013 -0.1979 -0.8597  0.0019
 6264SOL     OW30424   2.215   2.829  11.328 -0.3785 -0.2660 -0.7085
 6264SOL    HW130425   2.145   2.809  11.390 -1.1034  2.5418 -0.6129
 6264SOL    HW230426   2.188   2.787  11.247  0.2974 -0.5180 -0.8017
 6265SOL     OW30427   0.556   1.881  16.331  0.0103  0.2905 -0.0809
 6265SOL    HW130428   0.640   1.916  16.299 -0.0206  0.0528 -0.4282
 6265SOL    HW230429   0.566   1.883  16.426  0.7457 -2.3950 -0.0962
 6266SOL     OW30430   4.542   4.184  11.941 -0.0078  0.1884 -0.2198
 6266SOL    HW130431   4.464   4.233  11.968  1.1568  0.2774  2.9131
 6266SOL    HW230432   4.503   4.100  11.916 -1.0571  0.4954  0.3643
 6267SOL     OW30433   2.216   3.427  12.934 -0.3508 -0.0106 -0.4929
 6267SOL    HW130434   2.122   3.443  12.933 -0.3924 -0.0286  1.8624
 6267SOL    HW230435   2.245   3.475  13.012  1.3576  0.4317 -1.4008
 6268SOL     OW30436   4.456   2.913  15.802  0.1557  0.2816 -0.5432
 6268SOL    HW130437   4.477   2.820  15.811  1.7485  0.7293  0.2893
 6268SOL    HW230438   4.362   2.912  15.816  0.3668 -0.7249  0.8013
 6269SOL     OW30439   2.866   4.162   4.678 -0.6985 -0.2616  0.0590
 6269SOL    HW130440   2.890   4.227   4.743 -1.3651 -2.0157  2.0659
 6269SOL    HW230441   2.939   4.152   4.616 -0.5376  0.4884  0.1291
 6270SOL     OW30442   0.263   1.581   3.112  0.2487  0.0456  0.2615
 6270SOL    HW130443   0.213   1.642   3.059 -0.5424 -0.7502  0.0821
 6270SOL    HW230444   0.336   1.555   3.055  0.5483  0.2641  0.5427
 6271SOL     OW30445   1.383   3.073   3.692  0.5838 -0.0734 -0.2522
 6271SOL    HW130446   1.468   3.087   3.651  0.5456 -1.1339 -0.6778
 6271SOL    HW230447   1.357   3.162   3.715 -0.8466 -0.7602  0.8271
 6272SOL     OW30448   2.670   4.594   5.659 -0.3888  0.6111 -0.0104
 6272SOL    HW130449   2.617   4.655   5.607 -3.3859 -2.1674 -0.2227
 6272SOL    HW230450   2.732   4.660   5.690 -1.4316  0.6813  1.9769
 6273SOL     OW30451   1.271   3.262   0.343 -0.0101  0.2956 -0.4027
 6273SOL    HW130452   1.261   3.185   0.287  2.3914  0.5586 -1.1888
 6273SOL    HW230453   1.213   3.322   0.295 -2.0923 -0.0869  1.6448
 6274SOL     OW30454   3.585   1.133  11.067 -0.0567 -0.0340 -0.3807
 6274SOL    HW130455   3.530   1.064  11.103 -1.0870 -0.0097 -1.8879
 6274SOL    HW230456   3.671   1.092  11.069  0.4805  1.1049 -0.2665
 6275SOL     OW30457   2.234   3.175   3.338 -0.1763  0.5359  0.1977
 6275SOL    HW130458   2.287   3.116   3.392 -0.6153  1.5369  1.7377
 6275SOL    HW230459   2.143   3.159   3.363 -0.4777 -0.3250 -1.4232
 6276SOL     OW30460   4.539   2.254   6.754 -0.1850 -0.1873  0.1447
 6276SOL    HW130461   4.600   2.302   6.810 -1.9452  1.4800  0.6393
 6276SOL    HW230462   4.579   2.168   6.759  2.1790  1.1041  2.9837
 6277SOL     OW30463   4.486   3.113   7.900 -0.0129 -0.0572 -0.4565
 6277SOL    HW130464   4.539   3.039   7.929  0.4012  0.3971 -0.0382
 6277SOL    HW230465   4.543   3.146   7.830  0.1087 -0.6241 -0.6230
 6278SOL     OW30466   4.302   4.623   8.195 -0.0147 -0.1611  0.6186
 6278SOL    HW130467   4.355   4.588   8.266  0.2740 -0.0460  0.4576
 6278SOL    HW230468   4.355   4.699   8.171 -2.8784  0.6969 -3.0066
 6279SOL     OW30469   3.106   3.453   1.756  0.2371 -0.5430  0.0081
 6279SOL    HW130470   3.181   3.510   1.775  0.9270 -0.3861 -3.0873
 6279SOL    HW230471   3.064   3.459   1.841 -0.6090  2.6861 -0.6128
 6280SOL     OW30472   3.829   3.532  11.234 -0.7562  0.0316  0.5299
 6280SOL    HW130473   3.896   3.477  11.275  0.5797  1.2400 -0.0348
 6280SOL    HW230474   3.829   3.604  11.296  0.6946  0.0905  0.4455
 6281SOL     OW30475   4.199   0.406   5.042  0.1301 -0.2381  0.1765
 6281SOL    HW130476   4.257   0.481   5.046 -1.2466  0.8830 -0.7026
 6281SOL    HW230477   4.166   0.420   4.953 -0.2627 -1.6926  0.0887
 6282SOL     OW30478   4.474   1.155  16.030 -0.0670 -0.0457 -0.5507
 6282SOL    HW130479   4.402   1.102  15.995  1.4758 -1.1626 -2.0297
 6282SOL    HW230480   4.474   1.232  15.972 -1.1331  0.1694 -0.2640
 6283SOL     OW30481   1.587   4.501  10.422 -0.3565 -0.0553 -0.1506
 6283SOL    HW130482   1.561   4.427  10.476 -0.4748 -0.2511 -0.4722
 6283SOL    HW230483   1.560   4.481  10.332  1.9551 -1.0296 -0.6216
 6284SOL     OW30484   0.131   4.322  10.460 -0.0009  0.1371  0.0349
 6284SOL    HW130485   0.054   4.299  10.408 -0.8670  1.6448  0.6578
 6284SOL    HW230486   0.099   4.355  10.544 -0.4382  0.7747 -0.3867
 6285SOL     OW30487   4.185   2.193   4.409  0.4841  0.4607 -0.1792
 6285SOL    HW130488   4.262   2.187   4.465 -0.6743 -1.4807  1.2114
 6285SOL    HW230489   4.168   2.101   4.388  0.1254 -0.2304  3.1716
 6286SOL     OW30490   3.209   3.779  16.838  0.5288 -0.3024 -0.3944
 6286SOL    HW130491   3.171   3.777  16.926  0.8025  2.8533 -0.2038
 6286SOL    HW230492   3.162   3.852  16.798  3.4850  1.3549 -0.8583
 6287SOL     OW30493   4.043   1.560   3.025 -0.1037 -0.4396 -0.7920
 6287SOL    HW130494   4.036   1.528   3.115 -1.1928  2.2916  0.0981
 6287SOL    HW230495   4.133   1.533   3.008  0.6981  0.1100  2.5028
 6288SOL     OW30496   3.416   1.344  15.490  0.4466 -0.3495 -0.2536
 6288SOL    HW130497   3.411   1.287  15.567 -2.1775 -1.2652 -1.1279
 6288SOL    HW230498   3.374   1.427  15.513  0.8210 -0.8923  2.4134
 6289SOL     OW30499   2.572   1.302  16.334 -0.8984  0.5814  0.3765
 6289SOL    HW130500   2.547   1.348  16.254  0.7585  0.3950 -0.2442
 6289SOL    HW230501   2.666   1.312  16.322 -0.6843  2.8246  4.1268
 6290SOL     OW30502   1.927   0.794   8.290 -0.2831 -0.1103  0.0354
 6290SOL    HW130503   1.989   0.810   8.362  0.0372  0.6219 -0.4006
 6290SOL    HW230504   1.983   0.775   8.215 -0.9220  0.2515 -0.5375
 6291SOL     OW30505   4.255   3.129   8.989  0.1659  0.0024  0.2008
 6291SOL    HW130506   4.194   3.148   9.061 -0.9142 -0.9547 -0.4458
 6291SOL    HW230507   4.200   3.085   8.924 -1.3554  1.3204  0.5908
 6292SOL     OW30508   3.198   3.573   2.791 -0.2206 -0.2831 -0.5675
 6292SOL    HW130509   3.174   3.481   2.789 -0.5826 -0.1844 -0.9151
 6292SOL    HW230510   3.162   3.602   2.875 -2.8552 -2.9690 -0.7479
 6293SOL     OW30511   1.688   3.531   6.752 -0.1369 -0.3803  0.3153
 6293SOL    HW130512   1.743   3.457   6.724  1.9172  1.0821  0.4238
 6293SOL    HW230513   1.710   3.525   6.845  3.0552 -0.5419 -0.4370
 6294SOL     OW30514   0.516   4.693   8.612 -0.5794  0.0661 -0.1130
 6294SOL    HW130515   0.524   4.644   8.693  1.0351  0.3849 -0.0754
 6294SOL    HW230516   0.426   4.727   8.617  0.0311  1.9431 -1.5444
 6295SOL     OW30517   2.000   2.250   8.553 -0.6892 -0.0368 -0.6291
 6295SOL    HW130518   1.976   2.162   8.582 -0.4970  0.5951  1.4993
 6295SOL    HW230519   1.929   2.255   8.490 -1.0641 -3.5711 -0.4718
 6296SOL     OW30520   2.106   1.977   9.773  0.2561  0.5419  0.0215
 6296SOL    HW130521   2.035   1.921   9.743  1.2695  0.4056 -2.1622
 6296SOL    HW230522   2.102   1.951   9.864 -1.1874 -0.2023 -0.2617
 6297SOL     OW30523   0.168   4.028  11.369 -0.1343  0.1746  0.5223
 6297SOL    HW130524   0.086   3.979  11.381 -0.1714  0.3541  0.9997
 6297SOL    HW230525   0.191   4.062  11.456  0.9700  0.2245  0.2057
 6298SOL     OW30526   0.183   0.746  10.631 -0.8302 -0.0145 -0.5070
 6298SOL    HW130527   0.278   0.751  10.640 -0.6371 -0.4575 -2.3070
 6298SOL    HW230528   0.149   0.745  10.720  1.0574 -3.9380  0.1748
 6299SOL     OW30529   3.905   1.636   6.690  0.2778 -1.0357 -0.2898
 6299SOL    HW130530   3.907   1.667   6.599  0.9285 -0.2882 -0.0180
 6299SOL    HW230531   3.962   1.691   6.743 -3.0907  0.4373  1.8337
 6300SOL     OW30532   1.431   2.808  13.257  0.0833 -0.4176  0.0271
 6300SOL    HW130533   1.504   2.776  13.204 -0.9920 -0.0553 -1.6892
 6300SOL    HW230534   1.471   2.821  13.343 -0.2690  0.3511  0.0720
 6301SOL     OW30535   3.809   3.895   7.323 -0.3537 -1.0442  0.3136
 6301SOL    HW130536   3.903   3.877   7.312 -0.3873 -1.8564  1.3498
 6301SOL    HW230537   3.790   3.962   7.257  0.5388 -2.2506 -1.1830
 6302SOL     OW30538   0.809   1.337   7.327  0.1432  0.0224  0.2798
 6302SOL    HW130539   0.761   1.255   7.313 -1.1934  0.7623  0.4233
 6302SOL    HW230540   0.842   1.364   7.242 -2.5227  2.0677 -0.1167
 6303SOL     OW30541   0.447   0.193   3.791  0.1190  0.3524  0.5002
 6303SOL    HW130542   0.491   0.125   3.740  0.2550  0.1663  0.8722
 6303SOL    HW230543   0.455   0.159   3.880 -1.4898  1.1579  0.9576
 6304SOL     OW30544   0.430   0.385   8.500 -0.2078  0.1431  0.5244
 6304SOL    HW130545   0.493   0.393   8.572 -0.3217 -0.4618  0.6917
 6304SOL    HW230546   0.408   0.476   8.483 -0.2641  0.2336  1.0587
 6305SOL     OW30547   0.285   3.669   1.696  0.1739 -0.0436  0.3990
 6305SOL    HW130548   0.328   3.719   1.627 -0.7478  0.0598 -0.1008
 6305SOL    HW230549   0.354   3.607   1.720  0.7994 -0.4436 -2.3855
 6306SOL     OW30550   2.895   2.706  16.295 -0.3512  0.5740  0.3413
 6306SOL    HW130551   2.904   2.611  16.288  3.5277  0.9342  0.4082
 6306SOL    HW230552   2.923   2.721  16.385  1.0086 -1.9579  0.3434
 6307SOL     OW30553   3.316   2.929   6.797 -0.5902  0.2566  0.1345
 6307SOL    HW130554   3.284   2.892   6.880 -0.4791  0.3488  0.2186
 6307SOL    HW230555   3.384   2.981   6.839 -0.3611 -0.2238  0.3626
 6308SOL     OW30556   3.387   2.763   3.510  0.2283 -0.6902 -0.6740
 6308SOL    HW130557   3.309   2.793   3.556  1.5388  0.6382  0.6936
 6308SOL    HW230558   3.456   2.780   3.574  0.1953  3.3883 -1.6945
 6309SOL     OW30559   0.132   1.494   4.686  0.2210  0.0922  0.1641
 6309SOL    HW130560   0.225   1.479   4.704 -0.3569 -3.0912  0.6498
 6309SOL    HW230561   0.113   1.547   4.764 -1.9710  1.8711 -1.5948
 6310SOL     OW30562   4.116   3.194  17.179 -0.2057  0.1642 -0.3963
 6310SOL    HW130563   4.185   3.144  17.223  1.4290  0.4681 -2.6000
 6310SOL    HW230564   4.162   3.231  17.104 -0.0421  1.9406  0.5814
 6311SOL     OW30565   3.630   0.738   4.550  0.3396  0.1393  0.6020
 6311SOL    HW130566   3.676   0.691   4.619  2.9137  2.0493  0.1859
 6311SOL    HW230567   3.671   0.825   4.551  0.4237  0.0980  0.7494
 6312SOL     OW30568   2.031   4.442   5.282  0.1575  0.2725 -0.5981
 6312SOL    HW130569   1.985   4.361   5.305 -1.3920  1.6718  1.1609
 6312SOL    HW230570   2.022   4.442   5.186 -1.6605  2.1750 -0.4102
 6313SOL     OW30571   4.413   0.695  16.972  0.1045 -0.2135 -0.3682
 6313SOL    HW130572   4.460   0.725  16.894  0.1357  0.1995 -0.1858
 6313SOL    HW230573   4.436   0.768  17.029 -1.5408  0.4194 -0.5317
 6314SOL     OW30574   4.549   4.505   0.837 -0.4067 -0.2630 -0.2659
 6314SOL    HW130575   4.589   4.418   0.830 -3.0547 -1.4088 -1.5534
 6314SOL    HW230576   4.566   4.534   0.747  0.0680 -0.5292 -0.2609
 6315SOL     OW30577   0.108   2.231  13.256  0.5210  0.6166 -0.3256
 6315SOL    HW130578   0.058   2.283  13.319 -0.9815 -2.0123  0.6355
 6315SOL    HW230579   0.134   2.302  13.196  0.0171  1.4595  0.4517
 6316SOL     OW30580   3.633   0.596  11.972  0.1886  0.5278  0.1635
 6316SOL    HW130581   3.615   0.629  12.060  0.2439 -0.7265  0.6462
 6316SOL    HW230582   3.689   0.667  11.942  3.1552 -2.0549 -0.4841
 6317SOL     OW30583   0.553   3.726   9.685  0.1131 -0.4926 -0.3222
 6317SOL    HW130584   0.543   3.712   9.779 -1.8813  0.0279 -0.4566
 6317SOL    HW230585   0.625   3.667   9.665 -1.4900 -2.3780 -0.4824
 6318SOL     OW30586   2.056   2.129  13.033 -0.5692  0.1321 -0.5244
 6318SOL    HW130587   2.147   2.159  13.029  0.2892 -2.3376  0.2187
 6318SOL    HW230588   2.051   2.098  12.943 -1.6608  1.2010 -0.8263
 6319SOL     OW30589   2.584   4.592   6.961  0.0544 -0.0565 -0.3988
 6319SOL    HW130590   2.522   4.602   6.889  0.2485  0.5631 -0.4796
 6319SOL    HW230591   2.623   4.508   6.937 -2.4064 -1.3664  0.2306
 6320SOL     OW30592   4.166   3.704   6.512 -1.4098  0.3738  0.0929
 6320SOL    HW130593   4.227   3.681   6.442 -0.3078 -3.5539  2.3156
 6320SOL    HW230594   4.089   3.654   6.487 -0.4970 -2.0065  2.0287
 6321SOL     OW30595   2.648   0.288   1.624  0.4011 -0.3502  0.5766
 6321SOL    HW130596   2.674   0.198   1.642  0.5920 -0.6680 -1.2035
 6321SOL    HW230597   2.717   0.325   1.568 -0.7725  1.2234  0.1741
 6322SOL     OW30598   1.269   3.758  17.196  0.0009  0.6702  0.4982
 6322SOL    HW130599   1.260   3.686  17.134 -2.4412  1.4432 -0.0477
 6322SOL    HW230600   1.244   3.830  17.137 -0.9709  1.3354  1.7366
 6323SOL     OW30601   3.356   0.265   5.493 -0.2905 -0.3215  0.1189
 6323SOL    HW130602   3.260   0.262   5.495 -0.2571 -1.2258  0.2471
 6323SOL    HW230603   3.374   0.296   5.404  1.0680  0.5901  0.7202
 6324SOL     OW30604   0.030   2.018   3.509  0.2718 -0.1093 -0.1703
 6324SOL    HW130605   0.051   2.093   3.566 -1.3299  0.4404 -0.3049
 6324SOL    HW230606   4.740   2.059   3.429  0.6693 -0.7503 -0.6521
 6325SOL     OW30607   1.088   0.460   6.864 -0.1201  0.1849  0.0052
 6325SOL    HW130608   1.047   0.388   6.912 -0.9218  0.1100 -0.7958
 6325SOL    HW230609   1.096   0.528   6.932 -0.9104 -1.4506  1.7430
 6326SOL     OW30610   4.065   0.209   2.270 -0.0120  0.2114 -0.3613
 6326SOL    HW130611   4.014   0.166   2.338 -0.4246  0.6749 -0.3840
 6326SOL    HW230612   4.063   0.302   2.294 -0.1740  0.4191 -1.1665
 6327SOL     OW30613   0.800   3.540  17.167  0.1498 -0.0542 -0.1690
 6327SOL    HW130614   0.802   3.604  17.239 -2.3124 -2.4385  2.0119
 6327SOL    HW230615   0.880   3.488  17.173  0.6820  0.5790 -1.8427
 6328SOL     OW30616   0.251   3.841  11.204  0.2962  0.1076  0.1558
 6328SOL    HW130617   0.339   3.845  11.241  0.2719 -0.0126  0.2237
 6328SOL    HW230618   0.216   3.926  11.231  1.5835  0.3058  1.2019
 6329SOL     OW30619   2.120   1.699  17.112 -0.0698  0.1572 -0.8102
 6329SOL    HW130620   2.075   1.676  17.194  1.8253 -1.9930 -0.3500
 6329SOL    HW230621   2.211   1.716  17.139 -0.6159 -0.4681  1.5049
 6330SOL     OW30622   2.692   3.604   0.142 -0.0369 -0.1752 -0.3102
 6330SOL    HW130623   2.664   3.685   0.100 -2.1663 -1.1948 -0.8628
 6330SOL    HW230624   2.650   3.606   0.228 -0.9221 -0.3424 -0.7374
 6331SOL     OW30625   1.205   3.975   5.379  0.3277 -0.2678  0.6136
 6331SOL    HW130626   1.111   3.995   5.380  0.3621 -0.0306 -0.8779
 6331SOL    HW230627   1.220   3.977   5.284  0.6420 -1.3616  0.6442
 6332SOL     OW30628   3.786   2.853   8.031 -0.1141 -0.0472  0.3610
 6332SOL    HW130629   3.801   2.946   8.044  0.1505 -0.3416  2.1652
 6332SOL    HW230630   3.868   2.820   8.069 -0.2657 -3.4406 -2.1965
 6333SOL     OW30631   1.858   3.810  15.275  0.2188 -0.1517  0.0377
 6333SOL    HW130632   1.905   3.727  15.284 -1.5384 -0.9987  1.4121
 6333SOL    HW230633   1.916   3.872  15.320  2.9584 -1.5890 -1.5217
 6334SOL     OW30634   3.986   0.646   7.925  1.2448  0.4359  0.3142
 6334SOL    HW130635   3.900   0.640   7.884 -0.0555  1.5101  2.9430
 6334SOL    HW230636   4.012   0.554   7.915  3.3779  1.2439 -1.7060
 6335SOL     OW30637   0.489   3.135   3.502  0.0669  0.3304 -0.0876
 6335SOL    HW130638   0.485   3.049   3.543 -1.9530  0.3748 -0.2151
 6335SOL    HW230639   0.578   3.127   3.466 -0.2357 -0.5372 -0.6432
 6336SOL     OW30640   2.750   3.118   4.160 -0.0489  0.2495 -0.2276
 6336SOL    HW130641   2.657   3.132   4.143 -0.2695  0.5385  1.2490
 6336SOL    HW230642   2.746   3.114   4.256  2.5903 -0.4669 -0.1548
 6337SOL     OW30643   0.577   2.923  11.007 -0.3276 -0.1328 -0.1763
 6337SOL    HW130644   0.637   2.884  11.071  0.4041  1.9268  0.3944
 6337SOL    HW230645   0.651   2.974  10.974  0.3319 -0.4631  0.7877
 6338SOL     OW30646   4.374   2.923   6.219 -0.0465  0.0144 -0.4460
 6338SOL    HW130647   4.354   2.841   6.173 -1.1296  0.6587 -1.1108
 6338SOL    HW230648   4.378   2.902   6.312  0.7891 -1.8818 -0.9088
 6339SOL     OW30649   3.327   1.332   2.896 -0.9565  0.0387  0.4982
 6339SOL    HW130650   3.405   1.358   2.943  0.0277 -0.9398 -0.5909
 6339SOL    HW230651   3.299   1.271   2.965  0.9018 -1.2981  0.0917
 6340SOL     OW30652   4.671   3.931  13.908  0.1541 -0.2351  0.2866
 6340SOL    HW130653   4.727   3.918  13.984  1.2777  1.5039 -0.2488
 6340SOL    HW230654   4.740   3.973  13.856 -1.5860  0.5318 -1.4038
 6341SOL     OW30655   4.553   3.617   7.655 -0.3808 -0.2642  0.2046
 6341SOL    HW130656   4.589   3.566   7.727  1.2822 -1.6832 -1.6356
 6341SOL    HW230657   4.494   3.669   7.710 -0.6527 -0.1386 -0.2087
 6342SOL     OW30658   1.989   1.777   1.704  0.0311  0.0237  0.0340
 6342SOL    HW130659   2.053   1.835   1.744 -0.5403  2.9404 -3.2489
 6342SOL    HW230660   1.917   1.806   1.760 -0.7041  0.8195 -1.3008
 6343SOL     OW30661   0.987   1.070   3.828  0.3702  0.3899  0.1509
 6343SOL    HW130662   1.070   1.116   3.843 -0.8287  2.5917 -0.0730
 6343SOL    HW230663   1.005   1.038   3.740 -0.2086  2.1363 -0.5869
 6344SOL     OW30664   4.053   3.492   7.490  0.1062 -0.7038  0.6088
 6344SOL    HW130665   4.010   3.455   7.414  2.3381  1.3044 -1.6624
 6344SOL    HW230666   4.112   3.428   7.530 -1.3660 -1.6455  1.2391
 6345SOL     OW30667   0.338   4.525  16.664 -0.3598  0.1350 -0.0724
 6345SOL    HW130668   0.419   4.576  16.661  0.9301 -1.9371 -0.6814
 6345SOL    HW230669   0.275   4.595  16.653  0.5749  0.6857 -1.8778
 6346SOL     OW30670   1.656   4.558  16.024 -0.1327  0.1943  0.1067
 6346SOL    HW130671   1.636   4.475  15.981 -1.3820 -0.0987  1.2753
 6346SOL    HW230672   1.581   4.610  15.996 -1.0644 -1.7469 -0.9585
 6347SOL     OW30673   1.442   1.006   4.421  0.0470 -0.0746  0.2587
 6347SOL    HW130674   1.535   0.984   4.433  0.4268  1.9852  1.1765
 6347SOL    HW230675   1.413   1.006   4.512  1.3754 -0.3568  0.6922
 6348SOL     OW30676   2.790   2.292   7.460  0.3263 -0.2173  0.7120
 6348SOL    HW130677   2.724   2.359   7.475 -1.7724 -1.8585 -1.1861
 6348SOL    HW230678   2.755   2.243   7.385 -0.6958  0.2884  0.8504
 6349SOL     OW30679   1.574   3.686   8.391 -0.5134  0.3945  0.4721
 6349SOL    HW130680   1.503   3.659   8.334 -1.5347 -0.9536  2.3708
 6349SOL    HW230681   1.588   3.617   8.456 -1.0141 -0.5190 -0.3970
 6350SOL     OW30682   1.674   2.016  13.423  0.3584 -0.0081  0.2688
 6350SOL    HW130683   1.759   2.028  13.380  0.5008 -1.0468  0.2679
 6350SOL    HW230684   1.615   2.019  13.347 -0.1222 -0.4037  0.6334
 6351SOL     OW30685   1.512   2.526   3.692 -0.3879  0.1980 -0.6876
 6351SOL    HW130686   1.519   2.621   3.695 -2.9511  0.3177  1.9771
 6351SOL    HW230687   1.432   2.514   3.743  0.1584 -1.2551 -0.1559
 6352SOL     OW30688   0.438   3.275  16.629 -0.3740 -0.1841 -0.1253
 6352SOL    HW130689   0.434   3.180  16.621 -0.7084 -0.3410  1.9005
 6352SOL    HW230690   0.455   3.294  16.721  1.3633 -0.7903 -0.3191
 6353SOL     OW30691   2.755   1.623   6.826  0.2528 -0.5326  0.6198
 6353SOL    HW130692   2.663   1.611   6.849  0.4429 -0.3207  1.4935
 6353SOL    HW230693   2.726   1.673   6.750 -0.1097  1.9559  2.3833
 6354SOL     OW30694   3.162   1.871   7.210  0.9970  0.4130 -0.1976
 6354SOL    HW130695   3.167   1.780   7.238  3.5447  0.4795 -0.4475
 6354SOL    HW230696   3.080   1.896   7.252  0.4652 -1.1242 -0.3416
 6355SOL     OW30697   0.064   0.237  17.682 -0.0451 -0.5340 -0.1130
 6355SOL    HW130698   0.017   0.219  17.601 -3.1885  0.4225  1.4995
 6355SOL    HW230699   0.086   0.147  17.705  0.5126  0.0411  1.6673
 6356SOL     OW30700   3.459   2.337   7.129  0.0222  0.0714  0.2320
 6356SOL    HW130701   3.469   2.304   7.218  1.6983  2.9359  1.0855
 6356SOL    HW230702   3.424   2.424   7.149 -0.4985  0.1367 -0.9282
 6357SOL     OW30703   1.490   0.394   7.836 -0.0987  0.2291 -0.5699
 6357SOL    HW130704   1.526   0.333   7.772 -1.9144 -0.2431 -1.1668
 6357SOL    HW230705   1.567   0.446   7.856  0.9100 -0.1263 -3.5438
 6358SOL     OW30706   0.402   4.673   2.323 -0.9204  0.1939  0.2690
 6358SOL    HW130707   0.369   4.611   2.387 -3.7409  0.4160 -0.9495
 6358SOL    HW230708   0.375   4.629   2.242 -3.4463  0.1193  1.1613
 6359SOL     OW30709   0.993   3.970   2.346  0.0256 -0.1732  0.0653
 6359SOL    HW130710   0.963   3.938   2.261  0.6492  0.5773 -0.4362
 6359SOL    HW230711   1.020   4.057   2.317 -2.8896  0.4124 -0.8670
 6360SOL     OW30712   2.512   2.864   1.954 -0.1981  0.1403 -0.0462
 6360SOL    HW130713   2.552   2.948   1.977  2.6798 -0.5715 -2.3609
 6360SOL    HW230714   2.530   2.811   2.032  0.4781  0.2272 -0.1381
 6361SOL     OW30715   4.642   2.007  12.501  0.9479 -0.2221  0.3264
 6361SOL    HW130716   4.682   2.052  12.576  0.3849 -0.5515  0.8184
 6361SOL    HW230717   4.686   1.922  12.505  0.4854 -0.5136 -0.9708
 6362SOL     OW30718   1.025   2.249  16.933 -0.4703  0.6138 -0.0028
 6362SOL    HW130719   1.021   2.311  16.861 -1.8937  0.1125 -0.3518
 6362SOL    HW230720   1.079   2.300  16.994 -1.8471 -0.4569  2.1326
 6363SOL     OW30721   1.071   1.106   5.949  0.1872  0.6125 -0.4078
 6363SOL    HW130722   1.105   1.195   5.959  2.4796 -0.1954 -1.0130
 6363SOL    HW230723   1.118   1.086   5.868 -0.2517  1.3743 -0.8515
 6364SOL     OW30724   1.728   3.804  14.861  0.3251  0.8784 -0.2588
 6364SOL    HW130725   1.758   3.885  14.821 -0.1301  1.5060  0.6653
 6364SOL    HW230726   1.687   3.765  14.784  0.0915  1.6742 -0.5390
 6365SOL     OW30727   4.537   3.136   3.298 -0.1226  0.3337 -0.1134
 6365SOL    HW130728   4.622   3.149   3.339 -0.1860 -0.2150  0.1976
 6365SOL    HW230729   4.546   3.061   3.238  1.2762 -0.1175  0.6541
 6366SOL     OW30730   4.475   4.227   2.071  0.0275 -0.5590 -0.2460
 6366SOL    HW130731   4.459   4.163   2.140  0.9386  0.3020  0.7580
 6366SOL    HW230732   4.395   4.279   2.080  0.5052 -0.1863  1.9172
 6367SOL     OW30733   0.993   0.315   6.077 -0.0165  0.4940 -0.7696
 6367SOL    HW130734   0.975   0.232   6.121 -3.3677  1.1839 -0.8868
 6367SOL    HW230735   0.917   0.359   6.115  1.4318  2.4848 -0.1853
 6368SOL     OW30736   1.431   3.070   9.918 -0.0548  0.3046  0.2472
 6368SOL    HW130737   1.406   3.147   9.969  0.7502  0.1942  0.8111
 6368SOL    HW230738   1.345   3.032   9.902 -0.0817  0.5964 -0.2947
 6369SOL     OW30739   1.737   4.500   9.027  0.1534 -0.1733  0.2323
 6369SOL    HW130740   1.757   4.432   9.091  1.0705 -0.1350 -0.0103
 6369SOL    HW230741   1.754   4.576   9.082  2.1853 -0.2302 -0.2845
 6370SOL     OW30742   0.020   0.069   7.940 -0.0924  0.5577 -0.2364
 6370SOL    HW130743   0.067   0.136   7.990  0.1874  2.7479 -3.3942
 6370SOL    HW230744   0.068   0.072   7.857  1.8132 -0.7794  0.8237
 6371SOL     OW30745   0.033   0.262   4.780 -0.2469 -0.4065 -0.2575
 6371SOL    HW130746   0.008   0.354   4.773  1.6172  0.1956  0.9851
 6371SOL    HW230747   0.112   0.257   4.726 -1.7295 -1.7722 -2.3030
 6372SOL     OW30748   2.201   0.970   4.616 -0.1205 -0.1038  0.3128
 6372SOL    HW130749   2.144   1.040   4.649  2.2293  1.5230  0.8710
 6372SOL    HW230750   2.287   1.010   4.626 -0.0532  0.1204 -1.2304
 6373SOL     OW30751   1.595   3.646  10.969 -0.1000  0.8681 -0.5291
 6373SOL    HW130752   1.569   3.580  10.905  0.5920 -0.0229  0.1131
 6373SOL    HW230753   1.568   3.606  11.051  0.0167 -0.7082 -1.2649
 6374SOL     OW30754   4.339   2.966  11.792  0.2036 -0.3632 -0.3786
 6374SOL    HW130755   4.358   2.882  11.834 -0.2099 -0.1620  0.2224
 6374SOL    HW230756   4.280   2.942  11.720  2.0126 -2.8160 -1.0192
 6375SOL     OW30757   2.323   2.936   2.608  0.0588  0.0610  0.2176
 6375SOL    HW130758   2.258   2.970   2.547 -0.8294  0.1353  1.2104
 6375SOL    HW230759   2.287   2.971   2.689  1.3824  0.1773  0.7620
 6376SOL     OW30760   1.151   2.045  11.712  0.8731  0.5158 -0.0427
 6376SOL    HW130761   1.126   2.089  11.793  0.1216  0.8597 -0.4622
 6376SOL    HW230762   1.120   1.955  11.717 -1.6970  1.3343 -1.4110
 6377SOL     OW30763   0.353   3.822   0.185 -0.4774  0.4950 -0.0357
 6377SOL    HW130764   0.446   3.808   0.165 -0.2069 -0.9976  2.1825
 6377SOL    HW230765   0.327   3.735   0.216  1.1237  0.9629  2.6014
 6378SOL     OW30766   0.608   1.511   0.240 -0.0955 -0.2880  0.3717
 6378SOL    HW130767   0.592   1.441   0.304 -0.0626 -1.2900 -0.7335
 6378SOL    HW230768   0.698   1.504   0.210  0.6411 -0.5192  2.6212
 6379SOL     OW30769   4.003   3.865   5.544 -0.3294  0.5944 -0.3310
 6379SOL    HW130770   4.091   3.893   5.518  0.9758 -2.7730  0.4003
 6379SOL    HW230771   4.017   3.770   5.543 -0.5605  0.5775 -1.4507
 6380SOL     OW30772   2.570   1.290   8.352 -0.1464 -0.1635 -0.4052
 6380SOL    HW130773   2.641   1.251   8.404 -1.1648 -2.4412 -0.7133
 6380SOL    HW230774   2.530   1.344   8.421 -1.7734  0.5549 -1.9119
 6381SOL     OW30775   0.812   0.720  16.661 -0.2393 -0.3964  0.4342
 6381SOL    HW130776   0.750   0.791  16.647 -2.4089 -2.7634 -2.1248
 6381SOL    HW230777   0.817   0.714  16.756  0.0748 -0.7691  0.3953
 6382SOL     OW30778   1.299   0.634  16.597  0.0452 -0.1741 -0.5172
 6382SOL    HW130779   1.298   0.539  16.583 -1.3555 -0.1144 -0.7442
 6382SOL    HW230780   1.208   0.656  16.577  0.0764 -2.0472 -2.8309
 6383SOL     OW30781   2.494   4.596   0.587  0.0794 -0.5542  0.0913
 6383SOL    HW130782   2.521   4.634   0.670 -1.2466 -1.7331  1.0856
 6383SOL    HW230783   2.574   4.546   0.571 -0.9397 -2.0291 -0.5222
 6384SOL     OW30784   0.905   2.765   1.538 -0.0197 -0.2945  0.1780
 6384SOL    HW130785   0.951   2.690   1.499 -0.4751 -0.3786 -0.1881
 6384SOL    HW230786   0.914   2.837   1.476  1.5309 -0.3875  0.2878
 6385SOL     OW30787   3.323   2.294  12.038 -0.3401  0.5219  0.2140
 6385SOL    HW130788   3.304   2.200  12.044  1.1605  0.0206 -3.4441
 6385SOL    HW230789   3.413   2.294  12.007 -1.1450 -2.5933 -2.1599
 6386SOL     OW30790   0.264   2.143   7.397  0.2215 -0.3761 -0.8132
 6386SOL    HW130791   0.345   2.138   7.449  0.6670  0.1962 -1.4598
 6386SOL    HW230792   0.198   2.106   7.456  2.3206 -1.4873  0.8740
 6387SOL     OW30793   0.163   0.790  16.247  0.9653 -0.1892  0.6952
 6387SOL    HW130794   0.143   0.725  16.314  0.4108 -1.2686 -0.4939
 6387SOL    HW230795   0.143   0.872  16.292  2.2570  0.2398  0.4965
 6388SOL     OW30796   1.668   1.973   6.560  0.4962 -0.0020 -0.0644
 6388SOL    HW130797   1.693   2.057   6.522  0.0616  0.9837  1.8268
 6388SOL    HW230798   1.744   1.950   6.612  0.9317  2.8324  0.5638
 6389SOL     OW30799   0.635   0.849   7.573  0.5687 -0.7761  0.1797
 6389SOL    HW130800   0.731   0.856   7.572  0.6355 -1.6027  0.7548
 6389SOL    HW230801   0.614   0.844   7.666 -0.0148 -1.4515  0.0097
 6390SOL     OW30802   0.763   1.667   8.936  0.1006  0.0724 -0.1819
 6390SOL    HW130803   0.833   1.723   8.902  1.6444 -0.8434  1.4913
 6390SOL    HW230804   0.678   1.708   8.917  0.1698 -0.5441 -1.7805
 6391SOL     OW30805   1.438   2.385   4.626  0.1828  0.2648  0.2898
 6391SOL    HW130806   1.464   2.427   4.544 -0.7932 -0.5319 -0.4258
 6391SOL    HW230807   1.344   2.401   4.633  0.1259 -0.7190  1.8787
 6392SOL     OW30808   0.025   0.613   8.298  0.1725  0.1132  0.2710
 6392SOL    HW130809   0.019   0.628   8.392  0.7770  0.1399  0.3011
 6392SOL    HW230810   0.060   0.524   8.305 -1.2813 -0.8233 -4.0820
 6393SOL     OW30811   4.220   1.339  15.214  0.2610 -0.4542  0.0478
 6393SOL    HW130812   4.260   1.363  15.130 -0.7821  1.0436 -0.0151
 6393SOL    HW230813   4.203   1.426  15.249 -2.7578 -0.8423 -0.4157
 6394SOL     OW30814   2.426   0.448   8.365 -0.5269 -0.2729  0.1606
 6394SOL    HW130815   2.475   0.518   8.409 -0.7445  0.4940 -0.8023
 6394SOL    HW230816   2.335   0.467   8.388 -0.7347 -0.7605 -0.2541
 6395SOL     OW30817   2.487   0.993   3.169 -0.2222  0.2816  0.1986
 6395SOL    HW130818   2.506   1.086   3.183 -0.9836  0.5421 -0.5257
 6395SOL    HW230819   2.573   0.954   3.183  0.5448  1.5375 -0.9942
 6396SOL     OW30820   0.030   1.236   5.230 -0.5846 -0.3315  0.2749
 6396SOL    HW130821   4.729   1.295   5.292  0.6154 -0.1786  0.9360
 6396SOL    HW230822   0.048   1.291   5.154  1.9983 -1.5070  0.0447
 6397SOL     OW30823   3.465   1.334  14.042 -0.1148  0.2966 -0.1694
 6397SOL    HW130824   3.415   1.326  13.961  1.0830 -2.0637 -0.6929
 6397SOL    HW230825   3.398   1.306  14.104 -0.4042  2.2592  0.3903
 6398SOL     OW30826   0.015   0.264   4.400  0.0593  0.3923 -0.4484
 6398SOL    HW130827   0.056   0.311   4.327  2.2368 -1.9834 -0.7559
 6398SOL    HW230828   4.681   0.313   4.433 -0.8941 -1.2028 -0.2604
 6399SOL     OW30829   0.735   2.770   2.156  0.6906  0.3312  0.2296
 6399SOL    HW130830   0.784   2.740   2.232  0.0951 -2.0319 -0.3325
 6399SOL    HW230831   0.648   2.731   2.164  1.4087 -1.5462 -1.1636
 6400SOL     OW30832   1.852   1.423   3.729 -0.1900  0.2830  0.3131
 6400SOL    HW130833   1.918   1.457   3.669  0.6043 -0.4482  0.7861
 6400SOL    HW230834   1.791   1.396   3.660  0.0310 -0.7121  0.5074
 6401SOL     OW30835   4.360   0.629   3.728 -0.3127  0.5410  0.4439
 6401SOL    HW130836   4.358   0.681   3.648 -1.1224 -0.1033  0.0482
 6401SOL    HW230837   4.436   0.675   3.763  0.2472 -1.3451  1.6897
 6402SOL     OW30838   4.491   3.186   3.766 -0.4315  0.0798  0.3152
 6402SOL    HW130839   4.442   3.266   3.779 -0.9059 -0.1704  0.0701
 6402SOL    HW230840   4.575   3.223   3.793 -0.0753 -2.5856  2.8845
 6403SOL     OW30841   0.194   4.063  14.965 -0.1278  0.6586  0.4090
 6403SOL    HW130842   0.174   3.972  14.984 -0.1077  1.0908  2.6057
 6403SOL    HW230843   0.251   4.087  15.038  0.3958  1.1445 -0.1589
 6404SOL     OW30844   2.692   3.135   9.260 -0.7851 -0.6972 -0.5493
 6404SOL    HW130845   2.628   3.089   9.205 -1.2126 -0.3215 -0.3738
 6404SOL    HW230846   2.748   3.184   9.200 -2.1593  0.3275 -1.0121
 6405SOL     OW30847   2.985   2.111   3.614 -0.1818  0.1496  0.1787
 6405SOL    HW130848   3.005   2.204   3.619 -0.9633  0.2986  0.5409
 6405SOL    HW230849   3.047   2.076   3.677 -0.9130 -1.4944 -0.0129
 6406SOL     OW30850   2.517   4.293   6.398 -0.4422  0.0975 -0.0487
 6406SOL    HW130851   2.468   4.296   6.480 -0.6398 -0.0846 -0.1617
 6406SOL    HW230852   2.598   4.336   6.429 -0.6164  0.7604 -0.5181
 6407SOL     OW30853   0.747   1.079   2.900  0.1088 -0.9713 -0.3636
 6407SOL    HW130854   0.773   1.128   2.978 -0.4553  2.9212 -2.6012
 6407SOL    HW230855   0.833   1.076   2.858 -0.0524  1.2333 -0.8477
 6408SOL     OW30856   1.724   2.456   9.641  0.1095 -0.4367 -0.7506
 6408SOL    HW130857   1.744   2.550   9.643  0.0404 -0.4649  1.1537
 6408SOL    HW230858   1.693   2.448   9.551  3.5442 -1.6053 -1.8247
 6409SOL     OW30859   0.450   0.572   2.498 -0.3980  1.2600 -0.2070
 6409SOL    HW130860   0.500   0.511   2.444 -0.1823  0.1424  1.2660
 6409SOL    HW230861   0.491   0.568   2.584  1.2779  1.9805 -0.9733
 6410SOL     OW30862   1.677   2.907   6.279 -0.1980  0.0312 -0.2468
 6410SOL    HW130863   1.695   2.993   6.243 -1.7719  0.4883  0.0675
 6410SOL    HW230864   1.631   2.861   6.209  1.9516 -0.4089 -1.3843
 6411SOL     OW30865   4.463   3.572   8.650  0.2603 -0.3661  0.4048
 6411SOL    HW130866   4.500   3.656   8.622 -1.7482  0.4763  0.2551
 6411SOL    HW230867   4.384   3.556   8.599  0.0206  2.4363 -0.1193
 6412SOL     OW30868   0.721   2.656  14.699 -0.0498  0.0670 -0.6724
 6412SOL    HW130869   0.641   2.645  14.648 -0.7612 -1.3775  0.7407
 6412SOL    HW230870   0.733   2.572  14.744  3.3231  1.2023  0.5792
 6413SOL     OW30871   0.581   1.989   2.156  0.2444  0.0410  0.0167
 6413SOL    HW130872   0.641   2.054   2.119 -0.3226 -0.0840 -1.1248
 6413SOL    HW230873   0.577   2.003   2.251  0.2935 -0.6117  0.1108
 6414SOL     OW30874   3.099   0.365   5.094  0.0489  0.1224 -0.1852
 6414SOL    HW130875   3.186   0.325   5.089 -0.5086 -1.3570  2.0677
 6414SOL    HW230876   3.106   0.418   5.173 -2.2337 -1.2000  0.9153
 6415SOL     OW30877   2.280   2.067   3.199 -0.0691 -0.3270 -0.4741
 6415SOL    HW130878   2.240   2.114   3.126  1.3052 -0.6014 -1.4099
 6415SOL    HW230879   2.254   2.116   3.277 -0.8133 -2.3973  0.5727
 6416SOL     OW30880   3.503   2.691   7.615 -0.4032 -0.4746  0.0253
 6416SOL    HW130881   3.532   2.728   7.699 -3.1141  0.3131  0.6142
 6416SOL    HW230882   3.581   2.640   7.595 -0.6957 -1.8687  2.3447
 6417SOL     OW30883   2.795   2.675   5.510 -0.1999 -0.4221 -0.1782
 6417SOL    HW130884   2.888   2.690   5.530 -0.4108  0.8002 -0.1311
 6417SOL    HW230885   2.777   2.623   5.588  1.3742 -0.0257  0.4531
 6418SOL     OW30886   1.828   3.670   6.089 -0.0210 -0.4192 -0.4543
 6418SOL    HW130887   1.911   3.714   6.111 -0.6615  0.1923  0.7228
 6418SOL    HW230888   1.766   3.743   6.089 -2.4362 -2.5071 -0.2499
 6419SOL     OW30889   3.460   4.200   4.826 -0.2789 -0.3874 -0.0873
 6419SOL    HW130890   3.447   4.295   4.829 -0.0022 -0.3803  0.7619
 6419SOL    HW230891   3.444   4.175   4.916  1.0934 -0.0299  0.2565
 6420SOL     OW30892   4.666   3.215   4.796  0.6375  0.2293  0.4569
 6420SOL    HW130893   4.591   3.240   4.851  0.0964  2.0984 -1.1226
 6420SOL    HW230894   4.655   3.121   4.806  0.9868  0.1115 -0.2545
 6421SOL     OW30895   0.570   1.000  14.105 -0.0128  0.3318 -0.3985
 6421SOL    HW130896   0.665   0.996  14.097  0.0628 -0.4076  0.8649
 6421SOL    HW230897   0.545   0.918  14.063 -0.1674 -0.0860  0.5309
 6422SOL     OW30898   0.427   3.918   8.140  1.0499 -0.6337  0.4475
 6422SOL    HW130899   0.518   3.896   8.120  0.2767 -1.1581 -2.5008
 6422SOL    HW230900   0.443   3.987   8.205  0.5775  0.2583 -0.3924
 6423SOL     OW30901   0.713   4.367  17.579  0.0445 -0.1125 -0.4453
 6423SOL    HW130902   0.720   4.324  17.494  1.1267  1.1418 -1.0051
 6423SOL    HW230903   0.629   4.412  17.573  0.2175  0.0352 -1.7347
 6424SOL     OW30904   3.558   2.323   3.513  0.2431  0.2713 -0.1421
 6424SOL    HW130905   3.464   2.339   3.517  0.4032  1.5535 -1.4982
 6424SOL    HW230906   3.580   2.311   3.605  1.4268 -1.9302 -0.7105
 6425SOL     OW30907   0.210   4.320   6.551 -0.2944 -0.1653 -0.1303
 6425SOL    HW130908   0.121   4.306   6.518 -0.0950  1.7644 -1.4848
 6425SOL    HW230909   0.256   4.311   6.467 -1.6770 -0.1464 -0.8867
 6426SOL     OW30910   4.363   1.454  12.795 -0.4010  0.1198 -0.1121
 6426SOL    HW130911   4.432   1.507  12.834 -0.3055 -0.8056  0.9745
 6426SOL    HW230912   4.290   1.486  12.849 -1.2394  0.7723 -1.6330
 6427SOL     OW30913   3.688   0.522  12.772 -0.0795  0.3885 -0.0113
 6427SOL    HW130914   3.711   0.439  12.730 -0.7892  0.1030  0.1703
 6427SOL    HW230915   3.726   0.516  12.860 -0.2285 -0.4743 -0.0129
 6428SOL     OW30916   2.933   3.583  12.358  0.1496  0.3060  0.5061
 6428SOL    HW130917   3.016   3.631  12.367  0.0512  0.2216  1.8238
 6428SOL    HW230918   2.955   3.508  12.414 -0.6708 -0.2592  0.0635
 6429SOL     OW30919   3.314   1.543   5.076 -0.1150 -0.6143 -0.0352
 6429SOL    HW130920   3.292   1.456   5.110  2.2846 -1.6875 -1.2393
 6429SOL    HW230921   3.353   1.576   5.157 -1.9326 -2.7605  1.7355
 6430SOL     OW30922   3.766   3.297   5.359  0.0660  0.1675 -0.0647
 6430SOL    HW130923   3.800   3.384   5.381  1.9924 -0.9104  1.1883
 6430SOL    HW230924   3.678   3.300   5.396 -0.0902  0.3607 -0.4397
 6431SOL     OW30925   0.761   2.730   5.352  0.3152  0.3431 -0.3027
 6431SOL    HW130926   0.752   2.698   5.442  1.2939 -1.5584 -0.8780
 6431SOL    HW230927   0.747   2.825   5.353 -1.0079  0.1432  0.8925
 6432SOL     OW30928   1.342   0.385  12.403  0.1401  0.2743  0.1948
 6432SOL    HW130929   1.335   0.391  12.498 -4.0626 -0.0778 -0.0825
 6432SOL    HW230930   1.362   0.477  12.387 -2.0737  0.9754  1.4693
 6433SOL     OW30931   3.815   0.041   2.460  0.0207 -1.1002 -0.0647
 6433SOL    HW130932   3.775   0.061   2.376  1.1324 -0.5393 -0.4640
 6433SOL    HW230933   3.836   4.690   2.444  0.5879 -0.7319 -1.4009
 6434SOL     OW30934   2.739   3.011   7.958  0.0896  0.2241  0.0291
 6434SOL    HW130935   2.692   2.942   7.911  1.1356  0.7808 -1.8233
 6434SOL    HW230936   2.684   3.087   7.941 -0.4064 -0.1733 -0.1273
 6435SOL     OW30937   2.159   1.565   5.488 -0.4521  0.3118  0.5122
 6435SOL    HW130938   2.199   1.502   5.548  0.6089 -1.2043 -1.7797
 6435SOL    HW230939   2.073   1.534   5.462 -0.8879  1.5457  0.4938
 6436SOL     OW30940   2.907   0.617   8.994  0.8090  0.0425  0.0071
 6436SOL    HW130941   2.959   0.683   8.949  2.2951  1.1177  3.3138
 6436SOL    HW230942   2.962   0.539   8.980 -1.2838 -1.3976 -0.1827
 6437SOL     OW30943   2.333   3.183  14.486  0.9212 -0.1215  0.3575
 6437SOL    HW130944   2.271   3.255  14.476 -0.4179 -0.9515  2.7405
 6437SOL    HW230945   2.320   3.160  14.578 -1.0558 -0.5066 -0.0155
 6438SOL     OW30946   4.294   0.713   7.058  0.0642  0.0535  0.2622
 6438SOL    HW130947   4.346   0.699   6.979 -0.4967 -1.2217  0.1156
 6438SOL    HW230948   4.350   0.670   7.123  0.3932  1.7476  1.0841
 6439SOL     OW30949   3.810   0.791  11.892 -0.3286  0.2375 -0.1484
 6439SOL    HW130950   3.882   0.853  11.899  0.9177 -1.2784  0.5729
 6439SOL    HW230951   3.839   0.732  11.822  0.6559 -1.2246  1.4914
 6440SOL     OW30952   3.783   3.593   8.801  0.0392 -0.1047  0.2211
 6440SOL    HW130953   3.799   3.529   8.870 -1.6804  0.9789  1.6341
 6440SOL    HW230954   3.709   3.555   8.755  1.3484 -1.5112 -0.7150
 6441SOL     OW30955   0.141   0.093   7.692  0.2327 -0.0151  0.4939
 6441SOL    HW130956   0.079   0.160   7.665  1.5779  1.9257  2.2791
 6441SOL    HW230957   0.226   0.126   7.663 -0.8453  0.7565 -1.8155
 6442SOL     OW30958   1.553   2.846   4.077  0.0747 -0.0413 -0.2636
 6442SOL    HW130959   1.490   2.875   4.143  1.0218  0.3858  0.4492
 6442SOL    HW230960   1.499   2.812   4.005 -0.5228 -0.6901  0.5004
 6443SOL     OW30961   1.671   2.026   6.960  0.0402 -0.3977 -0.4353
 6443SOL    HW130962   1.759   2.015   6.924  1.0110  2.2059  1.1846
 6443SOL    HW230963   1.668   1.950   7.018  0.3885 -0.1657 -0.1142
 6444SOL     OW30964   3.587   2.770   7.850  0.5690  0.3057 -0.2253
 6444SOL    HW130965   3.509   2.778   7.906 -0.4073  0.2750 -1.5671
 6444SOL    HW230966   3.659   2.782   7.912 -0.5770 -2.7795  1.6752
 6445SOL     OW30967   3.281   1.528   4.450 -0.0853  0.1142  1.1689
 6445SOL    HW130968   3.253   1.452   4.500  0.0988 -1.9032 -1.8479
 6445SOL    HW230969   3.224   1.596   4.488 -2.4132 -0.4070 -1.3845
 6446SOL     OW30970   2.781   2.402   2.224 -0.0679 -0.2424 -0.2216
 6446SOL    HW130971   2.782   2.479   2.280 -1.4287  1.3108 -2.3187
 6446SOL    HW230972   2.704   2.420   2.170 -0.2527  0.1680  0.1803
 6447SOL     OW30973   0.882   1.125   6.154 -0.5631 -0.0389  0.4246
 6447SOL    HW130974   0.942   1.145   6.225 -1.1054 -0.4647  1.0024
 6447SOL    HW230975   0.939   1.095   6.084 -0.7769 -1.6564  0.9385
 6448SOL     OW30976   2.705   4.295   3.782 -0.3008 -0.3943 -0.2480
 6448SOL    HW130977   2.797   4.272   3.770 -0.0235  0.2632  0.6170
 6448SOL    HW230978   2.719   4.386   3.810  1.6087 -0.6733 -0.2876
 6449SOL     OW30979   1.622   3.964   0.826  0.0104  0.8969 -0.9409
 6449SOL    HW130980   1.554   3.918   0.777 -0.6611  0.2075  0.6444
 6449SOL    HW230981   1.704   3.934   0.787  0.9357  1.8674  0.2748
 6450SOL     OW30982   0.374   3.553   0.265  0.3251 -0.6275 -0.6302
 6450SOL    HW130983   0.463   3.520   0.249  0.2471 -2.0044  1.8970
 6450SOL    HW230984   0.330   3.471   0.242  0.8068 -0.5563 -1.8301
 6451SOL     OW30985   1.744   0.888  13.545  0.2242 -0.1360  0.0417
 6451SOL    HW130986   1.797   0.835  13.485  2.2915 -0.6156  2.2786
 6451SOL    HW230987   1.797   0.875  13.624 -1.3177  0.4299  1.1662
 6452SOL     OW30988   0.596   3.463   8.384 -0.8422  0.3145 -0.1487
 6452SOL    HW130989   0.670   3.450   8.444  1.7105 -0.3013 -3.3985
 6452SOL    HW230990   0.641   3.513   8.316 -1.7457  0.8563 -0.3410
 6453SOL     OW30991   3.252   1.957   7.593 -0.7112  0.1182  0.4598
 6453SOL    HW130992   3.203   1.876   7.577  3.9633 -3.0019  2.2765
 6453SOL    HW230993   3.242   1.974   7.686  1.3408  0.0798  0.6797
 6454SOL     OW30994   1.469   0.798   5.397  0.2582  1.3053 -0.6593
 6454SOL    HW130995   1.486   0.707   5.373 -2.9298  0.7514 -0.8184
 6454SOL    HW230996   1.385   0.806   5.350 -1.3119 -1.0623  1.7549
 6455SOL     OW30997   3.882   1.309   1.668 -0.4379 -0.2924  0.3987
 6455SOL    HW130998   3.978   1.312   1.665 -0.4485 -1.4988 -0.9268
 6455SOL    HW230999   3.857   1.400   1.653  0.1362 -0.3675 -0.9831
 6456SOL     OW31000   3.984   3.297   2.739  0.0269 -0.0574  0.3731
 6456SOL    HW131001   4.069   3.282   2.780 -0.1585 -4.2763 -0.8385
 6456SOL    HW231002   3.958   3.206   2.728 -0.2719  0.4883 -3.5071
 6457SOL     OW31003   0.466   3.198   7.934  0.7530 -0.0902  0.1988
 6457SOL    HW131004   0.493   3.290   7.935 -0.4115  0.2451  0.9031
 6457SOL    HW231005   0.519   3.171   7.859 -0.0035 -0.7616 -0.1017
 6458SOL     OW31006   2.793   4.053   5.480 -0.0316  0.3244 -0.0623
 6458SOL    HW131007   2.861   4.091   5.423 -0.8057  2.4466  0.4471
 6458SOL    HW231008   2.834   3.976   5.519  1.7660  1.1810 -0.2217
 6459SOL     OW31009   1.954   1.217  13.165  0.0817  0.5078  0.2276
 6459SOL    HW131010   2.040   1.251  13.189  0.9612 -2.2225  1.0251
 6459SOL    HW231011   1.905   1.298  13.152 -2.0250 -0.5141  1.7533
 6460SOL     OW31012   1.966   1.323   4.934  0.0684 -0.1757 -0.3953
 6460SOL    HW131013   1.971   1.310   4.839  0.1390  1.0422 -0.5522
 6460SOL    HW231014   1.965   1.233   4.966 -1.5419 -0.5659 -1.5394
 6461SOL     OW31015   0.364   3.050   6.729  0.1407 -0.5089 -0.2806
 6461SOL    HW131016   0.373   3.075   6.821 -1.1148  0.3931 -0.4022
 6461SOL    HW231017   0.405   3.122   6.681 -0.1477  0.3579  0.7501
 6462SOL     OW31018   2.869   2.974  13.684 -0.5338 -0.5679 -0.3468
 6462SOL    HW131019   2.864   3.066  13.656 -0.0604 -0.4429 -0.0123
 6462SOL    HW231020   2.829   2.978  13.771  0.0912  2.7031 -0.2054
 6463SOL     OW31021   0.060   2.984   5.515  0.2053 -0.0686  0.1567
 6463SOL    HW131022   4.713   2.999   5.550 -0.2787 -1.3197 -0.5178
 6463SOL    HW231023   0.052   3.022   5.428  0.9554 -0.3978 -0.0562
 6464SOL     OW31024   1.734   2.948   3.232  0.1206 -0.2341  0.0500
 6464SOL    HW131025   1.794   2.971   3.161 -0.8098  2.2240  0.0667
 6464SOL    HW231026   1.695   3.032   3.257 -0.8996 -0.8927  0.6860
 6465SOL     OW31027   1.786   4.080  17.334 -0.7111  0.2712  0.2685
 6465SOL    HW131028   1.756   4.058  17.246  1.2386 -1.1726 -0.0292
 6465SOL    HW231029   1.878   4.104  17.327 -0.6377 -0.6440 -1.9914
 6466SOL     OW31030   4.538   0.859   7.253 -0.6126 -0.5103  0.1802
 6466SOL    HW131031   4.504   0.813   7.329 -2.0138  0.7748  0.3179
 6466SOL    HW231032   4.520   0.947   7.284  0.0616 -0.0841 -0.6146
 6467SOL     OW31033   3.328   4.158   1.435  0.1711  0.4854 -0.0750
 6467SOL    HW131034   3.303   4.069   1.413  0.4930  0.2758  0.4241
 6467SOL    HW231035   3.301   4.213   1.361 -1.9071 -1.3253 -0.6629
 6468SOL     OW31036   0.035   0.534   6.271  0.0132 -0.0865 -0.4258
 6468SOL    HW131037   0.096   0.603   6.297 -1.3364  1.7350 -2.1096
 6468SOL    HW231038   4.693   0.581   6.271 -0.7209 -1.3630  4.3432
 6469SOL     OW31039   2.914   0.016   3.820 -0.6559 -0.5138 -0.2081
 6469SOL    HW131040   2.844   4.692   3.831 -2.2799  1.0226 -1.6967
 6469SOL    HW231041   2.897   0.038   3.729 -0.5717 -0.3371 -0.1805
 6470SOL     OW31042   1.690   2.309   6.747 -0.7360 -0.2426  0.0942
 6470SOL    HW131043   1.618   2.371   6.737 -0.0741  0.6406  0.9080
 6470SOL    HW231044   1.639   2.229   6.762  1.3520 -0.8268  4.0709
 6471SOL     OW31045   2.723   3.978   7.823 -0.3513  0.7279 -0.5719
 6471SOL    HW131046   2.712   3.975   7.918 -0.5543 -3.8091 -0.7023
 6471SOL    HW231047   2.812   4.012   7.821 -0.4271  0.9521 -0.0011
 6472SOL     OW31048   0.549   4.232  15.657  0.0619 -0.3154 -0.0934
 6472SOL    HW131049   0.503   4.224  15.573 -0.0108 -0.7061 -0.0195
 6472SOL    HW231050   0.626   4.278  15.624  1.1115 -2.3443 -0.4894
 6473SOL     OW31051   0.085   1.811   3.173 -0.0001 -0.5506  0.5288
 6473SOL    HW131052   0.176   1.829   3.195 -0.0631  1.5228 -0.8572
 6473SOL    HW231053   0.084   1.833   3.080 -1.0769  1.6553  1.0433
 6474SOL     OW31054   4.464   3.092  16.751 -0.0677 -0.1614 -0.1997
 6474SOL    HW131055   4.533   3.035  16.787 -0.3658  0.4247  1.2998
 6474SOL    HW231056   4.502   3.180  16.752 -2.1563  0.7273 -0.3108
 6475SOL     OW31057   0.962   0.516   4.780  0.0227 -0.4380  0.4393
 6475SOL    HW131058   0.976   0.433   4.825 -1.5907 -0.8422  0.1878
 6475SOL    HW231059   0.870   0.511   4.756  0.9562 -1.3656 -2.9306
 6476SOL     OW31060   1.220   4.424  12.122  0.1506  0.1964  0.9219
 6476SOL    HW131061   1.179   4.511  12.121 -0.7860 -0.2228  5.2994
 6476SOL    HW231062   1.238   4.398  12.031  2.8591  0.3493  1.3925
 6477SOL     OW31063   4.034   1.181   6.929 -0.1921 -0.0480  0.0471
 6477SOL    HW131064   4.063   1.200   6.840  2.0109 -1.5192  0.4440
 6477SOL    HW231065   3.949   1.143   6.906  0.7214 -2.4893  0.7019
 6478SOL     OW31066   2.634   3.454   9.327 -0.1086  0.5869 -0.2234
 6478SOL    HW131067   2.689   3.443   9.250 -0.0177 -1.0041  0.0723
 6478SOL    HW231068   2.605   3.545   9.318 -0.5997  0.3970 -0.5247
 6479SOL     OW31069   1.509   3.618   6.577  0.1076 -0.5549 -0.1260
 6479SOL    HW131070   1.584   3.601   6.633  1.4572 -2.4252 -2.4764
 6479SOL    HW231071   1.437   3.650   6.632 -0.1375  1.8429 -1.8358
 6480SOL     OW31072   1.648   0.266  15.132  0.8959  0.3676  0.0420
 6480SOL    HW131073   1.675   0.202  15.066 -2.8679  0.6277 -1.6878
 6480SOL    HW231074   1.637   0.349  15.085  1.0298 -0.7855 -2.0156
 6481SOL     OW31075   2.297   2.359  17.677  0.3380  0.0781 -0.6523
 6481SOL    HW131076   2.320   2.360   0.008 -2.0999  0.3324 -0.0378
 6481SOL    HW231077   2.343   2.281  17.648 -0.9386 -0.2395 -1.8530
 6482SOL     OW31078   1.356   4.152   6.154  0.3181 -0.2374 -0.1520
 6482SOL    HW131079   1.414   4.076   6.147 -1.3800 -1.7311  2.0811
 6482SOL    HW231080   1.416   4.227   6.152  0.9709 -0.7547  0.4748
 6483SOL     OW31081   3.993   1.598  16.805  0.1741 -0.1639 -0.7059
 6483SOL    HW131082   3.978   1.581  16.712  1.4156 -1.0352 -0.7500
 6483SOL    HW231083   3.910   1.598  16.852 -0.2519 -0.7762 -1.4504
 6484SOL     OW31084   0.037   2.673  15.189  0.3017  0.0709  0.0328
 6484SOL    HW131085   0.118   2.623  15.193  0.2462 -0.0860 -0.6982
 6484SOL    HW231086   0.069   2.754  15.149  0.8182  0.8530  2.0679
 6485SOL     OW31087   1.183   4.205   2.716 -0.2154  0.8143  0.0733
 6485SOL    HW131088   1.155   4.174   2.630 -0.0060  2.2784 -0.5319
 6485SOL    HW231089   1.268   4.230   2.679  0.1021  0.0411  0.2943
 6486SOL     OW31090   2.268   1.505  11.354 -0.0075 -0.1766  0.1933
 6486SOL    HW131091   2.220   1.453  11.420  2.4801 -2.1654  0.4273
 6486SOL    HW231092   2.262   1.442  11.282 -1.7531  1.0558 -0.7281
 6487SOL     OW31093   1.899   4.106   8.773  0.6249 -0.0126 -0.0067
 6487SOL    HW131094   1.833   4.122   8.706 -0.4311 -1.6676  0.6581
 6487SOL    HW231095   1.967   4.171   8.753 -3.2575  3.2995 -2.3338
 6488SOL     OW31096   2.863   1.082   7.301  0.3826 -0.6798  0.0469
 6488SOL    HW131097   2.903   1.160   7.338 -0.7553  1.3248 -2.8955
 6488SOL    HW231098   2.935   1.060   7.241  2.6929 -0.2356  2.6830
 6489SOL     OW31099   3.923   4.279   7.511 -0.1861 -0.0842 -0.3047
 6489SOL    HW131100   3.944   4.220   7.583 -2.2611 -0.0774  0.2768
 6489SOL    HW231101   3.904   4.353   7.568 -1.2214  0.2654 -1.1107
 6490SOL     OW31102   3.692   4.655  16.581 -0.0433  0.2051  0.1533
 6490SOL    HW131103   3.656   4.568  16.564  0.5373  0.5576 -2.7841
 6490SOL    HW231104   3.729   4.638  16.668 -0.3141 -0.5544  0.1230
 6491SOL     OW31105   4.529   2.336  16.342 -0.4698  0.0356 -0.5415
 6491SOL    HW131106   4.537   2.430  16.324  0.3230 -0.0034 -0.3565
 6491SOL    HW231107   4.501   2.334  16.434  0.0570 -0.2278 -0.3903
 6492SOL     OW31108   0.166   1.090   6.205  0.0962  0.3935  0.1819
 6492SOL    HW131109   0.249   1.137   6.196  0.3674 -0.3832 -1.3791
 6492SOL    HW231110   0.120   1.146   6.268  3.0163 -0.3324  2.9178
 6493SOL     OW31111   1.083   1.084   2.842  0.1848  0.3228 -0.3437
 6493SOL    HW131112   1.173   1.095   2.810 -0.6106  0.4132 -2.5064
 6493SOL    HW231113   1.069   1.172   2.877  1.7438  1.7154 -3.2216
 6494SOL     OW31114   1.356   3.762   5.519 -0.1667 -0.3919  0.0568
 6494SOL    HW131115   1.297   3.835   5.498 -0.9702 -0.5249  1.8326
 6494SOL    HW231116   1.401   3.789   5.599 -0.6051 -0.1041  0.2074
 6495SOL     OW31117   0.929   2.817  14.838  0.5923  0.2241 -0.2746
 6495SOL    HW131118   0.867   2.780  14.775  1.2996 -1.4315  0.0027
 6495SOL    HW231119   0.879   2.807  14.919  0.1163  1.7398 -0.3676
 6496SOL     OW31120   2.864   4.696   6.969 -0.2268  0.1122 -0.3535
 6496SOL    HW131121   2.877   0.042   6.932  0.3142 -0.3485 -1.2448
 6496SOL    HW231122   2.772   4.671   6.962  0.2017 -1.4082 -0.7440
 6497SOL     OW31123   3.087   4.083   6.029  0.2430 -0.5669  0.0288
 6497SOL    HW131124   3.133   4.001   6.050  0.9365  0.2433  1.6603
 6497SOL    HW231125   3.157   4.145   6.014 -0.2010  0.8762  3.8914
 6498SOL     OW31126   2.510   3.321   2.244 -0.1356  0.3625  0.3455
 6498SOL    HW131127   2.478   3.333   2.154  2.9875  0.2138 -0.7773
 6498SOL    HW231128   2.502   3.407   2.285 -0.2466  1.4847 -2.0349
 6499SOL     OW31129   2.890   4.442   9.822 -0.1102  0.3297 -0.4642
 6499SOL    HW131130   2.796   4.453   9.817 -0.1998 -0.5395 -0.7735
 6499SOL    HW231131   2.887   4.399   9.908  1.5619  0.1024 -0.5116
 6500SOL     OW31132   4.088   0.964  15.743 -0.1413  0.3565 -0.3261
 6500SOL    HW131133   4.053   0.981  15.656 -1.6891 -0.0002  0.2282
 6500SOL    HW231134   4.018   0.996  15.801 -0.9553 -1.9424 -0.0742
 6501SOL     OW31135   0.562   0.304   4.095 -0.1858 -0.6577 -0.2501
 6501SOL    HW131136   0.473   0.340   4.099 -1.2066 -3.1643 -0.3121
 6501SOL    HW231137   0.558   0.227   4.152 -1.6515  1.7804  2.9834
 6502SOL     OW31138   0.119   2.346   7.166  0.4197 -0.1293  0.0858
 6502SOL    HW131139   0.183   2.299   7.219  1.9638  2.2303  0.3335
 6502SOL    HW231140   0.123   2.438   7.191  1.9503 -0.1798 -0.0086
 6503SOL     OW31141   3.365   2.150   6.733  0.3110 -0.2551  0.5135
 6503SOL    HW131142   3.352   2.058   6.757 -1.3768  0.1880  1.2194
 6503SOL    HW231143   3.296   2.177   6.672 -0.3047  2.0229  2.2649
 6504SOL     OW31144   3.144   0.832  11.586  0.2265  0.0178  0.1716
 6504SOL    HW131145   3.187   0.791  11.510  1.1595  0.5305  0.4270
 6504SOL    HW231146   3.108   0.758  11.635  0.9415 -0.8271 -0.5771
 6505SOL     OW31147   0.431   2.432  13.273  0.0156 -0.7871 -1.2919
 6505SOL    HW131148   0.374   2.408  13.346 -3.0605  0.4004 -3.2792
 6505SOL    HW231149   0.516   2.422  13.315 -0.6264 -0.0961  0.1608
 6506SOL     OW31150   1.384   4.351   4.849 -0.6697 -0.1123 -0.0699
 6506SOL    HW131151   1.297   4.312   4.836 -0.3555 -0.6537 -0.5164
 6506SOL    HW231152   1.425   4.354   4.763  1.4670 -1.5212  0.9049
 6507SOL     OW31153   0.397   2.523   7.882  0.0155 -0.0449  0.2375
 6507SOL    HW131154   0.367   2.450   7.937 -0.4103  1.1060  1.5249
 6507SOL    HW231155   0.475   2.536   7.935  1.6455 -2.2661 -1.6153
 6508SOL     OW31156   1.759   3.250   1.376 -0.3118 -0.0734 -0.3439
 6508SOL    HW131157   1.778   3.199   1.297 -1.7411 -0.2558 -0.5692
 6508SOL    HW231158   1.681   3.300   1.354  0.0118 -0.1380 -1.6300
 6509SOL     OW31159   0.416   2.535   7.031 -0.3548  0.2060 -0.2632
 6509SOL    HW131160   0.447   2.447   7.051 -1.3876  0.7239  3.5429
 6509SOL    HW231161   0.463   2.591   7.093 -1.4498  1.3476 -0.4579
 6510SOL     OW31162   2.358   3.051  11.431 -0.3217  0.3127 -0.0495
 6510SOL    HW131163   2.309   2.993  11.372  0.0534 -0.7597  0.6907
 6510SOL    HW231164   2.384   3.126  11.378  0.2160 -0.7229 -1.2432
 6511SOL     OW31165   2.247   0.090   6.161 -0.4893  0.5187 -0.0014
 6511SOL    HW131166   2.178   0.126   6.105  0.4782  1.5187 -0.5477
 6511SOL    HW231167   2.306   0.062   6.091  0.6684  1.2466  0.6789
 6512SOL     OW31168   1.842   2.635   9.409 -0.3761 -0.1422 -0.4753
 6512SOL    HW131169   1.794   2.567   9.362 -3.5032  1.4693  0.3760
 6512SOL    HW231170   1.919   2.583   9.433 -0.3902  1.6857  3.5029
 6513SOL     OW31171   0.224   1.314  14.693  0.0640  0.0520  0.2598
 6513SOL    HW131172   0.185   1.239  14.649 -0.1295 -0.1260  0.7350
 6513SOL    HW231173   0.284   1.275  14.757  1.6621 -1.9197 -2.4514
 6514SOL     OW31174   1.484   4.530   0.423 -0.1465 -0.4310 -0.7124
 6514SOL    HW131175   1.480   4.596   0.354  1.7566  0.8778  0.4278
 6514SOL    HW231176   1.577   4.516   0.436 -0.0086  1.1301 -0.0542
 6515SOL     OW31177   0.516   1.132  15.959 -0.6156 -0.2983 -0.3665
 6515SOL    HW131178   0.470   1.128  15.875  0.4286 -0.4234 -0.9442
 6515SOL    HW231179   0.607   1.119  15.930 -0.0634  0.9308  0.7700
 6516SOL     OW31180   2.522   3.096  13.061 -0.5068  0.2485  0.1733
 6516SOL    HW131181   2.539   3.164  12.996  0.4484 -0.8999 -0.7690
 6516SOL    HW231182   2.441   3.134  13.095 -0.6211 -0.3644  0.5945
 6517SOL     OW31183   0.608   3.214   7.104  0.7124 -0.6225  0.3421
 6517SOL    HW131184   0.564   3.288   7.062  0.7581 -1.4716 -1.2077
 6517SOL    HW231185   0.623   3.251   7.191 -1.6504  0.8165  0.1447
 6518SOL     OW31186   3.578   3.952   4.782  0.0653  0.1402 -0.3094
 6518SOL    HW131187   3.555   4.043   4.796  0.1741  0.2677 -0.9704
 6518SOL    HW231188   3.674   3.958   4.787  0.0894 -0.8035  0.4168
 6519SOL     OW31189   0.860   1.745  15.297  0.1786 -0.0994  0.3132
 6519SOL    HW131190   0.842   1.691  15.221  0.2353  1.0214 -0.4890
 6519SOL    HW231191   0.822   1.692  15.367  0.6356 -0.6733  0.1313
 6520SOL     OW31192   2.438   1.998   2.000  0.3462  0.2351  0.4662
 6520SOL    HW131193   2.479   1.922   2.041  0.1716  0.2082  0.5891
 6520SOL    HW231194   2.457   1.993   1.906 -0.3617 -2.5856  0.4892
 6521SOL     OW31195   2.081   2.800   2.028 -0.1095 -0.2614 -0.0959
 6521SOL    HW131196   2.099   2.726   2.087 -3.2614  3.0826  5.0639
 6521SOL    HW231197   1.990   2.790   2.000 -0.0124 -0.8499 -0.2028
 6522SOL     OW31198   2.577   0.424   9.346 -0.0493 -0.2868 -0.1415
 6522SOL    HW131199   2.515   0.405   9.416 -0.2355 -2.9281 -1.0253
 6522SOL    HW231200   2.519   0.452   9.275 -2.0420 -1.7370  0.9376
 6523SOL     OW31201   0.700   0.776  12.321 -0.1187 -0.2024  0.7274
 6523SOL    HW131202   0.768   0.808  12.380  1.2887 -3.4492  0.8783
 6523SOL    HW231203   0.746   0.700  12.284 -0.2301  0.8452 -1.5643
 6524SOL     OW31204   0.012   3.727   8.885  0.6534  0.3776  0.1038
 6524SOL    HW131205   4.721   3.669   8.954 -0.1330 -0.8592 -1.2982
 6524SOL    HW231206   0.079   3.674   8.842 -0.7752  1.2626 -3.2285
 6525SOL     OW31207   1.906   0.968   6.356  0.0796  0.8060  0.2452
 6525SOL    HW131208   1.849   1.043   6.371  1.9674  2.2104  0.3892
 6525SOL    HW231209   1.967   1.006   6.293 -0.0376 -0.1352 -0.4259
 6526SOL     OW31210   4.581   0.418  16.791 -0.4122  0.1994 -0.0073
 6526SOL    HW131211   4.612   0.456  16.873 -0.6253  1.0990 -0.3427
 6526SOL    HW231212   4.639   0.342  16.788  0.5318  0.8501  1.6268
 6527SOL     OW31213   2.533   1.337   6.964  0.2696  0.1664  0.2301
 6527SOL    HW131214   2.616   1.384   6.977  0.2489  0.5007 -0.8730
 6527SOL    HW231215   2.469   1.399   6.998  1.0615  2.2139 -1.9445
 6528SOL     OW31216   1.222   4.119   2.208  0.1524  0.5756  0.1249
 6528SOL    HW131217   1.147   4.135   2.150  0.6213  0.6606 -0.4511
 6528SOL    HW231218   1.226   4.024   2.209  0.4599  0.5725 -1.1641
 6529SOL     OW31219   0.347   1.287   8.610  0.0168 -0.2047  0.4268
 6529SOL    HW131220   0.297   1.350   8.662 -0.0985 -0.8216  1.0611
 6529SOL    HW231221   0.276   1.223   8.600 -0.5831  0.6551 -0.7743
 6530SOL     OW31222   1.372   3.130   4.184 -0.3704 -0.1672  0.1585
 6530SOL    HW131223   1.334   3.163   4.102  0.7976  2.0926  0.5474
 6530SOL    HW231224   1.314   3.054   4.186  0.8195 -1.0319  1.4494
 6531SOL     OW31225   3.624   0.428   2.636  0.3466 -0.0531 -0.0670
 6531SOL    HW131226   3.667   0.342   2.642  1.0258  0.3086  0.2692
 6531SOL    HW231227   3.691   0.493   2.614 -0.2094  1.1405  1.8283
 6532SOL     OW31228   0.509   4.542   5.050 -0.7216  0.4433 -0.4061
 6532SOL    HW131229   0.481   4.523   5.139  0.9302  0.0246  0.0372
 6532SOL    HW231230   0.479   4.633   5.045 -1.2049  0.2825 -0.4343
 6533SOL     OW31231   1.994   2.131   7.908 -0.0667  0.4457  0.2245
 6533SOL    HW131232   2.082   2.141   7.873 -1.3689  1.7244 -2.7162
 6533SOL    HW231233   1.942   2.146   7.829  1.0527  2.1163 -0.1920
 6534SOL     OW31234   1.661   0.475   4.736 -0.5183  0.4433 -0.0091
 6534SOL    HW131235   1.707   0.395   4.764  0.8813  0.5163 -2.1393
 6534SOL    HW231236   1.612   0.482   4.819  1.5819  1.0517  1.1757
 6535SOL     OW31237   3.272   1.317   5.519 -0.0742 -0.0003 -0.1208
 6535SOL    HW131238   3.187   1.331   5.560 -0.2943 -0.1960 -0.5059
 6535SOL    HW231239   3.313   1.283   5.599  0.6565  1.4093  0.1080
 6536SOL     OW31240   2.147   3.128   2.431 -0.2145  0.4422 -0.2560
 6536SOL    HW131241   2.176   3.202   2.377  1.1372 -0.2007 -0.4151
 6536SOL    HW231242   2.094   3.083   2.364 -1.6387  0.3400  0.9423
 6537SOL     OW31243   2.755   3.816  12.651  0.1432  0.4617 -0.4514
 6537SOL    HW131244   2.833   3.795  12.702 -1.1561 -1.1295  0.8886
 6537SOL    HW231245   2.705   3.876  12.706 -1.3321 -1.3565  0.1923
 6538SOL     OW31246   4.658   2.449   4.759 -0.7323  0.4413 -0.0330
 6538SOL    HW131247   4.584   2.507   4.775  0.6095  1.1244  3.7636
 6538SOL    HW231248   4.732   2.506   4.780  1.1053 -1.5357 -1.1356
 6539SOL     OW31249   0.596   3.082  11.330 -0.1430 -0.0854  0.2227
 6539SOL    HW131250   0.573   3.154  11.271 -0.0276 -1.0878 -1.0540
 6539SOL    HW231251   0.687   3.070  11.305  0.0229 -0.3980  0.9921
 6540SOL     OW31252   3.552   1.966   9.265 -0.0590  0.0673 -0.2535
 6540SOL    HW131253   3.579   1.999   9.351 -1.2213 -1.9960  0.9076
 6540SOL    HW231254   3.589   1.878   9.265  1.5870  0.7732  2.6128
 6541SOL     OW31255   4.333   3.395   1.636 -0.4095  0.0370 -0.0737
 6541SOL    HW131256   4.418   3.387   1.680 -0.7879 -3.8138 -0.0171
 6541SOL    HW231257   4.347   3.472   1.582  0.6501  0.4749  0.8255
 6542SOL     OW31258   3.436   0.888   3.486  0.1894  0.6512 -0.1676
 6542SOL    HW131259   3.350   0.847   3.481  0.8472 -0.5757 -1.5115
 6542SOL    HW231260   3.486   0.838   3.551 -0.9514  1.1150  1.0629
 6543SOL     OW31261   2.015   2.171   1.528  0.3955 -0.9431 -0.1437
 6543SOL    HW131262   1.927   2.139   1.510  0.1508 -0.9758  1.1486
 6543SOL    HW231263   2.001   2.265   1.541 -2.2444 -1.1032 -1.9156
 6544SOL     OW31264   2.827   4.563   2.780 -0.2175  0.0644 -0.3153
 6544SOL    HW131265   2.736   4.594   2.782  0.4308  1.9619  0.1636
 6544SOL    HW231266   2.853   4.570   2.688  0.3266  0.0635 -0.1624
 6545SOL     OW31267   4.502   1.462   6.380 -0.0538 -0.5141 -0.9331
 6545SOL    HW131268   4.577   1.502   6.424 -0.4065 -1.6148  0.6667
 6545SOL    HW231269   4.439   1.463   6.451  0.6171  0.5588 -0.3478
 6546SOL     OW31270   2.075   4.188  11.951  0.0293 -0.0408  0.2770
 6546SOL    HW131271   2.055   4.106  11.997  0.1691  0.9765  2.1515
 6546SOL    HW231272   2.156   4.169  11.904  0.5154  0.3765  0.9422
 6547SOL     OW31273   1.436   4.128   1.105  0.2646  0.1163  0.2509
 6547SOL    HW131274   1.365   4.189   1.085 -0.9605 -1.3344  0.1870
 6547SOL    HW231275   1.511   4.160   1.054  1.2890  0.5687  2.0617
 6548SOL     OW31276   1.818   0.185   9.145 -0.5820 -0.2654 -0.6865
 6548SOL    HW131277   1.798   0.099   9.183  1.0523 -0.2481  0.1854
 6548SOL    HW231278   1.768   0.185   9.063 -0.8859  1.9413 -0.5019
 6549SOL     OW31279   2.989   2.153   6.650 -0.1573 -0.0475  1.0942
 6549SOL    HW131280   3.047   2.216   6.609 -0.1313 -1.0263 -0.3709
 6549SOL    HW231281   2.933   2.203   6.710  1.1827  2.7313 -0.0248
 6550SOL     OW31282   0.182   0.019   4.207 -0.0218  0.3918  0.5673
 6550SOL    HW131283   0.205   4.667   4.211 -0.9217  0.1941  1.3085
 6550SOL    HW231284   0.090   0.007   4.182  0.0885 -1.6008  1.1437
 6551SOL     OW31285   1.205   1.086   8.232 -0.0890  0.3244 -0.2791
 6551SOL    HW131286   1.290   1.067   8.272 -1.4684 -2.9411  1.0604
 6551SOL    HW231287   1.168   1.143   8.299 -2.5082 -0.8669 -0.5945
 6552SOL     OW31288   0.302   1.774  12.694  0.0967 -0.1834 -0.3595
 6552SOL    HW131289   0.376   1.810  12.645 -0.3582 -0.7094 -1.4341
 6552SOL    HW231290   0.271   1.845  12.750  0.7513  1.1250 -1.6609
 6553SOL     OW31291   1.019   3.892  12.609  0.1643 -0.0287  0.1127
 6553SOL    HW131292   1.061   3.826  12.664  0.4551  0.8907  0.9782
 6553SOL    HW231293   0.937   3.845  12.591  0.2139 -0.0893  0.0469
 6554SOL     OW31294   1.545   0.642   6.644 -0.2757  0.3917 -0.2466
 6554SOL    HW131295   1.619   0.596   6.606 -1.3450 -0.0274 -1.8302
 6554SOL    HW231296   1.467   0.609   6.599  0.1398  0.3735 -0.9547
 6555SOL     OW31297   1.182   2.330   2.707 -0.9406  0.2649  0.1911
 6555SOL    HW131298   1.090   2.352   2.721 -0.7669  2.3036 -1.8892
 6555SOL    HW231299   1.219   2.410   2.744 -0.2285  0.1936 -0.3602
 6556SOL     OW31300   3.407   4.268   0.198  0.4484  0.4935 -0.4117
 6556SOL    HW131301   3.341   4.200   0.207  0.0362  0.9400 -0.0955
 6556SOL    HW231302   3.425   4.304   0.285 -0.2861 -0.0724 -0.0301
 6557SOL     OW31303   2.136   1.251   3.164  0.2060  0.3164  0.2557
 6557SOL    HW131304   2.168   1.269   3.252  2.0291  1.1103 -0.5784
 6557SOL    HW231305   2.171   1.331   3.126  0.0890  1.1788  1.9747
 6558SOL     OW31306   3.653   1.239   5.759 -0.2804  0.0603 -0.5353
 6558SOL    HW131307   3.562   1.265   5.749 -0.3470  1.8889  4.7046
 6558SOL    HW231308   3.657   1.245   5.855 -0.7479  0.4321 -0.5403
 6559SOL     OW31309   1.239   4.679  11.487 -0.3092 -0.5637 -0.1965
 6559SOL    HW131310   1.216   4.659  11.578  1.3148  0.6442  0.4825
 6559SOL    HW231311   1.146   4.690  11.467 -0.5488 -1.2758  0.4824
 6560SOL     OW31312   3.312   1.484   1.712  0.2805 -0.3138 -0.9698
 6560SOL    HW131313   3.378   1.515   1.775 -1.4451  0.9544  0.1997
 6560SOL    HW231314   3.225   1.506   1.745 -0.3482 -0.7385 -2.3632
 6561SOL     OW31315   0.617   3.435   6.447 -0.5696  0.2753  0.0145
 6561SOL    HW131316   0.692   3.468   6.397 -0.9593  0.4401 -0.4515
 6561SOL    HW231317   0.549   3.424   6.380 -0.5653 -3.3196  0.5506
 6562SOL     OW31318   3.630   2.567   4.516  0.0907  0.2106 -0.2528
 6562SOL    HW131319   3.579   2.539   4.440  2.2767 -2.4329 -0.7323
 6562SOL    HW231320   3.564   2.626   4.551 -1.3869 -0.2016 -2.3634
 6563SOL     OW31321   3.019   0.962   5.325 -0.1895 -0.3606  0.3062
 6563SOL    HW131322   2.961   1.029   5.289  1.8293  0.2653 -1.8046
 6563SOL    HW231323   3.086   0.966   5.257  0.5869  1.4738  1.1740
 6564SOL     OW31324   4.424   1.890   4.121 -0.0266  0.1684 -0.1398
 6564SOL    HW131325   4.427   1.884   4.216  0.8930 -0.1661 -0.1880
 6564SOL    HW231326   4.418   1.985   4.109  0.0220  0.4496  2.1680
 6565SOL     OW31327   4.619   0.096   3.749 -0.3859 -0.0855  0.9779
 6565SOL    HW131328   4.711   0.070   3.750 -0.7316 -1.3448  0.1915
 6565SOL    HW231329   4.614   0.145   3.831 -1.4111 -0.0481  0.8972
 6566SOL     OW31330   1.611   0.085   5.049 -0.0304 -0.1650  0.0209
 6566SOL    HW131331   1.652   4.739   5.051 -3.0254 -1.5247  1.3010
 6566SOL    HW231332   1.608   0.105   5.142 -1.4447  0.0525 -0.0795
 6567SOL     OW31333   0.432   3.819   6.745 -0.1581  0.0737 -0.2050
 6567SOL    HW131334   0.392   3.740   6.708 -0.0577  0.4156 -1.0566
 6567SOL    HW231335   0.422   3.794   6.836 -1.1583  0.5834 -0.1706
 6568SOL     OW31336   3.079   0.150   8.162 -0.2610 -0.0092 -0.5958
 6568SOL    HW131337   3.167   0.151   8.123 -0.5203 -0.1975 -1.1794
 6568SOL    HW231338   3.091   0.093   8.238  2.0796  0.5518 -0.5464
 6569SOL     OW31339   1.062   2.907   9.209  0.5317 -0.3746  0.7120
 6569SOL    HW131340   1.144   2.942   9.243 -0.5577  1.8103  1.1271
 6569SOL    HW231341   1.056   2.828   9.263 -0.5092  0.3386  1.6366
 6570SOL     OW31342   0.752   2.338  10.704  0.6305 -0.1045 -1.0529
 6570SOL    HW131343   0.722   2.362  10.792  2.1204  1.4751 -0.9805
 6570SOL    HW231344   0.680   2.285  10.670  0.1382 -1.1693  1.5996
 6571SOL     OW31345   2.705   1.928   7.941  0.5499 -0.4348 -0.1562
 6571SOL    HW131346   2.620   1.925   7.896  1.3220  1.7287 -1.7815
 6571SOL    HW231347   2.722   1.839   7.970  2.5365 -0.5302 -1.6390
 6572SOL     OW31348   3.348   1.765  11.339 -0.2072 -0.6588 -0.5422
 6572SOL    HW131349   3.362   1.859  11.331 -1.8647 -0.3812 -0.1812
 6572SOL    HW231350   3.434   1.732  11.315  0.2595 -1.0212  1.6201
 6573SOL     OW31351   2.773   3.516   6.009 -0.3963  0.4381  0.5038
 6573SOL    HW131352   2.688   3.505   5.968 -0.8520  1.4162  1.1958
 6573SOL    HW231353   2.819   3.501   5.927 -1.1198 -1.5190  0.4427
 6574SOL     OW31354   4.467   0.105  10.851 -0.5187  0.1718 -0.2289
 6574SOL    HW131355   4.442   0.016  10.825 -0.6761  0.1460  0.0123
 6574SOL    HW231356   4.386   0.145  10.880 -1.5703 -1.8042 -0.4072
 6575SOL     OW31357   3.502   0.866  12.248 -0.1414  0.9631 -0.4220
 6575SOL    HW131358   3.574   0.827  12.298 -0.2906  1.0458 -0.1431
 6575SOL    HW231359   3.532   0.884  12.159  0.7455 -0.7690 -0.4782
 6576SOL     OW31360   1.112   0.389   1.685 -0.2349 -0.0027  0.0137
 6576SOL    HW131361   1.135   0.437   1.764  1.3847  1.3556 -1.3102
 6576SOL    HW231362   1.068   0.317   1.732 -1.4179 -0.3079 -1.5476
 6577SOL     OW31363   2.671   0.979   1.854  0.3402  0.3306 -0.3729
 6577SOL    HW131364   2.632   0.939   1.776 -1.7896  1.9290 -0.1087
 6577SOL    HW231365   2.692   0.908   1.915  2.6479  0.8300 -0.5617
 6578SOL     OW31366   0.261   3.396   2.705 -0.4513 -0.0986 -0.0754
 6578SOL    HW131367   0.172   3.427   2.686  0.0035  2.4645  1.9801
 6578SOL    HW231368   0.282   3.453   2.780  1.7076  1.3268 -1.7681
 6579SOL     OW31369   0.780   2.260   6.972 -0.1992  0.0840  0.0525
 6579SOL    HW131370   0.808   2.349   6.992  1.4272 -0.6348  1.0067
 6579SOL    HW231371   0.749   2.236   7.059 -1.6713  0.9361 -0.2332
 6580SOL     OW31372   2.453   4.072   0.396 -0.1376 -0.1377 -0.5031
 6580SOL    HW131373   2.471   4.042   0.307 -1.4823 -2.9116  0.1769
 6580SOL    HW231374   2.403   4.152   0.378  1.7129  0.7243 -1.9007
 6581SOL     OW31375   0.141   2.301   3.317 -0.0085  0.5623 -0.7126
 6581SOL    HW131376   0.135   2.276   3.409  0.4549 -0.5646 -0.9988
 6581SOL    HW231377   0.088   2.381   3.314  1.2315  1.4788  1.8870
 6582SOL     OW31378   2.383   2.190  10.940 -0.1581  0.0402 -0.1682
 6582SOL    HW131379   2.327   2.174  10.864 -1.0309  1.9423  0.0751
 6582SOL    HW231380   2.458   2.230  10.897 -0.1130  1.8389  1.6366
 6583SOL     OW31381   4.433   4.254   3.614  0.5512  0.3259  0.2787
 6583SOL    HW131382   4.503   4.225   3.556 -0.2911  0.5357 -0.8516
 6583SOL    HW231383   4.466   4.338   3.645 -1.3992 -0.5553  4.6620
 6584SOL     OW31384   1.363   1.968   8.073  0.2142 -0.1810 -0.1814
 6584SOL    HW131385   1.444   1.951   8.120  0.5790  1.5399 -0.1946
 6584SOL    HW231386   1.367   2.055   8.033 -1.7441  0.3397  0.7295
 6585SOL     OW31387   2.106   2.834   4.358  0.4375 -0.4323 -0.3216
 6585SOL    HW131388   2.143   2.828   4.271 -0.6330 -0.8154 -0.7557
 6585SOL    HW231389   2.083   2.744   4.383 -0.9504 -0.3321 -1.2153
 6586SOL     OW31390   4.233   0.839  11.931  0.0205 -0.9707 -0.4719
 6586SOL    HW131391   4.222   0.832  12.026  0.2558 -1.9709 -0.5276
 6586SOL    HW231392   4.148   0.879  11.912  0.6462  0.2337 -0.7224
 6587SOL     OW31393   2.744   3.597   6.689  0.2433 -0.4726  0.4404
 6587SOL    HW131394   2.722   3.612   6.597  3.3843  1.1412 -0.0422
 6587SOL    HW231395   2.813   3.532   6.675 -0.3307 -1.3599  1.7438
 6588SOL     OW31396   2.793   2.637   2.411 -0.1341 -0.3311 -0.5415
 6588SOL    HW131397   2.862   2.701   2.430 -0.2270  0.0807 -1.5758
 6588SOL    HW231398   2.718   2.680   2.451 -0.4346 -0.8267 -0.5753
 6589SOL     OW31399   2.253   0.564   1.709 -0.4694  0.0546 -0.3436
 6589SOL    HW131400   2.320   0.537   1.646 -0.1091 -0.5130  0.2835
 6589SOL    HW231401   2.183   0.503   1.691  0.0660 -0.3368 -1.0843
 6590SOL     OW31402   3.986   2.071   8.265 -0.3403 -0.7801 -0.0987
 6590SOL    HW131403   3.959   2.027   8.345 -2.1636  0.7519  0.1476
 6590SOL    HW231404   3.935   2.152   8.275  2.9350  1.1804  0.5971
 6591SOL     OW31405   1.917   1.060  14.525  0.2478  0.8387 -0.1223
 6591SOL    HW131406   1.982   1.004  14.567 -1.0071 -1.3648 -1.0891
 6591SOL    HW231407   1.861   1.079  14.601  1.4635  0.5884  0.8466
 6592SOL     OW31408   0.339   2.745   7.429 -0.0046 -0.6226  0.2011
 6592SOL    HW131409   0.349   2.767   7.336 -1.7141 -1.3735 -0.1699
 6592SOL    HW231410   0.383   2.816   7.474  0.6762 -0.9786  0.0920
 6593SOL     OW31411   0.936   2.865   0.204 -0.3958  0.5449 -0.9495
 6593SOL    HW131412   0.918   2.828   0.117 -1.2690 -1.0829 -0.0815
 6593SOL    HW231413   1.024   2.831   0.219 -0.6775  0.8454  1.4558
 6594SOL     OW31414   3.525   0.807   3.769  0.1030  0.1352 -0.5846
 6594SOL    HW131415   3.613   0.844   3.759  0.0899  0.3760  0.1936
 6594SOL    HW231416   3.542   0.713   3.758  0.9285  0.3816 -1.4396
 6595SOL     OW31417   0.596   3.344   4.148 -0.6169 -0.2979 -0.1056
 6595SOL    HW131418   0.611   3.251   4.132  0.5261 -0.0825 -0.2877
 6595SOL    HW231419   0.676   3.363   4.196  1.0370  1.2468 -3.4595
 6596SOL     OW31420   3.675   3.754   6.831 -0.1503 -0.3341 -0.0128
 6596SOL    HW131421   3.619   3.800   6.893 -1.2741 -1.6492 -0.0478
 6596SOL    HW231422   3.607   3.703   6.787 -3.0850  1.0643  2.9327
 6597SOL     OW31423   0.238   4.095   1.750 -0.0513 -0.4728 -0.2021
 6597SOL    HW131424   0.200   4.020   1.703  1.4053  0.9067 -3.5724
 6597SOL    HW231425   0.173   4.099   1.821  0.4541 -2.0757  0.3539
 6598SOL     OW31426   3.131   0.611  11.811 -0.5510  0.3776 -0.4496
 6598SOL    HW131427   3.217   0.650  11.801  0.1443 -0.9778  0.1229
 6598SOL    HW231428   3.137   0.580  11.902 -1.7919  1.0898 -0.1237
 6599SOL     OW31429   0.695   1.009   6.570 -0.5484  0.5411 -0.2486
 6599SOL    HW131430   0.640   1.028   6.646  0.7628  1.7551  0.4032
 6599SOL    HW231431   0.719   0.918   6.591  0.8734  1.1653  0.8754
 6600SOL     OW31432   4.209   3.390   5.941  0.0053 -0.1113  0.0167
 6600SOL    HW131433   4.253   3.427   5.865 -0.5940 -1.6534 -1.0963
 6600SOL    HW231434   4.250   3.303   5.941  0.4717  0.1060  1.5783
 6601SOL     OW31435   3.123   3.096   4.535 -0.3239 -0.6110  0.8045
 6601SOL    HW131436   3.215   3.114   4.555 -0.3901  1.1179 -0.4607
 6601SOL    HW231437   3.128   3.002   4.518 -0.1736 -0.2416 -1.2691
 6602SOL     OW31438   3.468   3.515  13.356 -0.5648 -0.1809 -0.8637
 6602SOL    HW131439   3.515   3.496  13.438 -0.2923  1.1387 -0.7161
 6602SOL    HW231440   3.527   3.566  13.301  0.8347 -0.6896  0.1437
 6603SOL     OW31441   2.522   3.386   5.985 -0.0635 -0.0426 -0.2652
 6603SOL    HW131442   2.478   3.308   6.018 -3.0411  0.5220 -2.9016
 6603SOL    HW231443   2.478   3.413   5.905  1.1148 -0.0787 -0.9250
 6604SOL     OW31444   2.652   1.663   4.007 -0.1814  0.1194  0.1189
 6604SOL    HW131445   2.648   1.662   4.103  2.2528  0.1969  0.2126
 6604SOL    HW231446   2.734   1.621   3.980 -0.5125  1.1539 -2.4709
 6605SOL     OW31447   1.827   4.250   4.888 -0.4351 -0.2212  0.5652
 6605SOL    HW131448   1.809   4.250   4.794  3.4141  0.5008 -0.1910
 6605SOL    HW231449   1.775   4.175   4.917  0.0564 -1.1619 -0.9772
 6606SOL     OW31450   0.639   1.286   4.739  0.4189 -0.3580 -0.5421
 6606SOL    HW131451   0.703   1.270   4.669 -0.0994  1.7878 -1.4986
 6606SOL    HW231452   0.599   1.364   4.701 -1.1966 -0.6578  0.5574
 6607SOL     OW31453   4.250   2.459   9.065  0.4560 -0.0463  0.0940
 6607SOL    HW131454   4.297   2.504   8.994 -0.9052 -0.9517 -1.3784
 6607SOL    HW231455   4.265   2.527   9.130  0.5953 -1.4175  1.4974
 6608SOL     OW31456   4.355   0.418   3.433 -0.3282 -0.0394 -0.4259
 6608SOL    HW131457   4.391   0.333   3.459  1.0817  0.5480 -0.4284
 6608SOL    HW231458   4.308   0.402   3.352 -2.9002  0.5645  0.9397
 6609SOL     OW31459   2.203   0.625  17.447 -0.5221 -0.4977 -0.3251
 6609SOL    HW131460   2.123   0.613  17.395 -1.6462  2.8847  0.5852
 6609SOL    HW231461   2.192   0.712  17.486 -0.8533  1.1223 -3.9561
 6610SOL     OW31462   2.967   4.584   5.898 -0.1491 -0.0949 -0.1053
 6610SOL    HW131463   2.890   4.528   5.905 -0.5853  0.6771  1.5067
 6610SOL    HW231464   2.991   4.573   5.806  0.6389  0.4389  0.0325
 6611SOL     OW31465   3.752   2.801   0.578 -0.1827 -0.0966 -0.1901
 6611SOL    HW131466   3.710   2.716   0.595 -0.3681  0.1770  0.7283
 6611SOL    HW231467   3.842   2.781   0.551  0.4111  0.7738  1.1184
 6612SOL     OW31468   3.458   3.755   9.812 -0.2266 -0.1752  0.1782
 6612SOL    HW131469   3.545   3.748   9.772  0.7440  0.0845  2.2780
 6612SOL    HW231470   3.459   3.682   9.873  1.5270 -0.6664 -0.4622
 6613SOL     OW31471   3.183   2.314   8.805 -0.0919  0.2755 -0.2424
 6613SOL    HW131472   3.198   2.279   8.893  1.6061 -2.7065 -1.7302
 6613SOL    HW231473   3.113   2.379   8.816 -1.1314 -0.6016 -1.5993
 6614SOL     OW31474   3.385   0.796   4.786  0.9418 -0.1349  0.0229
 6614SOL    HW131475   3.432   0.796   4.702  1.4918  0.9851  0.3374
 6614SOL    HW231476   3.329   0.723   4.760 -0.8386  1.1929  0.0715
 6615SOL     OW31477   3.212   4.663   0.392 -0.3541  0.1818  0.2755
 6615SOL    HW131478   3.147   4.621   0.448 -2.1461 -1.7422 -3.2414
 6615SOL    HW231479   3.247   4.599   0.330 -1.1913  0.7711 -0.8008
 6616SOL     OW31480   3.174   4.297   1.216  0.1421  0.0657 -0.3204
 6616SOL    HW131481   3.153   4.220   1.163 -0.9528  0.7429 -0.8863
 6616SOL    HW231482   3.183   4.361   1.146 -0.3964  0.2321 -0.2391
 6617SOL     OW31483   3.177   0.249   7.292 -0.1014  0.3129 -0.0573
 6617SOL    HW131484   3.195   0.287   7.206 -2.1323  1.5520  0.0592
 6617SOL    HW231485   3.082   0.252   7.283 -0.0482  0.5413 -0.5396
 6618SOL     OW31486   1.874   4.113   0.638 -0.0161  0.1108 -0.3141
 6618SOL    HW131487   1.800   4.130   0.580 -1.0012 -0.4467  0.7825
 6618SOL    HW231488   1.943   4.149   0.582 -0.4840  3.5742  1.3291
 6619SOL     OW31489   4.677   3.027   4.478 -0.2928  0.4713  0.3500
 6619SOL    HW131490   4.603   3.014   4.418  1.0103 -0.1962 -1.1081
 6619SOL    HW231491   4.636   2.987   4.554 -0.4703  0.2305  0.1304
 6620SOL     OW31492   2.485   1.622  14.133 -0.2660 -0.2850  0.0134
 6620SOL    HW131493   2.401   1.583  14.110 -0.2540  0.5268 -1.3826
 6620SOL    HW231494   2.489   1.691  14.066  2.9797  1.7000  2.2610
 6621SOL     OW31495   0.877   2.371   5.578 -0.1985  0.4094 -0.8238
 6621SOL    HW131496   0.895   2.465   5.576 -2.3242  0.8389  0.5474
 6621SOL    HW231497   0.949   2.323   5.535  0.1368  1.5020 -1.4756
 6622SOL     OW31498   3.256   1.948   3.517 -0.3573  0.0708 -0.4564
 6622SOL    HW131499   3.257   1.982   3.428 -0.6281  0.2196 -0.4048
 6622SOL    HW231500   3.163   1.926   3.527  0.4259 -2.7626  0.6839
 6623SOL     OW31501   1.634   1.471   3.514  0.2258  0.1740 -0.1994
 6623SOL    HW131502   1.653   1.475   3.420 -3.8000  1.5219 -0.9692
 6623SOL    HW231503   1.673   1.552   3.546 -1.4866  0.6233  0.7359
 6624SOL     OW31504   4.270   0.277   6.195  0.6229  0.6005  0.6524
 6624SOL    HW131505   4.306   0.312   6.114  0.6835 -0.5322  0.1925
 6624SOL    HW231506   4.178   0.303   6.200  0.4434  0.1160 -0.2125
 6625SOL     OW31507   3.273   0.168  10.512  0.4415  0.1711 -0.0335
 6625SOL    HW131508   3.334   0.235  10.482  1.4800 -1.2110 -1.0191
 6625SOL    HW231509   3.286   0.170  10.606  0.0441  2.2136 -0.0252
 6626SOL     OW31510   1.672   2.025   3.342  0.0708 -0.1914  0.3441
 6626SOL    HW131511   1.722   2.064   3.270 -1.7061  0.9844 -0.2710
 6626SOL    HW231512   1.632   1.955   3.291  1.2483  1.5596 -2.9272
 6627SOL     OW31513   1.751   4.062   9.029 -1.0455  0.5053  0.0876
 6627SOL    HW131514   1.786   4.078   8.941 -0.9206 -1.9854 -0.3174
 6627SOL    HW231515   1.659   4.051   9.004  0.1339 -1.4573 -3.4261
 6628SOL     OW31516   4.012   0.488   9.772 -0.2276  0.4263 -1.1098
 6628SOL    HW131517   4.092   0.528   9.807  1.7154 -2.7767 -1.8403
 6628SOL    HW231518   3.954   0.564   9.767 -0.1041  0.4869 -1.6032
 6629SOL     OW31519   4.713   2.844   1.032  0.5598  0.5193 -0.4825
 6629SOL    HW131520   4.653   2.887   1.093 -1.5624 -1.0480 -1.4834
 6629SOL    HW231521   0.043   2.809   1.086  1.2586 -2.8037 -3.5832
 6630SOL     OW31522   4.720   4.124   1.917 -0.5742 -0.3009 -0.5599
 6630SOL    HW131523   4.663   4.053   1.888 -0.4152 -0.9788  0.7854
 6630SOL    HW231524   4.666   4.153   1.990  0.1541 -1.0003  0.2521
 6631SOL     OW31525   1.451   2.683   7.273 -0.1779 -0.1436  0.2481
 6631SOL    HW131526   1.532   2.673   7.222  0.8326  1.2541  1.5574
 6631SOL    HW231527   1.382   2.670   7.208  1.2681  1.6275 -1.6557
 6632SOL     OW31528   2.211   2.681   0.336  0.1456 -0.0744  0.4776
 6632SOL    HW131529   2.170   2.711   0.255 -1.7178  0.2790  1.5306
 6632SOL    HW231530   2.143   2.713   0.396 -0.9662  0.8627 -1.2659
 6633SOL     OW31531   3.742   0.490   1.306  0.4602 -0.2402 -0.0944
 6633SOL    HW131532   3.709   0.453   1.225 -0.8328  0.6029  0.0558
 6633SOL    HW231533   3.695   0.573   1.309 -2.1482 -1.7366  0.5328
 6634SOL     OW31534   0.285   0.991   3.125 -0.2569  0.1126  0.3802
 6634SOL    HW131535   0.219   0.926   3.101 -1.1609  0.7356  1.1942
 6634SOL    HW231536   0.363   0.954   3.085 -0.5718  0.3762 -0.4891
 6635SOL     OW31537   4.161   4.299   7.333 -1.0616  0.2206  0.2134
 6635SOL    HW131538   4.068   4.287   7.352 -1.1961  1.5015  0.3396
 6635SOL    HW231539   4.166   4.394   7.326  0.4298  0.2626  1.9053
 6636SOL     OW31540   1.746   3.178   2.911 -0.4937 -0.6292  0.1626
 6636SOL    HW131541   1.776   3.186   2.820 -2.3744  0.6102 -0.3362
 6636SOL    HW231542   1.708   3.263   2.931 -1.2073 -0.4036 -2.1293
 6637SOL     OW31543   3.445   2.016   7.827  0.1270 -0.3106  0.3522
 6637SOL    HW131544   3.357   2.045   7.854  0.1308  1.7295 -1.7493
 6637SOL    HW231545   3.445   2.060   7.741 -1.2083 -3.2592 -1.1733
 6638SOL     OW31546   3.934   0.296   7.464 -0.1671 -0.1178 -0.2691
 6638SOL    HW131547   3.869   0.326   7.528  2.8063  2.8900  1.3936
 6638SOL    HW231548   4.005   0.268   7.522  1.3574  0.1869 -1.9930
 6639SOL     OW31549   2.892   2.858   3.444 -0.4309  0.3651 -0.1612
 6639SOL    HW131550   2.860   2.927   3.503  1.6389 -2.1454  3.8617
 6639SOL    HW231551   2.835   2.784   3.463  0.7040 -0.5159 -0.1629
 6640SOL     OW31552   1.577   2.188   8.544  0.0012 -0.3389 -0.1586
 6640SOL    HW131553   1.583   2.103   8.588 -2.8705 -0.6375 -0.3593
 6640SOL    HW231554   1.597   2.250   8.614 -0.7982  0.4635 -0.6461
 6641SOL     OW31555   2.624   3.399   0.592  0.0392 -0.1131  0.3272
 6641SOL    HW131556   2.589   3.349   0.666 -2.2724 -1.6623 -1.8006
 6641SOL    HW231557   2.547   3.407   0.535 -0.2589  2.2465  1.0691
 6642SOL     OW31558   0.233   4.386   3.539 -0.0968 -0.4997 -0.5100
 6642SOL    HW131559   0.317   4.401   3.495 -1.0705 -0.3200 -2.2651
 6642SOL    HW231560   0.174   4.352   3.473  0.5153  0.8427 -1.7597
 6643SOL     OW31561   1.510   3.019   0.437  0.0005  0.1281 -0.1138
 6643SOL    HW131562   1.555   2.953   0.488  0.3687 -1.6169 -2.6986
 6643SOL    HW231563   1.528   2.974   0.355 -3.1171  0.1313 -0.8308
 6644SOL     OW31564   4.280   1.400   6.988 -0.3420 -0.2009  0.3708
 6644SOL    HW131565   4.229   1.380   7.066  0.1690 -0.7257  0.5691
 6644SOL    HW231566   4.240   1.327   6.941 -0.8998 -0.1165  0.7226
 6645SOL     OW31567   3.865   4.348   3.904  0.4630 -0.2965 -0.8012
 6645SOL    HW131568   3.795   4.367   3.842 -1.0307 -1.5863  0.5134
 6645SOL    HW231569   3.817   4.326   3.983  0.1407  2.4913 -0.2098
 6646SOL     OW31570   3.538   2.569   2.497  0.6973 -0.7045 -0.1273
 6646SOL    HW131571   3.520   2.591   2.405 -0.6332 -3.3751 -0.5185
 6646SOL    HW231572   3.558   2.653   2.538  0.9347 -1.6878  1.7718
 6647SOL     OW31573   3.615   4.142   3.788 -0.1741  0.5992 -0.6500
 6647SOL    HW131574   3.536   4.196   3.785 -0.5176  0.1291  0.0770
 6647SOL    HW231575   3.585   4.053   3.769 -0.3088  1.0879 -2.7378
 6648SOL     OW31576   2.551   3.685  13.008 -0.1860  0.1713 -0.1357
 6648SOL    HW131577   2.630   3.676  13.062  1.5246 -0.1940 -2.7088
 6648SOL    HW231578   2.568   3.633  12.929  1.5514 -2.0598  1.7085
 6649SOL     OW31579   3.136   2.374   6.571 -0.2009  0.6850 -0.3895
 6649SOL    HW131580   3.208   2.431   6.543  1.0268  0.5893  2.6752
 6649SOL    HW231581   3.082   2.404   6.497 -3.6926 -0.4224  1.7380
 6650SOL     OW31582   1.823   2.579   2.280  0.3766 -0.5661 -0.1011
 6650SOL    HW131583   1.764   2.642   2.321 -1.0124 -1.9735  0.0936
 6650SOL    HW231584   1.872   2.564   2.361 -0.9383  0.5947  0.9084
 6651SOL     OW31585   0.072   3.349   6.280  0.1131  0.3387  0.7127
 6651SOL    HW131586   0.006   3.348   6.211  0.6565 -1.6548  0.2174
 6651SOL    HW231587   0.061   3.263   6.320  1.2237 -0.0729  0.1619
 6652SOL     OW31588   4.583   4.560   7.425  0.3965  0.8138  0.2360
 6652SOL    HW131589   4.528   4.523   7.494  1.4779 -0.2323  0.5343
 6652SOL    HW231590   4.600   4.646   7.462  1.2186  0.6834  0.1575
 6653SOL     OW31591   1.430   0.193   8.527  0.6379  0.0158 -0.4133
 6653SOL    HW131592   1.443   0.128   8.459  1.5790 -0.1113 -0.1025
 6653SOL    HW231593   1.358   0.244   8.490  0.2361 -0.6455 -0.5418
 6654SOL     OW31594   2.431   0.036  11.511  0.5074  0.6948 -1.2438
 6654SOL    HW131595   2.429   0.017  11.417 -1.4060 -1.9032 -0.6588
 6654SOL    HW231596   2.500   0.102  11.524  0.0667  1.0326 -0.6266
 6655SOL     OW31597   1.695   0.675   4.378  0.1327 -0.4680  0.0248
 6655SOL    HW131598   1.709   0.595   4.328 -1.5079 -1.4306  1.1084
 6655SOL    HW231599   1.620   0.666   4.437 -1.0657  1.0297 -1.2625
 6656SOL     OW31600   0.116   1.680   2.895  0.2284 -0.1509  0.2980
 6656SOL    HW131601   0.156   1.630   2.824  2.2012  1.6735  0.1454
 6656SOL    HW231602   0.022   1.659   2.898  0.2452 -0.0961  1.2498
 6657SOL     OW31603   4.454   0.443   1.392  0.1993 -0.2774  0.2402
 6657SOL    HW131604   4.392   0.496   1.341  1.9416  4.0236  2.5912
 6657SOL    HW231605   4.397   0.383   1.440 -0.8294 -0.6707 -1.4892
 6658SOL     OW31606   1.136   3.248   2.729  0.8054 -0.1414 -0.1393
 6658SOL    HW131607   1.064   3.272   2.670 -0.1983 -0.1703  1.0935
 6658SOL    HW231608   1.155   3.156   2.709 -1.5258 -0.1222 -2.5471
 6659SOL     OW31609   4.661   0.413   3.331 -0.1862  0.0524 -0.0435
 6659SOL    HW131610   4.644   0.342   3.269  0.8958 -0.1169 -0.1508
 6659SOL    HW231611   4.582   0.419   3.385  0.9276  1.9574  1.3507
 6660SOL     OW31612   0.888   0.366   8.717  0.1220  0.1025 -0.2705
 6660SOL    HW131613   0.901   0.449   8.763 -0.5195  0.4646 -0.7387
 6660SOL    HW231614   0.961   0.316   8.753 -0.0752 -1.7450 -2.3909
 6661SOL     OW31615   0.690   1.092   2.616  0.6838 -0.3006 -0.2685
 6661SOL    HW131616   0.675   0.998   2.606 -2.3487  0.0562  1.0426
 6661SOL    HW231617   0.676   1.108   2.709 -1.2352  0.6100 -0.7218
 6662SOL     OW31618   3.221   2.484   2.208 -0.0189  0.5183 -0.5410
 6662SOL    HW131619   3.213   2.462   2.115  1.9086 -0.5475 -0.4733
 6662SOL    HW231620   3.267   2.404   2.233 -1.0454  0.2898  0.5752
 6663SOL     OW31621   0.535   0.477   7.633 -0.5522 -0.7172 -0.2682
 6663SOL    HW131622   0.568   0.393   7.666  1.4552 -0.6947 -2.2463
 6663SOL    HW231623   0.575   0.479   7.547  1.4201 -0.0033  0.6572
 6664SOL     OW31624   2.608   4.085   2.596  0.2010 -0.2557  0.1234
 6664SOL    HW131625   2.641   4.123   2.515  0.9998 -0.1543  0.5012
 6664SOL    HW231626   2.655   4.004   2.576  0.2404 -0.3393  0.5620
 6665SOL     OW31627   0.362   3.210   7.622 -0.0930 -0.2332  0.2217
 6665SOL    HW131628   0.299   3.138   7.613 -1.5011  0.9786  0.3169
 6665SOL    HW231629   0.342   3.247   7.708 -2.4071 -1.3910  0.1726
 6666SOL     OW31630   0.785   0.674  13.398 -1.0738  0.2912 -0.0144
 6666SOL    HW131631   0.873   0.706  13.376 -1.1527 -0.0070 -0.7659
 6666SOL    HW231632   0.748   0.747  13.447 -1.6524  0.2873 -0.4529
 6667SOL     OW31633   3.765   0.352   7.662 -0.2953  0.0389  0.2778
 6667SOL    HW131634   3.742   0.263   7.686 -0.0050 -0.1282 -0.0653
 6667SOL    HW231635   3.709   0.405   7.719  1.5533  2.1424  0.1347
 6668SOL     OW31636   2.072   2.347   7.422  0.6072 -0.3815 -0.2767
 6668SOL    HW131637   2.012   2.273   7.411 -0.5379  0.5091  0.1245
 6668SOL    HW231638   2.057   2.369   7.513  0.4706 -2.4559  0.2174
 6669SOL     OW31639   2.329   1.439   3.106  0.3527  0.0586  0.4851
 6669SOL    HW131640   2.414   1.401   3.126 -0.6982 -2.1164  0.8867
 6669SOL    HW231641   2.344   1.475   3.019 -0.4508 -1.0786 -0.1264
 6670SOL     OW31642   2.546   2.187  14.557  0.4097  0.1888 -0.0081
 6670SOL    HW131643   2.477   2.171  14.621 -1.1024 -1.1459 -1.9530
 6670SOL    HW231644   2.550   2.283  14.560  0.5518  0.1577  0.7385
 6671SOL     OW31645   4.328   1.292  13.321 -0.1467  0.0386  0.0974
 6671SOL    HW131646   4.264   1.247  13.377  0.8229 -3.1907 -1.3934
 6671SOL    HW231647   4.409   1.244  13.339 -0.2973 -0.1015  0.3982
 6672SOL     OW31648   0.778   0.021   5.963 -0.3346 -0.4957  0.5000
 6672SOL    HW131649   0.690   0.026   5.925 -1.0918 -1.5077  2.1360
 6672SOL    HW231650   0.760   0.047   6.053 -1.3233 -1.6497  0.6381
 6673SOL     OW31651   1.754   1.631   5.160  0.2648 -0.2948  0.0233
 6673SOL    HW131652   1.767   1.634   5.255  2.0541 -0.3123 -0.2152
 6673SOL    HW231653   1.841   1.601   5.135  0.9666  1.1890  0.6597
 6674SOL     OW31654   2.316   4.269   0.825 -0.2919  0.2627 -0.2380
 6674SOL    HW131655   2.371   4.344   0.847  0.0690  0.0896 -0.5431
 6674SOL    HW231656   2.257   4.297   0.755  0.1248  1.0157 -0.2907
 6675SOL     OW31657   1.683   3.139   6.121  0.0635 -0.3282  0.3048
 6675SOL    HW131658   1.620   3.211   6.115  0.1133 -0.4512 -1.6549
 6675SOL    HW231659   1.687   3.101   6.033 -1.4901  0.6072 -0.1680
 6676SOL     OW31660   2.427   4.481   2.913 -0.3998  0.0364  0.0443
 6676SOL    HW131661   2.489   4.437   2.855 -0.4316 -2.2150  1.7107
 6676SOL    HW231662   2.407   4.562   2.866  1.0143  0.0555 -0.5168
 6677SOL     OW31663   3.127   0.873  17.482  0.3667 -0.8790  0.3873
 6677SOL    HW131664   3.216   0.887  17.449  0.6059  1.6366  2.1591
 6677SOL    HW231665   3.112   0.798  17.423 -0.1282 -1.6787  1.5303
 6678SOL     OW31666   3.260   2.820  16.711  0.0544  0.9599 -0.0598
 6678SOL    HW131667   3.220   2.906  16.699  0.3156  1.0827 -0.0514
 6678SOL    HW231668   3.283   2.789  16.624 -0.5918 -1.0566  0.4957
 6679SOL     OW31669   4.092   2.343   5.992 -0.6148  0.0174 -0.2340
 6679SOL    HW131670   4.185   2.332   5.971 -0.3110  0.5046  0.9033
 6679SOL    HW231671   4.082   2.435   6.014 -1.2668 -0.5572  1.8333
 6680SOL     OW31672   1.978   4.604  11.705  0.0541 -0.6163  0.2855
 6680SOL    HW131673   1.962   4.694  11.677  0.0625 -0.6374  0.2138
 6680SOL    HW231674   1.959   4.621  11.798  2.4944 -1.9498  1.0041
 6681SOL     OW31675   0.570   3.409   2.982 -0.0818 -0.4161  0.4051
 6681SOL    HW131676   0.503   3.477   2.990  0.4965  0.3174 -0.9277
 6681SOL    HW231677   0.615   3.434   2.901  0.2183 -1.9865  0.0879
 6682SOL     OW31678   2.841   2.122  10.144  0.4394  0.6245  0.0011
 6682SOL    HW131679   2.810   2.097  10.230 -0.7841  0.3763 -0.5122
 6682SOL    HW231680   2.792   2.062  10.088  0.0928 -0.9717  2.0386
 6683SOL     OW31681   2.252   3.528   7.760 -0.1398  1.0068 -0.7304
 6683SOL    HW131682   2.206   3.609   7.738 -0.7999  0.1763 -2.4353
 6683SOL    HW231683   2.290   3.508   7.675  0.4222 -0.4592 -0.1294
 6684SOL     OW31684   3.916   0.660   2.339  0.0887  0.2533  0.5441
 6684SOL    HW131685   3.990   0.716   2.363 -0.9971  1.8153  0.2630
 6684SOL    HW231686   3.944   0.649   2.248 -0.1598 -3.1905  0.8909
 6685SOL     OW31687   3.850   1.741   0.509  0.2031  0.5323  0.0900
 6685SOL    HW131688   3.909   1.732   0.433 -0.4636 -2.9400  0.0162
 6685SOL    HW231689   3.858   1.657   0.554  0.9597 -0.1957 -1.4106
 6686SOL     OW31690   0.968   4.198   2.100 -0.2856  0.2656 -0.4086
 6686SOL    HW131691   0.901   4.220   2.164  0.4103 -0.6605  0.6399
 6686SOL    HW231692   0.921   4.156   2.028 -0.3524  1.0436 -0.8252
 6687SOL     OW31693   4.659   0.071  15.009  0.7003  0.0386 -0.6508
 6687SOL    HW131694   4.613   0.144  14.967  0.3516  0.5188  0.5694
 6687SOL    HW231695   4.740   0.117  15.029  0.3202  0.0976  0.7550
 6688SOL     OW31696   3.608   3.344   3.710  0.0713  0.2140  0.5320
 6688SOL    HW131697   3.551   3.305   3.644  1.3041  0.6919 -0.7945
 6688SOL    HW231698   3.565   3.307   3.788  0.4633 -0.5031  0.4121
 6689SOL     OW31699   4.100   1.566  12.947  0.9505 -0.0641 -0.4625
 6689SOL    HW131700   4.065   1.605  12.867  0.3806 -0.2265 -0.2966
 6689SOL    HW231701   4.093   1.641  13.006 -1.1490  0.5657 -1.5161
 6690SOL     OW31702   1.862   2.652   7.910  0.4567  0.1859  0.5782
 6690SOL    HW131703   1.774   2.640   7.874  0.2330  0.2504  1.1096
 6690SOL    HW231704   1.841   2.662   8.003  1.8354  1.8130  0.7076
 6691SOL     OW31705   3.148   3.062  11.343  0.2607  0.3819 -0.3609
 6691SOL    HW131706   3.141   3.057  11.438  0.0135 -0.0898 -0.4010
 6691SOL    HW231707   3.093   3.136  11.316  0.2402  1.3715  2.4294
 6692SOL     OW31708   0.645   4.564  12.008  0.3966 -0.1085 -0.5337
 6692SOL    HW131709   0.721   4.611  12.042  0.8808 -1.5035  0.2827
 6692SOL    HW231710   0.672   4.483  12.051 -0.5937 -2.4410 -4.3800
 6693SOL     OW31711   3.343   2.379   2.569 -0.0903 -0.4702 -0.0411
 6693SOL    HW131712   3.353   2.352   2.478  1.5878  1.0659 -0.3272
 6693SOL    HW231713   3.381   2.467   2.563  1.4095 -1.1555 -0.6361
 6694SOL     OW31714   4.066   3.294   3.140 -0.4799 -0.1463  0.0162
 6694SOL    HW131715   3.982   3.258   3.169 -0.3890  1.7641  2.6526
 6694SOL    HW231716   4.100   3.329   3.223 -3.2074  0.5048  0.8447
 6695SOL     OW31717   2.490   1.151   0.308  0.5261 -0.2244  0.8445
 6695SOL    HW131718   2.539   1.222   0.350  1.9294  0.2009 -1.5174
 6695SOL    HW231719   2.413   1.148   0.365  0.0027  0.9013  0.1984
 6696SOL     OW31720   4.479   4.485   4.811 -0.1029 -0.3992 -0.2897
 6696SOL    HW131721   4.398   4.516   4.853  0.3415  0.2136  0.1150
 6696SOL    HW231722   4.458   4.483   4.717  0.5198 -2.7441 -0.3781
 6697SOL     OW31723   2.002   1.476   3.510 -0.4717 -0.2185  0.5473
 6697SOL    HW131724   2.097   1.485   3.519 -0.6353  1.5444  0.6629
 6697SOL    HW231725   1.967   1.526   3.436  3.4551 -0.2504 -1.3441
 6698SOL     OW31726   3.680   3.124  14.694 -0.6650  0.1641  0.4074
 6698SOL    HW131727   3.668   3.032  14.669 -2.2768  0.7662 -1.0432
 6698SOL    HW231728   3.745   3.150  14.628 -1.2507  2.2685  0.6671
 6699SOL     OW31729   2.756   1.904  11.097  0.3871 -0.0408 -0.1412
 6699SOL    HW131730   2.787   1.838  11.035  0.9600  0.0207  0.0722
 6699SOL    HW231731   2.672   1.925  11.057 -0.1781 -1.2614  0.4306
 6700SOL     OW31732   3.074   0.824   7.681  0.0186 -0.2326 -0.2702
 6700SOL    HW131733   3.103   0.913   7.659 -0.2506 -0.1343 -0.2362
 6700SOL    HW231734   3.060   0.783   7.596 -0.8496  0.9339 -0.6908
 6701SOL     OW31735   2.791   3.157   2.419  0.0751  0.1585  0.3660
 6701SOL    HW131736   2.840   3.209   2.482 -0.0455  1.1584 -0.3666
 6701SOL    HW231737   2.705   3.153   2.460 -0.5333 -2.3940 -1.1207
 6702SOL     OW31738   3.390   4.113   8.868 -0.4251  0.4466  0.8261
 6702SOL    HW131739   3.370   4.194   8.914  4.7104  0.6867  2.6590
 6702SOL    HW231740   3.484   4.105   8.881 -0.5554 -1.0232  0.9602
 6703SOL     OW31741   1.625   0.230   5.472 -0.0782 -0.1301  0.2445
 6703SOL    HW131742   1.541   0.209   5.431 -0.9526  0.0300  1.9274
 6703SOL    HW231743   1.669   0.274   5.400 -3.1219 -1.2964 -2.3204
 6704SOL     OW31744   1.846   3.906   7.600 -0.1743 -0.4163  0.0028
 6704SOL    HW131745   1.924   3.910   7.545  1.2659 -0.3511  2.0776
 6704SOL    HW231746   1.779   3.878   7.538  1.0125 -1.7423 -0.6582
 6705SOL     OW31747   4.692   4.491   2.938  0.1614 -0.3658 -0.0652
 6705SOL    HW131748   0.006   4.569   2.937 -1.3006  0.6851  0.0447
 6705SOL    HW231749   0.020   4.430   2.961 -0.2578 -1.3422 -1.3995
 6706SOL     OW31750   3.010   3.144   4.077  0.1889  0.4009  0.5287
 6706SOL    HW131751   3.013   3.176   4.167 -4.6882 -0.0746  0.8259
 6706SOL    HW231752   2.915   3.138   4.068  0.1855  0.6733  0.3760
 6707SOL     OW31753   1.662   3.103   6.865 -0.3997  0.1986 -0.7806
 6707SOL    HW131754   1.711   3.022   6.874 -0.5671  0.1119 -0.6392
 6707SOL    HW231755   1.642   3.098   6.772 -1.6683  0.7741 -0.5496
 6708SOL     OW31756   4.680   0.914  17.443 -0.0322  0.1245 -0.4127
 6708SOL    HW131757   4.715   0.921  17.354  0.3420 -2.1246 -0.4227
 6708SOL    HW231758   4.603   0.863  17.421 -0.0814  0.6538 -1.4440
 6709SOL     OW31759   0.220   0.619   0.921 -0.9368 -0.1209 -0.0485
 6709SOL    HW131760   0.257   0.685   0.980  2.1543 -0.6703 -1.3268
 6709SOL    HW231761   0.245   0.533   0.958  1.1238 -0.2443 -1.7210
 6710SOL     OW31762   4.054   0.150   4.045  0.5316 -0.4987  0.2739
 6710SOL    HW131763   4.145   0.178   4.053  0.0111  1.1075  0.4697
 6710SOL    HW231764   4.059   0.063   4.085 -1.0711 -2.4420 -3.7755
 6711SOL     OW31765   2.733   2.503   5.714 -0.0562 -0.5519 -0.2731
 6711SOL    HW131766   2.758   2.428   5.767  2.0973  1.8896  2.1948
 6711SOL    HW231767   2.646   2.479   5.682 -0.4069 -0.7371  0.8220
 6712SOL     OW31768   0.614   1.789   8.691 -0.7679  0.2274  0.6160
 6712SOL    HW131769   0.682   1.839   8.647  1.0553 -2.0988  0.7623
 6712SOL    HW231770   0.535   1.811   8.641  0.6146  1.7899 -0.8572
 6713SOL     OW31771   4.161   3.242   4.241  0.4690  0.0504  0.1269
 6713SOL    HW131772   4.220   3.242   4.166  1.9900  0.2237  1.3305
 6713SOL    HW231773   4.218   3.213   4.313  0.8124 -0.2232 -0.2555
 6714SOL     OW31774   0.234   3.983   5.353  0.1739 -0.3753 -0.1020
 6714SOL    HW131775   0.198   3.894   5.356 -2.0109  0.5482  1.1736
 6714SOL    HW231776   0.157   4.036   5.331 -1.1171 -2.5249 -0.7909
 6715SOL     OW31777   0.947   0.128  12.884  0.0210 -0.5069  0.2560
 6715SOL    HW131778   0.957   0.162  12.795  2.3493  0.5344  0.9244
 6715SOL    HW231779   0.897   0.200  12.921  0.9103 -0.0482  0.5606
 6716SOL     OW31780   0.610   4.005   1.619 -0.1552 -0.0320  0.0199
 6716SOL    HW131781   0.537   4.066   1.605 -0.3526 -0.4268 -0.7136
 6716SOL    HW231782   0.572   3.920   1.597  1.3672 -0.7225  0.0774
 6717SOL     OW31783   4.705   3.894  14.950  0.1839 -0.2315  0.0785
 6717SOL    HW131784   4.659   3.973  14.922  1.1985  0.5135  0.5497
 6717SOL    HW231785   4.714   3.900  15.045 -0.7639 -0.7629  0.2056
 6718SOL     OW31786   3.976   2.548  14.720 -0.3981 -0.7830 -0.0317
 6718SOL    HW131787   3.899   2.501  14.753 -0.4766  0.3478  1.3883
 6718SOL    HW231788   3.941   2.635  14.704  1.3878  0.6924  4.1248
 6719SOL     OW31789   0.258   2.449   2.955 -0.0007  0.6392 -0.3347
 6719SOL    HW131790   0.247   2.532   3.002  0.0866  1.1622 -1.2495
 6719SOL    HW231791   0.247   2.491   2.870 -0.6816  0.6353 -0.2490
 6720SOL     OW31792   0.319   4.708   0.904 -0.1222 -0.0358 -0.1808
 6720SOL    HW131793   0.382   4.642   0.873  1.0049  1.6384 -1.4844
 6720SOL    HW231794   0.266   4.651   0.960 -1.0757  1.0459  0.0118
 6721SOL     OW31795   1.711   1.752   3.188  0.8376  0.1710 -0.7240
 6721SOL    HW131796   1.710   1.740   3.093 -0.0358  0.7184 -0.7866
 6721SOL    HW231797   1.617   1.771   3.201  1.2771  1.7279  0.2366
 6722SOL     OW31798   4.486   1.507   4.132  0.6236 -0.2763  0.2073
 6722SOL    HW131799   4.443   1.587   4.104 -3.3197 -2.3851  0.1437
 6722SOL    HW231800   4.427   1.487   4.205  0.1818  0.6326  0.0935
 6723SOL     OW31801   3.058   0.882   5.573  0.1504  0.3494  0.4214
 6723SOL    HW131802   3.047   0.789   5.556 -1.0630  0.5486  0.1396
 6723SOL    HW231803   3.037   0.909   5.483 -0.1854  0.5423  0.5604
 6724SOL     OW31804   0.766   0.167   3.640 -0.2653  0.5925 -0.2882
 6724SOL    HW131805   0.780   0.187   3.733  0.9568 -0.1319 -0.3153
 6724SOL    HW231806   0.703   0.095   3.639  3.1461 -2.3582 -0.8342
 6725SOL     OW31807   3.253   3.896   5.064 -0.4002 -0.1874 -0.7322
 6725SOL    HW131808   3.235   3.851   5.147  2.3041 -1.6630 -0.9649
 6725SOL    HW231809   3.279   3.982   5.098 -1.7993 -0.3154  0.6499
 6726SOL     OW31810   1.492   2.992   4.799 -0.2983 -0.1131 -0.8473
 6726SOL    HW131811   1.457   3.007   4.710  0.9136  0.5638 -1.2084
 6726SOL    HW231812   1.437   2.924   4.835  0.9851 -1.0593 -0.6885
 6727SOL     OW31813   3.222   3.179   2.228 -0.2079 -0.4058  0.5655
 6727SOL    HW131814   3.205   3.156   2.137  2.0840 -4.0134  1.0489
 6727SOL    HW231815   3.253   3.094   2.259 -1.7170 -0.5232  1.7655
 6728SOL     OW31816   4.692   4.644   1.712  0.8702  0.5419  0.0292
 6728SOL    HW131817   4.666   4.643   1.804  3.0614  1.2007  0.6517
 6728SOL    HW231818   4.726   4.555   1.701 -0.6531  0.4967 -4.1485
 6729SOL     OW31819   2.603   2.841  10.333  0.0493 -0.2836  0.5534
 6729SOL    HW131820   2.563   2.754  10.323 -1.5196  0.4065  0.9552
 6729SOL    HW231821   2.688   2.824  10.374  2.0216  0.8722 -3.0340
 6730SOL     OW31822   1.803   1.119   5.342  0.4433  0.4928 -0.0092
 6730SOL    HW131823   1.829   1.180   5.411  1.6897  1.4675 -1.3296
 6730SOL    HW231824   1.771   1.042   5.387  0.1322 -0.3611 -1.6787
 6731SOL     OW31825   0.453   4.215  13.387 -0.6572 -0.3652  0.6318
 6731SOL    HW131826   0.448   4.212  13.483  1.0512 -0.9842  0.6982
 6731SOL    HW231827   0.395   4.283  13.354  0.4258 -0.6154 -1.7810
 6732SOL     OW31828   1.442   1.384   3.784  0.5202 -0.1126 -0.0269
 6732SOL    HW131829   1.505   1.440   3.830  1.2517  0.6209 -1.9039
 6732SOL    HW231830   1.507   1.336   3.733 -1.7060 -2.2128 -0.8618
 6733SOL     OW31831   0.574   0.245   0.938 -0.3963 -0.2918 -0.1750
 6733SOL    HW131832   0.496   0.238   0.882 -0.5097  1.7429 -0.2483
 6733SOL    HW231833   0.544   0.270   1.025  1.2018 -1.5263  0.7232
 6734SOL     OW31834   2.487   4.703   2.496  0.0527 -0.3718 -0.2156
 6734SOL    HW131835   2.487   4.719   2.401  2.4816  1.5114  0.0990
 6734SOL    HW231836   2.402   4.740   2.520  0.7741  0.3964  1.1158
 6735SOL     OW31837   1.733   0.105   2.870  0.4082 -0.0542  0.2359
 6735SOL    HW131838   1.736   0.198   2.893 -0.9826 -0.2660  1.2477
 6735SOL    HW231839   1.680   0.115   2.791  2.1082  0.5774 -0.8521
 6736SOL     OW31840   3.274   0.689   0.041  0.6279  0.0969 -0.0990
 6736SOL    HW131841   3.215   0.683  17.728 -0.6732  0.0881  0.9203
 6736SOL    HW231842   3.322   0.606   0.036  0.6483  0.0204  1.3155
 6737SOL     OW31843   1.877   0.247   5.237 -0.1289 -1.3426  0.1334
 6737SOL    HW131844   1.970   0.226   5.236  0.7327  2.5085  0.1763
 6737SOL    HW231845   1.845   0.171   5.285  0.3353 -1.2590  0.5684
 6738SOL     OW31846   3.542   0.974   7.973 -0.0559 -0.8286  0.0282
 6738SOL    HW131847   3.517   0.930   7.891  0.0117 -1.0311  0.1165
 6738SOL    HW231848   3.512   1.063   7.955  0.2907 -1.0234 -1.5653
 6739SOL     OW31849   2.291   1.092   5.942  0.8188 -0.0767 -0.0622
 6739SOL    HW131850   2.369   1.141   5.915  2.5046 -2.1939  0.9148
 6739SOL    HW231851   2.221   1.120   5.883  0.5522  0.2243  0.3953
 6740SOL     OW31852   1.063   4.593   6.265 -0.8292  0.5674 -0.0040
 6740SOL    HW131853   1.102   4.506   6.256 -0.0631  1.0710 -1.4783
 6740SOL    HW231854   1.018   4.590   6.349 -1.4373 -2.1104 -0.4237
 6741SOL     OW31855   1.428   1.485  15.491 -0.8962  0.1719 -0.5879
 6741SOL    HW131856   1.412   1.393  15.514  0.7968  0.3711  1.4139
 6741SOL    HW231857   1.354   1.506  15.434 -1.4085 -0.0253  0.0111
 6742SOL     OW31858   0.297   1.360   4.878 -0.3687 -0.3033 -0.2563
 6742SOL    HW131859   0.314   1.270   4.850  0.1047 -0.4179  0.3964
 6742SOL    HW231860   0.378   1.382   4.924 -1.3117  1.2090  0.7024
 6743SOL     OW31861   2.052   1.655  11.362  0.0732  1.1504  0.0039
 6743SOL    HW131862   2.020   1.694  11.444  0.7097 -1.1701  1.3664
 6743SOL    HW231863   2.146   1.639  11.370 -0.1089  0.6104  1.0492
 6744SOL     OW31864   3.040   0.641   7.428 -0.0037 -0.3431  0.5235
 6744SOL    HW131865   3.060   0.673   7.340  1.9602 -0.9510  0.7549
 6744SOL    HW231866   3.118   0.591   7.451  0.6610 -0.5970 -2.3500
 6745SOL     OW31867   0.079   1.191   0.726  0.0373  0.2319  0.1015
 6745SOL    HW131868   0.153   1.221   0.673 -0.2686 -1.1921 -1.1439
 6745SOL    HW231869   0.128   1.160   0.803  2.2490  2.4025 -0.4375
 6746SOL     OW31870   3.908   1.000   7.781  0.7231  0.3033 -0.0033
 6746SOL    HW131871   3.833   1.044   7.741 -0.4874 -1.1409  0.6984
 6746SOL    HW231872   3.857   1.000   7.862  0.0729  0.3523 -0.4184
 6747SOL     OW31873   0.909   4.534   4.760 -0.6456 -0.1485 -0.3604
 6747SOL    HW131874   0.836   4.579   4.802 -1.2888 -0.9384 -0.6506
 6747SOL    HW231875   0.979   4.547   4.825 -2.0786  1.8801  0.7611
 6748SOL     OW31876   3.599   0.466   4.858  0.1021 -0.7096 -0.0617
 6748SOL    HW131877   3.621   0.467   4.764  0.5168 -0.3987  0.0364
 6748SOL    HW231878   3.584   0.373   4.872  0.3994 -0.7510 -0.0087
 6749SOL     OW31879   1.612   4.377   6.251  0.3056  0.4167  0.3634
 6749SOL    HW131880   1.650   4.459   6.282 -0.4468  0.8586  0.1169
 6749SOL    HW231881   1.595   4.392   6.158  0.3531 -3.2726 -0.2626
 6750SOL     OW31882   4.635   2.980  10.586  0.6268 -0.1548  0.3642
 6750SOL    HW131883   4.699   2.946  10.523  1.2162 -0.8393  1.3233
 6750SOL    HW231884   4.615   2.903  10.640 -0.3667  0.2993  0.6419
 6751SOL     OW31885   2.816   1.692   8.032 -0.7495 -0.1491  0.2060
 6751SOL    HW131886   2.761   1.672   8.108 -1.6649 -1.8124 -0.9112
 6751SOL    HW231887   2.905   1.672   8.064 -0.4807 -0.5444 -0.8024
 6752SOL     OW31888   2.833   2.153   6.389  0.4619 -0.5227  0.8118
 6752SOL    HW131889   2.894   2.183   6.456 -0.1773 -1.9082  2.0063
 6752SOL    HW231890   2.867   2.200   6.313 -2.2810  2.2102  1.2715
 6753SOL     OW31891   4.487   2.369   5.099 -0.5588  0.5799 -0.1362
 6753SOL    HW131892   4.472   2.366   5.004  0.1277  1.4939 -0.2753
 6753SOL    HW231893   4.582   2.376   5.097 -0.6465  2.4457  2.7085
 6754SOL     OW31894   4.308   3.670   6.295 -0.1053  0.0697 -0.1483
 6754SOL    HW131895   4.256   3.616   6.234  2.8729 -2.2151 -0.6355
 6754SOL    HW231896   4.317   3.754   6.250  3.0663 -0.0097  0.4041
 6755SOL     OW31897   2.520   3.656   6.857  0.1515 -0.0292  0.2382
 6755SOL    HW131898   2.540   3.746   6.832 -0.6749  0.3236  0.8542
 6755SOL    HW231899   2.588   3.609   6.809 -2.3200 -3.4662  0.0394
 6756SOL     OW31900   0.436   1.920   7.285 -0.2465  0.0036  0.3603
 6756SOL    HW131901   0.374   1.970   7.232  1.7435 -0.0333 -2.0074
 6756SOL    HW231902   0.377   1.846   7.297  0.4673 -0.7972 -1.1291
 6757SOL     OW31903   0.931   0.803   8.020 -0.0538 -0.0296 -0.2640
 6757SOL    HW131904   0.881   0.806   8.101 -0.3985 -3.2346 -0.3474
 6757SOL    HW231905   0.915   0.715   7.987  1.6987 -1.0047  1.4466
 6758SOL     OW31906   4.583   3.315   1.991 -0.5981 -0.2365 -0.0960
 6758SOL    HW131907   4.520   3.322   2.062 -1.4113  1.8056 -1.0254
 6758SOL    HW231908   4.592   3.220   1.982 -1.0564 -0.1323 -1.7457
 6759SOL     OW31909   4.304   2.585   9.899 -0.2911 -0.2837 -0.0087
 6759SOL    HW131910   4.224   2.637   9.893  0.2817  0.7217  0.9661
 6759SOL    HW231911   4.269   2.498   9.920 -1.8348 -0.0626 -1.7540
 6760SOL     OW31912   4.156   1.648   2.638  0.1717  0.0098 -0.2153
 6760SOL    HW131913   4.111   1.588   2.697  1.3063 -0.3246  0.3065
 6760SOL    HW231914   4.104   1.647   2.557 -0.1155  0.3190 -0.0308
 6761SOL     OW31915   4.519   0.238   6.749 -0.3208 -0.2554 -0.6118
 6761SOL    HW131916   4.455   0.308   6.765 -0.2291 -0.2368 -0.3136
 6761SOL    HW231917   4.608   0.271   6.764 -0.6221 -0.0904  0.8594
 6762SOL     OW31918   1.497   0.509   1.017 -0.8732  0.0615  0.2610
 6762SOL    HW131919   1.566   0.473   1.072  1.1865 -1.4945 -3.3440
 6762SOL    HW231920   1.442   0.536   1.090 -1.8933  0.3894 -0.6217
 6763SOL     OW31921   0.783   2.049  13.279  0.0926  0.5109  0.1720
 6763SOL    HW131922   0.844   2.123  13.278  0.1569  0.4300 -1.2162
 6763SOL    HW231923   0.701   2.074  13.322 -0.4399  0.1365 -0.6209
 6764SOL     OW31924   1.661   3.842   5.702  0.3824  0.1196 -0.2099
 6764SOL    HW131925   1.707   3.906   5.648  1.0325  0.2109  0.4457
 6764SOL    HW231926   1.625   3.898   5.771  0.7693 -0.1818  0.2409
 6765SOL     OW31927   1.479   0.715   8.746  0.6265 -0.1450 -0.6037
 6765SOL    HW131928   1.491   0.657   8.671  1.1067 -0.7970 -0.0261
 6765SOL    HW231929   1.554   0.774   8.734 -0.2818  1.0259 -0.5541
 6766SOL     OW31930   0.662   0.470  16.281 -0.4365 -0.1379  0.2512
 6766SOL    HW131931   0.696   0.404  16.221  2.2049  0.9761  0.5224
 6766SOL    HW231932   0.662   0.549  16.227 -0.8722 -1.4172 -1.6039
 6767SOL     OW31933   0.226   4.083  11.671  0.6104 -0.2887  0.4443
 6767SOL    HW131934   0.144   4.124  11.697  1.3998  1.4956  0.1316
 6767SOL    HW231935   0.268   4.168  11.674  0.0302 -0.0822  2.3433
 6768SOL     OW31936   2.672   2.284   6.878 -0.6128  0.0542  0.3836
 6768SOL    HW131937   2.633   2.368   6.900 -1.9511 -1.3367  3.2491
 6768SOL    HW231938   2.764   2.307   6.891 -0.5669 -0.6037  1.2049
 6769SOL     OW31939   0.068   1.733   3.565  0.3730 -0.3984 -0.4298
 6769SOL    HW131940   4.730   1.766   3.607  0.3834  0.2905 -0.9445
 6769SOL    HW231941   0.081   1.815   3.516 -2.2993  0.7305  0.7454
 6770SOL     OW31942   0.813   2.709  10.261  0.0648 -0.1460  0.2688
 6770SOL    HW131943   0.728   2.723  10.303 -1.0076 -2.5800 -1.0825
 6770SOL    HW231944   0.864   2.706  10.342 -0.4584  0.2518  0.6124
 6771SOL     OW31945   2.395   0.659  14.649 -0.5812 -0.6733  0.4135
 6771SOL    HW131946   2.379   0.730  14.587 -0.4139 -0.4664  0.6060
 6771SOL    HW231947   2.432   0.702  14.726 -1.9751  1.6772 -0.2156
 6772SOL     OW31948   2.411   2.118   6.461  0.2060 -0.0814 -0.1466
 6772SOL    HW131949   2.317   2.102   6.465 -0.0437  0.6817 -2.6731
 6772SOL    HW231950   2.416   2.206   6.499 -1.0063 -0.3853  0.7251
 6773SOL     OW31951   4.430   3.357   1.026  0.4108 -0.8321  0.3612
 6773SOL    HW131952   4.413   3.449   1.047  0.1628 -0.7019 -0.4091
 6773SOL    HW231953   4.431   3.322   1.115  0.3526  1.8912  1.4155
 6774SOL     OW31954   1.125   4.154   3.586  0.1417 -0.1810 -0.7639
 6774SOL    HW131955   1.164   4.090   3.645  1.7157  0.2893 -1.2691
 6774SOL    HW231956   1.033   4.138   3.607  0.1353  4.2771  2.5431
 6775SOL     OW31957   1.096   3.065   8.410  0.2044  0.1947 -0.8090
 6775SOL    HW131958   1.186   3.094   8.427  0.0167 -0.5630  1.4643
 6775SOL    HW231959   1.102   3.033   8.320  0.3052 -2.2846  0.0801
 6776SOL     OW31960   2.520   1.944  10.982  0.1256 -0.3614 -0.6499
 6776SOL    HW131961   2.511   1.927  10.889  0.6035  2.0574 -1.1347
 6776SOL    HW231962   2.486   2.033  10.994  1.1603 -0.1076  0.4053
 6777SOL     OW31963   0.631   4.638   1.007 -0.1273  0.1428  0.0650
 6777SOL    HW131964   0.568   4.603   0.944 -0.1822  0.3819 -0.0154
 6777SOL    HW231965   0.689   4.683   0.945  1.0439 -0.6315  0.5974
 6778SOL     OW31966   1.120   1.216   3.168 -0.1736  0.4133  0.3379
 6778SOL    HW131967   1.176   1.258   3.103  1.7950 -1.8140  0.6015
 6778SOL    HW231968   1.128   1.276   3.242 -2.4117  0.8606  0.2312
 6779SOL     OW31969   1.241   1.239   7.682  0.5432  0.0144 -0.1032
 6779SOL    HW131970   1.175   1.170   7.686  0.3588  0.1166 -1.3713
 6779SOL    HW231971   1.294   1.223   7.760 -0.4396 -1.1874  0.3111
 6780SOL     OW31972   1.467   1.896  15.983  0.0184 -0.3706  0.4283
 6780SOL    HW131973   1.372   1.884  15.982 -0.0858  0.4568  0.0712
 6780SOL    HW231974   1.488   1.811  15.945 -0.6261 -0.9599  1.3690
 6781SOL     OW31975   0.904   3.546   5.090  0.2636 -0.3583 -0.4041
 6781SOL    HW131976   0.828   3.488   5.082  0.3614 -0.2261 -2.1424
 6781SOL    HW231977   0.923   3.533   5.183  0.7445  1.7189 -0.2096
 6782SOL     OW31978   0.222   1.903  14.420  0.7181  0.4750  0.2656
 6782SOL    HW131979   0.252   1.929  14.507  0.0289  1.2897  0.2600
 6782SOL    HW231980   0.197   1.991  14.391  0.3201  0.5633  0.8596
 6783SOL     OW31981   3.184   3.817   8.283 -0.0875 -0.0116 -0.6228
 6783SOL    HW131982   3.092   3.840   8.299 -0.7193 -3.0118  0.0843
 6783SOL    HW231983   3.217   3.903   8.311 -0.1013 -0.3142  0.3257
 6784SOL     OW31984   3.592   1.051  17.314  0.3503  0.2274 -0.5542
 6784SOL    HW131985   3.549   1.135  17.331  0.9333  0.7585 -1.6920
 6784SOL    HW231986   3.646   1.056  17.394  0.3716 -0.4893 -0.5257
 6785SOL     OW31987   2.425   0.583   5.924 -0.1060  0.3752  0.1782
 6785SOL    HW131988   2.472   0.503   5.949  1.5781  1.2477 -0.2122
 6785SOL    HW231989   2.343   0.547   5.889  0.4521 -0.4434 -0.3059
 6786SOL     OW31990   4.673   3.342  11.758 -0.0079 -0.0713 -0.2308
 6786SOL    HW131991   4.733   3.374  11.825 -1.1055  1.2520  0.1396
 6786SOL    HW231992   4.602   3.291  11.797  0.0823  0.2221  0.3204
 6787SOL     OW31993   0.395   2.575   8.634 -0.5318  0.2668 -0.0585
 6787SOL    HW131994   0.365   2.518   8.564  1.8779 -3.1985  1.7773
 6787SOL    HW231995   0.315   2.586   8.686  1.0314  0.2815  2.3359
 6788SOL     OW31996   2.698   3.500   1.148  0.2041 -0.5285 -0.3110
 6788SOL    HW131997   2.710   3.526   1.240  0.3107  1.4261 -0.8806
 6788SOL    HW231998   2.690   3.584   1.102  1.7276 -1.2230 -1.8548
 6789SOL     OW31999   0.819   1.746  12.933  0.1311 -0.8311  0.3585
 6789SOL    HW132000   0.836   1.828  12.888 -2.0317 -0.6910 -0.2166
 6789SOL    HW232001   0.784   1.695  12.860  0.2387 -0.9582  0.3955
 6790SOL     OW32002   4.223   2.361   8.220  0.5369  0.3899  0.1555
 6790SOL    HW132003   4.172   2.361   8.301  1.7065 -1.5554  0.8736
 6790SOL    HW232004   4.241   2.268   8.207 -0.9603 -0.1827  2.2930
 6791SOL     OW32005   3.934   2.572   3.129 -0.1545 -0.0103 -0.2035
 6791SOL    HW132006   4.012   2.563   3.076  0.3919  1.1133  0.4074
 6791SOL    HW232007   3.860   2.522   3.093  1.5957 -0.9434 -2.4795
 6792SOL     OW32008   3.284   3.967   5.739  0.1636  0.5307 -0.5222
 6792SOL    HW132009   3.269   3.927   5.653 -0.5060 -2.3447  0.9113
 6792SOL    HW232010   3.354   3.908   5.769 -1.4980 -1.3766 -0.3633
 6793SOL     OW32011   3.318   2.305   9.062  0.2897  0.5801  0.3168
 6793SOL    HW132012   3.319   2.400   9.048 -0.7176  0.7553  1.4562
 6793SOL    HW232013   3.364   2.302   9.145 -1.6743 -1.1019  1.3348
 6794SOL     OW32014   1.303   2.996   4.588  0.1531  0.3182 -0.3400
 6794SOL    HW132015   1.229   3.023   4.643  1.0571  0.9248  0.5884
 6794SOL    HW232016   1.266   2.914   4.556  0.0603  1.1943 -2.4906
 6795SOL     OW32017   3.087   3.363   6.902  0.1793 -0.8023 -0.0692
 6795SOL    HW132018   3.031   3.434   6.872  1.5365 -0.4657 -1.7827
 6795SOL    HW232019   3.017   3.302   6.926  0.2675 -0.6171  0.6662
 6796SOL     OW32020   1.436   3.573   4.190 -0.4313  0.2317 -0.2699
 6796SOL    HW132021   1.492   3.497   4.202  0.1064  0.6407 -0.1979
 6796SOL    HW232022   1.414   3.602   4.278 -0.4860  0.7792 -0.4636
 6797SOL     OW32023   3.457   4.672   3.973  0.2766  0.4598 -0.2476
 6797SOL    HW132024   3.372   4.682   3.929 -0.6229 -0.5577  1.2709
 6797SOL    HW232025   3.442   4.690   4.065  0.2348  1.2206 -0.4075
 6798SOL     OW32026   4.604   4.146   0.089 -0.2694  0.5604 -0.0678
 6798SOL    HW132027   4.604   4.236   0.120  2.1906  0.3832  0.4202
 6798SOL    HW232028   4.514   4.155   0.058 -0.0627  0.3401 -0.7281
 6799SOL     OW32029   1.690   2.768   0.364 -0.6951  0.0642  0.1943
 6799SOL    HW132030   1.679   2.779   0.458  0.2088 -0.5265  0.3668
 6799SOL    HW232031   1.610   2.725   0.336  0.3964 -1.6744 -0.2167
 6800SOL     OW32032   3.355   3.449   8.560  0.1141 -0.5457  0.0668
 6800SOL    HW132033   3.318   3.383   8.502 -0.2902 -1.8926  1.8306
 6800SOL    HW232034   3.271   3.476   8.597 -0.0943 -1.3981  0.2248
 6801SOL     OW32035   3.262   1.989   6.992  0.2576  0.5299  0.6247
 6801SOL    HW132036   3.230   1.961   7.078  0.5061  0.6925  0.7686
 6801SOL    HW232037   3.278   2.078   7.021  0.6607 -0.0979  2.3455
 6802SOL     OW32038   1.527   2.593   4.818  0.1791 -0.3519  0.5944
 6802SOL    HW132039   1.581   2.645   4.759 -0.1295 -2.0842 -1.2050
 6802SOL    HW232040   1.501   2.521   4.762 -0.2279 -1.2848  1.9764
 6803SOL     OW32041   1.149   0.790   5.516  0.1163  0.3366  0.1298
 6803SOL    HW132042   1.199   0.733   5.573 -0.5707 -0.5831 -0.1851
 6803SOL    HW232043   1.059   0.772   5.545 -0.9823  0.8824 -2.9156
 6804SOL     OW32044   1.387   4.371   6.423 -0.6299 -0.6175  0.2582
 6804SOL    HW132045   1.388   4.445   6.484  0.8048  1.9511 -2.8547
 6804SOL    HW232046   1.466   4.394   6.375 -2.7565  0.4880 -2.6939
 6805SOL     OW32047   2.257   3.802   7.762 -0.8550  0.3445  0.1058
 6805SOL    HW132048   2.166   3.821   7.784 -1.4272 -0.9287 -1.1692
 6805SOL    HW232049   2.284   3.883   7.719  0.2984  0.2048  0.5619
 6806SOL     OW32050   0.341   4.294   6.324 -0.0565  0.3529  0.2374
 6806SOL    HW132051   0.322   4.331   6.238  0.5659 -1.2932 -0.6069
 6806SOL    HW232052   0.434   4.284   6.307  0.1958  1.3972  1.0252
 6807SOL     OW32053   2.611   2.212   2.885  0.3202 -0.2514  0.2043
 6807SOL    HW132054   2.629   2.192   2.977  0.8814 -1.4930 -0.1761
 6807SOL    HW232055   2.672   2.282   2.863 -0.8149  1.2353  1.7878
 6808SOL     OW32056   3.916   1.455   8.295 -0.4061  0.8450 -0.5264
 6808SOL    HW132057   3.821   1.442   8.299 -0.1600 -0.2682  1.8631
 6808SOL    HW232058   3.915   1.550   8.283 -0.6857  0.5932 -2.5176
 6809SOL     OW32059   2.368   0.163   8.550  0.6642 -0.0014  0.1246
 6809SOL    HW132060   2.405   0.251   8.547 -0.7677  0.5952  0.3113
 6809SOL    HW232061   2.293   0.174   8.608 -0.2118  0.3548 -1.0713
 6810SOL     OW32062   0.142   2.242   1.655  0.1400 -0.5866 -0.3508
 6810SOL    HW132063   0.082   2.201   1.593 -0.7415 -0.4663  0.4165
 6810SOL    HW232064   0.086   2.310   1.691 -1.1235 -0.6989 -2.1446
 6811SOL     OW32065   2.902   3.674   0.890 -0.7222  0.6601 -0.2047
 6811SOL    HW132066   2.846   3.642   0.819 -0.0175 -2.0627  0.4445
 6811SOL    HW232067   2.967   3.725   0.843  0.2328 -0.1405  0.2318
 6812SOL     OW32068   3.319   3.216   5.272  0.8257 -0.2798  0.1813
 6812SOL    HW132069   3.359   3.194   5.187 -1.6499  0.3406 -1.1263
 6812SOL    HW232070   3.226   3.200   5.263  0.3991  1.2442  1.8753
 6813SOL     OW32071   4.192   0.664   8.569 -0.1403  0.5378  0.2041
 6813SOL    HW132072   4.219   0.623   8.486  0.4975  2.0820 -0.3571
 6813SOL    HW232073   4.101   0.637   8.582  0.1961 -1.6031 -1.8098
 6814SOL     OW32074   3.662   0.188   0.450  0.7525  0.1688 -0.1092
 6814SOL    HW132075   3.625   0.168   0.364 -3.0141 -0.2480  1.6122
 6814SOL    HW232076   3.626   0.277   0.454  0.3667 -0.1355  2.9403
 6815SOL     OW32077   0.206   4.242   1.126 -0.3491  0.0103 -0.1184
 6815SOL    HW132078   0.267   4.227   1.054  0.2629 -0.7332  0.5525
 6815SOL    HW232079   0.177   4.155   1.153 -0.8171  0.0087 -0.6165
 6816SOL     OW32080   0.136   4.307   0.242  0.3071 -0.9959  0.2538
 6816SOL    HW132081   0.043   4.324   0.226  0.6422  0.6711  0.0090
 6816SOL    HW232082   0.136   4.215   0.217  3.5537 -0.9191 -0.0318
 6817SOL     OW32083   1.505   1.786   2.894 -0.0789  0.4981  0.6900
 6817SOL    HW132084   1.501   1.833   2.811  1.0803  2.0199  1.5008
 6817SOL    HW232085   1.590   1.742   2.891 -0.5539 -0.2125 -2.4138
 6818SOL     OW32086   4.536   3.856   4.937  0.1499  0.2402 -0.0547
 6818SOL    HW132087   4.615   3.870   4.884 -1.5981 -0.4674 -2.8179
 6818SOL    HW232088   4.572   3.845   5.025  2.4499 -0.3690 -1.0579
 6819SOL     OW32089   0.291   3.815   1.440  0.6197  0.0437  0.4491
 6819SOL    HW132090   0.316   3.903   1.412  0.0268 -0.2773 -1.0951
 6819SOL    HW232091   0.222   3.830   1.504  1.2083  0.3677  1.0152
 6820SOL     OW32092   4.554   0.146   6.048 -0.6495 -0.5123 -0.3752
 6820SOL    HW132093   4.502   0.089   5.991  0.3711 -1.0818 -0.7317
 6820SOL    HW232094   4.579   0.221   5.995  0.5669  1.0254  2.3780
 6821SOL     OW32095   0.880   2.408  15.033  0.0211 -0.2204  0.1002
 6821SOL    HW132096   0.922   2.325  15.008  1.7952  1.3682 -2.1178
 6821SOL    HW232097   0.905   2.409  15.126  0.0507  0.5410  0.0780
 6822SOL     OW32098   2.390   0.403   5.039 -0.1135 -0.6870 -0.2557
 6822SOL    HW132099   2.468   0.420   5.092 -0.4419 -0.3940  0.1349
 6822SOL    HW232100   2.346   0.488   5.033  1.6522  0.2003 -0.7079
 6823SOL     OW32101   2.820   2.064  10.777 -0.0274 -0.0710  1.0431
 6823SOL    HW132102   2.899   2.078  10.724 -1.3000  0.4026 -0.7044
 6823SOL    HW232103   2.830   2.127  10.848 -2.4016  2.0800 -0.5445
 6824SOL     OW32104   4.705   1.688   6.240 -0.0085 -0.3727  0.2433
 6824SOL    HW132105   4.636   1.752   6.222 -0.0797 -0.8262 -1.0969
 6824SOL    HW232106   4.712   1.682   6.335  2.0304  0.7919  0.1649
 6825SOL     OW32107   1.506   0.685   4.084 -0.2905 -0.3813  0.0370
 6825SOL    HW132108   1.450   0.677   4.161 -0.9730  0.0309 -0.4128
 6825SOL    HW232109   1.464   0.755   4.035 -0.3638 -1.3940 -1.3567
 6826SOL     OW32110   1.993   2.730   0.469 -0.1705  0.0927  0.1851
 6826SOL    HW132111   2.014   2.788   0.542  0.3705 -0.1872  0.2518
 6826SOL    HW232112   1.914   2.778   0.443 -0.1294  0.1561  0.1767
 6827SOL     OW32113   3.074   1.101   7.640 -0.6126 -0.0876 -0.8051
 6827SOL    HW132114   3.139   1.130   7.703 -1.0234 -1.7159  0.3626
 6827SOL    HW232115   2.996   1.146   7.674  0.5533  1.6148 -0.3893
 6828SOL     OW32116   2.839   4.267   3.464  0.1384  0.2905 -0.1715
 6828SOL    HW132117   2.873   4.354   3.483 -2.1249  1.1257  0.0095
 6828SOL    HW232118   2.893   4.200   3.507 -2.2635 -0.6240  1.4382
 6829SOL     OW32119   1.997   1.097   7.672  0.6220 -0.7588 -0.5325
 6829SOL    HW132120   1.934   1.132   7.609 -0.5625 -1.1987  0.4161
 6829SOL    HW232121   2.079   1.087   7.623  0.0989 -0.0824 -1.5524
 6830SOL     OW32122   4.203   1.256  15.711  0.0413  0.2017  0.8038
 6830SOL    HW132123   4.172   1.166  15.701 -3.1903  1.4195 -0.2536
 6830SOL    HW232124   4.276   1.253  15.773  0.8396  3.6878  0.0486
 6831SOL     OW32125   0.228   1.926   0.550  0.0667 -0.3792 -0.2597
 6831SOL    HW132126   0.218   1.955   0.459  0.9832  0.1215 -0.2054
 6831SOL    HW232127   0.244   2.010   0.593 -1.0658 -0.9823  1.3028
 6832SOL     OW32128   4.355   4.348  16.425 -0.0685  0.2621  0.3623
 6832SOL    HW132129   4.384   4.346  16.333 -0.0440 -1.2114  0.4014
 6832SOL    HW232130   4.384   4.261  16.451  0.5776  0.6256  0.8682
 6833SOL     OW32131   1.657   3.101   4.135  0.7897  0.0042 -0.3600
 6833SOL    HW132132   1.632   3.010   4.117  1.6968 -0.5196  1.0068
 6833SOL    HW232133   1.572   3.145   4.132  1.7377  1.7710 -1.1504
 6834SOL     OW32134   2.632   3.468  10.051  0.2232  0.2448  0.5678
 6834SOL    HW132135   2.592   3.429   9.973 -0.1208  1.5915  0.0601
 6834SOL    HW232136   2.644   3.558  10.022 -0.6320  0.6529  1.4856
 6835SOL     OW32137   0.709   1.387   5.226 -0.1658 -0.0534 -0.1677
 6835SOL    HW132138   0.676   1.461   5.277  1.5852  1.8430 -1.7905
 6835SOL    HW232139   0.799   1.389   5.259 -0.6860  2.1855  1.0724
 6836SOL     OW32140   0.549   2.558   6.795  0.1450  0.0142  0.0013
 6836SOL    HW132141   0.498   2.564   6.875 -1.5505 -1.1737 -0.9859
 6836SOL    HW232142   0.636   2.576   6.831 -1.2374  2.2558  2.1586
 6837SOL     OW32143   1.609   0.090   2.398 -0.5301  0.3528  0.7405
 6837SOL    HW132144   1.624   0.016   2.455  1.6597  1.3434  1.4482
 6837SOL    HW232145   1.692   0.082   2.350 -1.5429  0.9245 -1.1316
 6838SOL     OW32146   4.702   4.418   6.741  0.3924 -0.0514  0.5748
 6838SOL    HW132147   0.050   4.396   6.767  1.1947  0.3138 -1.9384
 6838SOL    HW232148   4.708   4.507   6.707  2.7425 -0.7240 -0.7714
 6839SOL     OW32149   1.806   4.272   4.605 -0.4541  0.2721  0.1870
 6839SOL    HW132150   1.801   4.363   4.576 -0.6521 -0.1101 -0.9972
 6839SOL    HW232151   1.754   4.233   4.534  0.8934 -2.0399  0.4856
 6840SOL     OW32152   0.776   1.522   2.785 -0.4852  0.3055  0.1747
 6840SOL    HW132153   0.859   1.517   2.738 -0.8318 -1.7126 -0.2327
 6840SOL    HW232154   0.741   1.448   2.735 -1.1000  2.1035 -2.0268
 6841SOL     OW32155   2.207   3.256   9.474 -0.3474  0.3622 -0.2002
 6841SOL    HW132156   2.201   3.184   9.412  0.0677 -1.0260  1.3662
 6841SOL    HW232157   2.294   3.290   9.456 -0.2211  0.0463 -0.1861
 6842SOL     OW32158   3.533   3.149   5.618 -0.3594  0.6411  0.2705
 6842SOL    HW132159   3.513   3.215   5.552  0.1012  0.8579  0.3516
 6842SOL    HW232160   3.536   3.065   5.573 -1.2503  1.5129 -1.4187
 6843SOL     OW32161   3.882   2.498   2.821 -0.2038 -0.1478 -0.3077
 6843SOL    HW132162   3.936   2.466   2.749 -0.3206 -1.3013  0.1093
 6843SOL    HW232163   3.796   2.469   2.792 -0.1129  0.6857 -1.4353
 6844SOL     OW32164   2.976   1.938   5.966 -0.4454 -0.3443 -0.1030
 6844SOL    HW132165   2.920   1.952   6.042  0.6163  2.3247  0.1834
 6844SOL    HW232166   2.994   2.027   5.938  0.2677 -0.9112 -1.4310
 6845SOL     OW32167   3.690   2.043   7.951 -0.2578  0.5743  0.2563
 6845SOL    HW132168   3.610   2.021   7.903  1.0967  0.9894 -2.1700
 6845SOL    HW232169   3.652   2.039   8.039 -1.1767  0.8569 -0.1354
 6846SOL     OW32170   2.801   2.718   7.622  0.7164  0.0859 -0.0276
 6846SOL    HW132171   2.883   2.767   7.618 -0.2584  1.8181  0.9383
 6846SOL    HW232172   2.829   2.640   7.671 -2.7360 -1.7502 -1.0122
 6847SOL     OW32173   0.062   2.614   2.111 -0.1960 -0.2545 -0.2869
 6847SOL    HW132174   0.087   2.577   2.027 -0.8609  0.3895 -0.7618
 6847SOL    HW232175   4.713   2.644   2.097 -0.4053  0.7065  3.1537
 6848SOL     OW32176   2.467   3.639   8.636  0.7457 -0.0206  0.0317
 6848SOL    HW132177   2.382   3.680   8.625  0.1682 -0.7916  1.7364
 6848SOL    HW232178   2.466   3.591   8.553  0.7967  1.2336 -0.6932
 6849SOL     OW32179   1.712   1.999   3.614  0.0228  0.0187 -0.3984
 6849SOL    HW132180   1.646   1.934   3.640 -0.1538  0.1732 -0.4596
 6849SOL    HW232181   1.723   1.987   3.520  0.6391 -3.6086  0.1411
 6850SOL     OW32182   1.934   4.653   7.356  0.7931  0.2926 -0.4923
 6850SOL    HW132183   2.014   4.647   7.409 -1.2120  1.5775  2.7328
 6850SOL    HW232184   1.963   4.712   7.287  0.7705 -2.3651 -2.7758
 6851SOL     OW32185   3.681   3.437  16.134 -0.4759  0.1203  0.2369
 6851SOL    HW132186   3.695   3.532  16.134 -0.2280  0.0885 -1.3144
 6851SOL    HW232187   3.589   3.432  16.158 -0.2408 -0.4382  1.0160
 6852SOL     OW32188   3.800   1.209  17.100  0.4292 -0.1460  0.4549
 6852SOL    HW132189   3.731   1.227  17.037  1.4392  1.6445 -0.1320
 6852SOL    HW232190   3.868   1.258  17.054  1.6161 -1.1340  1.1513
 6853SOL     OW32191   3.649   0.407  17.035  0.3186 -0.4013  0.6947
 6853SOL    HW132192   3.680   0.398  16.944 -0.3935 -1.4782  0.5566
 6853SOL    HW232193   3.690   0.493  17.038  0.1195 -0.3404  1.5741
 6854SOL     OW32194   4.372   3.541   4.154  0.7641 -0.6194 -0.2143
 6854SOL    HW132195   4.408   3.591   4.227 -1.9629  0.1751  0.6004
 6854SOL    HW232196   4.284   3.578   4.140  1.3278  1.9564  3.1485
 6855SOL     OW32197   2.824   2.078   1.938  0.2091 -0.2958 -0.1070
 6855SOL    HW132198   2.856   2.009   1.996  0.9720 -0.0096 -0.1830
 6855SOL    HW232199   2.755   2.031   1.892  0.6773  0.2457 -1.3674
 6856SOL     OW32200   3.795   0.027   7.119  0.6070 -0.1345 -0.9780
 6856SOL    HW132201   3.845   0.109   7.125 -0.2467  0.5210 -2.7862
 6856SOL    HW232202   3.780   0.019   7.025 -0.8292  0.5357 -0.8142
 6857SOL     OW32203   3.022   3.982   2.634  0.0905  0.3440  0.7813
 6857SOL    HW132204   3.003   3.978   2.540 -1.1621  3.4631  0.9219
 6857SOL    HW232205   3.105   3.934   2.637 -0.2250 -0.2437  0.0582
 6858SOL     OW32206   2.442   4.018   4.786  0.1180  0.6427  0.3796
 6858SOL    HW132207   2.457   3.930   4.819 -3.4475 -0.3362 -0.5447
 6858SOL    HW232208   2.495   4.017   4.706  1.0398 -2.2986  1.0404
 6859SOL     OW32209   2.169   4.034   7.668 -0.3859 -0.1403 -0.1491
 6859SOL    HW132210   2.239   4.095   7.692 -1.2289  0.0906  1.7387
 6859SOL    HW232211   2.098   4.095   7.647  1.2219  1.9514  0.4918
 6860SOL     OW32212   3.350   2.439   6.210  0.7098 -0.4165 -0.1243
 6860SOL    HW132213   3.292   2.511   6.187  0.5143 -0.0378  1.5809
 6860SOL    HW232214   3.351   2.439   6.306  1.7954  0.9802 -0.1387
 6861SOL     OW32215   3.151   2.278   7.048  0.9081  0.3649 -0.3844
 6861SOL    HW132216   3.137   2.264   7.141 -1.1655  0.5008 -0.6773
 6861SOL    HW232217   3.144   2.373   7.047  0.0175  0.2986 -1.4713
 6862SOL     OW32218   2.068   2.046   6.203 -0.2328 -0.2887 -0.1867
 6862SOL    HW132219   2.129   2.068   6.273  0.8434  1.8073 -1.7898
 6862SOL    HW232220   2.106   1.960   6.183 -0.0804 -0.5654  1.3023
 6863SOL     OW32221   3.003   0.429   6.951  0.1226  0.4441  0.3245
 6863SOL    HW132222   2.946   0.353   6.964  0.9475 -0.2390 -0.0429
 6863SOL    HW232223   3.080   0.401   7.001  0.6516  0.0328 -0.7080
 6864SOL     OW32224   1.188   1.858   8.252  0.0214  0.3101  0.3036
 6864SOL    HW132225   1.255   1.791   8.269  0.4489  0.0499 -2.5207
 6864SOL    HW232226   1.229   1.911   8.184  0.9749  0.1258  0.7294
 6865SOL     OW32227   1.303   3.395   4.746  0.0803 -0.7613 -0.0356
 6865SOL    HW132228   1.241   3.427   4.812  1.5036 -0.3547  1.0957
 6865SOL    HW232229   1.349   3.324   4.789 -0.0930 -1.6462 -1.2961
 6866SOL     OW32230   0.039   1.374   4.456  0.0797  0.2770 -0.2110
 6866SOL    HW132231   0.115   1.386   4.400 -0.2967 -0.7781 -0.9398
 6866SOL    HW232232   0.062   1.405   4.544  4.7685 -2.1310 -0.6202
 6867SOL     OW32233   0.052   3.692   6.813 -0.3843 -0.3486 -0.3289
 6867SOL    HW132234   0.134   3.653   6.781 -0.8155 -0.4925 -1.2364
 6867SOL    HW232235   0.068   3.778   6.775 -2.4794 -0.5448 -1.6449
 6868SOL     OW32236   1.179   0.320   7.728  0.2630  0.2031 -0.3681
 6868SOL    HW132237   1.242   0.326   7.800  1.6604  0.0051 -1.5723
 6868SOL    HW232238   1.180   0.226   7.714 -2.2158  0.7741 -4.3911
 6869SOL     OW32239   3.173   1.998   1.981 -0.0376  0.1288 -0.8159
 6869SOL    HW132240   3.112   2.067   2.009  0.8784  0.8266 -0.5376
 6869SOL    HW232241   3.154   1.941   2.055 -0.1653  1.8304  0.4829
 6870SOL     OW32242   4.077   0.031  15.650  0.3153  0.1508  0.0980
 6870SOL    HW132243   4.065   4.698  15.710  1.8397  0.2825  0.5780
 6870SOL    HW232244   4.171   0.051  15.648  0.3979 -0.2800 -0.3310
 6871SOL     OW32245   2.939   0.489   3.072 -0.0304 -0.4194  0.2324
 6871SOL    HW132246   2.858   0.454   3.036  0.2965 -0.5348 -0.3927
 6871SOL    HW232247   2.909   0.519   3.158  0.5315  2.2276 -0.4850
 6872SOL     OW32248   4.620   0.067  13.689 -0.1033 -0.5538 -0.2775
 6872SOL    HW132249   4.620   0.009  13.766 -0.9388  0.1879  0.2696
 6872SOL    HW232250   4.578   0.014  13.621 -0.3431 -0.6517 -0.0545
 6873SOL     OW32251   1.542   4.227   3.391  0.0812  0.1599  0.1835
 6873SOL    HW132252   1.525   4.245   3.484 -1.9998  1.4613 -0.4431
 6873SOL    HW232253   1.541   4.314   3.353 -0.5203  1.4105  3.0481
 6874SOL     OW32254   0.213   3.663   8.665 -0.0965  0.5431  1.2446
 6874SOL    HW132255   0.299   3.636   8.636  0.0555  3.6059 -1.1860
 6874SOL    HW232256   0.168   3.599   8.610  0.3531 -0.1735  1.7169
 6875SOL     OW32257   4.095   2.529   6.242  0.4465  0.1170 -0.1726
 6875SOL    HW132258   4.040   2.547   6.318  1.9872  1.3766  0.6633
 6875SOL    HW232259   4.154   2.460   6.270 -0.2903 -0.4779 -0.0994
 6876SOL     OW32260   2.526   3.465   5.079 -0.2111 -0.2961 -0.7609
 6876SOL    HW132261   2.607   3.477   5.030  0.9538 -1.1018  0.9447
 6876SOL    HW232262   2.559   3.433   5.163  0.1419 -0.2257 -0.8763
 6877SOL     OW32263   3.843   2.817   5.272  0.4877 -0.4595  0.7845
 6877SOL    HW132264   3.873   2.811   5.363  2.2615  2.8246  0.4128
 6877SOL    HW232265   3.901   2.758   5.223 -2.4192 -3.6304  1.1814
 6878SOL     OW32266   0.334   2.181   6.935 -0.0468 -0.3570 -0.0303
 6878SOL    HW132267   0.275   2.248   6.901  0.3232 -0.5743 -1.1181
 6878SOL    HW232268   0.378   2.225   7.007 -1.4317  0.4993  0.2747
 6879SOL     OW32269   3.878   0.339   8.035  0.4392 -0.6052  0.1783
 6879SOL    HW132270   3.940   0.329   7.963  0.2583  0.6002 -0.1352
 6879SOL    HW232271   3.930   0.319   8.112 -0.1468 -2.5298  0.0815
 6880SOL     OW32272   3.973   2.666   2.512 -0.3113 -0.2869 -0.7466
 6880SOL    HW132273   3.912   2.595   2.494  0.4662 -1.5617  1.7866
 6880SOL    HW232274   3.970   2.704   2.424  2.6485  0.1335 -0.6673
 6881SOL     OW32275   1.261   4.711   9.727  0.1164  0.4055 -0.6203
 6881SOL    HW132276   1.220   4.684   9.809 -0.9935  1.9155 -0.6731
 6881SOL    HW232277   1.212   4.654   9.668 -1.9059  1.4704  0.0220
 6882SOL     OW32278   0.029   1.522   7.553  0.4116  0.4715  0.2981
 6882SOL    HW132279   0.123   1.527   7.534  0.7992  1.5077  2.5412
 6882SOL    HW232280   4.736   1.486   7.471  1.4840  0.8486 -0.3142
 6883SOL     OW32281   2.639   0.355   7.459 -0.3769  0.1082  0.6396
 6883SOL    HW132282   2.726   0.382   7.489  0.2494  0.8652 -1.8585
 6883SOL    HW232283   2.587   0.435   7.454 -1.0278 -0.3578 -0.1929
 6884SOL     OW32284   4.299   1.704  17.249  0.2459  0.5110  0.0217
 6884SOL    HW132285   4.311   1.610  17.237  0.9547  0.7064 -0.7812
 6884SOL    HW232286   4.211   1.730  17.221 -0.0312  0.9914  1.3565
 6885SOL     OW32287   0.004   0.211   1.978 -0.2488 -0.6257  0.2477
 6885SOL    HW132288   4.738   0.221   2.073  2.1233  0.9583  0.2589
 6885SOL    HW232289   0.010   0.116   1.968  0.6180 -0.6064  0.5148
 6886SOL     OW32290   0.773   4.049   1.952  0.0301  0.1431  0.0643
 6886SOL    HW132291   0.678   4.054   1.938 -0.2937 -3.0658  1.0961
 6886SOL    HW232292   0.802   4.012   1.869 -1.1932  0.2813 -0.4237
 6887SOL     OW32293   3.471   3.912   6.986  0.1282 -0.4737 -0.7317
 6887SOL    HW132294   3.435   3.856   7.055  2.6529 -1.0773  0.1377
 6887SOL    HW232295   3.472   3.998   7.028  1.5915 -1.2198  0.7958
 6888SOL     OW32296   3.330   3.296   4.177 -0.4322  0.6320 -0.0149
 6888SOL    HW132297   3.256   3.357   4.180 -3.2027 -2.6999 -1.4341
 6888SOL    HW232298   3.336   3.281   4.272  1.5282 -1.8705 -0.5390
 6889SOL     OW32299   1.220   3.666   2.825  0.2055  0.0728 -0.1547
 6889SOL    HW132300   1.132   3.649   2.792 -1.1797  1.6586  2.7052
 6889SOL    HW232301   1.208   3.758   2.848 -1.1679  0.0004 -0.5531
 6890SOL     OW32302   4.425   4.599  14.032 -0.4389  0.0850  0.3889
 6890SOL    HW132303   4.335   4.571  14.014 -0.6030  0.7969  0.1014
 6890SOL    HW232304   4.473   4.519  14.013  0.8785  0.3790  2.4756
 6891SOL     OW32305   0.339   2.348   2.298 -0.5052  0.5127 -0.3089
 6891SOL    HW132306   0.421   2.349   2.249  0.5924  0.3730  1.5286
 6891SOL    HW232307   0.285   2.367   2.222  0.9197  1.4448 -1.0841
 6892SOL     OW32308   2.270   3.160   1.375 -0.3212 -0.2262  0.1236
 6892SOL    HW132309   2.285   3.144   1.468 -0.1860 -5.1739 -0.7535
 6892SOL    HW232310   2.327   3.234   1.356 -1.0770 -0.3585 -2.6356
 6893SOL     OW32311   4.135   0.791   8.850 -0.4794  0.5395  0.5715
 6893SOL    HW132312   4.212   0.797   8.794 -1.3638 -1.4049 -0.8397
 6893SOL    HW232313   4.151   0.728   8.920  1.5108 -0.5738 -0.8832
 6894SOL     OW32314   1.071   4.299   8.525  0.5435  0.0993 -0.2291
 6894SOL    HW132315   1.024   4.279   8.444  1.3164 -1.8120 -0.2034
 6894SOL    HW232316   1.132   4.363   8.487 -2.0769  1.4077 -2.2232
 6895SOL     OW32317   3.886   4.403   4.334 -0.2065 -0.2336  0.5272
 6895SOL    HW132318   3.892   4.498   4.337  1.4130 -0.2711 -1.6888
 6895SOL    HW232319   3.952   4.380   4.268 -1.4613  1.6637 -1.3734
 6896SOL     OW32320   4.097   2.015   5.656  0.5033  0.4754  0.3850
 6896SOL    HW132321   4.125   2.091   5.605  1.3640 -1.1437 -1.5322
 6896SOL    HW232322   4.039   2.051   5.723 -0.2659  1.0394 -0.6011
 6897SOL     OW32323   3.557   3.521  14.112 -0.3471  0.6805  0.2839
 6897SOL    HW132324   3.614   3.560  14.178  2.4275 -1.8320 -0.6342
 6897SOL    HW232325   3.502   3.466  14.169  1.8673  0.5609  2.2853
 6898SOL     OW32326   3.005   2.491   6.357  1.0540 -0.4281 -0.0019
 6898SOL    HW132327   2.953   2.566   6.386 -0.2446 -1.7184  0.9651
 6898SOL    HW232328   3.066   2.537   6.298 -0.0319 -0.5966 -1.2609
 6899SOL     OW32329   4.249   3.313   5.097 -0.0645 -0.3691 -0.3697
 6899SOL    HW132330   4.256   3.335   5.190 -2.5331 -1.4763  0.0745
 6899SOL    HW232331   4.182   3.376   5.071  1.6474  1.5452 -0.1585
 6900SOL     OW32332   0.496   3.690   7.877  0.3534  0.2018 -0.1086
 6900SOL    HW132333   0.408   3.662   7.902  1.4111 -2.1207  0.9821
 6900SOL    HW232334   0.486   3.783   7.854  2.0177 -0.0446 -1.7678
 6901SOL     OW32335   2.037   0.535   2.592  0.4975  0.0363  0.5487
 6901SOL    HW132336   2.007   0.626   2.592  0.1069 -0.0741 -2.1222
 6901SOL    HW232337   2.012   0.511   2.681 -0.9708  0.8596  0.3465
 6902SOL     OW32338   4.282   0.679  17.307 -0.6107  0.4346 -0.2965
 6902SOL    HW132339   4.207   0.724  17.268 -0.9001  0.3759  0.1845
 6902SOL    HW232340   4.264   0.590  17.276  0.9542 -0.1152  0.3645
 6903SOL     OW32341   1.427   1.683   2.527 -0.2924 -0.1780  0.0561
 6903SOL    HW132342   1.377   1.691   2.446  2.7256 -1.7933 -1.9803
 6903SOL    HW232343   1.358   1.711   2.586 -1.5699  0.8908 -1.9452
 6904SOL     OW32344   0.944   4.183   8.275  0.3097 -0.3104  0.1782
 6904SOL    HW132345   0.889   4.131   8.216  0.0720 -0.0271  0.1503
 6904SOL    HW232346   0.932   4.140   8.359 -0.9493 -2.4181 -1.0561
 6905SOL     OW32347   1.154   2.656   3.904 -0.2351  0.1091 -0.4636
 6905SOL    HW132348   1.212   2.583   3.883 -1.1076  0.0092 -2.5419
 6905SOL    HW232349   1.150   2.643   3.999 -1.7804  0.8492 -0.4210
 6906SOL     OW32350   0.250   4.230   7.315 -0.3203  0.0733 -0.4232
 6906SOL    HW132351   0.307   4.154   7.320  0.1761  0.4170 -0.8025
 6906SOL    HW232352   0.207   4.216   7.231 -2.1531 -0.3025  0.5847
 6907SOL     OW32353   1.447   2.544   4.383  0.0117  0.3238  0.2628
 6907SOL    HW132354   1.541   2.538   4.363 -0.3380 -1.7705 -0.7312
 6907SOL    HW232355   1.408   2.521   4.299  2.7421  1.4870 -1.3505
 6908SOL     OW32356   4.680   1.800   9.230  0.2972  0.2874  0.3107
 6908SOL    HW132357   0.033   1.792   9.247  0.3471  2.0689  0.8851
 6908SOL    HW232358   4.656   1.729   9.171  3.3690 -0.6157  0.1719
 6909SOL     OW32359   3.068   4.449   8.028  0.3048  0.1874 -0.3878
 6909SOL    HW132360   3.024   4.530   8.002  1.1213  0.3341 -1.3081
 6909SOL    HW232361   3.042   4.399   7.951 -1.4332 -0.4141  0.5809
 6910SOL     OW32362   4.375   0.494   4.390 -0.5336 -0.0554 -0.7308
 6910SOL    HW132363   4.321   0.416   4.375  1.2311 -1.2896 -0.6060
 6910SOL    HW232364   4.456   0.460   4.351 -0.1892 -0.7595  0.5987
 6911SOL     OW32365   3.236   0.240   6.099 -0.6592  0.2731 -0.7489
 6911SOL    HW132366   3.235   0.166   6.038 -0.0509 -0.8771  0.6344
 6911SOL    HW232367   3.314   0.223   6.153 -0.6240 -0.9188 -1.1734
 6912SOL     OW32368   2.521   0.612   6.586 -0.1030 -0.2820  0.0184
 6912SOL    HW132369   2.483   0.677   6.645  0.4297 -0.6572  0.7733
 6912SOL    HW232370   2.455   0.598   6.519  0.5565 -1.7752 -0.3169
 6913SOL     OW32371   3.917   2.267   7.161 -0.0696 -0.0756  0.3500
 6913SOL    HW132372   3.904   2.327   7.235 -0.9453 -1.2731  1.1742
 6913SOL    HW232373   3.837   2.282   7.112  0.8367  1.1094 -0.7847
 6914SOL     OW32374   4.676   0.449   0.608  0.3750  0.2023  0.0847
 6914SOL    HW132375   4.635   0.499   0.537  2.3084 -0.4405 -1.4692
 6914SOL    HW232376   4.684   0.516   0.676  0.3697 -1.1601  1.4102
 6915SOL     OW32377   1.128   4.578  10.599 -0.6843 -0.2876 -0.8013
 6915SOL    HW132378   1.077   4.509  10.557 -0.0285 -0.5789 -1.1266
 6915SOL    HW232379   1.151   4.619  10.515  1.9493  0.2860  0.1912
 6916SOL     OW32380   2.355   0.959   7.028  0.2623  0.3372  0.3037
 6916SOL    HW132381   2.338   0.905   6.951  1.9938  0.8039 -0.4048
 6916SOL    HW232382   2.270   0.964   7.072  0.0130 -0.9675 -0.0344
 6917SOL     OW32383   1.890   4.238   6.854  0.7696 -0.7021 -0.0607
 6917SOL    HW132384   1.911   4.185   6.931 -0.3448  0.3220  0.9449
 6917SOL    HW232385   1.890   4.323   6.897  2.7567 -0.8557  0.2672
 6918SOL     OW32386   0.676   4.248   8.250  0.1410  0.4327  0.0598
 6918SOL    HW132387   0.677   4.337   8.286 -1.4417  0.5846 -0.2770
 6918SOL    HW232388   0.764   4.239   8.214 -0.8166 -1.3737 -1.8243
 6919SOL     OW32389   0.183   3.257   8.918 -0.1059  0.5352  0.1377
 6919SOL    HW132390   0.251   3.308   8.875  0.7116 -1.6627 -1.1301
 6919SOL    HW232391   0.175   3.313   8.996 -1.2410  0.7178 -0.1040
 6920SOL     OW32392   2.876   1.287   2.620  0.4425  0.1466  0.3837
 6920SOL    HW132393   2.855   1.268   2.529  0.6228  1.1731  0.1386
 6920SOL    HW232394   2.969   1.266   2.617  0.6826  1.2450  0.3049
 6921SOL     OW32395   3.894   1.535  14.168 -0.2875 -0.2091  0.3426
 6921SOL    HW132396   3.904   1.630  14.168 -1.4298 -0.0839  1.7241
 6921SOL    HW232397   3.803   1.531  14.138  0.1591  0.5547 -1.1235
 6922SOL     OW32398   0.581   4.498   4.163 -0.5224 -0.1641  0.1774
 6922SOL    HW132399   0.657   4.517   4.218  1.1808 -1.8057 -1.6254
 6922SOL    HW232400   0.623   4.499   4.077 -3.1863 -0.0436 -1.1137
 6923SOL     OW32401   2.059   4.132  14.598 -0.2028 -0.1551 -0.0524
 6923SOL    HW132402   2.125   4.086  14.651  2.2966  2.3790 -1.0144
 6923SOL    HW232403   2.043   4.208  14.654  1.9348 -0.1455  0.5611
 6924SOL     OW32404   1.426   0.808   0.996 -0.1959 -0.2895  0.7676
 6924SOL    HW132405   1.341   0.819   0.954  0.0097 -1.3467  0.0837
 6924SOL    HW232406   1.478   0.772   0.924  0.5489  3.5100 -0.6190
 6925SOL     OW32407   4.645   3.031   6.332  0.2156 -0.7458 -0.0926
 6925SOL    HW132408   4.614   3.046   6.421 -1.2245 -2.8781 -0.2143
 6925SOL    HW232409   4.567   3.040   6.276 -0.9576 -2.0538  1.3205
 6926SOL     OW32410   1.089   1.184   7.305  0.6195 -0.3783  0.3787
 6926SOL    HW132411   1.014   1.163   7.250  0.5437  3.0848 -0.7823
 6926SOL    HW232412   1.053   1.157   7.390 -1.0851  1.3217  0.1934
 6927SOL     OW32413   0.655   2.231   5.676  0.1357  0.6055 -0.0339
 6927SOL    HW132414   0.596   2.200   5.607 -0.1278  1.5696 -0.2361
 6927SOL    HW232415   0.707   2.302   5.637 -2.0096  1.4923 -1.2909
 6928SOL     OW32416   2.155   3.385   7.969 -0.1873  0.9116  0.3279
 6928SOL    HW132417   2.173   3.459   7.911  0.8356 -1.3562 -2.2271
 6928SOL    HW232418   2.171   3.306   7.918 -0.9959  1.0251 -0.0945
 6929SOL     OW32419   4.454   2.514   8.254  0.2908 -0.1595 -0.0823
 6929SOL    HW132420   4.363   2.491   8.239  0.2859 -1.0660  1.3743
 6929SOL    HW232421   4.486   2.429   8.285  0.5982  0.2152  0.6149
 6930SOL     OW32422   4.616   3.747   6.565  0.4731  0.2591 -0.3081
 6930SOL    HW132423   4.645   3.838   6.567 -0.8482  0.6585  1.1835
 6930SOL    HW232424   4.572   3.745   6.650 -2.2938 -0.2415 -1.7555
 6931SOL     OW32425   0.290   2.624   3.973 -0.2094  0.2549 -0.0461
 6931SOL    HW132426   0.246   2.646   4.056 -0.7521 -0.5281 -0.1224
 6931SOL    HW232427   0.233   2.660   3.905 -0.7831 -0.1142  0.2388
 6932SOL     OW32428   3.282   3.145   1.098  0.5001  0.0811  0.3144
 6932SOL    HW132429   3.189   3.152   1.121  0.1406 -0.2599 -1.0398
 6932SOL    HW232430   3.306   3.236   1.082  1.7732 -0.4051 -0.5201
 6933SOL     OW32431   1.418   3.319  10.015  0.4233  0.6836 -0.1247
 6933SOL    HW132432   1.494   3.356  10.059 -0.3552 -0.5387  2.2533
 6933SOL    HW232433   1.348   3.366  10.060  0.2018 -0.1364  0.3958
 6934SOL     OW32434   1.509   2.197   8.910  0.4445  0.6750 -0.3595
 6934SOL    HW132435   1.462   2.271   8.948 -3.1449 -1.2356 -1.1081
 6934SOL    HW232436   1.571   2.244   8.854 -1.1054 -1.0219 -3.4716
 6935SOL     OW32437   3.606   1.458   1.441  0.1620 -0.1361  0.0297
 6935SOL    HW132438   3.580   1.546   1.467  0.3111 -0.2509  0.5816
 6935SOL    HW232439   3.575   1.451   1.351 -1.5840 -0.2529  0.6375
 6936SOL     OW32440   2.595   0.122   7.880 -0.3064 -0.0311 -0.4299
 6936SOL    HW132441   2.514   0.165   7.853  1.3282  2.3650 -1.5990
 6936SOL    HW232442   2.657   0.194   7.871  0.3197 -0.7416 -1.9365
 6937SOL     OW32443   1.300   2.795   7.875  0.1723  0.0094 -0.1086
 6937SOL    HW132444   1.294   2.869   7.815 -2.1351  0.6125  0.8870
 6937SOL    HW232445   1.387   2.815   7.909 -0.1373 -1.9631  1.8672
 6938SOL     OW32446   3.918   2.904   3.611 -0.3141  0.0432  0.1609
 6938SOL    HW132447   3.905   2.859   3.694  3.0899  0.4682  0.9530
 6938SOL    HW232448   3.846   2.877   3.555 -0.1986 -1.0079  0.5161
 6939SOL     OW32449   2.379   4.216   8.896  0.2461  0.4047  0.2124
 6939SOL    HW132450   2.434   4.173   8.961  0.1230 -0.2716 -0.1273
 6939SOL    HW232451   2.375   4.305   8.932  0.3300  0.4870  0.0214
 6940SOL     OW32452   1.985   3.114   2.631  0.2337  0.4347 -0.4477
 6940SOL    HW132453   1.921   3.087   2.566 -0.6493  0.8877  0.2301
 6940SOL    HW232454   2.064   3.122   2.578 -0.3401  0.6788 -1.2668
 6941SOL     OW32455   3.363   4.540   0.212  0.1548  0.0137  0.0423
 6941SOL    HW132456   3.454   4.528   0.238  0.8524  0.4687 -2.1515
 6941SOL    HW232457   3.345   4.457   0.168 -1.1582  0.3543 -0.0563
 6942SOL     OW32458   0.760   0.243   1.636 -0.1140 -0.2699  0.0118
 6942SOL    HW132459   0.737   0.332   1.663  0.7895  0.6373 -2.1810
 6942SOL    HW232460   0.816   0.267   1.562  1.4673 -0.5450  1.1096
 6943SOL     OW32461   0.172   3.339   0.270  0.0599  0.1508  0.2495
 6943SOL    HW132462   0.095   3.343   0.327 -0.0132  1.3047  0.0543
 6943SOL    HW232463   0.149   3.252   0.237  1.8314 -0.5530  0.8989
 6944SOL     OW32464   3.581   0.959   6.858  0.4836 -0.0143 -0.0919
 6944SOL    HW132465   3.518   0.906   6.906  0.1385  0.6101  0.1497
 6944SOL    HW232466   3.651   0.899   6.834  1.9114  1.6480 -0.1313
 6945SOL     OW32467   3.501   1.669   3.505 -0.2180  0.3083 -0.2111
 6945SOL    HW132468   3.451   1.712   3.574 -0.2570 -1.6698  0.9811
 6945SOL    HW232469   3.587   1.701   3.531  0.2787 -1.8352  0.7195
 6946SOL     OW32470   3.512   4.550  12.096  0.4559 -0.2436  0.2225
 6946SOL    HW132471   3.606   4.546  12.075  0.7657 -0.9984  1.8194
 6946SOL    HW232472   3.476   4.504  12.021 -0.7497  2.5359 -0.9247
 6947SOL     OW32473   4.647   1.255   2.048  0.0608 -0.4339  0.0626
 6947SOL    HW132474   4.562   1.282   2.015 -0.7144 -2.7049  0.1800
 6947SOL    HW232475   4.645   1.159   2.056  2.0034 -0.5721 -0.9773
 6948SOL     OW32476   3.220   3.799   5.528 -0.3592 -0.5969  0.4212
 6948SOL    HW132477   3.165   3.801   5.450  3.1869  1.7500 -2.0177
 6948SOL    HW232478   3.238   3.707   5.545 -2.5009 -1.5008 -2.0898
 6949SOL     OW32479   4.359   4.662   5.042  0.3933 -0.2140 -0.9885
 6949SOL    HW132480   4.414   4.715   4.985 -2.8498  1.6320 -2.3670
 6949SOL    HW232481   4.271   4.695   5.028 -0.2366 -1.1076  0.7312
 6950SOL     OW32482   4.441   1.228  10.750  0.7476  0.3324 -0.0286
 6950SOL    HW132483   4.430   1.239  10.845  0.9629 -2.0725  0.2765
 6950SOL    HW232484   4.347   1.222  10.729  0.6593 -1.4616  0.8839
 6951SOL     OW32485   3.462   2.617  15.845  0.3079  0.5222 -0.3017
 6951SOL    HW132486   3.499   2.543  15.894  0.6185 -0.0385 -1.3783
 6951SOL    HW232487   3.402   2.570  15.788  0.9523 -0.0137 -0.5379
 6952SOL     OW32488   1.399   2.199   7.466  0.0826 -0.3993 -0.0021
 6952SOL    HW132489   1.361   2.111   7.466  0.2725 -0.4836 -1.9147
 6952SOL    HW232490   1.347   2.232   7.539 -0.2764 -0.2407 -0.3240
 6953SOL     OW32491   3.695   1.187   1.502  0.6930 -0.0275  0.4462
 6953SOL    HW132492   3.769   1.218   1.554  0.5523 -0.0242  0.6438
 6953SOL    HW232493   3.646   1.266   1.479  0.0775  0.1986  2.5413
 6954SOL     OW32494   0.807   3.223   3.553  0.1305 -0.1817  0.2106
 6954SOL    HW132495   0.902   3.217   3.562  0.0929 -1.0471  0.0428
 6954SOL    HW232496   0.794   3.175   3.471  1.1710  0.0188 -0.0822
 6955SOL     OW32497   4.384   1.195  16.712 -0.3202 -0.2816  0.3974
 6955SOL    HW132498   4.367   1.173  16.621  0.3955  2.0582 -0.3053
 6955SOL    HW232499   4.306   1.250  16.720  1.1124  1.6141  1.2333
 6956SOL     OW32500   2.265   2.491   9.883 -0.1325 -0.3880 -0.0281
 6956SOL    HW132501   2.242   2.581   9.858  1.5967  0.1776  0.4301
 6956SOL    HW232502   2.300   2.463   9.798 -0.8812  1.5506 -0.9757
 6957SOL     OW32503   0.620   4.007   2.251  0.5428  0.0658  0.5810
 6957SOL    HW132504   0.560   3.974   2.184  0.9489 -1.0117  0.7398
 6957SOL    HW232505   0.640   4.096   2.221  0.0907 -0.2355 -0.6125
 6958SOL     OW32506   3.080   2.015   0.801 -0.3009  0.2503 -0.0022
 6958SOL    HW132507   3.096   2.071   0.725  3.7759 -0.1300  0.5784
 6958SOL    HW232508   2.998   1.977   0.770 -0.0567 -0.2742  0.0037
 6959SOL     OW32509   4.484   2.336   2.087 -0.1864 -0.1594  0.3394
 6959SOL    HW132510   4.506   2.410   2.031 -2.5103  0.7417  0.5826
 6959SOL    HW232511   4.413   2.377   2.137 -0.4622 -1.6079  1.1168
 6960SOL     OW32512   0.277   4.391  15.595 -0.2676  0.4499 -0.1824
 6960SOL    HW132513   0.263   4.323  15.660  0.2664  1.1815  0.6901
 6960SOL    HW232514   0.187   4.421  15.580 -0.2647  0.0966 -0.9065
 6961SOL     OW32515   4.529   4.075  14.867 -0.0236 -0.1886  0.0922
 6961SOL    HW132516   4.496   4.146  14.921  1.7096  0.1477  0.7061
 6961SOL    HW232517   4.446   4.030  14.850  0.9195 -2.0262  0.3466
 6962SOL     OW32518   3.147   1.142   6.958 -0.0297  1.0431 -0.9205
 6962SOL    HW132519   3.085   1.210   6.986  0.2431  1.0493 -0.3414
 6962SOL    HW232520   3.128   1.071   7.019  1.9008  0.2344 -1.2678
 6963SOL     OW32521   0.210   0.665   3.122  0.3543  0.0875 -0.5986
 6963SOL    HW132522   0.118   0.646   3.142  1.0151 -1.6780  0.7734
 6963SOL    HW232523   0.212   0.632   3.033 -0.7185 -0.5275 -0.3992
 6964SOL     OW32524   2.181   3.662   2.348 -0.1778 -0.2110 -0.0157
 6964SOL    HW132525   2.120   3.723   2.391 -0.2844 -0.2619 -0.0944
 6964SOL    HW232526   2.234   3.724   2.298  0.6414 -0.6197  0.3451
 6965SOL     OW32527   0.332   0.241   0.883  0.5101 -0.2685  0.2609
 6965SOL    HW132528   0.272   0.261   0.811  1.0585  1.2538  0.2194
 6965SOL    HW232529   0.313   0.149   0.900  1.3047 -0.8213 -1.9042
 6966SOL     OW32530   3.302   3.517   9.041  0.1778  0.3565 -0.1067
 6966SOL    HW132531   3.339   3.606   9.040  0.4676  0.2400  1.5728
 6966SOL    HW232532   3.216   3.539   9.005  0.9138  1.1372 -1.4274
 6967SOL     OW32533   1.721   0.280  13.605 -0.2476  0.3962 -0.4392
 6967SOL    HW132534   1.717   0.338  13.682  2.7171  0.8130 -0.5933
 6967SOL    HW232535   1.809   0.242  13.615  0.5740  2.2992 -0.4384
 6968SOL     OW32536   2.891   2.043  14.465 -0.2585 -0.5581 -0.3220
 6968SOL    HW132537   2.798   2.022  14.458 -0.1534 -1.0392 -0.2399
 6968SOL    HW232538   2.928   1.982  14.528  3.1318  0.4493 -1.3170
 6969SOL     OW32539   4.193   4.159   4.324 -0.0246 -0.0913  0.2721
 6969SOL    HW132540   4.156   4.201   4.401 -0.3096 -0.2091  0.1984
 6969SOL    HW232541   4.279   4.137   4.361 -0.7915  0.7163  2.5571
 6970SOL     OW32542   4.550   3.558   2.298  0.5931  0.4735 -0.2057
 6970SOL    HW132543   4.552   3.651   2.276  0.5684  0.6425  0.5200
 6970SOL    HW232544   4.636   3.529   2.328  0.8634 -1.3912 -2.7390
 6971SOL     OW32545   2.691   4.442   6.060  0.6488 -0.0061 -0.2029
 6971SOL    HW132546   2.636   4.367   6.082  0.4934 -0.1315 -1.0218
 6971SOL    HW232547   2.627   4.511   6.080  0.8110  0.1740 -0.3027
 6972SOL     OW32548   0.862   1.539   3.169 -0.2374  0.7191  0.4129
 6972SOL    HW132549   0.862   1.580   3.255 -0.3638  1.7390 -0.0710
 6972SOL    HW232550   0.785   1.578   3.128 -1.4463 -3.9466 -1.7720
 6973SOL     OW32551   1.243   1.517   7.700 -0.2911  0.4847 -0.1229
 6973SOL    HW132552   1.331   1.512   7.736  0.3097  0.2516 -1.6107
 6973SOL    HW232553   1.235   1.424   7.681 -1.7941  0.1257  2.3123
 6974SOL     OW32554   1.776   0.937   9.512 -0.3218  0.1090  0.7074
 6974SOL    HW132555   1.776   0.917   9.606 -1.9355 -0.1573  0.6470
 6974SOL    HW232556   1.685   0.912   9.495  0.4103 -1.5319 -0.8314
 6975SOL     OW32557   2.627   1.861   3.503  0.3430  0.4056  0.5924
 6975SOL    HW132558   2.572   1.932   3.535  0.8615  1.1263 -0.1418
 6975SOL    HW232559   2.611   1.860   3.409  0.5732 -0.5292  0.5567
 6976SOL     OW32560   4.322   0.140   2.226  0.3121  0.2873  0.0011
 6976SOL    HW132561   4.345   0.062   2.276 -1.9900 -1.0302 -0.9690
 6976SOL    HW232562   4.229   0.159   2.237  0.4335 -1.0273  3.0646
 6977SOL     OW32563   0.434   4.187   1.553 -0.2272  0.1819 -0.0946
 6977SOL    HW132564   0.446   4.281   1.567 -0.8650  0.4436 -1.2443
 6977SOL    HW232565   0.358   4.177   1.611  0.3419 -0.9826  0.4402
 6978SOL     OW32566   3.936   4.300   7.921  0.1495  0.5882 -0.1193
 6978SOL    HW132567   3.971   4.225   7.970 -1.3326  0.4025  0.6542
 6978SOL    HW232568   3.968   4.285   7.832  0.3403 -1.7186  0.3361
 6979SOL     OW32569   3.885   1.850   1.325 -0.0159  0.1662  0.4660
 6979SOL    HW132570   3.874   1.787   1.253 -0.3081  0.1815  0.5000
 6979SOL    HW232571   3.965   1.819   1.366  0.0989  0.7489  0.6809
 6980SOL     OW32572   4.425   4.315   8.036  0.0148  0.2213  0.3467
 6980SOL    HW132573   4.501   4.263   8.064  1.1279  1.0695 -1.0972
 6980SOL    HW232574   4.355   4.269   8.082 -0.1389 -1.1398 -1.2705
 6981SOL     OW32575   0.136   1.050  12.790 -0.0479  0.4375  0.4104
 6981SOL    HW132576   0.178   1.067  12.874  1.0879  0.2720 -0.1290
 6981SOL    HW232577   0.149   0.959  12.761 -0.4649  0.2428  0.8288
 6982SOL     OW32578   4.633   2.851   9.441 -0.3754  0.1431  0.2644
 6982SOL    HW132579   4.719   2.821   9.472 -0.0437 -0.0357 -0.8176
 6982SOL    HW232580   4.575   2.783   9.474  1.0426 -1.6438 -0.9101
 6983SOL     OW32581   3.802   4.018   8.676 -0.1059  0.3633 -0.0137
 6983SOL    HW132582   3.782   3.941   8.730 -1.0606  1.4069  1.1190
 6983SOL    HW232583   3.889   4.039   8.709  0.8276  3.5669 -4.5221
 6984SOL     OW32584   3.735   1.523  14.635  0.5922  0.0242  0.6944
 6984SOL    HW132585   3.694   1.528  14.548  1.3271 -2.2648  0.2204
 6984SOL    HW232586   3.731   1.618  14.650  0.0142  0.4295 -1.9710
 6985SOL     OW32587   3.854   2.022   4.986 -0.0624 -0.1766 -0.2641
 6985SOL    HW132588   3.904   2.092   4.944  1.7151 -1.3779 -0.1477
 6985SOL    HW232589   3.855   1.947   4.926 -1.6215  0.1979 -0.7496
 6986SOL     OW32590   4.341   2.174   9.757 -0.1790  0.5162 -0.0606
 6986SOL    HW132591   4.435   2.162   9.768 -0.4812 -0.3404  1.4826
 6986SOL    HW232592   4.316   2.085   9.733 -0.5869  1.2736 -2.4797
 6987SOL     OW32593   3.434   3.941   6.154 -0.7339  0.2774 -0.9647
 6987SOL    HW132594   3.491   3.938   6.231 -1.1228  1.6276 -0.6172
 6987SOL    HW232595   3.489   3.900   6.087 -0.3338  0.9665 -1.0554
 6988SOL     OW32596   1.938   3.887   2.137 -0.1051 -0.6720  0.4826
 6988SOL    HW132597   2.005   3.884   2.206 -0.6157  0.9871  1.0612
 6988SOL    HW232598   1.863   3.893   2.197  0.6221  0.4212  1.2857
 6989SOL     OW32599   4.009   1.159   5.737  0.0432 -0.3213  0.3253
 6989SOL    HW132600   3.976   1.149   5.826 -2.0237 -2.6187 -0.7116
 6989SOL    HW232601   3.924   1.146   5.697  0.3243 -0.4129 -0.2387
 6990SOL     OW32602   0.447   1.144  16.201  0.0597  0.5514 -0.2489
 6990SOL    HW132603   0.467   1.142  16.108  2.1267 -0.4654  0.2223
 6990SOL    HW232604   0.517   1.198  16.238  0.9032 -1.6024  1.3426
 6991SOL     OW32605   4.470   1.542   9.737  0.1205  0.3505  0.5499
 6991SOL    HW132606   4.398   1.488   9.768  1.3261 -1.6418 -0.1360
 6991SOL    HW232607   4.430   1.627   9.754 -1.3140  0.0968 -1.6341
 6992SOL     OW32608   2.408   2.554   5.000  0.4889  0.4263 -0.2325
 6992SOL    HW132609   2.369   2.547   5.087  0.4974  0.9952 -0.1812
 6992SOL    HW232610   2.455   2.471   5.001  0.9483  0.6896  0.0480
 6993SOL     OW32611   2.453   3.417   9.800  0.4975  0.1811  0.2562
 6993SOL    HW132612   2.514   3.387   9.732  1.0844  1.2050  0.3375
 6993SOL    HW232613   2.430   3.330   9.832  1.7962  0.3297  1.5810
 6994SOL     OW32614   1.656   4.001  16.249 -0.0446 -0.3175 -0.4308
 6994SOL    HW132615   1.716   3.983  16.176  0.3736 -1.2464  0.1392
 6994SOL    HW232616   1.615   4.075  16.205  0.5098  0.8271  0.9676
 6995SOL     OW32617   3.694   0.132   8.882 -0.0690  0.1569  0.1536
 6995SOL    HW132618   3.744   0.056   8.913 -1.8764 -2.3268 -3.0695
 6995SOL    HW232619   3.633   0.090   8.822  2.3275 -2.3212 -0.5144
 6996SOL     OW32620   4.142   3.531  15.608  0.8222  0.2028  0.1850
 6996SOL    HW132621   4.122   3.604  15.549  0.9465  1.0186  1.1398
 6996SOL    HW232622   4.212   3.488  15.559  1.2796  1.4056 -0.2109
 6997SOL     OW32623   2.578   1.996   9.376 -0.3891 -0.5270 -0.7703
 6997SOL    HW132624   2.567   1.952   9.291 -1.4354  0.6255 -1.2326
 6997SOL    HW232625   2.673   2.000   9.370 -0.1212 -3.6311  1.4394
 6998SOL     OW32626   3.716   4.349  11.740 -0.2439 -0.4410  0.1290
 6998SOL    HW132627   3.634   4.337  11.788  0.4858  0.5268  1.6178
 6998SOL    HW232628   3.700   4.280  11.676  0.5848 -0.0966 -0.4431
 6999SOL     OW32629   1.253   1.069   5.761 -0.2361 -0.2116  0.1662
 6999SOL    HW132630   1.279   1.161   5.769 -0.9963 -0.1114  1.4250
 6999SOL    HW232631   1.189   1.076   5.691 -0.0819 -0.7649 -0.0279
 7000SOL     OW32632   3.961   2.851   5.534  0.1627 -0.3291 -0.0024
 7000SOL    HW132633   4.038   2.794   5.537  1.8082  1.8193 -1.4997
 7000SOL    HW232634   3.918   2.842   5.619  0.9615 -0.4232  0.3935
 7001SOL     OW32635   0.481   2.677   2.164 -0.0092 -0.2502  0.1186
 7001SOL    HW132636   0.417   2.666   2.234 -0.9846 -1.3431 -0.9476
 7001SOL    HW232637   0.448   2.755   2.120 -0.2572 -0.0809  0.6003
 7002SOL     OW32638   0.630   2.031   7.429  0.1086 -0.2269 -0.9753
 7002SOL    HW132639   0.564   1.994   7.371  0.0417 -1.2634 -0.2379
 7002SOL    HW232640   0.583   2.058   7.508  1.1195  2.6703 -1.3570
 7003SOL     OW32641   3.583   0.796   5.938  0.3361 -0.1704  0.2884
 7003SOL    HW132642   3.615   0.885   5.925  1.4875 -0.8086 -1.2455
 7003SOL    HW232643   3.581   0.789   6.034  0.6763  0.6976  0.3645
 7004SOL     OW32644   4.135   1.922  16.259  0.1054  0.5566 -0.3593
 7004SOL    HW132645   4.118   1.991  16.196 -1.5715  0.6417  0.1762
 7004SOL    HW232646   4.048   1.918  16.299  0.3740 -2.0338 -0.0134
 7005SOL     OW32647   0.316   3.607   4.518 -0.4954  0.0843 -0.1209
 7005SOL    HW132648   0.309   3.564   4.432 -0.3355 -0.2588  0.0389
 7005SOL    HW232649   0.229   3.647   4.521  0.0384  1.0326  2.2147
 7006SOL     OW32650   0.174   4.629   3.213  0.3757 -0.3463  0.1518
 7006SOL    HW132651   0.141   4.662   3.129  0.0744 -0.4719  0.2208
 7006SOL    HW232652   0.094   4.594   3.252  1.2522 -1.1343  1.2399
 7007SOL     OW32653   2.091   2.725   8.315  0.3101 -0.3677 -0.0100
 7007SOL    HW132654   2.074   2.637   8.281 -2.7327 -0.2032  1.0942
 7007SOL    HW232655   2.140   2.705   8.395  1.2071 -2.6048 -1.1368
 7008SOL     OW32656   2.392   1.439   8.085  0.1994  0.0014  0.3891
 7008SOL    HW132657   2.484   1.412   8.080  0.4636  1.1184 -0.8110
 7008SOL    HW232658   2.399   1.532   8.108 -0.2556  0.7827 -2.6457
 7009SOL     OW32659   3.782   1.129   7.250  0.3354 -0.0777  0.3067
 7009SOL    HW132660   3.862   1.155   7.205  1.3370  0.6899  2.4911
 7009SOL    HW232661   3.812   1.048   7.292 -1.0420 -1.0403 -0.5583
 7010SOL     OW32662   4.064   2.185   7.497  0.0098  0.5646  0.1462
 7010SOL    HW132663   4.040   2.273   7.525  1.9286  0.4491  2.2181
 7010SOL    HW232664   4.118   2.169   7.574 -1.2972 -0.1876  0.8999
 7011SOL     OW32665   2.066   3.098  12.286  0.2624 -0.4326  0.2590
 7011SOL    HW132666   1.987   3.084  12.235  0.7711 -0.5716 -0.4867
 7011SOL    HW232667   2.040   3.172  12.341 -1.8383  0.7532 -2.3534
 7012SOL     OW32668   1.097   3.869   3.658  0.4622 -0.4366 -0.1201
 7012SOL    HW132669   1.046   3.826   3.590 -0.4721  3.8315 -2.1465
 7012SOL    HW232670   1.169   3.810   3.682 -0.0477 -2.2660 -3.0687
 7013SOL     OW32671   0.416   1.428   2.008  0.6091  0.2240 -0.6068
 7013SOL    HW132672   0.481   1.498   2.005  1.7284 -0.7991 -0.1977
 7013SOL    HW232673   0.480   1.357   2.016 -0.8787 -1.4951 -3.7333
 7014SOL     OW32674   4.206   3.027   3.134 -0.3408 -0.5964  0.7932
 7014SOL    HW132675   4.133   2.965   3.133 -0.6578 -0.2816  3.6002
 7014SOL    HW232676   4.153   3.103   3.161 -0.2549 -0.2488 -0.0034
 7015SOL     OW32677   3.408   0.603   6.001 -0.2495  0.3047 -0.0268
 7015SOL    HW132678   3.407   0.548   5.922 -1.2385 -0.3403  0.4327
 7015SOL    HW232679   3.469   0.673   5.981  1.2960 -1.2431 -0.7861
 7016SOL     OW32680   3.123   3.511   8.253 -0.1780  0.3744 -0.0532
 7016SOL    HW132681   3.169   3.588   8.286  0.0548  0.3194 -0.2446
 7016SOL    HW232682   3.140   3.445   8.320 -0.2920 -1.8181 -2.1632
 7017SOL     OW32683   3.904   2.508   7.290 -0.2718 -0.3789  0.1623
 7017SOL    HW132684   3.927   2.531   7.200  3.8306 -0.2550  1.2651
 7017SOL    HW232685   3.958   2.573   7.336  0.3559 -0.1457 -0.9148
 7018SOL     OW32686   1.019   1.764  12.589 -0.1199  0.5765 -0.2423
 7018SOL    HW132687   0.935   1.809  12.581  1.1085  2.8670 -0.2389
 7018SOL    HW232688   1.028   1.774  12.684 -2.1828 -1.7194  0.1826
 7019SOL     OW32689   1.317   3.711   3.673 -0.3107 -0.0433 -0.4499
 7019SOL    HW132690   1.291   3.647   3.738  0.5631  1.2813  1.1978
 7019SOL    HW232691   1.369   3.664   3.608 -2.0579 -2.1330 -0.3138
 7020SOL     OW32692   0.790   3.119   5.155  0.4767 -0.0476 -0.0586
 7020SOL    HW132693   0.750   3.076   5.079 -1.0417  0.2573  0.5592
 7020SOL    HW232694   0.746   3.088   5.234  3.1191 -0.2792  1.2996
 7021SOL     OW32695   0.396   4.215   0.937  0.1560 -0.1369 -0.5343
 7021SOL    HW132696   0.351   4.170   0.865  0.3553  1.5285 -1.6885
 7021SOL    HW232697   0.445   4.279   0.886 -1.7979 -0.4435 -2.7746
 7022SOL     OW32698   2.455   1.221  10.331  0.2196 -0.2192 -0.3439
 7022SOL    HW132699   2.482   1.141  10.285  0.0558 -0.3750 -0.1705
 7022SOL    HW232700   2.382   1.180  10.378  0.5722 -0.2259  0.1946
 7023SOL     OW32701   3.492   0.345  10.405  0.1089 -0.6370 -0.2587
 7023SOL    HW132702   3.587   0.341  10.395 -0.0050  2.3278 -2.5657
 7023SOL    HW232703   3.470   0.368  10.314 -0.9542 -0.3920  0.0616
 7024SOL     OW32704   2.120   0.726  10.276 -0.0965 -0.0552  0.0421
 7024SOL    HW132705   2.114   0.641  10.321  3.5676  0.0585  0.7015
 7024SOL    HW232706   2.144   0.774  10.355 -0.1273  0.1976 -0.1054
 7025SOL     OW32707   0.987   1.911   7.164  0.3993 -0.2641  0.4572
 7025SOL    HW132708   0.983   1.827   7.119 -0.8326 -0.9767  1.9294
 7025SOL    HW232709   0.985   1.963   7.083  0.8136 -1.2441 -0.1786
 7026SOL     OW32710   3.694   3.712   9.618 -0.2320  0.0670 -0.8694
 7026SOL    HW132711   3.733   3.799   9.616  0.4906 -0.2792 -1.8523
 7026SOL    HW232712   3.635   3.715   9.542 -1.9216  0.6056  0.4577
 7027SOL     OW32713   4.097   3.087   8.225  0.1908 -0.1459  0.0388
 7027SOL    HW132714   4.133   3.167   8.262 -0.1206  0.9932 -2.0762
 7027SOL    HW232715   4.156   3.092   8.149  0.1705 -0.7597 -0.0230
 7028SOL     OW32716   0.194   1.486   8.169  0.2317 -0.3874 -0.0387
 7028SOL    HW132717   0.146   1.568   8.182  1.4011  0.4035 -0.7561
 7028SOL    HW232718   0.238   1.500   8.085  1.3579 -0.6547  0.5062
 7029SOL     OW32719   3.702   2.058  16.168 -0.3943  0.0494  0.3422
 7029SOL    HW132720   3.664   1.988  16.221 -1.8740 -0.0911 -0.9162
 7029SOL    HW232721   3.783   2.082  16.214 -0.0370  1.2163 -0.9112
 7030SOL     OW32722   4.692   1.977   3.937 -0.5028  0.0756 -0.0401
 7030SOL    HW132723   4.615   1.956   3.884 -1.9668 -2.3508  2.9909
 7030SOL    HW232724   4.737   2.036   3.877 -0.6275  0.1103 -0.0989
 7031SOL     OW32725   4.721   0.945   7.811  0.5654  0.1612 -0.4514
 7031SOL    HW132726   4.694   0.982   7.895 -0.6739 -1.4238 -0.1472
 7031SOL    HW232727   0.074   0.927   7.814  0.3357 -1.2431 -1.3647
 7032SOL     OW32728   2.523   3.135   2.463 -0.4518 -0.1414 -0.3243
 7032SOL    HW132729   2.525   3.049   2.421 -3.6730  0.5933 -1.9460
 7032SOL    HW232730   2.486   3.191   2.395  1.0046 -1.5198 -2.2736
 7033SOL     OW32731   4.512   2.079   2.230  0.0419  0.9692  0.5505
 7033SOL    HW132732   4.541   2.147   2.169  0.8381  0.6655  0.5862
 7033SOL    HW232733   4.465   2.126   2.299  1.6266 -0.1417  2.4161
 7034SOL     OW32734   1.919   0.807   3.780  0.1594  0.6215 -0.1159
 7034SOL    HW132735   1.873   0.724   3.791  0.5384  0.3484 -0.5399
 7034SOL    HW232736   1.840   0.861   3.780  1.2352  2.1982  2.1861
 7035SOL     OW32737   1.958   1.610   6.977  0.1710  0.0386  0.4449
 7035SOL    HW132738   1.978   1.583   7.067 -1.6353 -1.5928  0.3570
 7035SOL    HW232739   2.005   1.545   6.926 -0.0676 -1.8343  2.6116
 7036SOL     OW32740   3.432   4.245   2.558 -0.1484 -0.0259 -0.3417
 7036SOL    HW132741   3.480   4.311   2.608 -1.6439  0.9114 -0.1226
 7036SOL    HW232742   3.453   4.168   2.611 -0.5455 -0.6178 -1.0457
 7037SOL     OW32743   4.322   3.156  12.379  0.1937  0.2910  0.7404
 7037SOL    HW132744   4.277   3.073  12.365  0.3935  0.3893 -0.4615
 7037SOL    HW232745   4.414   3.144  12.353  0.1445 -0.5455  0.9571
 7038SOL     OW32746   3.048   0.713   4.849 -0.0694 -0.6751 -0.1169
 7038SOL    HW132747   3.142   0.733   4.850 -0.1802 -0.1607 -0.3288
 7038SOL    HW232748   3.049   0.617   4.843  1.1861 -0.6971  0.4684
 7039SOL     OW32749   0.297   1.036   4.202  0.4342 -0.0772  0.2147
 7039SOL    HW132750   0.307   1.084   4.284  1.4796 -2.2517  1.3518
 7039SOL    HW232751   0.370   0.975   4.193 -1.8323 -2.6579 -0.7020
 7040SOL     OW32752   2.717   3.248   3.917 -0.1787  0.7673 -0.2440
 7040SOL    HW132753   2.767   3.181   3.963 -0.3017  1.0078  0.2483
 7040SOL    HW232754   2.655   3.268   3.988  0.8336  0.1982  0.7916
 7041SOL     OW32755   1.349   2.207   6.569  0.2548 -0.0710 -0.5000
 7041SOL    HW132756   1.412   2.171   6.632 -1.0219 -0.0902  0.7695
 7041SOL    HW232757   1.340   2.127   6.518  0.1258 -1.5275  1.8119
 7042SOL     OW32758   4.067   1.965  11.031  0.1439  0.0177 -0.2997
 7042SOL    HW132759   4.150   1.929  11.063  0.9986  1.0339 -1.4115
 7042SOL    HW232760   4.077   2.060  11.040 -1.5065  0.0394  1.4271
 7043SOL     OW32761   4.543   4.579  13.521 -0.1024  0.4705  0.0550
 7043SOL    HW132762   4.598   4.581  13.443  0.7877 -1.6727  0.6559
 7043SOL    HW232763   4.506   4.491  13.513  2.3366 -0.4191 -1.1581
 7044SOL     OW32764   3.628   0.200   6.768 -0.0989 -0.6547  0.2348
 7044SOL    HW132765   3.642   0.229   6.678  1.3963 -0.8550  0.4023
 7044SOL    HW232766   3.623   0.285   6.812 -0.3372  0.0393 -1.1483
 7045SOL     OW32767   1.922   4.394   6.158  0.3983 -0.3420 -0.0352
 7045SOL    HW132768   1.980   4.407   6.083 -2.0861  2.1006 -1.5325
 7045SOL    HW232769   1.903   4.301   6.150  0.7215 -0.2998 -1.4171
 7046SOL     OW32770   2.992   3.316   8.545 -0.1793  0.0009 -0.1864
 7046SOL    HW132771   2.940   3.236   8.543  0.1104 -0.1522 -1.6617
 7046SOL    HW232772   2.931   3.381   8.509  0.2069  1.2579  1.4257
 7047SOL     OW32773   1.579   1.826  12.232 -0.6213 -0.0074 -0.0046
 7047SOL    HW132774   1.531   1.854  12.309  1.5577  2.4859  0.4416
 7047SOL    HW232775   1.658   1.793  12.275  0.2897  2.4930  0.2151
 7048SOL     OW32776   0.051   0.399   9.676 -0.0441 -0.3025  0.0687
 7048SOL    HW132777   0.079   0.484   9.642 -1.4257  0.4368  0.7767
 7048SOL    HW232778   0.089   0.334   9.617 -2.8343 -1.5294 -0.3732
 7049SOL     OW32779   4.000   2.766   7.398  0.6249 -0.0297 -0.1096
 7049SOL    HW132780   4.084   2.727   7.424  1.5784  3.3110  1.7928
 7049SOL    HW232781   3.994   2.821   7.476  2.4013  0.0312 -0.0185
 7050SOL     OW32782   0.559   3.758   4.572 -0.0111 -0.4100 -0.3097
 7050SOL    HW132783   0.559   3.665   4.593  0.0231 -0.0771  1.1385
 7050SOL    HW232784   0.465   3.775   4.581  0.3531  0.6524  1.4410
 7051SOL     OW32785   2.998   1.828  13.350  0.0982 -0.6351  0.1484
 7051SOL    HW132786   2.983   1.899  13.286 -3.0311 -2.4676 -1.1522
 7051SOL    HW232787   3.086   1.804  13.321  0.1317 -1.0123  0.5701
 7052SOL     OW32788   2.287   4.123   5.447  0.2098  0.2137  0.7633
 7052SOL    HW132789   2.331   4.207   5.432  1.4013 -0.3036  1.3431
 7052SOL    HW232790   2.367   4.075   5.471  0.6567  0.2011 -0.6951
 7053SOL     OW32791   0.413   3.316  16.930  0.6527 -0.2013  0.3730
 7053SOL    HW132792   0.353   3.371  16.881 -0.5494 -0.9759  0.9811
 7053SOL    HW232793   0.497   3.360  16.917  0.7360 -0.4174  0.1813
 7054SOL     OW32794   4.060   0.970  10.608  0.0245  0.4842 -0.2420
 7054SOL    HW132795   4.135   0.961  10.549  0.0576 -3.1495  0.3614
 7054SOL    HW232796   4.090   0.971  10.699  0.2641  0.1457 -0.3186
 7055SOL     OW32797   1.265   3.065   0.177  0.4749 -0.0318  0.8175
 7055SOL    HW132798   1.227   2.981   0.202 -0.6370  0.0783 -0.4944
 7055SOL    HW232799   1.252   3.066   0.082  0.7014 -3.4764  0.7388
 7056SOL     OW32800   3.802   0.946   4.630  0.1661 -0.0924 -0.4710
 7056SOL    HW132801   3.888   0.974   4.598 -0.1615  2.0493  0.5382
 7056SOL    HW232802   3.742   1.020   4.637 -0.5566 -0.7328  0.0741
 7057SOL     OW32803   4.441   0.181   3.585 -0.2682 -0.6467 -0.1279
 7057SOL    HW132804   4.437   0.264   3.633 -0.7271  0.5521 -2.2440
 7057SOL    HW232805   4.512   0.129   3.623 -0.4208 -0.6337  0.1725
 7058SOL     OW32806   1.285   2.031   9.337 -0.0224  0.6309  0.1506
 7058SOL    HW132807   1.344   1.970   9.380 -0.0397 -0.4201 -1.3542
 7058SOL    HW232808   1.275   1.987   9.253 -1.0368 -0.6310  0.9305
 7059SOL     OW32809   4.518   0.181   8.414 -0.1809  0.1719 -0.7267
 7059SOL    HW132810   4.455   0.220   8.353  0.5197  0.6541 -1.1382
 7059SOL    HW232811   4.514   0.238   8.491 -0.1014  0.6393 -1.0719
 7060SOL     OW32812   4.101   0.028   5.029 -0.4013  0.2780  0.0931
 7060SOL    HW132813   4.051   0.074   4.961 -2.3851  0.1130  1.4568
 7060SOL    HW232814   4.122   0.108   5.077  0.6577 -0.7119  1.2604
 7061SOL     OW32815   2.220   2.411  12.110 -0.2594 -0.1655  0.6934
 7061SOL    HW132816   2.231   2.327  12.155  0.0498  0.6621  2.1826
 7061SOL    HW232817   2.219   2.393  12.016 -0.2147  1.6549  0.3409
 7062SOL     OW32818   4.221   0.456   7.572 -0.3319  0.6416  0.4341
 7062SOL    HW132819   4.152   0.523   7.569 -0.9926  0.0990  3.3351
 7062SOL    HW232820   4.175   0.373   7.562  0.8624  0.0051  0.2848
 7063SOL     OW32821   2.795   3.607  17.117  0.1847 -0.0823  0.1951
 7063SOL    HW132822   2.807   3.576  17.027 -1.2824  1.0229 -0.4020
 7063SOL    HW232823   2.721   3.556  17.148 -0.0319  0.6734  0.9294
 7064SOL     OW32824   2.500   3.314  16.386  0.1073  0.4044  0.3151
 7064SOL    HW132825   2.558   3.239  16.369 -0.1361 -0.1870  2.0785
 7064SOL    HW232826   2.556   3.374  16.337  0.4633  0.1676  0.4295
 7065SOL     OW32827   1.339   3.270   6.900 -0.0479  0.4540  0.3142
 7065SOL    HW132828   1.381   3.303   6.820  1.2715 -1.0613  0.3916
 7065SOL    HW232829   1.325   3.177   6.879  0.6931  0.3483  0.2961
 7066SOL     OW32830   0.683   3.435   4.649 -0.2282  0.5976 -0.0842
 7066SOL    HW132831   0.695   3.476   4.734 -0.8139 -1.4455  0.9804
 7066SOL    HW232832   0.771   3.429   4.611 -0.5495  0.7845 -0.8714
 7067SOL     OW32833   2.774   1.075   2.839  0.4150  0.1399 -0.0022
 7067SOL    HW132834   2.818   1.149   2.797  0.8656 -0.8957 -1.3710
 7067SOL    HW232835   2.818   1.069   2.923  1.6563 -0.4014 -0.6929
 7068SOL     OW32836   1.901   2.015   4.462 -0.0994  0.0286 -0.3362
 7068SOL    HW132837   1.850   2.072   4.520 -0.0600 -0.0644 -0.2117
 7068SOL    HW232838   1.905   1.940   4.521  1.4343  0.1193 -0.3403
 7069SOL     OW32839   1.888   0.795   5.007  0.0468 -0.1123  0.0799
 7069SOL    HW132840   1.940   0.732   5.057  0.9139  1.7279  1.5008
 7069SOL    HW232841   1.809   0.792   5.061 -1.3770 -1.3456 -2.0980
 7070SOL     OW32842   1.334   2.248   1.269 -0.0934  0.0422 -0.3336
 7070SOL    HW132843   1.347   2.189   1.196 -0.5688 -0.9830  0.4085
 7070SOL    HW232844   1.239   2.249   1.283 -0.0439  1.2619 -0.0223
 7071SOL     OW32845   4.728   4.104   6.150 -0.3031  0.2468  0.8404
 7071SOL    HW132846   4.674   4.183   6.155  0.0951  0.5660  0.0850
 7071SOL    HW232847   4.700   4.071   6.064 -0.3221  1.6013  0.3162
 7072SOL     OW32848   1.411   1.731  13.740  0.7464 -0.2829 -0.5954
 7072SOL    HW132849   1.471   1.688  13.801  0.3787  0.7747  0.4954
 7072SOL    HW232850   1.477   1.787  13.699  0.3114  0.6283 -0.0301
 7073SOL     OW32851   3.079   3.584   8.911  0.1233  0.3582  0.1239
 7073SOL    HW132852   2.987   3.589   8.886 -0.2233  0.0816  1.3500
 7073SOL    HW232853   3.118   3.596   8.824  2.5903 -0.3643  1.1335
 7074SOL     OW32854   4.083   3.795   5.892 -0.5525 -0.0906  0.3605
 7074SOL    HW132855   4.131   3.871   5.859  0.9527 -1.0222  0.3829
 7074SOL    HW232856   4.073   3.817   5.984  0.0556 -2.8393  1.0816
 7075SOL     OW32857   0.175   2.393  10.789  0.2327 -0.2492 -0.2466
 7075SOL    HW132858   0.145   2.359  10.873 -0.9778 -0.4090 -0.7469
 7075SOL    HW232859   0.119   2.470  10.779  2.4904  1.3911 -0.3628
 7076SOL     OW32860   2.694   2.000   6.850 -0.1665 -0.3584  0.5385
 7076SOL    HW132861   2.787   2.019   6.865 -0.4090 -0.0729  1.7138
 7076SOL    HW232862   2.667   2.091   6.862 -2.3605 -1.0358  0.6230
 7077SOL     OW32863   2.409   3.861   3.196 -0.1005  1.0755 -0.3951
 7077SOL    HW132864   2.328   3.887   3.241 -1.3457 -0.9514 -1.4800
 7077SOL    HW232865   2.414   3.911   3.114 -0.2916  0.1127 -0.9992
 7078SOL     OW32866   2.232   1.417   1.963 -0.2187 -0.3811 -0.1060
 7078SOL    HW132867   2.143   1.432   1.931 -0.5150  0.2392  1.0046
 7078SOL    HW232868   2.212   1.339   2.015  1.1362  0.2905  1.4264
 7079SOL     OW32869   4.134   2.304   3.676  0.7837  0.0954  0.2296
 7079SOL    HW132870   4.211   2.330   3.625  0.0785  0.9922 -0.3723
 7079SOL    HW232871   4.161   2.319   3.767 -0.9523 -0.1878  0.8021
 7080SOL     OW32872   1.777   0.485   7.540  0.0316  0.0322  0.2855
 7080SOL    HW132873   1.792   0.413   7.600  1.7757 -1.4993 -2.0084
 7080SOL    HW232874   1.840   0.552   7.568 -0.0491  0.0476  0.4279
 7081SOL     OW32875   0.596   2.709  11.847 -0.2947  0.2980  0.7849
 7081SOL    HW132876   0.553   2.713  11.932 -1.8477  0.9621 -0.0293
 7081SOL    HW232877   0.530   2.758  11.798 -0.9365 -0.4245  0.9200
 7082SOL     OW32878   0.732   4.452   8.411  0.3530  0.8392 -0.6370
 7082SOL    HW132879   0.703   4.541   8.392  0.0331  0.6879 -0.8488
 7082SOL    HW232880   0.756   4.449   8.504 -0.4453  0.0235 -0.4473
 7083SOL     OW32881   2.889   0.314   5.841 -0.3932 -0.1573 -0.0434
 7083SOL    HW132882   2.904   0.388   5.900  0.3072 -1.2275  1.1275
 7083SOL    HW232883   2.795   0.300   5.832 -0.1312 -3.3341  2.0100
 7084SOL     OW32884   4.638   4.612   5.431  0.1447  0.2119  0.3739
 7084SOL    HW132885   4.624   4.671   5.357 -0.8341  0.1739  0.5265
 7084SOL    HW232886   4.551   4.574   5.441  0.6536 -1.9026 -3.3723
 7085SOL     OW32887   0.306   1.499   6.290 -0.2121 -0.1047 -0.1778
 7085SOL    HW132888   0.341   1.573   6.241 -0.0709  1.3046  2.0712
 7085SOL    HW232889   0.239   1.476   6.226 -0.3609  0.1537 -0.1155
 7086SOL     OW32890   3.353   1.798   2.014  0.2803 -0.2710 -0.0559
 7086SOL    HW132891   3.432   1.848   2.034  1.8397 -3.3276  1.3530
 7086SOL    HW232892   3.317   1.873   1.967  0.1062 -1.1604 -1.3666
 7087SOL     OW32893   0.212   4.480   5.846 -0.0797  0.5502 -0.4939
 7087SOL    HW132894   0.211   4.573   5.869  1.4162 -0.0909  2.1507
 7087SOL    HW232895   0.166   4.460   5.764  2.4196 -1.1462 -1.4867
 7088SOL     OW32896   3.696   0.890   1.572 -0.0390  0.4952  0.6390
 7088SOL    HW132897   3.678   0.977   1.607 -0.4801  1.1255 -1.1834
 7088SOL    HW232898   3.767   0.908   1.511 -2.2352 -0.6310 -2.2476
 7089SOL     OW32899   1.837   2.462   1.794 -0.3962  0.0590 -0.1024
 7089SOL    HW132900   1.811   2.520   1.866  0.2168  1.3032 -0.8745
 7089SOL    HW232901   1.818   2.381   1.841 -1.3699  0.1642 -0.3027
 7090SOL     OW32902   0.785   3.512  13.736 -0.2422  0.2118 -0.3243
 7090SOL    HW132903   0.798   3.417  13.744  1.6868  0.5755  0.8068
 7090SOL    HW232904   0.813   3.529  13.647  0.6744  0.8853  0.0897
 7091SOL     OW32905   4.238   0.498   7.305  0.1731 -0.1448 -0.1683
 7091SOL    HW132906   4.264   0.425   7.249  1.3284 -0.4262  0.7328
 7091SOL    HW232907   4.253   0.458   7.391  0.6867  1.4987  0.4884
 7092SOL     OW32908   4.174   2.032   2.752 -0.4803 -0.2809 -0.1237
 7092SOL    HW132909   4.175   1.992   2.665 -1.2072 -0.0246 -0.2495
 7092SOL    HW232910   4.224   1.966   2.801 -0.1727  0.2589  0.2870
 7093SOL     OW32911   2.148   0.389  12.418  0.3415 -0.7240  0.6935
 7093SOL    HW132912   2.096   0.414  12.342  1.4988  0.7246  0.3828
 7093SOL    HW232913   2.126   0.455  12.483 -0.9218 -0.1937 -0.2730
 7094SOL     OW32914   3.628   4.200   5.579 -0.1927 -0.2244  0.6044
 7094SOL    HW132915   3.559   4.194   5.645  0.4977 -1.4560  1.2260
 7094SOL    HW232916   3.615   4.282   5.532  2.2905 -1.1496 -1.7574
 7095SOL     OW32917   2.841   0.811   0.291  0.2684 -0.0015  0.2576
 7095SOL    HW132918   2.934   0.787   0.294 -0.4576 -2.8362 -0.8547
 7095SOL    HW232919   2.819   0.806   0.198  0.7654  0.8223  0.0902
 7096SOL     OW32920   3.346   1.304   0.396 -0.1287 -0.0464 -0.1441
 7096SOL    HW132921   3.274   1.328   0.455 -0.2384 -0.1239 -0.2460
 7096SOL    HW232922   3.417   1.318   0.459  0.1637  2.7473 -1.0936
 7097SOL     OW32923   3.046   4.154   3.046  0.0868 -0.1532  0.2021
 7097SOL    HW132924   2.988   4.230   3.054 -1.0890 -1.2245  1.7493
 7097SOL    HW232925   3.071   4.156   2.954 -1.7658  0.5462 -0.2864
 7098SOL     OW32926   2.812   2.238   7.150 -0.0715 -0.0473 -0.2225
 7098SOL    HW132927   2.891   2.290   7.167 -1.7137  2.5766 -0.6188
 7098SOL    HW232928   2.853   2.161   7.112 -1.4984 -0.5259 -0.8027
 7099SOL     OW32929   2.777   3.210   2.772  0.1958 -0.5346  0.1033
 7099SOL    HW132930   2.843   3.234   2.706 -1.9944 -0.5666 -2.0885
 7099SOL    HW232931   2.742   3.135   2.725 -0.8176  1.2466 -1.9665
 7100SOL     OW32932   3.030   1.736   3.502  0.0527  0.1991 -0.1653
 7100SOL    HW132933   3.069   1.742   3.590 -0.7833  3.0888  0.0159
 7100SOL    HW232934   3.091   1.676   3.459 -0.5707 -1.5093  1.3198
 7101SOL     OW32935   3.310   0.609   8.055  0.0222 -0.0850 -0.0072
 7101SOL    HW132936   3.250   0.681   8.036 -1.3780 -0.9283  1.1134
 7101SOL    HW232937   3.296   0.541   7.989  0.4052 -0.7302  0.5657
 7102SOL     OW32938   4.549   3.460  10.731  0.0855  0.1061  0.3507
 7102SOL    HW132939   4.621   3.519  10.753 -0.4502  2.0822 -3.1706
 7102SOL    HW232940   4.600   3.379  10.737  0.3924  0.3162  0.5775
 7103SOL     OW32941   0.718   3.172  12.585 -0.1880  0.0611  0.4970
 7103SOL    HW132942   0.651   3.183  12.518 -1.5705  1.0934  2.0561
 7103SOL    HW232943   0.673   3.179  12.669 -0.5768 -2.0821  0.4843
 7104SOL     OW32944   4.150   0.621   6.070  0.5286  0.3102 -0.2301
 7104SOL    HW132945   4.100   0.556   6.119  1.1027  0.6595  0.8161
 7104SOL    HW232946   4.082   0.677   6.034  0.6920  0.4164 -0.3712
 7105SOL     OW32947   3.525   1.236   5.303  1.5980 -0.0546  0.5040
 7105SOL    HW132948   3.518   1.301   5.373 -0.5104  1.6634 -1.3140
 7105SOL    HW232949   3.599   1.262   5.248  0.9476  0.0010 -0.3469
 7106SOL     OW32950   1.775   0.776  11.556 -0.0657  0.3210 -0.2016
 7106SOL    HW132951   1.846   0.815  11.505  0.6480 -0.6864  0.0231
 7106SOL    HW232952   1.712   0.848  11.567 -0.0270 -0.0964  2.8712
 7107SOL     OW32953   3.221   0.194   2.621  0.4081 -0.3038 -0.4593
 7107SOL    HW132954   3.282   0.126   2.649  1.5311  0.5544 -0.8141
 7107SOL    HW232955   3.240   0.265   2.683 -0.5665 -0.4549 -0.0029
 7108SOL     OW32956   0.290   0.910   7.323 -0.9602 -0.6162  0.4195
 7108SOL    HW132957   0.284   0.994   7.277 -0.6506 -0.9026 -0.1503
 7108SOL    HW232958   0.277   0.937   7.414  2.0641  0.5117  0.5174
 7109SOL     OW32959   2.904   2.908  14.899 -0.0775 -0.0810  0.1163
 7109SOL    HW132960   2.859   2.924  14.816  0.9640  2.3431  0.0409
 7109SOL    HW232961   2.955   2.831  14.874 -1.3784 -0.8237 -0.2507
 7110SOL     OW32962   2.746   0.204   9.433 -0.3555  0.5600 -0.1668
 7110SOL    HW132963   2.709   0.290   9.414 -1.3457  0.0531 -0.5107
 7110SOL    HW232964   2.723   0.161   9.351 -0.2246 -0.4302  0.3182
 7111SOL     OW32965   2.095   1.366   5.903  0.5761 -0.8038  0.4020
 7111SOL    HW132966   2.104   1.364   5.808 -1.0732 -0.7431  0.2562
 7111SOL    HW232967   2.153   1.438   5.926  0.2388 -0.0795 -1.0315
 7112SOL     OW32968   4.456   3.172   4.969  0.1916 -0.4626  0.1972
 7112SOL    HW132969   4.380   3.219   5.005  0.1835 -1.8796  2.0621
 7112SOL    HW232970   4.445   3.083   5.003  0.7801 -0.4057  0.5262
 7113SOL     OW32971   1.849   3.032   1.139 -0.2393 -0.5038 -0.5209
 7113SOL    HW132972   1.944   3.045   1.146 -0.6062  3.1402 -2.1932
 7113SOL    HW232973   1.820   3.109   1.091 -1.4115 -1.0152 -0.6272
 7114SOL     OW32974   4.540   1.870   6.150 -0.4853  0.2307  0.2274
 7114SOL    HW132975   4.600   1.942   6.170 -0.2284 -0.4758  2.0298
 7114SOL    HW232976   4.517   1.875   6.057  0.7272 -0.7377 -0.1148
 7115SOL     OW32977   4.739   1.127  17.207 -0.1405 -0.5303  0.0720
 7115SOL    HW132978   4.717   1.142  17.299  1.4065 -3.2357  0.8716
 7115SOL    HW232979   0.074   1.184  17.213 -0.1462 -0.5874  0.6525
 7116SOL     OW32980   2.487   0.762  10.438  0.6307 -0.4935 -0.1886
 7116SOL    HW132981   2.457   0.676  10.408 -0.3866  0.4750 -1.8802
 7116SOL    HW232982   2.403   0.796  10.468  1.2070 -0.5034  1.4462
 7117SOL     OW32983   3.419   1.820   3.715  0.3861 -0.0630  0.7877
 7117SOL    HW132984   3.454   1.874   3.786  1.6383 -0.7672  0.7087
 7117SOL    HW232985   3.341   1.868   3.686 -1.3466 -2.5592  1.3253
 7118SOL     OW32986   3.717   0.980   3.557  0.3206 -0.2440  0.1959
 7118SOL    HW132987   3.741   1.028   3.478 -1.4637 -2.9809 -1.9926
 7118SOL    HW232988   3.623   0.970   3.542  0.4747  0.7124 -1.3567
 7119SOL     OW32989   2.732   1.311  12.190 -0.7329  0.2187  0.4135
 7119SOL    HW132990   2.674   1.358  12.130 -1.0277  1.3598  1.6003
 7119SOL    HW232991   2.780   1.264  12.121  1.4259  0.5914  1.6954
 7120SOL     OW32992   2.097   3.048  14.978  0.2351  0.1428 -0.2549
 7120SOL    HW132993   2.161   3.010  15.038 -0.9871 -2.6001 -0.6566
 7120SOL    HW232994   2.138   3.131  14.955  0.7620 -0.2215 -0.6326
 7121SOL     OW32995   4.303   3.445   8.058  0.7956 -0.0518 -0.6410
 7121SOL    HW132996   4.270   3.514   8.116  2.3284 -0.5613  0.8391
 7121SOL    HW232997   4.353   3.496   7.994 -0.6497  0.1750 -1.5909
 7122SOL     OW32998   2.603   4.294   9.084 -0.0447  0.2552 -0.2934
 7122SOL    HW132999   2.590   4.318   9.175  0.5039 -2.0530  0.4064
 7122SOL    HW233000   2.563   4.371   9.044  1.2253  1.2389  0.3424
 7123SOL     OW33001   3.710   3.698   1.561 -0.7930 -0.5492  0.3415
 7123SOL    HW133002   3.763   3.620   1.548  2.5546  1.8133 -0.0733
 7123SOL    HW233003   3.753   3.728   1.641  2.1379  1.3231 -1.9303
 7124SOL     OW33004   4.597   2.446   2.521 -0.0934 -0.2423  0.1377
 7124SOL    HW133005   4.639   2.366   2.553  1.3752 -0.6701 -2.8787
 7124SOL    HW233006   4.626   2.442   2.430 -3.5864  0.0434 -0.9670
 7125SOL     OW33007   2.302   2.102   4.725 -0.2139 -0.7049 -0.5733
 7125SOL    HW133008   2.330   2.147   4.646  0.9643 -0.8100 -0.2184
 7125SOL    HW233009   2.377   2.124   4.780 -0.3738 -0.2762 -0.5321
 7126SOL     OW33010   2.712   0.252   6.699 -0.0579  0.1915 -0.4474
 7126SOL    HW133011   2.660   0.214   6.628  0.9836  1.3016 -1.8081
 7126SOL    HW233012   2.750   0.319   6.643  1.0929 -0.8673 -0.9375
 7127SOL     OW33013   4.017   0.894   9.134 -0.0052 -0.2120 -0.5757
 7127SOL    HW133014   4.031   0.975   9.183 -0.3857  0.2340 -1.1981
 7127SOL    HW233015   4.009   0.916   9.041  0.0219 -0.8054 -0.7170
 7128SOL     OW33016   3.993   1.841   7.840 -0.2023  0.5163  0.0181
 7128SOL    HW133017   3.935   1.865   7.768  0.5342  0.6159 -0.5442
 7128SOL    HW233018   3.984   1.915   7.901  0.5408  0.1387  0.5775
 7129SOL     OW33019   2.372   0.342   9.534  0.2477  0.1772 -0.1313
 7129SOL    HW133020   2.311   0.401   9.579  0.3390 -2.0035  2.8962
 7129SOL    HW233021   2.410   0.287   9.602  0.1086  0.5009  0.2120
 7130SOL     OW33022   1.040   3.292   7.748 -0.4124 -0.4079  0.3982
 7130SOL    HW133023   1.125   3.296   7.704  0.3689  1.9119  2.0619
 7130SOL    HW233024   1.029   3.197   7.752  1.1538 -0.6842 -2.0713
 7131SOL     OW33025   0.590   1.980   3.537  0.5911 -1.0309 -0.0993
 7131SOL    HW133026   0.554   1.898   3.571  1.7533 -1.1179  0.9251
 7131SOL    HW233027   0.510   2.029   3.517  1.1627 -0.2098 -0.3655
 7132SOL     OW33028   1.632   0.714   6.915  0.5209 -0.3277 -0.0180
 7132SOL    HW133029   1.656   0.625   6.942  0.0268 -0.2325  0.7504
 7132SOL    HW233030   1.644   0.701   6.821 -2.0500 -0.6376 -0.2917
 7133SOL     OW33031   3.796   2.854   4.745 -0.3668  0.0811  0.2648
 7133SOL    HW133032   3.817   2.942   4.715  0.3389 -0.5069 -0.9506
 7133SOL    HW233033   3.803   2.864   4.840  1.1146 -2.7381  0.4503
 7134SOL     OW33034   2.320   1.845   8.299 -0.5410  0.5233 -0.5136
 7134SOL    HW133035   2.228   1.874   8.297 -0.3417  1.2062  0.1710
 7134SOL    HW233036   2.322   1.787   8.223  1.0543  0.5855 -0.5105
 7135SOL     OW33037   4.020   3.014   4.444 -0.3839 -0.6158 -0.1564
 7135SOL    HW133038   3.994   2.922   4.436  0.5903 -0.6306 -3.1630
 7135SOL    HW233039   3.986   3.048   4.362 -0.9121  0.5132  0.5212
 7136SOL     OW33040   3.823   4.465   6.467  0.1595 -0.3111  0.2755
 7136SOL    HW133041   3.898   4.406   6.459 -0.0992 -0.7140  0.8617
 7136SOL    HW233042   3.786   4.468   6.555 -0.7599 -1.7493 -0.0683
 7137SOL     OW33043   4.034   0.214   0.852  0.4648  0.5553  0.5540
 7137SOL    HW133044   4.100   0.177   0.910  0.2453  0.9493  1.0563
 7137SOL    HW233045   3.980   0.136   0.842  1.4974  0.2598 -2.6851
 7138SOL     OW33046   1.834   3.769  11.016 -0.0100  0.3618 -0.2592
 7138SOL    HW133047   1.896   3.769  10.943 -0.0874  1.5997 -0.3351
 7138SOL    HW233048   1.757   3.732  10.974  0.3022 -1.4635  0.7939
 7139SOL     OW33049   0.780   3.586   1.934  1.2879  0.1478  0.4226
 7139SOL    HW133050   0.829   3.509   1.906  1.0476 -0.0514  0.5457
 7139SOL    HW233051   0.760   3.559   2.024  2.7916  0.8784  0.9854
 7140SOL     OW33052   4.719   0.600   7.433 -0.3114  0.0893  0.2559
 7140SOL    HW133053   4.676   0.666   7.487  0.7488  2.0077 -1.2427
 7140SOL    HW233054   4.648   0.544   7.401 -0.8596  0.9359 -0.0080
 7141SOL     OW33055   2.607   0.667   8.162 -0.4048  0.6402 -0.2086
 7141SOL    HW133056   2.579   0.648   8.251 -0.3721 -1.7476 -0.7073
 7141SOL    HW233057   2.519   0.654   8.126 -1.1241 -0.4089  1.9547
 7142SOL     OW33058   0.518   2.025  16.081 -0.3713 -0.1570 -0.0532
 7142SOL    HW133059   0.452   2.093  16.089  1.3613  1.1340  3.3717
 7142SOL    HW233060   0.488   1.949  16.132 -0.2463  1.4800  2.4335
 7143SOL     OW33061   4.088   3.198   1.987 -0.4550  0.2362  0.0796
 7143SOL    HW133062   4.098   3.105   1.967  2.4195  1.1035 -2.4108
 7143SOL    HW233063   4.175   3.231   1.965  0.1897 -0.6010  1.3533
 7144SOL     OW33064   0.705   3.498  16.568 -0.1068 -0.5152 -0.0019
 7144SOL    HW133065   0.703   3.408  16.601 -0.8513 -0.9763 -1.3079
 7144SOL    HW233066   0.634   3.497  16.504  0.0141 -2.3086 -0.1118
 7145SOL     OW33067   2.954   3.848   5.662  0.2858  0.0985  0.3367
 7145SOL    HW133068   3.045   3.837   5.688  0.1687 -1.0371  0.2863
 7145SOL    HW233069   2.911   3.878   5.742 -1.2034 -1.3167  0.0585
 7146SOL     OW33070   0.993   0.286   4.917  0.2008 -0.8556  0.2165
 7146SOL    HW133071   0.940   0.247   4.986  1.0684 -0.3400  1.1639
 7146SOL    HW233072   1.037   0.206   4.886 -0.8738 -0.9087 -1.1897
 7147SOL     OW33073   1.179   1.386   3.893 -0.5299 -0.0481  0.3895
 7147SOL    HW133074   1.263   1.379   3.847  0.6722  0.1671  2.5622
 7147SOL    HW233075   1.198   1.376   3.986  0.3928  0.8389  0.2973
 7148SOL     OW33076   2.307   0.072   4.138 -0.6781 -0.0382 -0.3739
 7148SOL    HW133077   2.245   0.116   4.080  0.9543  1.4333 -1.0201
 7148SOL    HW233078   2.336   0.152   4.183 -2.8680  2.0132 -2.5917
 7149SOL     OW33079   2.562   2.760   3.389  0.0544 -0.5255  0.1837
 7149SOL    HW133080   2.602   2.717   3.313  0.9651 -1.5836  1.2597
 7149SOL    HW233081   2.604   2.724   3.468  0.7067  2.4092  1.1540
 7150SOL     OW33082   2.797   3.930   4.030  0.1957 -0.1305  0.0142
 7150SOL    HW133083   2.824   3.922   4.122  1.5339  1.1846 -0.2610
 7150SOL    HW233084   2.737   4.005   4.038  0.4639 -0.0143  0.9959
 7151SOL     OW33085   0.131   4.417   7.474 -0.4938  0.2939 -0.6121
 7151SOL    HW133086   0.183   4.353   7.425 -0.4073 -0.6438  0.7193
 7151SOL    HW233087   0.041   4.387   7.467 -0.0935 -0.4423 -2.7620
 7152SOL     OW33088   2.091   1.774   2.483  0.6786 -0.8655 -0.6028
 7152SOL    HW133089   2.013   1.828   2.496  1.7411  0.4680  0.2654
 7152SOL    HW233090   2.142   1.798   2.560 -1.4953  0.4458  0.4254
 7153SOL     OW33091   3.050   1.579  16.256  0.6458 -0.0429  0.4726
 7153SOL    HW133092   3.086   1.553  16.341 -0.5074 -3.8221 -0.1909
 7153SOL    HW233093   3.122   1.629  16.217  0.1800  1.9889  2.2330
 7154SOL     OW33094   1.054   0.337  13.132 -0.1563 -0.0602  0.3464
 7154SOL    HW133095   0.972   0.304  13.095  0.2937  1.8601 -2.3319
 7154SOL    HW233096   1.111   0.317  13.058 -0.0817 -0.6662  0.5606
 7155SOL     OW33097   3.992   0.431   3.232  0.0966 -0.2644 -0.0846
 7155SOL    HW133098   3.957   0.513   3.267 -0.5016 -0.7073  0.3609
 7155SOL    HW233099   3.918   0.374   3.254 -0.0189 -0.5877 -1.3495
 7156SOL     OW33100   2.165   3.034  13.104  0.2563 -0.2711 -0.2923
 7156SOL    HW133101   2.117   3.059  13.025 -0.6569 -1.4850 -0.1322
 7156SOL    HW233102   2.162   3.115  13.154 -1.4803  0.9795 -2.4769
 7157SOL     OW33103   2.216   4.425   4.684 -0.8206 -0.2637  0.7505
 7157SOL    HW133104   2.287   4.430   4.620 -0.2102 -0.6991  1.3983
 7157SOL    HW233105   2.178   4.342   4.657 -1.2163  0.1943 -0.0900
 7158SOL     OW33106   1.024   3.787   6.490  0.0641  0.4213  0.0812
 7158SOL    HW133107   0.945   3.748   6.453  0.7003 -1.8117  1.0919
 7158SOL    HW233108   1.007   3.880   6.506  0.1467  0.8785 -2.4727
 7159SOL     OW33109   4.268   0.562   8.326 -0.4440  0.2991  0.2033
 7159SOL    HW133110   4.205   0.615   8.277 -1.1364 -0.5668  0.1403
 7159SOL    HW233111   4.354   0.585   8.293 -0.6880  1.9784  0.7525
 7160SOL     OW33112   1.661   3.521  12.941  0.1921  0.9023  0.0477
 7160SOL    HW133113   1.698   3.558  13.021 -0.9709 -0.4092  1.2110
 7160SOL    HW233114   1.584   3.477  12.979  0.1466  1.3126  0.4314
 7161SOL     OW33115   0.968   1.656  10.644  0.0386  1.1059 -0.2088
 7161SOL    HW133116   0.935   1.664  10.733 -0.6881 -0.9909 -0.3078
 7161SOL    HW233117   1.060   1.681  10.650  0.3946 -0.5347  1.1021
 7162SOL     OW33118   0.583   2.771   6.020 -0.2578 -0.7669  0.2358
 7162SOL    HW133119   0.513   2.806   6.075 -0.9772 -0.0738 -1.1142
 7162SOL    HW233120   0.651   2.748   6.083 -1.6418 -0.7436  1.7093
 7163SOL     OW33121   2.518   4.439   8.355 -0.4500 -0.0904  0.4703
 7163SOL    HW133122   2.455   4.385   8.403 -0.3748  0.6581  1.4127
 7163SOL    HW233123   2.481   4.526   8.370 -0.0382  0.3731 -1.2536
 7164SOL     OW33124   2.340   0.773   3.344  0.1163  0.6166  0.0981
 7164SOL    HW133125   2.319   0.836   3.275  0.8744  1.7884  0.9384
 7164SOL    HW233126   2.263   0.788   3.399  1.0256  2.0310  0.9731
 7165SOL     OW33127   2.820   2.396   7.732  0.6690 -0.5767 -1.2188
 7165SOL    HW133128   2.855   2.400   7.643 -1.1790  0.4431 -1.9069
 7165SOL    HW233129   2.726   2.394   7.713  0.1547 -1.6434  1.4344
 7166SOL     OW33130   0.200   4.540   7.703  0.0193 -0.1230 -0.2810
 7166SOL    HW133131   0.169   4.631   7.701  0.3067 -0.0532 -2.0405
 7166SOL    HW233132   0.173   4.497   7.621  0.4430  1.2180 -1.1299
 7167SOL     OW33133   1.904   3.737   8.919 -0.4751 -0.0987 -0.7557
 7167SOL    HW133134   1.914   3.761   8.827  0.8689 -0.6535 -0.7650
 7167SOL    HW233135   1.964   3.664   8.936 -0.6545  0.4240  1.9892
 7168SOL     OW33136   3.165   2.061  10.912 -0.0616 -0.3918 -0.1569
 7168SOL    HW133137   3.237   2.092  10.967  0.9301  0.3693 -1.8770
 7168SOL    HW233138   3.132   2.145  10.877 -0.3639  0.4121  2.0522
 7169SOL     OW33139   2.378   3.085   8.060 -0.1331 -0.0400 -0.0925
 7169SOL    HW133140   2.296   3.037   8.068  0.8455 -1.6003  0.4335
 7169SOL    HW233141   2.431   3.054   8.133 -1.8005  0.1980  1.2176
 7170SOL     OW33142   2.118   2.888  14.726 -0.1459  0.2853 -0.1852
 7170SOL    HW133143   2.142   2.805  14.767  1.7406  0.5615 -0.7271
 7170SOL    HW233144   2.075   2.927  14.802  0.3962  0.0301  0.2535
 7171SOL     OW33145   3.653   1.188  14.234 -0.3654 -0.4910  0.0099
 7171SOL    HW133146   3.596   1.148  14.300 -0.9865 -0.2892 -0.4046
 7171SOL    HW233147   3.595   1.247  14.186 -0.3836 -1.5362 -1.2775
 7172SOL     OW33148   0.841   1.029   2.239 -0.2267  0.4742 -0.1816
 7172SOL    HW133149   0.747   1.012   2.230 -0.3215  0.5358  0.7245
 7172SOL    HW233150   0.873   1.035   2.149 -2.4222 -1.9817 -1.1197
 7173SOL     OW33151   1.774   0.574   8.387  0.1186  0.3123 -0.1939
 7173SOL    HW133152   1.828   0.650   8.366  0.5412 -0.0107 -0.2868
 7173SOL    HW233153   1.830   0.510   8.342  1.9569  2.4593 -1.0152
 7174SOL     OW33154   1.107   3.692   9.288  0.3426 -0.0364  0.0215
 7174SOL    HW133155   1.156   3.657   9.362 -1.2635  0.0173  1.0919
 7174SOL    HW233156   1.083   3.606   9.252 -3.7627  1.2815 -0.4003
 7175SOL     OW33157   3.176   2.975   4.968 -0.2892  0.3966 -0.4759
 7175SOL    HW133158   3.129   3.030   4.906 -2.0151 -0.9022 -0.3559
 7175SOL    HW233159   3.197   2.898   4.914  1.9830  2.1305 -2.0172
 7176SOL     OW33160   0.978   1.084   2.474  0.1276  0.4992 -0.2060
 7176SOL    HW133161   0.900   1.084   2.530  0.5125 -2.1526  0.3362
 7176SOL    HW233162   0.937   1.074   2.388 -1.5380  0.6344  0.5785
 7177SOL     OW33163   1.889   2.086  16.680 -0.0693  0.2730  0.2747
 7177SOL    HW133164   1.883   1.994  16.707  2.8510  0.0567  0.1314
 7177SOL    HW233165   1.981   2.099  16.699 -0.0657  0.4880  0.1031
 7178SOL     OW33166   4.413   1.842   3.016 -0.0982 -0.0142 -0.1515
 7178SOL    HW133167   4.370   1.885   3.090 -1.0547  1.3455 -1.5222
 7178SOL    HW233168   4.335   1.801   2.979 -0.6967  0.4783  0.5593
 7179SOL     OW33169   0.027   2.286   4.987  0.0254  0.5065  0.2385
 7179SOL    HW133170   0.027   2.329   4.901  1.0253  1.6197  0.8065
 7179SOL    HW233171   0.041   2.360   5.046 -3.6366  0.4921  1.1066
 7180SOL     OW33172   0.335   0.553  12.154 -0.7172 -0.2404 -0.1506
 7180SOL    HW133173   0.343   0.603  12.235 -1.4440  1.0830 -0.9035
 7180SOL    HW233174   0.239   0.546  12.148 -0.6588  0.2285 -1.7635
 7181SOL     OW33175   2.931   1.831  11.658 -0.1243 -0.0471  0.2786
 7181SOL    HW133176   2.992   1.863  11.724 -0.2538 -0.9089  0.8236
 7181SOL    HW233177   2.880   1.768  11.710  0.7118 -1.5419 -0.7144
 7182SOL     OW33178   1.356   0.319   7.347  0.2121 -0.1799 -0.2435
 7182SOL    HW133179   1.372   0.340   7.439  1.2745 -3.0291  0.2422
 7182SOL    HW233180   1.364   0.404   7.306 -2.4463 -0.7484 -1.9048
 7183SOL     OW33181   1.777   0.000   5.589  0.2780 -0.0408 -0.2592
 7183SOL    HW133182   1.750   4.655   5.558  0.0167 -0.5041  1.2572
 7183SOL    HW233183   1.698   0.053   5.581  0.9526  0.9354 -0.5730
 7184SOL     OW33184   4.161   1.060   7.638  0.1978  0.1340  0.1196
 7184SOL    HW133185   4.112   1.096   7.565 -1.0534  0.7107  1.2291
 7184SOL    HW233186   4.083   1.036   7.689 -1.3330 -0.2820 -2.4550
 7185SOL     OW33187   1.892   0.739  13.734 -0.0551  0.1009  0.5613
 7185SOL    HW133188   1.970   0.694  13.700  1.4564  1.8577  1.6791
 7185SOL    HW233189   1.832   0.665  13.729  2.4842 -2.0207  0.9636
 7186SOL     OW33190   4.102   1.377  17.661 -0.0174 -0.1380 -0.2072
 7186SOL    HW133191   4.071   1.382  17.571  0.1819 -1.3827 -0.3409
 7186SOL    HW233192   4.064   1.295  17.693 -1.0296  1.2150  2.1056
 7187SOL     OW33193   4.110   0.217   7.624 -0.0545 -0.5393  0.2574
 7187SOL    HW133194   4.181   0.168   7.581  0.6650 -0.0495  0.8777
 7187SOL    HW233195   4.083   0.173   7.705  2.9667 -2.9742 -0.0247
 7188SOL     OW33196   0.136   4.053   5.689 -0.4189 -0.0373 -0.4274
 7188SOL    HW133197   0.088   4.122   5.645  0.1245 -1.5493 -3.4047
 7188SOL    HW233198   0.085   4.034   5.767  0.3794  0.4482  0.2154
 7189SOL     OW33199   2.835   3.455   5.731  0.0790  0.4971 -0.0911
 7189SOL    HW133200   2.921   3.431   5.768 -0.0788 -0.9422 -0.6525
 7189SOL    HW233201   2.828   3.378   5.675 -0.6612  0.1684  0.4511
 7190SOL     OW33202   4.125   1.961   9.818 -0.2660  0.3940 -0.6787
 7190SOL    HW133203   4.031   1.975   9.821 -0.3021  0.4528 -1.8739
 7190SOL    HW233204   4.155   2.011   9.895 -1.7834  0.1396  0.0626
 7191SOL     OW33205   4.252   0.783   3.512 -0.4306 -0.9561  0.2381
 7191SOL    HW133206   4.310   0.739   3.449 -0.8753 -0.1994 -0.6933
 7191SOL    HW233207   4.293   0.868   3.495  0.4573 -0.5056  4.7599
 7192SOL     OW33208   4.526   0.995   4.859 -0.3944  0.0747  0.6530
 7192SOL    HW133209   4.502   0.932   4.927  1.5241 -1.5534 -0.1671
 7192SOL    HW233210   4.613   1.026   4.884  1.1351 -1.3401 -2.9130
 7193SOL     OW33211   2.304   4.721   9.603  0.0130 -0.1481  0.4519
 7193SOL    HW133212   2.284   0.038   9.530  0.1768  1.2902  1.5525
 7193SOL    HW233213   2.374   4.668   9.565  1.1023 -0.2344  2.5599
 7194SOL     OW33214   3.595   4.195   0.002 -0.1877 -0.2257 -0.1984
 7194SOL    HW133215   3.678   4.207   0.049 -0.3680 -0.4626  0.1900
 7194SOL    HW233216   3.523   4.215   0.062 -0.1640 -0.2404 -0.1644
 7195SOL     OW33217   2.729   0.523  16.345  0.2800  0.0719 -0.1961
 7195SOL    HW133218   2.766   0.464  16.280  1.5027  0.4635  0.1346
 7195SOL    HW233219   2.727   0.470  16.425  0.3512 -1.3400 -1.1285
 7196SOL     OW33220   3.974   0.473  14.537 -0.2765  0.1996  0.0591
 7196SOL    HW133221   4.052   0.424  14.564 -1.5775  0.0750  3.5125
 7196SOL    HW233222   3.959   0.428  14.454  1.0576  1.1230 -0.6888
 7197SOL     OW33223   1.057   1.889   3.029  0.0816 -0.6728  0.5717
 7197SOL    HW133224   1.000   1.963   3.051  2.2012  0.6673  1.6086
 7197SOL    HW233225   1.140   1.931   3.050 -0.0845 -0.9255  1.7112
 7198SOL     OW33226   2.412   2.601  14.944  0.7848  0.1713  0.1980
 7198SOL    HW133227   2.368   2.557  15.018  0.1884 -0.4681 -0.5327
 7198SOL    HW233228   2.391   2.532  14.881 -0.0931  0.9479 -0.3591
 7199SOL     OW33229   0.378   2.413   4.968 -0.0051  0.2680 -0.0418
 7199SOL    HW133230   0.473   2.405   4.959  0.0578  2.1039 -0.9438
 7199SOL    HW233231   0.354   2.367   5.048 -0.3303 -0.7296 -0.7105
 7200SOL     OW33232   2.715   3.897   9.425 -0.2113  0.5007  0.2379
 7200SOL    HW133233   2.691   3.832   9.359  1.3731  0.8558 -0.6771
 7200SOL    HW233234   2.631   3.943   9.429 -0.4579 -0.2358  3.3883
 7201SOL     OW33235   3.052   3.805   8.017 -0.0801 -0.5859  0.5877
 7201SOL    HW133236   2.978   3.803   8.078 -2.3406 -1.9264 -2.2269
 7201SOL    HW233237   3.030   3.886   7.971  0.0859 -1.0112 -0.2337
 7202SOL     OW33238   2.491   2.620   5.509  0.3754  0.7556  0.4489
 7202SOL    HW133239   2.505   2.698   5.562 -0.0161 -0.3613  2.1758
 7202SOL    HW233240   2.445   2.660   5.435  0.0204  1.9344  1.3189
 7203SOL     OW33241   0.039   3.570   3.124  0.3646  0.1404  0.2049
 7203SOL    HW133242   4.685   3.563   3.136  0.3066  2.2793  0.9971
 7203SOL    HW233243   0.059   3.544   3.214  1.0680  0.0968  0.0353
 7204SOL     OW33244   0.154   4.068   3.476 -0.7193  0.5542 -0.6859
 7204SOL    HW133245   0.083   4.057   3.539 -1.1103 -0.3997 -1.3014
 7204SOL    HW233246   0.132   4.152   3.436 -1.5371  1.8140  2.3609
 7205SOL     OW33247   0.974   4.586   8.194  0.0817  0.2414  0.4772
 7205SOL    HW133248   0.954   4.558   8.284 -0.9741 -1.8490 -0.4104
 7205SOL    HW233249   0.982   4.504   8.146  1.9817  1.3852 -1.1541
 7206SOL     OW33250   2.673   0.171   4.713 -0.4818  0.3368 -0.2657
 7206SOL    HW133251   2.622   0.221   4.777  0.1921  0.8834 -0.1604
 7206SOL    HW233252   2.652   0.078   4.728  2.0771  0.2586  2.7355
 7207SOL     OW33253   2.220   1.033   1.319  0.0690 -0.3217  0.5863
 7207SOL    HW133254   2.287   1.101   1.309  0.8845 -1.2305 -0.2817
 7207SOL    HW233255   2.247   0.981   1.395  3.7264  0.4506 -0.1536
 7208SOL     OW33256   2.990   3.991   7.409  0.2650 -0.5161 -0.1318
 7208SOL    HW133257   2.993   4.056   7.479 -0.0885  0.7129 -1.2388
 7208SOL    HW233258   3.011   4.041   7.330 -0.8818 -0.2399 -0.2687
 7209SOL     OW33259   1.244   2.063   0.741  0.2645  0.2219 -0.6176
 7209SOL    HW133260   1.171   2.113   0.776  1.0586  1.4765 -0.7472
 7209SOL    HW233261   1.228   2.063   0.647 -1.0440  1.7891 -0.3811
 7210SOL     OW33262   1.800   0.613   0.446 -0.2227  0.3736  0.1397
 7210SOL    HW133263   1.892   0.586   0.452 -0.6092 -0.5305  2.2459
 7210SOL    HW233264   1.792   0.675   0.519 -2.6626  2.1061 -1.6189
 7211SOL     OW33265   3.305   4.199  10.375  0.0037  0.1718 -0.0515
 7211SOL    HW133266   3.313   4.116  10.329  1.0987  1.3927 -2.0707
 7211SOL    HW233267   3.215   4.219  10.349 -0.1568  0.3373  0.6139
 7212SOL     OW33268   2.660   1.998   5.244  0.1312  0.9194 -0.4455
 7212SOL    HW133269   2.686   2.004   5.336  1.1855 -0.2420 -0.6659
 7212SOL    HW233270   2.678   1.906   5.225 -0.4993  0.7592 -0.2818
 7213SOL     OW33271   2.528   1.652   4.900  0.4943 -0.5685 -0.1370
 7213SOL    HW133272   2.525   1.592   4.975 -0.4494 -2.1016 -1.4099
 7213SOL    HW233273   2.602   1.618   4.850  1.3117  1.1236 -0.0924
 7214SOL     OW33274   2.756   0.189   3.209  0.6671  0.4628 -0.5129
 7214SOL    HW133275   2.766   0.237   3.292  2.0772  0.9020 -0.9424
 7214SOL    HW233276   2.679   0.232   3.170  0.9490  1.5461  0.1151
 7215SOL     OW33277   3.892   3.497   4.704  0.2484  0.2179  0.5339
 7215SOL    HW133278   3.937   3.440   4.641 -0.9953  0.6698 -0.7636
 7215SOL    HW233279   3.878   3.427   4.768  0.9568 -2.2860 -2.0291
 7216SOL     OW33280   2.501   3.190   4.505 -0.1015 -0.6825  0.5768
 7216SOL    HW133281   2.425   3.218   4.453  0.5422 -1.8989 -1.0317
 7216SOL    HW233282   2.453   3.118   4.545 -3.1179  0.2097 -1.3674
 7217SOL     OW33283   0.025   3.192   3.393  0.5406  0.3615  0.6992
 7217SOL    HW133284   0.116   3.189   3.364 -0.0344  2.0357 -1.2996
 7217SOL    HW233285   0.038   3.256   3.463 -0.0051  1.2636 -0.0117
 7218SOL     OW33286   1.547   2.367   0.793 -0.2647  0.0295  0.0784
 7218SOL    HW133287   1.560   2.348   0.886 -1.4082  0.1011  0.2519
 7218SOL    HW233288   1.580   2.457   0.794  0.0966 -0.0941 -0.6626
 7219SOL     OW33289   4.293   2.668   6.809  0.5526  0.1593  0.2432
 7219SOL    HW133290   4.283   2.763   6.817  0.5146  0.3341 -1.9957
 7219SOL    HW233291   4.344   2.648   6.888  2.2591 -0.6818 -1.0714
 7220SOL     OW33292   3.688   0.140   2.691 -0.4378 -0.2125  0.2403
 7220SOL    HW133293   3.743   0.104   2.622  1.0604  1.0678  0.7705
 7220SOL    HW233294   3.740   0.120   2.769 -0.0468  2.1418  0.5709
 7221SOL     OW33295   2.152   4.076   6.314  0.4008 -0.4145 -0.1760
 7221SOL    HW133296   2.162   4.165   6.349 -1.4385 -0.9207  1.5638
 7221SOL    HW233297   2.235   4.034   6.336  0.3007 -0.2404  0.5138
 7222SOL     OW33298   2.720   4.239   4.925  0.5255 -0.0172  0.3649
 7222SOL    HW133299   2.727   4.181   5.001 -1.2475 -0.6903  0.0224
 7222SOL    HW233300   2.626   4.252   4.914 -0.1644 -2.9891  2.7546
 7223SOL     OW33301   2.271   4.353   2.295  0.1185  0.0129  0.7175
 7223SOL    HW133302   2.300   4.333   2.206 -0.3238  1.0606  0.3515
 7223SOL    HW233303   2.351   4.393   2.329 -0.6387  1.4312  0.8281
 7224SOL     OW33304   0.868   0.017  14.882 -0.6123 -0.6249  0.1486
 7224SOL    HW133305   0.894   4.719  14.799  1.7830 -1.1151  1.1269
 7224SOL    HW233306   0.949   4.735  14.928  0.7100  0.7187 -1.4936
 7225SOL     OW33307   2.311   0.063   0.625 -0.7586  0.4262 -0.0723
 7225SOL    HW133308   2.387   0.107   0.588  1.2285 -0.9331  2.4482
 7225SOL    HW233309   2.344   4.716   0.645  1.5804  0.7951 -2.3159
 7226SOL     OW33310   2.080   1.789   5.233  0.2732 -0.2390  0.1122
 7226SOL    HW133311   2.045   1.731   5.165  0.7577  1.9564 -2.0286
 7226SOL    HW233312   2.066   1.736   5.311  0.4629 -1.7504 -0.8649
 7227SOL     OW33313   1.070   0.678   4.563 -0.2552 -0.7143 -0.6198
 7227SOL    HW133314   1.049   0.625   4.487 -0.6454 -2.5096  0.7326
 7227SOL    HW233315   1.034   0.632   4.639 -0.7165  0.0302 -0.3837
 7228SOL     OW33316   1.009   3.998  14.991 -0.4336  0.2910 -0.2064
 7228SOL    HW133317   0.977   3.909  15.007  0.3946 -0.2030 -1.2724
 7228SOL    HW233318   0.946   4.042  15.048  0.4242  0.1870  0.8245
 7229SOL     OW33319   3.022   2.282   5.087 -0.0346  0.1510 -0.1478
 7229SOL    HW133320   2.999   2.264   5.178 -0.2119 -1.3500 -0.4808
 7229SOL    HW233321   3.049   2.195   5.056 -0.6216  0.3066 -1.1142
 7230SOL     OW33322   3.304   4.468   9.809  0.2251  0.2694  0.6689
 7230SOL    HW133323   3.254   4.415   9.871  2.0201 -4.0693 -1.5866
 7230SOL    HW233324   3.378   4.477   9.870  0.9292 -0.5728 -0.0412
 7231SOL     OW33325   1.812   2.724   5.425 -1.0453  0.1779  0.3030
 7231SOL    HW133326   1.761   2.769   5.357  0.0136  2.3480  0.9564
 7231SOL    HW233327   1.896   2.724   5.380  0.4634  1.3443  3.1517
 7232SOL     OW33328   1.016   3.469   1.438  0.3041 -0.1210  0.6047
 7232SOL    HW133329   1.108   3.466   1.463  0.3625 -1.9267  0.1429
 7232SOL    HW233330   0.995   3.550   1.486  0.2477 -1.8126  3.4733
 7233SOL     OW33331   4.676   1.197   7.105  0.6840 -0.1439  0.0710
 7233SOL    HW133332   4.639   1.273   7.062  1.5535  2.0734  3.2551
 7233SOL    HW233333   4.598   1.156   7.143  0.0096  0.2937 -0.8300
 7234SOL     OW33334   1.980   0.042   5.037  0.5093 -0.3891  0.5419
 7234SOL    HW133335   2.038   0.015   4.966  0.9480 -1.4412  1.2977
 7234SOL    HW233336   1.937   4.713   5.085 -1.7232  0.2476 -0.5095
 7235SOL     OW33337   2.078   1.835   5.846  0.1489  0.5828 -0.2680
 7235SOL    HW133338   2.032   1.803   5.924  0.1070  1.8269  0.2259
 7235SOL    HW233339   2.060   1.930   5.849 -1.8210  0.1765  1.0933
 7236SOL     OW33340   1.675   2.917   9.903  0.2198 -0.0159  0.2966
 7236SOL    HW133341   1.701   2.883   9.818 -1.3815 -0.0814 -0.1551
 7236SOL    HW233342   1.590   2.957   9.886  0.9026  1.3035 -0.0412
 7237SOL     OW33343   2.111   2.806   4.093 -0.3134 -0.0012 -0.4547
 7237SOL    HW133344   2.181   2.798   4.029 -0.7765 -0.4251 -0.9166
 7237SOL    HW233345   2.070   2.888   4.067  0.3028  0.2213 -0.7208
 7238SOL     OW33346   1.495   2.165   4.394 -0.0298 -0.4389  0.0890
 7238SOL    HW133347   1.541   2.182   4.312 -1.3933 -0.8624 -0.7592
 7238SOL    HW233348   1.438   2.242   4.401  1.2635  0.5447 -0.2849
 7239SOL     OW33349   0.209   4.153  14.703  0.5241 -0.2257 -0.2823
 7239SOL    HW133350   0.215   4.085  14.769  1.2188 -0.5298 -0.6515
 7239SOL    HW233351   0.292   4.201  14.708 -0.4813  1.3844  0.8814
 7240SOL     OW33352   2.373   2.753   1.346 -0.0777 -0.1484  0.3161
 7240SOL    HW133353   2.456   2.718   1.314  0.1841  1.6226 -0.9262
 7240SOL    HW233354   2.376   2.719   1.436  1.8685  0.5998  0.5320
 7241SOL     OW33355   3.906   1.294  12.656  0.4960  0.2221 -0.3777
 7241SOL    HW133356   3.947   1.335  12.580  0.7235 -0.6498 -0.7349
 7241SOL    HW233357   3.976   1.241  12.694 -0.4801 -1.2473 -0.6133
 7242SOL     OW33358   1.291   4.165  13.139  0.6400 -0.4170 -0.3553
 7242SOL    HW133359   1.237   4.214  13.200 -0.9261 -0.6275 -1.5706
 7242SOL    HW233360   1.366   4.152  13.196  0.7702 -0.6107 -0.5677
 7243SOL     OW33361   3.109   1.946  17.461 -0.1740  0.7150  0.0166
 7243SOL    HW133362   3.078   1.934  17.550 -1.2942 -0.5253 -0.5457
 7243SOL    HW233363   3.189   1.999  17.470 -0.6257  1.1516  1.4076
 7244SOL     OW33364   0.973   0.851   4.951  0.0345 -0.6429 -0.1631
 7244SOL    HW133365   0.982   0.942   4.921  1.0360 -0.0570  1.9027
 7244SOL    HW233366   0.908   0.818   4.888 -1.6131  2.8256 -0.3135
 7245SOL     OW33367   2.506   3.983   5.465 -0.5621 -0.4409 -0.2794
 7245SOL    HW133368   2.598   4.008   5.470 -0.6365  0.0674 -1.5707
 7245SOL    HW233369   2.517   3.889   5.483  1.2399 -0.2421 -0.4037
 7246SOL     OW33370   3.640   4.363   9.087 -0.0001 -0.0306 -0.0172
 7246SOL    HW133371   3.672   4.344   9.175 -0.7497 -0.3466  0.1842
 7246SOL    HW233372   3.652   4.276   9.048 -0.6779  0.5554 -1.5447
 7247SOL     OW33373   1.796   2.234   3.722  0.1128 -0.3600  0.3220
 7247SOL    HW133374   1.812   2.202   3.811 -0.9483 -0.9994  0.2848
 7247SOL    HW233375   1.776   2.149   3.682  2.0746 -0.9886  0.6294
 7248SOL     OW33376   3.371   0.927   2.233  0.1074  0.0494  0.1257
 7248SOL    HW133377   3.288   0.890   2.263  1.8607 -2.2641  2.0367
 7248SOL    HW233378   3.408   0.941   2.320 -0.2545 -1.0956  0.4636
 7249SOL     OW33379   0.039   3.355  15.327  0.2418 -0.0040 -0.1722
 7249SOL    HW133380   4.709   3.291  15.337  0.5855  0.0178  2.3774
 7249SOL    HW233381   0.071   3.320  15.244  0.6039  1.1942 -0.5331
 7250SOL     OW33382   0.623   2.746  13.322 -0.1662  0.2085 -0.4976
 7250SOL    HW133383   0.617   2.735  13.416  1.1543 -0.2938 -0.4817
 7250SOL    HW233384   0.553   2.682  13.305 -2.7937  2.3428  2.1545
 7251SOL     OW33385   2.361   2.509   5.949 -0.2987 -0.3649 -0.0197
 7251SOL    HW133386   2.303   2.557   5.891  0.7684  0.8632 -0.0647
 7251SOL    HW233387   2.293   2.501   6.016  0.5399 -1.8738  0.6457
 7252SOL     OW33388   2.916   2.239  10.980  0.2057  0.0836 -0.2085
 7252SOL    HW133389   2.940   2.193  11.060 -0.3145  1.6130  0.8431
 7252SOL    HW233390   2.932   2.331  11.002 -2.0335  0.4634 -0.2335
 7253SOL     OW33391   3.444   3.632  13.678  0.0818  0.0367  0.2066
 7253SOL    HW133392   3.500   3.678  13.615  1.1983  0.5963  1.5891
 7253SOL    HW233393   3.509   3.594  13.737 -0.3036  1.3452  1.4535
 7254SOL     OW33394   0.655   3.380   7.641  0.2704  0.0943  0.0161
 7254SOL    HW133395   0.726   3.439   7.665 -0.4416  1.6329 -1.6981
 7254SOL    HW233396   0.601   3.453   7.613  0.9764  1.5398  2.4400
 7255SOL     OW33397   2.212   3.329   8.598  0.1460 -0.0992 -0.0350
 7255SOL    HW133398   2.305   3.346   8.615  0.4745 -2.8886  1.0028
 7255SOL    HW233399   2.213   3.325   8.503  0.5715 -0.1159 -0.0303
 7256SOL     OW33400   1.204   1.717  10.810 -0.4034 -0.3819  0.1258
 7256SOL    HW133401   1.192   1.649  10.877 -0.8158 -1.3059 -0.8801
 7256SOL    HW233402   1.300   1.720  10.806 -0.3790 -1.0582  0.1004
 7257SOL     OW33403   0.392   3.645   5.432  0.0991 -0.0268  0.2451
 7257SOL    HW133404   0.367   3.691   5.512 -0.9544  0.2649 -0.2463
 7257SOL    HW233405   0.391   3.557   5.469  1.7807  0.9757  2.6277
 7258SOL     OW33406   2.933   0.904   0.002 -0.5246  0.0894 -0.3922
 7258SOL    HW133407   2.927   0.811  17.742  0.0627 -0.2083  0.7428
 7258SOL    HW233408   2.882   0.940  17.691 -0.1176 -2.1331 -1.7817
 7259SOL     OW33409   1.375   1.407   2.194  0.6509 -0.5269 -0.2824
 7259SOL    HW133410   1.334   1.402   2.108  3.5202 -0.4230 -1.6232
 7259SOL    HW233411   1.293   1.408   2.245 -0.5974 -3.2992 -2.1879
 7260SOL     OW33412   1.976   0.753   5.603  0.3383  0.1450  0.0687
 7260SOL    HW133413   1.976   0.719   5.693 -0.8857  0.6462  0.2561
 7260SOL    HW233414   2.061   0.724   5.571  0.9400  1.6885  0.2447
 7261SOL     OW33415   0.349   0.346  14.225  0.1951 -0.1576  0.1398
 7261SOL    HW133416   0.389   0.425  14.262  1.0769  0.9239 -3.1154
 7261SOL    HW233417   0.433   0.300  14.223  0.1748 -0.1317 -1.1200
 7262SOL     OW33418   3.477   1.140  16.339  0.0932  0.0146  0.5153
 7262SOL    HW133419   3.554   1.192  16.317 -0.6514  0.3062 -1.4055
 7262SOL    HW233420   3.456   1.085  16.264  1.5329 -0.7627  0.6790
 7263SOL     OW33421   3.005   2.281   5.639  0.5336  0.7962 -0.6276
 7263SOL    HW133422   3.076   2.229   5.677  1.2770  3.0542  1.1006
 7263SOL    HW233423   2.934   2.229   5.677  1.1339 -1.5167 -2.6553
 7264SOL     OW33424   1.032   2.494   8.370 -0.4621  0.1100 -0.4620
 7264SOL    HW133425   0.946   2.511   8.407  1.7126  1.5264  3.9136
 7264SOL    HW233426   1.080   2.570   8.404  2.7305 -2.0433 -0.2095
 7265SOL     OW33427   1.954   3.774   4.295 -0.3093  0.7045 -0.0501
 7265SOL    HW133428   1.953   3.706   4.228 -2.2541  0.0317  0.6495
 7265SOL    HW233429   2.042   3.809   4.287 -0.8222  2.5594  2.2577
 7266SOL     OW33430   3.279   3.696   2.315  0.0440  0.5551 -0.0876
 7266SOL    HW133431   3.319   3.723   2.232  0.2529 -1.7230 -0.7402
 7266SOL    HW233432   3.185   3.693   2.297  0.0254  1.1737 -0.1057
 7267SOL     OW33433   0.255   0.490   5.597 -0.4281  0.4754 -0.7009
 7267SOL    HW133434   0.194   0.544   5.545 -2.0714 -0.5641  0.1609
 7267SOL    HW233435   0.279   0.555   5.663 -2.3251  0.3556  0.1194
 7268SOL     OW33436   2.181   2.111   9.514 -0.1624  0.2320 -0.5046
 7268SOL    HW133437   2.260   2.148   9.553 -1.5082  3.2584 -0.5768
 7268SOL    HW233438   2.146   2.056   9.583  1.1685 -0.1377 -0.1321
 7269SOL     OW33439   3.972   4.153   2.505  0.0602  0.1172  0.1723
 7269SOL    HW133440   3.979   4.105   2.422 -1.9433  1.0849 -0.5716
 7269SOL    HW233441   4.005   4.239   2.479 -0.5398  0.5329  0.7724
 7270SOL     OW33442   0.722   1.220  12.685 -0.1485  0.1704  0.5475
 7270SOL    HW133443   0.638   1.265  12.696 -0.1100  0.0523  1.2846
 7270SOL    HW233444   0.787   1.283  12.717 -0.3282  1.3558 -1.3668
 7271SOL     OW33445   0.814   1.709   5.549 -0.9832 -0.3785 -0.3789
 7271SOL    HW133446   0.804   1.796   5.588  0.9226 -1.0328  1.5877
 7271SOL    HW233447   0.909   1.697   5.537 -0.7111  1.7968 -0.3787
 7272SOL     OW33448   2.773   3.496   1.848 -0.1994  0.2455  0.4431
 7272SOL    HW133449   2.724   3.421   1.813  2.8336 -1.7209  0.4126
 7272SOL    HW233450   2.835   3.454   1.908  0.5551 -0.8660 -1.1180
 7273SOL     OW33451   4.098   1.259   1.934  0.0969  0.5332 -0.4909
 7273SOL    HW133452   4.046   1.238   2.012 -0.1857 -1.6009 -1.2729
 7273SOL    HW233453   4.143   1.176   1.922  1.0815  1.2634 -1.8085
 7274SOL     OW33454   0.381   1.929   1.294  0.5721  0.0872  0.2263
 7274SOL    HW133455   0.416   1.841   1.310 -0.6515 -0.1589  1.5737
 7274SOL    HW233456   0.364   1.968   1.380  0.8004  1.4480 -0.3447
 7275SOL     OW33457   2.509   0.570   5.449  0.3528  0.3574  0.5530
 7275SOL    HW133458   2.488   0.661   5.425  1.5192  0.1828 -1.0705
 7275SOL    HW233459   2.590   0.576   5.499  1.4061  0.0328 -1.1410
 7276SOL     OW33460   1.738   2.385   2.565  0.5083 -0.4778  0.2635
 7276SOL    HW133461   1.782   2.306   2.532  0.2540 -0.9210  0.9922
 7276SOL    HW233462   1.652   2.346   2.580 -0.5121  2.0161  0.7574
 7277SOL     OW33463   2.364   3.038   0.531  0.1474 -0.2510  0.0701
 7277SOL    HW133464   2.387   2.951   0.562  2.3313  0.3144  0.0482
 7277SOL    HW233465   2.317   3.075   0.606 -2.8135 -1.8214 -1.0188
 7278SOL     OW33466   4.002   0.597   1.320 -0.3821 -0.4677 -0.6690
 7278SOL    HW133467   4.018   0.622   1.229 -0.4298  0.3415 -0.4596
 7278SOL    HW233468   3.917   0.552   1.321 -0.5289 -0.1870 -0.4005
 7279SOL     OW33469   3.666   3.801  16.872  0.1732  0.3163 -0.3896
 7279SOL    HW133470   3.632   3.765  16.954 -0.7514  1.1230 -0.4242
 7279SOL    HW233471   3.673   3.717  16.827 -0.2297  0.5634 -0.9102
 7280SOL     OW33472   2.438   2.751   4.787 -0.3818 -0.1096 -0.1399
 7280SOL    HW133473   2.463   2.705   4.867 -1.0614  0.6386  0.4941
 7280SOL    HW233474   2.348   2.720   4.784 -0.5645  0.2469  1.6452
 7281SOL     OW33475   2.690   0.819   2.063 -0.1404 -0.4355 -0.4780
 7281SOL    HW133476   2.765   0.761   2.048  0.5105  0.2116  0.2757
 7281SOL    HW233477   2.617   0.758   2.073 -0.8733  0.6979  1.1228
 7282SOL     OW33478   4.375   3.445  15.473  0.2551  0.2243 -0.7294
 7282SOL    HW133479   4.458   3.420  15.513  0.2764  0.2099 -0.7825
 7282SOL    HW233480   4.389   3.426  15.380 -0.0130 -0.1929 -0.6844
 7283SOL     OW33481   3.614   1.815   1.809 -0.2918 -0.2471 -0.0005
 7283SOL    HW133482   3.704   1.841   1.792  0.2969 -1.7650  0.7732
 7283SOL    HW233483   3.610   1.867   1.889  4.2493 -1.4687  0.9733
 7284SOL     OW33484   2.786   3.228   5.488 -0.1579  0.0425  0.0440
 7284SOL    HW133485   2.794   3.214   5.393 -0.1748 -1.1973  0.2312
 7284SOL    HW233486   2.841   3.153   5.511  1.0185  0.9613  0.2275
 7285SOL     OW33487   4.307   1.062   6.980  0.1011 -0.3158  0.6483
 7285SOL    HW133488   4.217   1.057   6.950  0.0124  0.1476  0.8422
 7285SOL    HW233489   4.301   1.028   7.070 -0.5267 -0.2709  0.6171
 7286SOL     OW33490   1.612   4.044   5.373 -0.7108  0.0394 -0.3324
 7286SOL    HW133491   1.538   4.078   5.424 -0.0970 -0.1352  0.6862
 7286SOL    HW233492   1.568   3.983   5.314 -0.3707  1.0153 -1.5951
 7287SOL     OW33493   3.608   3.852   0.265  0.5364  0.3982  0.3313
 7287SOL    HW133494   3.586   3.759   0.261  3.0917 -0.1652 -0.5760
 7287SOL    HW233495   3.628   3.874   0.174  0.1986  0.6594  0.3220
 7288SOL     OW33496   0.022   4.531   8.885  0.5124 -0.4421 -0.2597
 7288SOL    HW133497   4.726   4.447   8.914  1.9554 -0.8307  0.4640
 7288SOL    HW233498   0.109   4.524   8.925  0.3396 -1.3343 -0.0336
 7289SOL     OW33499   3.038   2.999   7.289 -0.0319  0.1378 -0.1381
 7289SOL    HW133500   3.120   3.021   7.334  0.8072 -3.5209  0.0699
 7289SOL    HW233501   3.008   3.087   7.264  0.9900  0.5340  0.0001
 7290SOL     OW33502   1.420   3.283   2.696 -0.3665 -0.5538 -0.0350
 7290SOL    HW133503   1.327   3.305   2.700 -0.7077 -2.1422  1.0715
 7290SOL    HW233504   1.469   3.358   2.728 -2.3784  0.5939  0.3502
 7291SOL     OW33505   2.872   2.481   4.588  0.4257 -0.1550 -0.0111
 7291SOL    HW133506   2.849   2.519   4.504 -2.2360  0.0321  0.8174
 7291SOL    HW233507   2.841   2.541   4.656 -1.0814  0.7289 -1.4842
 7292SOL     OW33508   0.687   2.991   5.818  0.6142 -0.3094  0.3301
 7292SOL    HW133509   0.710   2.946   5.899  1.8747  0.1679  0.2226
 7292SOL    HW233510   0.629   2.924   5.780 -1.3429  0.8300  1.2762
 7293SOL     OW33511   1.482   1.886   4.422  0.0821  0.0335 -0.2307
 7293SOL    HW133512   1.447   1.910   4.508  0.6061  2.8094 -0.8119
 7293SOL    HW233513   1.508   1.974   4.395 -0.0714 -0.3637 -1.6675
 7294SOL     OW33514   4.586   0.446  12.294  0.2480 -0.0158  0.6500
 7294SOL    HW133515   4.554   0.510  12.358  0.9923 -1.1925  2.1955
 7294SOL    HW233516   4.508   0.429  12.241 -1.4410  2.0399  2.4709
 7295SOL     OW33517   0.973   1.389   4.678  0.2237 -0.1968 -1.0423
 7295SOL    HW133518   0.953   1.304   4.640 -2.8571 -0.1674  0.4983
 7295SOL    HW233519   0.937   1.365   4.764  1.9737 -0.2136 -0.3220
 7296SOL     OW33520   0.318   1.391  16.385 -0.0797  0.2494  0.2279
 7296SOL    HW133521   0.253   1.367  16.319 -0.6328 -1.3884  1.3605
 7296SOL    HW233522   0.334   1.484  16.372 -2.2653  0.2083 -2.6585
 7297SOL     OW33523   3.870   1.140   6.596  0.7245  0.1957  0.0114
 7297SOL    HW133524   3.840   1.228   6.617  1.5410  0.1435  1.4715
 7297SOL    HW233525   3.930   1.169   6.527  3.4917 -0.3503  2.2014
 7298SOL     OW33526   1.016   3.602   7.014 -0.0551  0.1477  0.1269
 7298SOL    HW133527   1.035   3.675   6.955  4.6469 -0.1322  1.3282
 7298SOL    HW233528   0.933   3.563   6.986 -0.1194  1.1227 -1.0180
 7299SOL     OW33529   3.063   3.359  12.171 -0.2360 -0.6323 -0.0402
 7299SOL    HW133530   3.025   3.386  12.255 -0.0527 -0.9558  0.1486
 7299SOL    HW233531   3.051   3.433  12.112 -0.2979 -1.5247 -1.1531
 7300SOL     OW33532   4.594   3.838   7.262  0.0002 -0.4218  0.4604
 7300SOL    HW133533   4.662   3.881   7.210 -0.7104 -0.3233 -0.3817
 7300SOL    HW233534   4.641   3.826   7.344 -2.0304 -2.4243  1.3213
 7301SOL     OW33535   1.136   1.052   5.152 -0.2148 -0.2894  0.0908
 7301SOL    HW133536   1.082   0.980   5.187  1.4146 -0.5982  1.9872
 7301SOL    HW233537   1.164   1.020   5.066 -2.3218 -1.4949 -0.1462
 7302SOL     OW33538   1.389   4.396   3.023 -0.3403  0.2869 -0.2107
 7302SOL    HW133539   1.426   4.478   3.057  0.9860 -0.0937 -0.7291
 7302SOL    HW233540   1.339   4.377   3.102  0.5248 -3.4564 -0.5689
 7303SOL     OW33541   2.182   1.954   4.210  0.0670  0.5487  0.1026
 7303SOL    HW133542   2.155   2.040   4.242  1.5737  1.5876 -1.4279
 7303SOL    HW233543   2.196   1.905   4.291 -0.1743 -0.7121 -0.6028
 7304SOL     OW33544   0.366   3.733   4.144 -0.1949 -0.7309 -0.6929
 7304SOL    HW133545   0.447   3.723   4.094 -0.8727 -3.7629 -1.1675
 7304SOL    HW233546   0.402   3.727   4.232  0.6002  0.8904 -0.9047
 7305SOL     OW33547   3.001   4.633   7.682  0.2655  0.4041  0.0565
 7305SOL    HW133548   3.090   4.615   7.652  0.6059 -0.5125  1.6366
 7305SOL    HW233549   3.026   4.660   7.770  0.7515  0.9868 -0.2603
 7306SOL     OW33550   4.703   1.351   2.689  0.4854  0.5822  0.7565
 7306SOL    HW133551   0.054   1.356   2.664  0.3039 -0.7687 -0.1791
 7306SOL    HW233552   4.656   1.401   2.622 -1.3775 -0.3653  1.3420
 7307SOL     OW33553   2.441   2.210  10.139  0.4848 -0.1081  0.6484
 7307SOL    HW133554   2.370   2.272  10.155  2.0425  1.5003  1.2155
 7307SOL    HW233555   2.509   2.272  10.113  0.0596 -0.3380 -1.0515
 7308SOL     OW33556   2.516   3.158   7.818  0.6150  0.3533  0.3349
 7308SOL    HW133557   2.473   3.136   7.901  1.5703  1.6765  1.1829
 7308SOL    HW233558   2.532   3.251   7.831  0.9717  0.0672  1.9816
 7309SOL     OW33559   3.088   3.266   0.768  0.0434  0.0722 -0.2037
 7309SOL    HW133560   3.053   3.291   0.682 -1.6206 -1.7326 -0.0487
 7309SOL    HW233561   3.026   3.307   0.828  0.3906 -0.2400  0.3677
 7310SOL     OW33562   0.858   2.507  13.934  0.1640 -0.0174 -0.0716
 7310SOL    HW133563   0.880   2.414  13.930 -0.7297 -0.2222 -0.3191
 7310SOL    HW233564   0.764   2.490  13.933  0.3565 -1.1342  1.0365
 7311SOL     OW33565   2.467   1.695   2.399  0.2674 -0.1737  0.0375
 7311SOL    HW133566   2.390   1.738   2.362 -0.7507 -0.9796  1.2414
 7311SOL    HW233567   2.479   1.639   2.322  0.4787 -2.4086  1.7215
 7312SOL     OW33568   0.162   0.694   7.235  0.0365 -0.0584  0.6179
 7312SOL    HW133569   0.093   0.685   7.301  0.0740 -2.3567  0.3430
 7312SOL    HW233570   0.200   0.777   7.261 -0.9042  0.1828  1.2197
 7313SOL     OW33571   2.702   0.416   2.954  0.5165 -0.6151 -0.3757
 7313SOL    HW133572   2.711   0.401   2.860  0.5596  1.8322 -0.7684
 7313SOL    HW233573   2.628   0.362   2.981 -0.2284  0.5817  0.0084
 7314SOL     OW33574   3.698   4.240   4.524 -0.2949 -0.3695 -0.0113
 7314SOL    HW133575   3.739   4.316   4.482  0.0791  0.4784  1.8920
 7314SOL    HW233576   3.764   4.174   4.547  1.8997  0.6026 -3.5404
 7315SOL     OW33577   1.304   0.871  16.407 -0.2164 -0.1354 -0.1798
 7315SOL    HW133578   1.394   0.901  16.404 -0.3817  0.4017  0.1316
 7315SOL    HW233579   1.299   0.778  16.431  0.9560  0.3578  1.9628
 7316SOL     OW33580   2.703   0.308   8.643 -0.4923 -0.1318 -0.2541
 7316SOL    HW133581   2.636   0.373   8.664  0.1236  0.0650  1.1427
 7316SOL    HW233582   2.697   0.299   8.548  2.1291  0.9754 -0.5441
 7317SOL     OW33583   3.804   0.329   1.516 -0.0912  0.2168 -0.3402
 7317SOL    HW133584   3.816   0.370   1.430  1.2698 -0.6402 -0.5519
 7317SOL    HW233585   3.772   0.405   1.566  2.5927  1.8822 -1.1396
 7318SOL     OW33586   0.350   0.862   7.600  0.0438  0.2610  0.0732
 7318SOL    HW133587   0.445   0.867   7.590  0.1549 -0.2813  0.8269
 7318SOL    HW233588   0.337   0.778   7.556  2.7715 -1.1889  2.0658
 7319SOL     OW33589   2.641   1.268   4.524 -0.7999 -0.5943  0.3482
 7319SOL    HW133590   2.644   1.229   4.437  1.6849 -0.9456  0.5812
 7319SOL    HW233591   2.579   1.333   4.491 -1.1344 -0.3734  1.4134
 7320SOL     OW33592   3.404   0.909   5.404 -0.8881 -0.4288  0.2693
 7320SOL    HW133593   3.407   0.815   5.421 -0.9858 -0.4574  0.1218
 7320SOL    HW233594   3.350   0.942   5.475 -0.8247 -1.9075  0.9983
 7321SOL     OW33595   1.175   2.523   2.381 -0.4622 -0.5222 -0.1843
 7321SOL    HW133596   1.271   2.526   2.387 -0.2733 -0.9219 -3.3855
 7321SOL    HW233597   1.140   2.590   2.440  4.2307  1.8551 -0.1073
 7322SOL     OW33598   4.646   0.684   1.479 -0.2484  0.0419 -0.4499
 7322SOL    HW133599   4.655   0.600   1.525 -1.9257  0.3848  0.5166
 7322SOL    HW233600   4.632   0.654   1.389  0.6442  2.1755 -1.2774
 7323SOL     OW33601   4.412   1.846  14.941  0.7450  0.3849 -0.1392
 7323SOL    HW133602   4.457   1.917  14.895 -3.2954  1.4992 -2.3971
 7323SOL    HW233603   4.318   1.860  14.927  0.1739 -2.5212  0.8616
 7324SOL     OW33604   1.507   0.303   4.482 -0.2226 -0.3736 -0.3233
 7324SOL    HW133605   1.468   0.386   4.511  0.6707 -0.0122 -0.1390
 7324SOL    HW233606   1.550   0.274   4.563 -0.8969  1.5115  0.7267
 7325SOL     OW33607   3.535   0.160  16.579 -0.2576 -0.3349 -0.6251
 7325SOL    HW133608   3.453   0.132  16.538 -1.9697  0.4145  2.2772
 7325SOL    HW233609   3.586   0.080  16.590  0.9807  0.3372 -1.5080
 7326SOL     OW33610   3.175   0.181   0.470 -0.2317 -0.2485 -0.5960
 7326SOL    HW133611   3.190   0.087   0.458 -0.3877 -0.5526  1.4563
 7326SOL    HW233612   3.240   0.207   0.536  0.5026  0.4724 -1.6221
 7327SOL     OW33613   2.505   2.631   3.703  0.0198  0.2683  0.9889
 7327SOL    HW133614   2.421   2.672   3.684  0.0896 -1.6067 -3.3261
 7327SOL    HW233615   2.477   2.540   3.699 -1.4944  0.6516  2.8641
 7328SOL     OW33616   0.373   3.809  14.498 -0.1127  0.3284  0.1953
 7328SOL    HW133617   0.311   3.830  14.428 -0.7491  1.3933  1.0848
 7328SOL    HW233618   0.326   3.731  14.529  2.6068 -1.6620 -0.6464
 7329SOL     OW33619   3.222   3.857   6.315  0.1551 -0.5046  0.4432
 7329SOL    HW133620   3.167   3.906   6.377 -1.5679 -1.2181 -0.5264
 7329SOL    HW233621   3.268   3.930   6.273 -2.8620  0.6367 -0.8546
 7330SOL     OW33622   0.530   4.134   5.640  0.7026  0.2275 -0.1889
 7330SOL    HW133623   0.550   4.227   5.650  1.2477  0.1706 -0.7571
 7330SOL    HW233624   0.496   4.142   5.550 -1.8425  0.0113  0.7535
 7331SOL     OW33625   0.166   0.194  13.114 -0.1469  0.5401 -0.4541
 7331SOL    HW133626   0.122   0.167  13.194  0.6537 -1.2654 -0.6191
 7331SOL    HW233627   0.225   0.120  13.098 -1.3474 -0.4878 -0.1444
 7332SOL     OW33628   2.414   4.684   2.222  0.4551  0.3386 -0.1578
 7332SOL    HW133629   2.380   4.723   2.142 -0.9836  0.5409  0.5656
 7332SOL    HW233630   2.472   4.618   2.183 -0.1177 -1.3050  1.8119
 7333SOL     OW33631   2.199   4.317   7.051  0.3850  0.2481  0.3621
 7333SOL    HW133632   2.135   4.355   6.990 -0.0533 -2.8981 -1.1424
 7333SOL    HW233633   2.272   4.379   7.049 -0.8245  1.5853 -3.1968
 7334SOL     OW33634   0.221   0.746   1.316  0.6263  0.4116 -0.2253
 7334SOL    HW133635   0.198   0.666   1.364 -0.8030  0.5716 -0.6213
 7334SOL    HW233636   0.294   0.719   1.261  1.7444 -0.9770  1.9718
 7335SOL     OW33637   2.643   3.259  17.568 -0.7444  0.0435  0.2612
 7335SOL    HW133638   2.679   3.232  17.653  1.3243 -2.2207 -1.3449
 7335SOL    HW233639   2.650   3.177  17.519 -0.5729 -0.1241  0.5623
 7336SOL     OW33640   0.479   2.484  14.641 -0.4394 -0.4594  0.1379
 7336SOL    HW133641   0.496   2.488  14.547 -0.7153  1.0142  0.1435
 7336SOL    HW233642   0.428   2.405  14.656  2.0007 -2.0965 -0.1296
 7337SOL     OW33643   2.198   0.693  12.006  0.1177 -0.0996  0.0661
 7337SOL    HW133644   2.273   0.644  11.972  1.1251  1.9661 -0.7485
 7337SOL    HW233645   2.127   0.644  11.966 -1.1788  1.7868  0.0479
 7338SOL     OW33646   2.065   0.750   7.430 -0.0757 -0.0869 -0.1217
 7338SOL    HW133647   2.051   0.734   7.523 -3.1839 -2.1614 -0.9637
 7338SOL    HW233648   1.997   0.815   7.414  0.2899  0.0911 -0.9810
 7339SOL     OW33649   1.218   2.059   2.701 -0.9454 -0.5450  0.7165
 7339SOL    HW133650   1.136   2.013   2.719 -0.7510 -2.1326 -2.5341
 7339SOL    HW233651   1.184   2.149   2.700 -0.5457 -0.4292 -1.5398
 7340SOL     OW33652   3.697   3.498   7.094 -0.6039  0.0226 -1.0215
 7340SOL    HW133653   3.788   3.473   7.113  0.2725  2.2140 -2.2538
 7340SOL    HW233654   3.683   3.471   7.003  0.1776  2.5807 -1.9352
 7341SOL     OW33655   3.051   4.161  10.261 -0.5115  0.0926 -0.1150
 7341SOL    HW133656   3.007   4.234  10.218  1.4833  0.9644 -0.6752
 7341SOL    HW233657   3.030   4.103  10.187 -1.4658  0.0272  0.2178
 7342SOL     OW33658   1.167   3.562   6.145  0.0568  0.6648 -0.2237
 7342SOL    HW133659   1.139   3.506   6.218 -0.0056  1.3628  0.2818
 7342SOL    HW233660   1.140   3.502   6.076  0.2158 -1.3311  1.4423
 7343SOL     OW33661   4.542   1.372   5.057 -0.0379  0.0784  0.7665
 7343SOL    HW133662   4.604   1.404   5.123 -1.5336  1.2334  1.6300
 7343SOL    HW233663   4.571   1.414   4.976  0.7510  0.6818  1.3575
 7344SOL     OW33664   0.068   0.902  16.668  0.1529 -0.0880  0.2763
 7344SOL    HW133665   0.084   0.883  16.575  2.2409  0.1157  0.5951
 7344SOL    HW233666   0.095   0.822  16.714 -2.9430 -2.1457 -1.4711
 7345SOL     OW33667   0.211   1.845  16.146 -0.5748 -0.1187 -0.1214
 7345SOL    HW133668   0.259   1.785  16.089  0.5921 -0.3987  1.1785
 7345SOL    HW233669   0.208   1.915  16.080 -1.4172  0.8744  0.9529
 7346SOL     OW33670   3.764   4.030   5.808 -0.4808 -0.5165  0.1932
 7346SOL    HW133671   3.759   3.954   5.749 -0.1628 -0.3849 -0.0019
 7346SOL    HW233672   3.701   4.081   5.758  1.9628  1.9991 -0.3071
 7347SOL     OW33673   4.184   1.392   3.600  0.1526  0.0214  0.3247
 7347SOL    HW133674   4.237   1.397   3.679 -0.6696 -2.4725  1.0524
 7347SOL    HW233675   4.210   1.307   3.563  1.0949  0.4651 -0.0250
 7348SOL     OW33676   1.982   2.364   5.049  0.3783  1.4450  0.4268
 7348SOL    HW133677   2.016   2.298   5.110  0.0450 -0.3598 -1.3292
 7348SOL    HW233678   2.008   2.324   4.966 -2.3624  0.1892  0.1721
 7349SOL     OW33679   0.255   0.316  11.495  0.6534  0.1570 -0.1793
 7349SOL    HW133680   0.345   0.342  11.517  0.9870 -1.8175  0.7114
 7349SOL    HW233681   0.204   0.387  11.534  2.1183  0.6988  0.7726
 7350SOL     OW33682   0.655   4.358   4.595 -0.4013  0.2544  0.0646
 7350SOL    HW133683   0.691   4.272   4.572 -0.8267  0.5548 -1.6842
 7350SOL    HW233684   0.738   4.406   4.600 -0.7472  0.7953  0.7096
 7351SOL     OW33685   0.908   4.356   8.012 -0.2316 -0.1176  0.7193
 7351SOL    HW133686   0.819   4.389   8.004 -0.1768  0.1218  1.1212
 7351SOL    HW233687   0.922   4.302   7.933 -0.7109 -0.2008  0.6891
 7352SOL     OW33688   1.327   0.757  16.847  0.3696  0.1572 -0.4977
 7352SOL    HW133689   1.298   0.693  16.783  0.4905 -1.9780  1.6051
 7352SOL    HW233690   1.392   0.799  16.790 -0.8132  0.7786 -1.3712
 7353SOL     OW33691   0.089   0.254   1.690  0.2758  0.0847 -0.2373
 7353SOL    HW133692   0.045   0.222   1.769  1.8314  0.8702  0.9592
 7353SOL    HW233693   0.177   0.218   1.705  1.0017  1.3833 -1.3388
 7354SOL     OW33694   3.776   0.111   1.166  0.6011 -0.0748  0.2012
 7354SOL    HW133695   3.692   0.089   1.125  0.0675  0.4350  1.0053
 7354SOL    HW233696   3.755   0.203   1.183 -1.1155 -0.3983 -0.0758
 7355SOL     OW33697   1.600   0.641   3.175 -0.0524  0.0215  0.1007
 7355SOL    HW133698   1.567   0.642   3.085 -1.8440  2.6288  0.7686
 7355SOL    HW233699   1.576   0.731   3.200 -1.3045 -0.4407  0.5555
 7356SOL     OW33700   1.596   0.356   0.182 -0.3083 -0.0365 -0.4844
 7356SOL    HW133701   1.529   0.338   0.249  0.4176 -1.5758 -0.1817
 7356SOL    HW233702   1.615   0.444   0.214  1.2140 -1.0265  1.3594
 7357SOL     OW33703   4.340   1.971   2.504  0.4143  0.6089 -0.6914
 7357SOL    HW133704   4.385   2.049   2.472  1.3746 -0.7147 -2.5802
 7357SOL    HW233705   4.297   1.947   2.422  2.6496 -2.1296 -1.0860
 7358SOL     OW33706   2.497   4.174   4.398 -0.4022  0.3580 -0.4789
 7358SOL    HW133707   2.420   4.187   4.453 -0.1905 -3.7221  0.7670
 7358SOL    HW233708   2.506   4.255   4.348 -0.1785  0.1005 -0.8619
 7359SOL     OW33709   4.093   2.834   6.192 -0.8307  0.3561 -0.0473
 7359SOL    HW133710   4.126   2.765   6.134  0.8941  2.1630 -1.2176
 7359SOL    HW233711   4.009   2.796   6.217 -0.9168  1.4968  1.3707
 7360SOL     OW33712   2.958   1.215  12.028  0.2536  0.0659  0.2747
 7360SOL    HW133713   3.045   1.218  11.989  0.5791  0.1701  0.9981
 7360SOL    HW233714   2.908   1.231  11.948 -0.4185 -3.1454  0.0718
 7361SOL     OW33715   3.407   3.259   9.083  0.8053  0.5399  0.1684
 7361SOL    HW133716   3.356   3.239   9.161 -1.7884  0.7839 -1.4331
 7361SOL    HW233717   3.382   3.350   9.070  0.2279  0.4188  0.4305
 7362SOL     OW33718   0.787   4.738   4.460  0.2381  0.2549  0.8389
 7362SOL    HW133719   0.813   4.666   4.404 -0.8605  0.7994 -0.3728
 7362SOL    HW233720   0.810   4.704   4.547  1.2788 -0.6954  0.1749
 7363SOL     OW33721   1.750   1.197   2.077 -0.1104 -0.1624  0.5515
 7363SOL    HW133722   1.739   1.264   2.145 -0.8033  2.0612 -1.7724
 7363SOL    HW233723   1.791   1.247   2.006  2.3688  0.0501  2.1102
 7364SOL     OW33724   2.696   1.541   1.112  0.1079 -0.0434 -0.1099
 7364SOL    HW133725   2.602   1.549   1.094  0.1020 -0.2371 -0.1695
 7364SOL    HW233726   2.676   1.542   1.205  1.5720 -1.8896  0.2363
 7365SOL     OW33727   2.103   2.340   4.526 -0.4665  0.2708  0.0644
 7365SOL    HW133728   2.197   2.336   4.543 -0.5475  0.6218  0.5679
 7365SOL    HW233729   2.108   2.295   4.442  2.0056  0.7382 -0.0266
 7366SOL     OW33730   2.468   1.640   8.954  0.2126  0.3899 -0.0902
 7366SOL    HW133731   2.525   1.682   9.018  0.2418 -0.2824  0.3206
 7366SOL    HW233732   2.529   1.625   8.882 -0.2451  3.8522 -1.1824
 7367SOL     OW33733   4.337   3.650   5.144  0.0612 -0.3129  0.2552
 7367SOL    HW133734   4.253   3.611   5.118 -0.0092  0.1684 -0.2207
 7367SOL    HW233735   4.311   3.685   5.229  0.8080 -1.5402  1.0036
 7368SOL     OW33736   0.927   3.216  17.336  0.1983  0.3384 -0.5745
 7368SOL    HW133737   0.938   3.298  17.289  0.2012  2.4561  3.1597
 7368SOL    HW233738   0.832   3.204  17.340  0.1814  1.4682  2.5272
 7369SOL     OW33739   4.371   1.550   0.175  0.6554 -0.1711  0.0008
 7369SOL    HW133740   4.385   1.536   0.268  1.7350 -0.3222 -0.1880
 7369SOL    HW233741   4.312   1.476   0.159  0.9010 -0.2958 -0.3268
 7370SOL     OW33742   2.618   4.115   3.581 -0.1540 -0.6066  0.2697
 7370SOL    HW133743   2.660   4.164   3.651  0.0628 -2.2664  1.3131
 7370SOL    HW233744   2.669   4.154   3.510  3.4501  0.4289  3.4365
 7371SOL     OW33745   2.865   1.488   8.525 -0.9669 -0.2968 -0.2201
 7371SOL    HW133746   2.802   1.431   8.569 -1.5806  1.5223  1.2441
 7371SOL    HW233747   2.839   1.569   8.569  0.5933 -1.4574  2.8461
 7372SOL     OW33748   0.945   3.087   1.748 -0.0936 -0.5867 -0.0708
 7372SOL    HW133749   0.922   3.091   1.841  1.5656  2.6898  0.1642
 7372SOL    HW233750   0.866   3.050   1.708  0.5692 -3.4102  1.2565
 7373SOL     OW33751   0.544   2.028   3.197  0.1904 -0.4325  0.3917
 7373SOL    HW133752   0.521   2.115   3.164  0.3877 -0.0045  1.3693
 7373SOL    HW233753   0.563   1.983   3.115 -1.5931  1.1373 -0.8858
 7374SOL     OW33754   2.300   1.874   4.492 -0.0599  0.1266 -0.3396
 7374SOL    HW133755   2.304   1.939   4.563 -0.3942 -0.3704  0.1341
 7374SOL    HW233756   2.344   1.804   4.540 -2.0792 -1.2322 -0.4898
 7375SOL     OW33757   3.983   0.653   2.852 -0.5003  0.3953 -0.6226
 7375SOL    HW133758   3.942   0.575   2.890  0.9058 -0.1992 -0.3306
 7375SOL    HW233759   3.980   0.644   2.757 -2.2450 -0.4888 -0.4842
 7376SOL     OW33760   0.497   1.269   3.387  0.4172 -0.0368  0.3172
 7376SOL    HW133761   0.545   1.193   3.354 -3.6805 -1.7009 -1.7516
 7376SOL    HW233762   0.570   1.330   3.377  1.0525 -0.7964  0.3188
 7377SOL     OW33763   3.301   0.461  10.729  0.2555 -0.5849  0.0772
 7377SOL    HW133764   3.215   0.423  10.713  0.9165  0.3350 -5.6786
 7377SOL    HW233765   3.353   0.384  10.706  0.7618 -0.0881 -0.4421
 7378SOL     OW33766   0.194   0.288  16.447 -0.2982  0.2424  0.9548
 7378SOL    HW133767   0.289   0.300  16.440 -0.5459  1.4703 -0.1555
 7378SOL    HW233768   0.185   0.202  16.407  1.9251  1.2244 -1.6169
 7379SOL     OW33769   0.005   3.348  15.889 -0.8828 -0.1740 -0.7432
 7379SOL    HW133770   0.057   3.334  15.968 -2.0115  0.9488  0.1934
 7379SOL    HW233771   4.670   3.292  15.898 -0.5121 -0.3848  0.9807
 7380SOL     OW33772   1.039   1.605   8.135 -0.4650 -0.4399 -0.1958
 7380SOL    HW133773   1.019   1.697   8.117  0.3491 -0.1347  0.4448
 7380SOL    HW233774   1.113   1.580   8.080 -1.4869 -1.8929 -0.9112
 7381SOL     OW33775   3.347   2.589   2.766  0.1725  0.0878 -0.2087
 7381SOL    HW133776   3.347   2.502   2.725  0.6368  0.0560 -0.1457
 7381SOL    HW233777   3.440   2.593   2.788 -0.2655  1.2121  1.4256
 7382SOL     OW33778   4.294   0.168   5.625  0.1247 -0.4439 -0.9163
 7382SOL    HW133779   4.386   0.191   5.616  1.3127 -4.1759  1.5391
 7382SOL    HW233780   4.251   0.251   5.604  0.8368  0.2099  0.2051
 7383SOL     OW33781   0.041   4.675   6.674 -0.2761  0.6747  0.4662
 7383SOL    HW133782   4.709   4.723   6.636 -1.5850 -0.0366  2.0833
 7383SOL    HW233783   0.113   4.696   6.615 -0.9113  0.1126 -0.4908
 7384SOL     OW33784   0.114   2.531   4.228 -0.3329 -0.2156  0.5318
 7384SOL    HW133785   0.061   2.492   4.158  0.6366 -1.1132  0.3116
 7384SOL    HW233786   0.048   2.589   4.266 -2.4218 -0.5216 -2.5330
 7385SOL     OW33787   2.618   1.661   5.584  0.3029 -0.7099 -0.5852
 7385SOL    HW133788   2.527   1.661   5.554  0.6307 -3.6350 -1.5223
 7385SOL    HW233789   2.594   1.667   5.677  2.9488 -0.8969  0.1114
 7386SOL     OW33790   1.800   2.704   0.124  0.5683  0.3090 -0.1532
 7386SOL    HW133791   1.775   2.737   0.210 -0.1884 -0.7478  0.0232
 7386SOL    HW233792   1.885   2.749   0.122  1.5670 -1.5972 -1.2105
 7387SOL     OW33793   0.939   3.297   5.289  0.7275  0.4430 -0.7956
 7387SOL    HW133794   1.015   3.316   5.233  0.7296  0.0630 -0.9219
 7387SOL    HW233795   0.877   3.247   5.236 -0.5448 -0.5252  1.6067
 7388SOL     OW33796   1.368   4.322  17.571 -0.1601 -0.0958 -0.2145
 7388SOL    HW133797   1.442   4.272  17.538 -1.6908 -0.7280 -2.6819
 7388SOL    HW233798   1.390   4.321  17.664 -1.4130  0.5164  0.0843
 7389SOL     OW33799   3.912   3.932  13.312 -0.1307 -0.5935 -0.6482
 7389SOL    HW133800   3.982   3.926  13.377 -0.5151  3.4188  0.1521
 7389SOL    HW233801   3.843   3.937  13.378  0.0989 -1.8291 -0.3255
 7390SOL     OW33802   3.008   4.298   7.810  0.3891 -0.2539  0.0309
 7390SOL    HW133803   2.924   4.332   7.777  0.5982 -0.5120 -0.7608
 7390SOL    HW233804   3.061   4.279   7.733  0.6135  0.2120  0.0707
 7391SOL     OW33805   0.907   4.033   5.089  0.4744  0.6157 -0.0259
 7391SOL    HW133806   0.979   3.975   5.114 -1.2897 -1.4433  0.2720
 7391SOL    HW233807   0.832   3.979   5.115 -0.7893  4.0306  3.2601
 7392SOL     OW33808   2.506   4.505   4.904 -0.2700 -0.1364  0.1422
 7392SOL    HW133809   2.453   4.431   4.934  1.1232  0.0575  3.0980
 7392SOL    HW233810   2.443   4.569   4.870 -2.9245 -0.6295  4.1802
 7393SOL     OW33811   1.495   0.484   4.954 -0.1430  0.1799 -0.1692
 7393SOL    HW133812   1.449   0.467   5.036  0.6747  3.2702  0.9207
 7393SOL    HW233813   1.421   0.506   4.898 -0.1337  0.9934  0.1366
 7394SOL     OW33814   0.472   3.303   4.520 -0.4801  0.5169 -0.0850
 7394SOL    HW133815   0.534   3.358   4.569 -0.5988 -0.4378  1.1390
 7394SOL    HW233816   0.438   3.363   4.453 -0.6036  0.3815 -0.1433
 7395SOL     OW33817   4.057   0.831   6.300 -1.0140  0.3735 -0.2767
 7395SOL    HW133818   4.066   0.738   6.320 -0.1058  0.6148  0.4273
 7395SOL    HW233819   4.133   0.849   6.244 -0.5581 -1.0685 -0.1274
 7396SOL     OW33820   4.145   3.630   5.392  0.1598  0.4329  0.3835
 7396SOL    HW133821   4.157   3.536   5.408  1.4474  0.2307 -1.8117
 7396SOL    HW233822   4.064   3.627   5.342 -0.9830  0.8816  2.2158
 7397SOL     OW33823   0.470   2.388   7.666  0.1613  0.2517 -0.5151
 7397SOL    HW133824   0.563   2.403   7.647  0.4757 -2.7567 -1.4014
 7397SOL    HW233825   0.458   2.456   7.733 -2.6008 -0.3621 -0.3799
 7398SOL     OW33826   2.288   0.850  14.840 -0.7911 -0.4189 -0.2446
 7398SOL    HW133827   2.357   0.793  14.874  1.5826  1.0644 -2.5894
 7398SOL    HW233828   2.343   0.928  14.848 -0.7344 -0.3314 -1.5373
 7399SOL     OW33829   3.009   2.806   2.528 -0.1024 -0.3742 -0.2213
 7399SOL    HW133830   3.062   2.881   2.555 -0.0234 -0.3131 -0.5448
 7399SOL    HW233831   3.039   2.736   2.586  0.4565 -2.3042 -2.8108
 7400SOL     OW33832   0.820   2.169   3.585  0.0081  0.6881  0.2628
 7400SOL    HW133833   0.768   2.089   3.594  0.7412  0.2894  0.8933
 7400SOL    HW233834   0.759   2.225   3.537  0.3672  2.3171  1.7286
 7401SOL     OW33835   1.620   4.121   4.990 -0.4700  0.3037 -0.1470
 7401SOL    HW133836   1.560   4.077   5.051  0.2144  1.0416  1.0453
 7401SOL    HW233837   1.572   4.130   4.907 -0.2794 -0.9167 -0.3801
 7402SOL     OW33838   1.676   2.319   6.161  0.3492 -0.3671  0.2067
 7402SOL    HW133839   1.729   2.244   6.190  1.3724 -0.5017 -2.0251
 7402SOL    HW233840   1.667   2.359   6.247  2.7015 -1.2058  0.8307
 7403SOL     OW33841   1.218   4.571   4.323 -0.1063  0.7031 -0.0723
 7403SOL    HW133842   1.189   4.633   4.256 -1.2735  2.0597  1.6957
 7403SOL    HW233843   1.231   4.494   4.268 -3.7167 -0.3773  0.6240
 7404SOL     OW33844   4.228   1.920   1.954  0.3561  0.2006  0.2024
 7404SOL    HW133845   4.317   1.956   1.949  0.0721  0.9791  0.7676
 7404SOL    HW233846   4.247   1.832   1.920  2.9187  0.7129  0.2744
 7405SOL     OW33847   3.269   1.137   7.840 -0.3928  0.8014  0.1438
 7405SOL    HW133848   3.312   1.052   7.846 -1.9829  0.0071  0.3283
 7405SOL    HW233849   3.340   1.201   7.847  0.5990 -0.2713 -0.0204
 7406SOL     OW33850   0.256   1.077  13.037 -0.0428  0.0853 -0.1528
 7406SOL    HW133851   0.239   0.995  13.083 -0.5058  1.0059  1.3277
 7406SOL    HW233852   0.351   1.071  13.026  0.2062  1.1523  1.3067
 7407SOL     OW33853   1.617   0.156  17.077 -0.0042  0.0736 -0.1485
 7407SOL    HW133854   1.630   0.158  17.172 -0.0596  0.1090 -0.1418
 7407SOL    HW233855   1.526   0.126  17.071 -0.3666  0.7228  2.3336
 7408SOL     OW33856   1.298   0.313   2.533  0.0094 -0.1287  0.1565
 7408SOL    HW133857   1.317   0.407   2.522  1.1061 -0.4851 -0.9998
 7408SOL    HW233858   1.341   0.276   2.455  1.1730 -0.4692  0.9517
 7409SOL     OW33859   1.672   1.080  14.389 -0.0284 -0.2120  0.2009
 7409SOL    HW133860   1.760   1.062  14.422 -1.1829 -1.7766  2.4543
 7409SOL    HW233861   1.690   1.058  14.298  0.1174  3.0519 -0.5544
 7410SOL     OW33862   1.815   3.093  12.178 -0.5086 -0.2384 -0.2458
 7410SOL    HW133863   1.790   3.117  12.089  1.1844  0.5343 -0.5172
 7410SOL    HW233864   1.744   3.134  12.226 -0.1699 -1.1960  1.0716
 7411SOL     OW33865   2.502   4.598   5.873  0.1494  0.3912  0.5767
 7411SOL    HW133866   2.564   4.592   5.800  0.6870 -1.2060  1.1616
 7411SOL    HW233867   2.437   4.531   5.851  0.2184  0.2966  0.6626
 7412SOL     OW33868   3.327   1.728   8.205 -0.3646 -0.1392 -0.1986
 7412SOL    HW133869   3.306   1.806   8.256 -1.1680 -1.3019  1.2735
 7412SOL    HW233870   3.421   1.727   8.190  0.0302 -0.8433  2.3556
 7413SOL     OW33871   1.516   1.682  15.837 -0.4253 -0.3866 -0.0204
 7413SOL    HW133872   1.435   1.632  15.843  0.2791 -1.4794  0.3917
 7413SOL    HW233873   1.573   1.626  15.891  0.0782 -1.7582 -1.9913
 7414SOL     OW33874   2.973   2.803   1.300 -0.0210 -0.2735 -0.7376
 7414SOL    HW133875   3.004   2.885   1.337  0.6699 -0.7998 -0.1618
 7414SOL    HW233876   3.062   2.770   1.290  0.0423  0.9533 -4.2769
 7415SOL     OW33877   3.285   4.590  17.570 -0.1761  0.1925 -0.5255
 7415SOL    HW133878   3.349   4.541  17.622 -2.6583  0.7472  3.0353
 7415SOL    HW233879   3.293   4.567  17.477  1.7462  0.5775 -0.4679
 7416SOL     OW33880   4.168   0.478  17.169  0.5496  0.4818 -0.6481
 7416SOL    HW133881   4.078   0.510  17.168 -0.1672 -1.5151 -1.4770
 7416SOL    HW233882   4.181   0.440  17.083  2.1719  1.6674 -0.9083
 7417SOL     OW33883   1.580   1.637  13.915  0.7088  0.4063 -0.3514
 7417SOL    HW133884   1.637   1.678  13.981 -0.1660  1.0244  0.0161
 7417SOL    HW233885   1.610   1.548  13.896 -1.7752 -0.6352  0.7218
 7418SOL     OW33886   4.019   2.083   8.575  0.1818  0.5765 -0.0537
 7418SOL    HW133887   4.090   2.031   8.611 -0.7230 -1.4690 -1.2058
 7418SOL    HW233888   4.051   2.173   8.579  0.6834  0.4506 -1.3326
 7419SOL     OW33889   3.773   1.382   2.089  0.3728 -0.1800 -0.3717
 7419SOL    HW133890   3.838   1.314   2.110 -0.9429 -0.5036  2.7234
 7419SOL    HW233891   3.812   1.446   2.030  0.0649 -0.4642 -0.8833
 7420SOL     OW33892   1.732   1.760  14.123  0.2341  0.1321  0.6575
 7420SOL    HW133893   1.713   1.691  14.187 -2.1514  0.2267  0.0508
 7420SOL    HW233894   1.744   1.837  14.179 -1.3187 -0.1049  1.3034
 7421SOL     OW33895   2.928   2.352   6.814  0.2210 -0.7961 -0.3110
 7421SOL    HW133896   2.934   2.439   6.774  1.1364 -0.1533  1.2448
 7421SOL    HW233897   3.019   2.323   6.814 -0.1618 -1.9999  0.6256
 7422SOL     OW33898   1.029   3.838  16.511  0.3214 -0.2916  0.1689
 7422SOL    HW133899   1.074   3.868  16.433  1.4167 -1.2870  0.4176
 7422SOL    HW233900   0.960   3.782  16.474  0.6145  0.9987 -2.3060
 7423SOL     OW33901   2.502   3.722   5.497  0.1941  0.2069 -0.4148
 7423SOL    HW133902   2.433   3.693   5.556  1.9244 -0.1077  1.4717
 7423SOL    HW233903   2.581   3.693   5.543 -0.2592 -3.8178 -2.2156
 7424SOL     OW33904   2.894   0.543   1.043  0.2790  0.6694  0.4772
 7424SOL    HW133905   2.971   0.506   1.085  0.6800 -0.9606 -1.7147
 7424SOL    HW233906   2.917   0.538   0.951 -2.8413 -3.8062 -0.0683
 7425SOL     OW33907   3.242   2.673   2.436  0.1579  0.9680 -0.3667
 7425SOL    HW133908   3.283   2.619   2.369 -3.0708  0.4653 -1.8835
 7425SOL    HW233909   3.160   2.626   2.452  1.0078 -0.2618  0.3751
 7426SOL     OW33910   4.040   3.846   6.164 -0.2581  0.2706 -0.6772
 7426SOL    HW133911   4.075   3.897   6.237 -1.2292 -2.2570  1.5848
 7426SOL    HW233912   3.995   3.784   6.222  1.0556 -2.7921 -2.8977
 7427SOL     OW33913   2.153   0.916  12.645  0.4248  0.2587  0.4371
 7427SOL    HW133914   2.157   0.912  12.741 -0.5461 -0.1799  0.4569
 7427SOL    HW233915   2.179   1.001  12.610 -2.4690  1.0935  0.3773
 7428SOL     OW33916   3.137   3.791   0.802 -0.4925 -0.3661  0.1101
 7428SOL    HW133917   3.173   3.740   0.730  0.1024  0.4819 -0.1976
 7428SOL    HW233918   3.196   3.767   0.874 -0.0732 -1.5481 -0.6327
 7429SOL     OW33919   0.138   4.624  10.454 -0.1628 -0.6524  0.7693
 7429SOL    HW133920   0.104   4.651  10.539 -0.0060  1.4057  0.1776
 7429SOL    HW233921   0.183   4.542  10.475  0.2566 -0.8627 -0.8878
 7430SOL     OW33922   0.656   1.266  11.907 -0.6796 -0.3316 -0.7665
 7430SOL    HW133923   0.736   1.215  11.920 -0.5277  0.1718  0.2717
 7430SOL    HW233924   0.629   1.296  11.994  2.8882  0.6951 -0.0006
 7431SOL     OW33925   4.434   3.850   1.742  0.0632 -0.1135  0.0406
 7431SOL    HW133926   4.447   3.765   1.701  1.4856 -0.5019  1.2795
 7431SOL    HW233927   4.485   3.849   1.824  0.6829  0.9436 -0.3332
 7432SOL     OW33928   4.235   2.634  12.256 -0.1146 -0.4043  0.4019
 7432SOL    HW133929   4.162   2.625  12.195  0.2188 -0.0801 -0.0418
 7432SOL    HW233930   4.271   2.545  12.255 -1.4485 -0.9374  0.0861
 7433SOL     OW33931   0.738   1.551   6.605  0.2068 -0.2558  0.0742
 7433SOL    HW133932   0.824   1.546   6.648 -0.9155 -1.4966  2.2063
 7433SOL    HW233933   0.715   1.642   6.622 -2.2312 -0.8713  0.0145
 7434SOL     OW33934   1.020   0.925   1.035  0.4154  0.1140 -0.2584
 7434SOL    HW133935   1.018   1.013   1.071  0.6481  1.1293 -2.6926
 7434SOL    HW233936   0.972   0.877   1.102  1.0782  0.5496  0.5201
 7435SOL     OW33937   1.911   4.196   1.866 -0.0588 -0.0748 -0.3935
 7435SOL    HW133938   1.873   4.108   1.872 -1.3819  0.5221  0.0519
 7435SOL    HW233939   1.835   4.242   1.902  0.8547  1.0606  0.0901
 7436SOL     OW33940   1.778   1.722   9.365 -0.6838 -0.4747  0.6053
 7436SOL    HW133941   1.835   1.677   9.427 -0.9310 -1.1287  0.3577
 7436SOL    HW233942   1.702   1.664   9.354 -2.7165  2.2685  0.2659
 7437SOL     OW33943   2.501   0.055   8.162  0.1593 -0.9243  0.3016
 7437SOL    HW133944   2.447   0.134   8.172 -0.7708 -1.6586  1.1039
 7437SOL    HW233945   2.495   0.034   8.069 -1.9367  2.3189 -0.2762
 7438SOL     OW33946   4.609   3.987   9.366 -0.2536 -0.3472  0.3602
 7438SOL    HW133947   4.573   3.933   9.437  0.0266  0.0952  0.8354
 7438SOL    HW233948   4.613   3.913   9.305 -0.2545 -0.9932  1.1352
 7439SOL     OW33949   1.322   1.919   7.466  0.0919 -0.1103  0.4531
 7439SOL    HW133950   1.365   1.915   7.380 -0.0290 -1.5454  0.4568
 7439SOL    HW233951   1.233   1.887   7.455  0.8495 -2.2067  0.4363
 7440SOL     OW33952   0.655   4.178   0.032 -0.6764  0.0934 -0.0411
 7440SOL    HW133953   0.691   4.242  17.733  0.5047 -0.4586  0.0767
 7440SOL    HW233954   0.568   4.157  17.759  1.1121  0.7730 -4.9835
 7441SOL     OW33955   1.643   2.217   9.429  0.4682  0.2236 -0.0441
 7441SOL    HW133956   1.727   2.184   9.397  0.3463 -1.4711  1.3739
 7441SOL    HW233957   1.592   2.137   9.413  0.2111  0.3093  0.3682
 7442SOL     OW33958   4.671   4.007   7.771  0.3810  0.1776 -0.3055
 7442SOL    HW133959   4.617   3.988   7.694  0.0494 -0.0660 -0.0103
 7442SOL    HW233960   4.739   3.940   7.757  3.0645  2.6690  0.8113
 7443SOL     OW33961   2.785   0.704   4.561  0.1112 -0.5511  0.0613
 7443SOL    HW133962   2.796   0.747   4.476 -0.1633 -0.0717  0.2661
 7443SOL    HW233963   2.776   0.613   4.536  1.9125 -0.4007 -1.1690
 7444SOL     OW33964   2.504   3.372  13.278  0.1725 -0.8212  0.2570
 7444SOL    HW133965   2.582   3.406  13.321  1.6467 -0.4096 -2.7461
 7444SOL    HW233966   2.480   3.299  13.334 -1.0154 -1.9428 -1.6919
 7445SOL     OW33967   4.409   2.618   1.741 -0.6243 -0.3172 -0.0466
 7445SOL    HW133968   4.351   2.686   1.706 -1.7998  0.0564  2.6371
 7445SOL    HW233969   4.343   2.550   1.726 -2.3009  1.4818 -0.7685
 7446SOL     OW33970   4.500   1.312   1.829  0.4495  0.1795  0.4527
 7446SOL    HW133971   4.572   1.252   1.811 -0.6679 -0.6554 -1.3727
 7446SOL    HW233972   4.530   1.395   1.793 -1.8552  0.9089  0.1808
 7447SOL     OW33973   1.981   3.322   5.076 -0.2314 -0.4885 -0.8104
 7447SOL    HW133974   1.887   3.338   5.089 -0.1711 -0.0574 -0.9191
 7447SOL    HW233975   2.008   3.346   5.164 -0.4956 -0.1872 -0.8130
 7448SOL     OW33976   4.688   4.277   7.749 -1.0685 -0.1272  0.2808
 7448SOL    HW133977   4.656   4.188   7.764 -0.7737 -0.5474 -1.6142
 7448SOL    HW233978   4.659   4.309   7.664  3.6119  0.3734 -1.1438
 7449SOL     OW33979   1.192   0.055   5.685  0.3335 -0.2131 -0.0954
 7449SOL    HW133980   1.147   0.125   5.638 -0.6169 -0.4213  0.5132
 7449SOL    HW233981   1.155   0.061   5.773  3.0961 -1.0328  1.0972
 7450SOL     OW33982   1.663   2.161   7.936 -0.3851  0.6719 -0.4592
 7450SOL    HW133983   1.583   2.212   7.952 -0.1588  1.0080 -0.3904
 7450SOL    HW233984   1.687   2.172   7.844  2.0621  0.9472  0.2122
 7451SOL     OW33985   1.890   1.195  10.018  0.0823 -0.2314 -0.3013
 7451SOL    HW133986   1.936   1.248   9.954 -1.6167  2.1755  0.4663
 7451SOL    HW233987   1.962   1.147  10.057 -1.2407 -2.1409 -0.2007
 7452SOL     OW33988   0.387   1.633  16.278  0.6038 -0.6295 -0.3776
 7452SOL    HW133989   0.459   1.675  16.326  0.2296 -0.2757 -0.1251
 7452SOL    HW233990   0.401   1.637  16.183 -0.5357 -0.4010 -0.5358
 7453SOL     OW33991   3.938   0.110   8.530 -0.2464 -0.2492  0.0671
 7453SOL    HW133992   3.852   0.108   8.488  0.4107  1.7739 -1.3415
 7453SOL    HW233993   3.997   0.150   8.467 -0.4140 -0.4181 -0.1984
 7454SOL     OW33994   3.088   0.454   6.086  0.2465 -0.6605 -0.4293
 7454SOL    HW133995   3.009   0.400   6.091 -0.9571  1.1229 -0.2018
 7454SOL    HW233996   3.152   0.382   6.095  1.0951  0.0410 -0.8683
 7455SOL     OW33997   2.196   1.704   4.951 -0.0681  0.2164 -0.1815
 7455SOL    HW133998   2.157   1.757   4.881 -4.3816 -2.3834  0.2328
 7455SOL    HW233999   2.236   1.771   5.006 -0.4677  1.6796 -1.6659
 7456SOL     OW34000   1.523   3.899   6.765  0.2376  0.0863  0.4485
 7456SOL    HW134001   1.563   3.840   6.701 -0.4945 -0.0308  0.0897
 7456SOL    HW234002   1.541   3.844   6.841  0.4126  1.0284  1.0887
 7457SOL     OW34003   4.663   3.549   0.498  0.8090  0.3028 -0.0393
 7457SOL    HW134004   4.703   3.462   0.500  2.4933  1.0460 -1.6831
 7457SOL    HW234005   4.681   3.586   0.412  1.6151  2.6717  1.1375
 7458SOL     OW34006   2.909   2.431  16.276  0.1600 -0.0684  0.0095
 7458SOL    HW134007   2.888   2.455  16.186  0.8221 -1.8359 -0.6061
 7458SOL    HW234008   2.986   2.378  16.260  0.2456  0.0785 -0.0698
 7459SOL     OW34009   4.586   3.393   1.486  0.1066  0.0210  0.6849
 7459SOL    HW134010   4.544   3.430   1.564  0.2556  0.1176  0.7209
 7459SOL    HW234011   4.626   3.313   1.521 -0.9434 -0.0404  1.7583
 7460SOL     OW34012   3.029   0.307   2.257  0.0706  0.0164 -0.0070
 7460SOL    HW134013   3.006   0.324   2.348 -0.2520  0.1432 -0.1113
 7460SOL    HW234014   3.090   0.234   2.263 -0.9495 -0.9060 -0.6757
 7461SOL     OW34015   3.104   2.633  16.840 -0.3526 -0.2227  0.4557
 7461SOL    HW134016   3.159   2.703  16.805  1.0143 -0.9145  1.2331
 7461SOL    HW234017   3.146   2.616  16.924 -0.7990  0.5776  0.8408
 7462SOL     OW34018   3.334   0.604   9.099  0.7967 -0.1321  0.0877
 7462SOL    HW134019   3.316   0.585   9.007  0.7461  1.2644 -0.1872
 7462SOL    HW234020   3.380   0.524   9.125  1.3875 -0.0492 -0.7057
 7463SOL     OW34021   3.694   0.197   3.626 -0.3090  0.2380 -0.4102
 7463SOL    HW134022   3.679   0.124   3.685 -0.0978 -0.8720 -1.7464
 7463SOL    HW234023   3.789   0.209   3.635 -0.2563  0.3433 -1.0848
 7464SOL     OW34024   3.558   1.841  14.417  0.4180 -0.2029 -0.0322
 7464SOL    HW134025   3.465   1.832  14.396  0.2445  0.5259  0.4062
 7464SOL    HW234026   3.595   1.753  14.410  0.6227 -0.0621 -0.6816
 7465SOL     OW34027   0.708   1.719  16.555  0.4477 -0.2107 -0.3937
 7465SOL    HW134028   0.722   1.813  16.563 -1.9313 -0.0104  1.2578
 7465SOL    HW234029   0.614   1.723  16.567  0.4154 -1.5626 -0.1318
 7466SOL     OW34030   3.008   0.821   2.741 -0.1593  0.1789 -0.1841
 7466SOL    HW134031   3.041   0.732   2.752  0.7335  0.6822  1.2734
 7466SOL    HW234032   2.980   0.831   2.650 -0.0268  1.5707 -0.0728
 7467SOL     OW34033   1.632   2.652  10.021 -0.2121  0.5709  0.2547
 7467SOL    HW134034   1.633   2.741   9.987 -0.0934  0.0461 -1.1189
 7467SOL    HW234035   1.615   2.603   9.941  0.7792  0.0389  0.3705
 7468SOL     OW34036   0.368   0.915  12.593  0.5773 -0.3632  0.0134
 7468SOL    HW134037   0.395   0.969  12.668 -1.9795  0.6660  0.2034
 7468SOL    HW234038   0.385   0.830  12.635 -2.7268 -1.1294 -0.1413
 7469SOL     OW34039   3.088   2.481   5.957  0.0166  0.3588 -0.1658
 7469SOL    HW134040   3.099   2.387   5.965  0.2891  0.4426  0.4217
 7469SOL    HW234041   3.129   2.493   5.871 -1.5561 -1.8663 -1.2481
 7470SOL     OW34042   2.628   1.975   6.446  0.2642 -0.0457  0.1129
 7470SOL    HW134043   2.678   2.055   6.430 -0.5986 -0.4350 -4.5384
 7470SOL    HW234044   2.542   2.013   6.429  0.7778  1.9858  2.0673
 7471SOL     OW34045   2.541   0.093   2.882  0.3564 -0.0031 -0.2128
 7471SOL    HW134046   2.540   0.166   2.944 -0.7635 -0.6541  0.5292
 7471SOL    HW234047   2.470   0.040   2.917 -0.7298 -0.2353 -2.7431
 7472SOL     OW34048   3.219   1.273  11.945  0.3293 -0.1981  0.2408
 7472SOL    HW134049   3.233   1.242  11.856 -1.1021 -0.4005  0.0888
 7472SOL    HW234050   3.225   1.368  11.931 -2.7229  0.1283  1.1888
 7473SOL     OW34051   3.278   0.293   1.100 -0.0404 -0.3409 -0.0084
 7473SOL    HW134052   3.199   0.332   1.136  0.7180  0.6317  0.6023
 7473SOL    HW234053   3.339   0.340   1.156 -1.5269  0.1166  1.2330
 7474SOL     OW34054   1.467   1.910   2.015 -0.2159  0.1638  0.1397
 7474SOL    HW134055   1.466   1.843   2.083  0.8751  0.2321  0.2223
 7474SOL    HW234056   1.373   1.926   2.010 -0.3306 -0.9047 -1.2035
 7475SOL     OW34057   0.581   1.018   5.543  0.2903 -0.4213 -0.3211
 7475SOL    HW134058   0.496   1.025   5.500 -0.0516 -3.3235 -0.1290
 7475SOL    HW234059   0.615   0.945   5.491  0.5159  0.1865 -1.0285
 7476SOL     OW34060   4.162   3.961   2.349 -0.2234  0.3560 -0.4884
 7476SOL    HW134061   4.075   3.925   2.366  1.0905 -2.0992  1.1423
 7476SOL    HW234062   4.218   3.899   2.395 -0.0819  1.0026  0.2173
 7477SOL     OW34063   4.396   2.929   5.078  0.2928 -0.0581 -0.1102
 7477SOL    HW134064   4.339   2.937   5.155  1.4834  1.3274  0.6278
 7477SOL    HW234065   4.346   2.873   5.019 -2.1028 -0.3638  2.1750
 7478SOL     OW34066   3.564   0.608   1.878 -0.1651  1.0381  0.1270
 7478SOL    HW134067   3.581   0.516   1.861 -0.4091  1.2286 -1.1840
 7478SOL    HW234068   3.521   0.616   1.963 -0.9131  2.0725 -0.3401
 7479SOL     OW34069   4.473   2.321   2.854 -0.3451 -0.2322  0.1421
 7479SOL    HW134070   4.440   2.267   2.925 -1.3020 -0.4624 -0.4656
 7479SOL    HW234071   4.537   2.261   2.816  1.4442  0.7217  1.6845
 7480SOL     OW34072   3.224   3.249   8.120 -0.3695 -0.1844 -0.5182
 7480SOL    HW134073   3.161   3.320   8.134  0.2015  0.3682 -0.7386
 7480SOL    HW234074   3.248   3.230   8.211  2.0661  0.4450 -1.0254
 7481SOL     OW34075   0.598   2.159   4.074 -0.0716 -0.2071  0.0491
 7481SOL    HW134076   0.536   2.090   4.095  0.3660  0.3356  3.0666
 7481SOL    HW234077   0.549   2.197   4.001  0.5372 -0.9309 -0.7501
 7482SOL     OW34078   1.406   1.376  11.518  0.6338  0.1487  0.2624
 7482SOL    HW134079   1.437   1.435  11.587  2.9915 -0.1376 -0.5592
 7482SOL    HW234080   1.310   1.383  11.517  0.5682 -0.6849  1.5250
 7483SOL     OW34081   2.924   3.197   7.630  0.1605  0.0347  0.0156
 7483SOL    HW134082   2.905   3.202   7.723 -1.4148 -1.4724 -0.2243
 7483SOL    HW234083   2.924   3.101   7.623  1.0110  0.0350 -0.0340
 7484SOL     OW34084   3.393   0.347  11.643 -1.0307 -0.0418 -0.1244
 7484SOL    HW134085   3.449   0.276  11.675 -1.4041 -0.4611 -0.4085
 7484SOL    HW234086   3.392   0.400  11.723  1.4998  0.9806 -0.7693
 7485SOL     OW34087   0.254   3.328   2.434 -0.0399 -0.4775  0.4126
 7485SOL    HW134088   0.330   3.271   2.427 -0.7901 -1.5380  0.9783
 7485SOL    HW234089   0.268   3.372   2.518 -1.0854 -0.8017  0.7524
 7486SOL     OW34090   0.662   0.648   7.824 -0.1507  0.1989 -0.0312
 7486SOL    HW134091   0.624   0.604   7.748 -0.0701  0.4094 -0.1918
 7486SOL    HW234092   0.657   0.581   7.892 -1.4240  0.0297 -0.2828
 7487SOL     OW34093   3.614   4.417   9.649  0.0331 -0.3126 -0.1057
 7487SOL    HW134094   3.587   4.509   9.646  0.3716 -0.2341 -0.6524
 7487SOL    HW234095   3.684   4.423   9.584 -0.6639 -1.7335 -0.9702
 7488SOL     OW34096   1.546   2.145   8.227 -0.1564 -0.1456  0.0674
 7488SOL    HW134097   1.505   2.181   8.306  1.2279 -0.0840  0.7497
 7488SOL    HW234098   1.576   2.222   8.178 -0.3244  0.5376  1.0176
 7489SOL     OW34099   0.191   0.277   3.721  0.2253  0.0503 -0.0626
 7489SOL    HW134100   0.262   0.217   3.739 -1.8429 -2.4424 -0.1656
 7489SOL    HW234101   0.230   0.361   3.698 -1.5098  1.0954  0.7778
 7490SOL     OW34102   1.925   2.783   1.456  0.5245  0.5691 -0.2868
 7490SOL    HW134103   1.997   2.783   1.519  1.5370  0.0137 -1.4458
 7490SOL    HW234104   1.979   2.773   1.378 -0.9082 -2.7473 -0.8760
 7491SOL     OW34105   0.340   3.687  12.292 -0.0809 -0.0517  0.2629
 7491SOL    HW134106   0.352   3.782  12.290 -0.9046  0.0525  0.5111
 7491SOL    HW234107   0.432   3.661  12.295  0.5820  2.3986  0.6451
 7492SOL     OW34108   2.832   1.607  13.404  0.0612 -0.3698  0.0370
 7492SOL    HW134109   2.869   1.694  13.388  1.5555 -1.1393 -0.6307
 7492SOL    HW234110   2.910   1.561  13.435  0.1145 -0.9481 -0.9624
 7493SOL     OW34111   1.495   3.722  15.530 -0.2742  0.7832  0.1642
 7493SOL    HW134112   1.455   3.679  15.454 -0.2640 -0.1707  0.7036
 7493SOL    HW234113   1.450   3.807  15.523  0.2757  0.9476 -1.6060
 7494SOL     OW34114   1.235   2.892   1.462 -0.0109 -0.1446  0.1510
 7494SOL    HW134115   1.320   2.910   1.502 -1.6015  0.1814  3.3999
 7494SOL    HW234116   1.184   2.967   1.493  1.0173  0.3363  0.6954
 7495SOL     OW34117   2.552   3.076   9.499  0.4083 -0.0505 -0.2510
 7495SOL    HW134118   2.575   3.107   9.412 -0.4783 -0.4738 -0.6416
 7495SOL    HW234119   2.570   3.157   9.546 -0.4457 -0.9549  1.6793
 7496SOL     OW34120   3.260   2.584   9.081 -0.0906  0.2562 -0.7879
 7496SOL    HW134121   3.168   2.566   9.064  0.0205 -2.4382  1.4015
 7496SOL    HW234122   3.252   2.638   9.160  1.6094  0.0974 -0.5150
 7497SOL     OW34123   1.516   3.787   3.182 -0.3648 -0.7539 -0.4008
 7497SOL    HW134124   1.552   3.824   3.262 -1.1575 -1.9809  0.5092
 7497SOL    HW234125   1.594   3.739   3.152  1.5468  2.1720 -0.0077
 7498SOL     OW34126   2.622   4.532  13.057 -0.1652 -0.0970  0.1466
 7498SOL    HW134127   2.653   4.548  12.968  0.1346  0.0140  0.2696
 7498SOL    HW234128   2.673   4.451  13.063  0.6800  0.3475 -1.0827
 7499SOL     OW34129   3.594   0.292   3.378 -0.1081  0.0673  0.0084
 7499SOL    HW134130   3.617   0.269   3.468  0.7317  1.3440  0.1182
 7499SOL    HW234131   3.682   0.274   3.345 -0.1299  0.9359 -0.5299
 7500SOL     OW34132   2.689   2.110   4.483 -0.3309  0.8633 -0.3829
 7500SOL    HW134133   2.711   2.116   4.575  0.8500  1.2213 -0.6925
 7500SOL    HW234134   2.759   2.058   4.443 -1.1958 -1.7256  1.4669
 7501SOL     OW34135   0.946   4.324  16.577  0.1242  0.3768 -0.1796
 7501SOL    HW134136   0.977   4.358  16.661  0.4877  0.0175 -0.1686
 7501SOL    HW234137   0.869   4.380  16.568  0.3751  1.2140  2.9379
 7502SOL     OW34138   3.784   3.344  17.759  0.5046 -0.3203 -0.3454
 7502SOL    HW134139   3.806   3.363  17.668  0.4387  2.0231  0.1385
 7502SOL    HW234140   3.709   3.400   0.019  1.3948  2.0357 -3.4430
 7503SOL     OW34141   1.848   1.414   6.627 -0.2445 -0.7204 -0.1581
 7503SOL    HW134142   1.775   1.431   6.567 -0.2714 -1.4887 -0.3469
 7503SOL    HW234143   1.806   1.349   6.684 -1.2508 -1.1296 -1.3534
 7504SOL     OW34144   0.541   4.250   3.942 -0.2277 -0.2504  0.4942
 7504SOL    HW134145   0.449   4.234   3.919 -0.3649 -0.0496  0.9086
 7504SOL    HW234146   0.539   4.241   4.037  0.0728  1.4413  0.6621
 7505SOL     OW34147   4.174   0.330  13.812  0.1224  0.3426 -0.3544
 7505SOL    HW134148   4.206   0.341  13.902 -0.9212 -0.4510  0.1165
 7505SOL    HW234149   4.244   0.274  13.778 -0.2100  1.4899 -2.8944
 7506SOL     OW34150   1.736   3.854   2.342 -0.0802  0.0642  0.5651
 7506SOL    HW134151   1.665   3.796   2.315 -1.4106  0.8280  2.4347
 7506SOL    HW234152   1.681   3.912   2.394 -1.3578 -1.7785  1.2939
 7507SOL     OW34153   1.719   1.096   4.764  0.7119  0.2116  0.0630
 7507SOL    HW134154   1.674   1.011   4.762 -0.8688  1.0514  0.3388
 7507SOL    HW234155   1.717   1.116   4.857 -1.8743  0.3259 -0.0128
 7508SOL     OW34156   0.479   4.242   2.437 -0.4177 -0.2040  0.1123
 7508SOL    HW134157   0.490   4.264   2.344 -2.1628  1.0396  0.1974
 7508SOL    HW234158   0.501   4.321   2.487  1.1602 -0.5576 -0.0121
 7509SOL     OW34159   1.849   1.076   2.363  0.2846 -0.7447  0.1096
 7509SOL    HW134160   1.825   1.069   2.270  0.6465  0.5333 -0.0764
 7509SOL    HW234161   1.774   1.035   2.407  0.7232 -0.1682  1.3620
 7510SOL     OW34162   3.948   2.752  15.902  0.0181 -0.0115 -0.0477
 7510SOL    HW134163   3.950   2.790  15.990 -1.7969  0.8154 -0.3673
 7510SOL    HW234164   3.883   2.810  15.862 -2.1414 -0.2505  3.1673
 7511SOL     OW34165   2.148   4.685   7.549  0.0112  0.2046 -0.0414
 7511SOL    HW134166   2.232   4.725   7.571 -0.2866 -1.3443  3.8776
 7511SOL    HW234167   2.143   4.614   7.613 -0.6391 -1.0332 -1.4433
 7512SOL     OW34168   0.198   4.535  13.571 -0.4432 -0.4501  0.2498
 7512SOL    HW134169   0.256   4.506  13.500  0.9291  1.7077  0.4987
 7512SOL    HW234170   0.239   4.620  13.584  1.2768 -1.1150 -0.8526
 7513SOL     OW34171   3.924   2.902  11.147 -0.2672  0.4188  0.6998
 7513SOL    HW134172   3.928   2.887  11.241 -0.8907  1.3919  0.8853
 7513SOL    HW234173   3.868   2.829  11.121  1.0309  0.1926 -1.4368
 7514SOL     OW34174   1.808   3.044   9.506 -0.3563  0.4714  0.6264
 7514SOL    HW134175   1.891   3.074   9.543 -0.8688  2.0547  0.4755
 7514SOL    HW234176   1.758   3.121   9.533 -0.9530  0.0392  0.7327
 7515SOL     OW34177   4.011   0.185  10.404 -0.3755  0.6222  0.5581
 7515SOL    HW134178   4.095   0.153  10.437 -0.1377  0.4967 -0.1637
 7515SOL    HW234179   3.982   0.105  10.359  0.7129 -0.1842  1.2847
 7516SOL     OW34180   3.513   4.280   0.726 -0.3923  0.8804  0.3053
 7516SOL    HW134181   3.471   4.210   0.776  0.2424  0.5921  0.4361
 7516SOL    HW234182   3.601   4.263   0.760 -1.4701 -1.8668  1.7010
 7517SOL     OW34183   4.528   4.285   7.145  0.1385 -0.2503 -0.0754
 7517SOL    HW134184   4.521   4.313   7.054 -2.6525  2.1050  0.8467
 7517SOL    HW234185   4.514   4.191   7.133  1.6409 -0.3340 -1.0720
 7518SOL     OW34186   0.090   2.316  12.889 -0.1121 -0.8705 -0.5014
 7518SOL    HW134187   0.024   2.387  12.888  1.0076  0.2217  2.4939
 7518SOL    HW234188   0.169   2.357  12.924  0.7156 -0.9634 -2.3052
 7519SOL     OW34189   1.036   2.538   4.431  0.6160  0.1321  0.1221
 7519SOL    HW134190   1.066   2.483   4.359  3.0597 -1.0563  2.0250
 7519SOL    HW234191   0.945   2.510   4.431 -0.2969  3.0444 -0.9678
 7520SOL     OW34192   0.777   0.883   1.467 -0.0272  0.3432  0.6485
 7520SOL    HW134193   0.799   0.971   1.499  0.6051 -0.4430  2.3783
 7520SOL    HW234194   0.792   0.837   1.550  1.9837 -0.3145 -0.0871
 7521SOL     OW34195   2.415   2.606   9.402  0.0945  0.1884  0.2713
 7521SOL    HW134196   2.384   2.697   9.407 -0.5468 -0.0915  1.3868
 7521SOL    HW234197   2.507   2.626   9.385  0.0451 -0.9563 -1.2759
 7522SOL     OW34198   0.937   3.202  15.922 -0.0479 -0.5682 -0.1244
 7522SOL    HW134199   0.844   3.185  15.904 -0.2246  1.2700 -0.9612
 7522SOL    HW234200   0.972   3.223  15.836 -0.1910 -1.2470 -0.3515
 7523SOL     OW34201   1.299   3.055   8.196  0.2900 -0.2703  0.5059
 7523SOL    HW134202   1.378   3.007   8.221  0.3970 -0.8904 -1.0086
 7523SOL    HW234203   1.349   3.135   8.180 -0.5519  0.1593  0.0567
 7524SOL     OW34204   1.007   1.383   4.358  0.0996  0.4564  0.6484
 7524SOL    HW134205   1.023   1.454   4.419 -1.1537  0.4111  1.0322
 7524SOL    HW234206   1.068   1.396   4.285  0.6256 -2.3275  0.5702
 7525SOL     OW34207   3.079   0.737   9.172  0.3802  0.5929 -1.2918
 7525SOL    HW134208   3.133   0.661   9.150 -0.0669  0.0318 -0.4472
 7525SOL    HW234209   3.053   0.768   9.085 -0.2351  0.2262 -1.2385
 7526SOL     OW34210   0.510   3.379   3.888 -0.5763  0.9448 -0.1002
 7526SOL    HW134211   0.575   3.317   3.856  0.2484  2.2447 -0.9863
 7526SOL    HW234212   0.539   3.372   3.978 -0.0953  1.6617 -0.1964
 7527SOL     OW34213   0.416   4.411   4.706  0.2745 -0.3019 -0.7952
 7527SOL    HW134214   0.497   4.374   4.671  0.0012  0.0445 -1.8085
 7527SOL    HW234215   0.361   4.337   4.730 -1.4936  0.3283 -2.9188
 7528SOL     OW34216   4.375   3.991  16.871 -0.0762  0.2710  0.2061
 7528SOL    HW134217   4.344   4.080  16.852 -2.4697 -0.3400  1.2490
 7528SOL    HW234218   4.314   3.942  16.816 -0.4751  0.2675  0.6462
 7529SOL     OW34219   3.512   0.253   5.738 -0.4002  0.4677 -0.2418
 7529SOL    HW134220   3.496   0.224   5.648 -1.1487  3.7039 -1.1633
 7529SOL    HW234221   3.427   0.245   5.780  1.0107  0.3773  2.5633
 7530SOL     OW34222   4.161   4.636   5.574 -0.0195 -0.2672 -0.1278
 7530SOL    HW134223   4.170   4.641   5.479 -0.2008  0.1906 -0.1193
 7530SOL    HW234224   4.172   4.728   5.597 -0.7522  0.1456 -1.4282
 7531SOL     OW34225   2.289   0.506   2.142 -0.3113  0.0692 -0.3678
 7531SOL    HW134226   2.356   0.468   2.085  0.2993 -0.3703  0.6355
 7531SOL    HW234227   2.330   0.592   2.150 -0.3166  0.1468 -1.2581
 7532SOL     OW34228   0.686   0.525   1.774  0.0690  0.4239  0.2728
 7532SOL    HW134229   0.625   0.460   1.809 -0.7625  1.3175  0.4822
 7532SOL    HW234230   0.764   0.516   1.830 -2.3149 -1.6248  3.2505
 7533SOL     OW34231   1.457   3.981  17.140 -0.3469  0.0566  0.2269
 7533SOL    HW134232   1.393   3.987  17.210 -0.7416 -0.1149 -0.1225
 7533SOL    HW234233   1.395   3.991  17.068 -0.8180  0.2991  0.6603
 7534SOL     OW34234   3.862   1.394   2.903 -0.4501 -0.1022 -0.7276
 7534SOL    HW134235   3.816   1.370   2.984  3.5698 -2.5339  0.8191
 7534SOL    HW234236   3.924   1.459   2.937 -0.8895 -0.5803  1.0003
 7535SOL     OW34237   2.191   0.918  17.455 -0.1644 -0.4877  0.4639
 7535SOL    HW134238   2.179   0.953  17.367 -0.4620 -0.7051  0.4199
 7535SOL    HW234239   2.100   0.916  17.483 -1.0545 -0.5021 -2.4069
 7536SOL     OW34240   2.123   1.300   5.304  0.1150  0.6863 -0.6127
 7536SOL    HW134241   2.088   1.234   5.245  1.4185  0.3824 -1.0446
 7536SOL    HW234242   2.041   1.336   5.338 -0.7688 -0.4390 -1.5473
 7537SOL     OW34243   2.237   1.504   7.068  0.0272  0.0332 -0.0611
 7537SOL    HW134244   2.169   1.465   7.123 -1.1021 -0.2411 -1.6309
 7537SOL    HW234245   2.193   1.499   6.983 -0.2476  0.3045  0.0655
 7538SOL     OW34246   2.060   3.409  16.290 -0.0499 -0.0863 -0.1824
 7538SOL    HW134247   2.026   3.320  16.285  2.0637 -0.9288  0.2448
 7538SOL    HW234248   1.994   3.448  16.347  0.5251  1.7660 -0.7875
 7539SOL     OW34249   3.751   3.689  14.285 -0.2500 -0.6475  0.2955
 7539SOL    HW134250   3.805   3.610  14.295 -0.1553 -0.4261  1.4730
 7539SOL    HW234251   3.775   3.734  14.366  3.4843 -1.5028 -0.3262
 7540SOL     OW34252   4.042   3.750  15.424 -0.2510 -0.1066 -0.0560
 7540SOL    HW134253   3.966   3.719  15.374 -1.8125  1.6911  1.1929
 7540SOL    HW234254   4.103   3.786  15.360 -0.3624  0.0902 -0.0527
 7541SOL     OW34255   1.095   3.460   1.048 -0.0193 -0.3151  0.1058
 7541SOL    HW134256   1.035   3.475   0.975 -0.8587 -0.0854  0.8485
 7541SOL    HW234257   1.052   3.377   1.071 -0.2261  0.0655  1.0513
 7542SOL     OW34258   3.862   4.357   1.892  0.5798 -0.2218  0.2831
 7542SOL    HW134259   3.841   4.391   1.805  2.1996 -0.4609 -0.2000
 7542SOL    HW234260   3.779   4.381   1.933  1.6727  1.0395  1.7158
 7543SOL     OW34261   1.379   2.294   2.051 -0.2056  0.1293  0.3404
 7543SOL    HW134262   1.420   2.225   1.998 -0.0205  2.4276 -2.4756
 7543SOL    HW234263   1.407   2.370   2.001 -0.3514 -0.1210 -0.1241
 7544SOL     OW34264   2.507   2.350  11.941 -0.1751  0.4062  0.4840
 7544SOL    HW134265   2.529   2.313  12.026 -0.0723  1.5955  0.9695
 7544SOL    HW234266   2.569   2.294  11.894 -0.9685  0.9206 -1.1888
 7545SOL     OW34267   4.295   3.888   3.570  0.0606 -0.0554 -0.3790
 7545SOL    HW134268   4.205   3.864   3.548 -0.1027 -1.5614  1.8534
 7545SOL    HW234269   4.321   3.950   3.502 -0.1287 -0.0414 -0.4374
 7546SOL     OW34270   0.951   4.273   5.025 -0.3957  0.3711  0.2422
 7546SOL    HW134271   0.943   4.259   4.931  1.3589 -1.8143  0.4330
 7546SOL    HW234272   0.930   4.184   5.054  2.2702 -0.3898 -0.1711
 7547SOL     OW34273   3.652   3.804  12.324  0.9526  0.7746  0.0786
 7547SOL    HW134274   3.669   3.836  12.235  2.2503  0.1498  0.1030
 7547SOL    HW234275   3.735   3.826  12.365 -0.1520  0.1236  2.6439
 7548SOL     OW34276   2.636   2.670   4.243  0.0392 -0.8030 -0.5887
 7548SOL    HW134277   2.624   2.575   4.232  1.0873 -1.1920  1.5205
 7548SOL    HW234278   2.668   2.699   4.158  0.8969  1.2532  0.4413
 7549SOL     OW34279   3.349   3.405   0.667  0.1643 -0.7365  0.6752
 7549SOL    HW134280   3.387   3.323   0.634 -0.8499 -0.6915 -0.6217
 7549SOL    HW234281   3.258   3.393   0.638  0.6896 -0.7218 -1.0032
 7550SOL     OW34282   0.525   2.117   4.921 -0.7504 -0.2410  0.0537
 7550SOL    HW134283   0.612   2.078   4.918 -1.2608 -1.3144 -0.7406
 7550SOL    HW234284   0.543   2.189   4.981 -0.2806 -0.0700 -0.2941
 7551SOL     OW34285   4.662   0.846  12.535  0.7582 -0.0685 -0.5394
 7551SOL    HW134286   4.712   0.827  12.456 -0.2370  0.1148 -1.2083
 7551SOL    HW234287   4.714   0.814  12.608  1.6874  0.1593 -1.1016
 7552SOL     OW34288   4.168   3.921   1.752 -0.1581 -1.1676 -0.4051
 7552SOL    HW134289   4.260   3.947   1.742 -0.3926  1.0351  2.8121
 7552SOL    HW234290   4.134   4.006   1.782  2.4241  0.1010 -1.0748
 7553SOL     OW34291   0.440   0.938   3.887  0.5448  0.0896 -0.0449
 7553SOL    HW134292   0.397   0.973   3.809 -1.9551  0.9818  1.7219
 7553SOL    HW234293   0.385   0.861   3.898  0.1210  0.4534  0.3887
 7554SOL     OW34294   0.042   1.488   5.118  0.0956  0.4347 -0.0738
 7554SOL    HW134295   0.044   1.560   5.181 -3.7437 -0.0369  0.5528
 7554SOL    HW234296   0.071   1.529   5.036  2.1275  3.1219  1.9890
 7555SOL     OW34297   0.319   1.860   3.263  0.1768  0.7302  0.3050
 7555SOL    HW134298   0.376   1.791   3.296 -0.8532  0.5270  1.6100
 7555SOL    HW234299   0.378   1.923   3.221  1.5757 -0.2888  0.7537
 7556SOL     OW34300   4.144   1.629   7.767 -0.2100 -0.3274 -0.2866
 7556SOL    HW134301   4.094   1.708   7.786 -0.8880 -1.1484  1.3510
 7556SOL    HW234302   4.079   1.573   7.723  1.9697 -3.1276  0.0126
 7557SOL     OW34303   3.084   3.793   0.232 -0.5810  0.1758 -0.1857
 7557SOL    HW134304   3.041   3.737   0.297 -0.5110  1.5489  1.0333
 7557SOL    HW234305   3.035   3.759   0.157  1.2508 -0.1104 -1.2532
 7558SOL     OW34306   1.440   2.365   5.022  0.3844 -0.0056  0.0228
 7558SOL    HW134307   1.440   2.460   5.030 -0.4329  0.0551 -0.7263
 7558SOL    HW234308   1.522   2.351   4.976  0.5362  1.9894 -0.3299
 7559SOL     OW34309   0.500   3.898  12.372 -0.1594 -0.1111  0.4705
 7559SOL    HW134310   0.563   3.868  12.306 -0.2011  0.2756  0.2548
 7559SOL    HW234311   0.551   3.959  12.425 -1.7278  0.9799  0.7043
 7560SOL     OW34312   2.612   3.388   8.688 -0.1061 -0.3986 -0.3809
 7560SOL    HW134313   2.602   3.365   8.780 -0.4815  0.5469 -0.1804
 7560SOL    HW234314   2.554   3.464   8.681  1.1592  0.6515  0.4401
 7561SOL     OW34315   2.428   0.013  15.748 -0.1688 -0.1810 -0.3691
 7561SOL    HW134316   2.443   4.670  15.790 -1.8813  1.2088  3.0501
 7561SOL    HW234317   2.452   4.734  15.658 -2.6616 -1.5698 -0.7187
 7562SOL     OW34318   3.452   1.329   3.815 -0.2000 -0.1128  0.3382
 7562SOL    HW134319   3.455   1.316   3.720 -0.2288  0.5014  0.2526
 7562SOL    HW234320   3.378   1.390   3.821 -0.4150 -0.3437  0.0505
 7563SOL     OW34321   3.472   4.545   1.405 -0.4514 -0.2269  0.6709
 7563SOL    HW134322   3.542   4.596   1.446  1.6374 -1.0806 -1.8281
 7563SOL    HW234323   3.402   4.610   1.411  0.0130  0.2711  0.7485
 7564SOL     OW34324   0.231   2.693   6.911  0.5400  0.3266  0.7152
 7564SOL    HW134325   0.318   2.718   6.940  0.2711  1.6834  0.3496
 7564SOL    HW234326   0.224   2.602   6.940 -0.7474  0.5197  1.0146
 7565SOL     OW34327   0.462   0.844   7.053  0.2743  0.5903  0.4527
 7565SOL    HW134328   0.450   0.923   6.999 -1.6628  0.2670  0.4038
 7565SOL    HW234329   0.420   0.866   7.136  1.5545  1.2843  0.9262
 7566SOL     OW34330   2.240   4.718   2.924  0.3278 -0.5167 -0.0374
 7566SOL    HW134331   2.236   0.054   2.867  0.1916 -0.3368  0.2170
 7566SOL    HW234332   2.178   4.739   2.994 -0.2925 -1.7763 -0.2069
 7567SOL     OW34333   4.252   0.650  14.181  0.5638  0.3921  0.5293
 7567SOL    HW134334   4.222   0.621  14.268  0.0097 -0.3420  0.0966
 7567SOL    HW234335   4.333   0.700  14.187  0.8080  0.0568  0.0472
 7568SOL     OW34336   3.182   3.908  17.331 -0.4267  0.1442  0.7901
 7568SOL    HW134337   3.249   3.858  17.284  1.4156  1.8910  1.5486
 7568SOL    HW234338   3.136   3.941  17.254  1.0670 -3.1614 -1.5163
 7569SOL     OW34339   2.969   3.546   3.627  0.1770  0.2790 -0.2881
 7569SOL    HW134340   2.894   3.603   3.612  2.0116  1.9265 -3.1826
 7569SOL    HW234341   3.003   3.567   3.714  0.0887  1.2960 -0.5076
 7570SOL     OW34342   1.172   4.311   1.793  0.5265 -0.2338  1.0205
 7570SOL    HW134343   1.079   4.302   1.817  0.3739  1.9387  1.2198
 7570SOL    HW234344   1.164   4.381   1.729  0.0496 -0.9836  0.2600
 7571SOL     OW34345   1.465   2.615   0.290  0.0782  0.1332  0.5385
 7571SOL    HW134346   1.401   2.605   0.360 -0.5999  2.5841  0.2890
 7571SOL    HW234347   1.496   2.525   0.289  0.3164  0.2136  0.4373
 7572SOL     OW34348   3.684   0.047   9.275  0.0193 -0.5267  0.6393
 7572SOL    HW134349   3.672   0.071   9.182  0.5634 -1.6407  0.2866
 7572SOL    HW234350   3.622   4.715   9.270 -0.7827  0.1258  1.0509
 7573SOL     OW34351   3.251   3.620   1.027  0.1976  0.2411  0.4399
 7573SOL    HW134352   3.337   3.650   1.054 -0.6559  1.2024  2.0986
 7573SOL    HW234353   3.279   3.529   1.014  0.8851  0.9666 -3.2089
 7574SOL     OW34354   3.182   0.010   6.499 -0.0229  0.0962  0.1869
 7574SOL    HW134355   3.250   0.076   6.482  0.9727 -0.8459  0.5463
 7574SOL    HW234356   3.232   4.670   6.496  0.5251  0.4672 -0.8717
 7575SOL     OW34357   0.757   4.116  11.207  0.1214  0.6213  0.3842
 7575SOL    HW134358   0.703   4.051  11.252  2.5445 -1.8655 -0.2942
 7575SOL    HW234359   0.737   4.096  11.116  1.3179 -0.5452  0.3760
 7576SOL     OW34360   1.034   3.889   9.524 -0.1773  0.1471 -0.3763
 7576SOL    HW134361   1.056   3.822   9.460  1.0175 -1.8004  2.0869
 7576SOL    HW234362   0.940   3.877   9.536 -0.1046 -0.0301  0.0103
 7577SOL     OW34363   2.089   4.321  17.108 -0.0833  0.5703 -0.7700
 7577SOL    HW134364   2.043   4.404  17.097 -0.0777  0.5582 -0.8803
 7577SOL    HW234365   2.033   4.263  17.057  0.8394  1.0345 -2.3184
 7578SOL     OW34366   1.710   2.304   4.896  0.2441 -0.4121  0.0041
 7578SOL    HW134367   1.773   2.360   4.851 -2.0778  2.0927 -0.2078
 7578SOL    HW234368   1.757   2.297   4.979  0.3605 -4.7045 -0.4311
 7579SOL     OW34369   1.299   1.992  14.652 -0.3078 -0.1616  0.3573
 7579SOL    HW134370   1.377   2.025  14.698 -1.6062  1.0287  1.6846
 7579SOL    HW234371   1.332   1.970  14.565 -1.9227  1.3255 -0.6414
 7580SOL     OW34372   4.581   1.772   3.290  0.3531  0.2178 -0.5228
 7580SOL    HW134373   4.572   1.719   3.211  0.6673  0.3823 -0.6703
 7580SOL    HW234374   4.670   1.804   3.273  0.9846 -2.5794 -2.4474
 7581SOL     OW34375   3.908   2.764   4.484 -0.1098  0.4902  0.0970
 7581SOL    HW134376   3.863   2.794   4.563 -1.6997 -3.1505  0.5549
 7581SOL    HW234377   3.870   2.677   4.472  0.7916 -0.0434  1.1184
 7582SOL     OW34378   0.317   0.650   0.457  0.3022 -0.3874 -0.0012
 7582SOL    HW134379   0.409   0.672   0.470 -0.0222 -0.9940  3.2420
 7582SOL    HW234380   0.272   0.675   0.538 -1.5691 -2.2272 -0.4857
 7583SOL     OW34381   1.013   4.562   3.573  0.5056 -0.2643  0.6909
 7583SOL    HW134382   1.093   4.610   3.594 -0.0226  0.0502  1.9557
 7583SOL    HW234383   1.053   4.505   3.508  0.9332 -2.4341  2.8384
 7584SOL     OW34384   4.543   4.343   4.309  0.4638 -0.3716  0.0317
 7584SOL    HW134385   4.609   4.386   4.254 -0.7909  0.8200 -0.5684
 7584SOL    HW234386   4.515   4.270   4.254  0.3294  0.2873 -0.7855
 7585SOL     OW34387   0.615   0.651   0.992 -0.5557  0.3038  0.1342
 7585SOL    HW134388   0.678   0.579   0.990 -0.5721  0.2876  0.1961
 7585SOL    HW234389   0.664   0.726   0.961 -0.1322 -0.0263  0.0112
 7586SOL     OW34390   3.642   4.719  12.344 -0.7495 -0.5339  0.3920
 7586SOL    HW134391   3.563   4.693  12.296 -0.5193 -1.2443  0.4064
 7586SOL    HW234392   3.609   0.013  12.427  0.0272  1.2752 -0.0536
 7587SOL     OW34393   4.380   3.426   3.827 -0.5050  0.4292  0.6753
 7587SOL    HW134394   4.360   3.431   3.920 -0.8067  0.7754  0.5957
 7587SOL    HW234395   4.326   3.494   3.786  0.4521 -0.9927 -2.9375
 7588SOL     OW34396   0.719   0.522   8.959 -0.3759 -0.1677  0.2390
 7588SOL    HW134397   0.805   0.522   9.000 -0.4145 -0.5539  0.3218
 7588SOL    HW234398   0.660   0.545   9.031 -1.8526 -2.8029 -0.1092
 7589SOL     OW34399   1.586   3.595   5.431 -0.2124  0.0235  0.1154
 7589SOL    HW134400   1.514   3.655   5.453  0.9732  1.1071  1.0326
 7589SOL    HW234401   1.569   3.571   5.340  1.2261 -2.3488  0.4615
 7590SOL     OW34402   1.730   0.427   4.259  0.3493 -0.1386  0.1347
 7590SOL    HW134403   1.679   0.358   4.300 -2.1231  0.8984 -1.1343
 7590SOL    HW234404   1.818   0.391   4.262  0.7401  0.5376 -2.9300
 7591SOL     OW34405   2.685   1.517   7.186  0.1531  0.2284 -0.7117
 7591SOL    HW134406   2.687   1.530   7.281  0.3305  0.0817 -0.6947
 7591SOL    HW234407   2.762   1.567   7.160 -0.9329  2.5090  0.4702
 7592SOL     OW34408   1.439   1.956   5.948  0.6099  0.5917  0.0109
 7592SOL    HW134409   1.472   2.045   5.960  1.6626  0.4337 -1.6850
 7592SOL    HW234410   1.518   1.922   5.906  1.2544  0.1476  1.6056
 7593SOL     OW34411   0.667   1.080   6.960 -0.4908  0.0406  0.2645
 7593SOL    HW134412   0.597   1.056   6.899 -1.7859  0.3677  1.6191
 7593SOL    HW234413   0.741   1.035   6.920 -0.2631  1.1555 -0.5774
 7594SOL     OW34414   2.747   1.110   5.903  0.0668  0.0299 -0.2818
 7594SOL    HW134415   2.803   1.175   5.945 -0.2559 -0.1090  0.3603
 7594SOL    HW234416   2.807   1.067   5.842 -1.7290 -0.6439 -1.6037
 7595SOL     OW34417   3.179   2.847   4.483 -0.3625  0.1963  0.1628
 7595SOL    HW134418   3.209   2.859   4.393  1.0197 -1.8408  0.3539
 7595SOL    HW234419   3.226   2.765   4.501 -0.6393 -0.0599 -0.2684
 7596SOL     OW34420   0.037   1.089   4.555  0.2541  0.1715 -0.1016
 7596SOL    HW134421   0.029   1.166   4.500 -1.5179 -0.9283 -1.3858
 7596SOL    HW234422   4.736   1.131   4.630 -1.6812 -0.8375 -0.6090
 7597SOL     OW34423   2.027   0.928   6.072  0.1075  0.1889  0.1292
 7597SOL    HW134424   2.046   0.866   6.002 -0.6916 -1.1261  1.0642
 7597SOL    HW234425   2.108   0.935   6.122 -0.8823  0.5101  1.7017
 7598SOL     OW34426   4.081   0.407   7.849  0.4025  0.3125 -0.3536
 7598SOL    HW134427   4.162   0.387   7.896  0.1660 -2.0721 -0.9646
 7598SOL    HW234428   4.103   0.398   7.757 -0.3753  2.6970 -0.7800
 7599SOL     OW34429   3.378   1.227   7.079 -0.1577 -0.2897  0.8550
 7599SOL    HW134430   3.298   1.206   7.031  0.8919 -1.9771 -0.1508
 7599SOL    HW234431   3.418   1.296   7.027  0.9082 -1.0950  0.6063
 7600SOL     OW34432   2.137   4.327  17.561  0.5192 -0.1763  0.3174
 7600SOL    HW134433   2.115   4.409  17.604  0.6600 -0.3205  0.6663
 7600SOL    HW234434   2.221   4.300  17.598  1.1823  0.1349 -0.9675
 7601SOL     OW34435   4.303   0.878   6.190  0.0037  0.7604 -0.6829
 7601SOL    HW134436   4.319   0.843   6.102  0.0259  0.5121 -0.5773
 7601SOL    HW234437   4.333   0.805   6.243 -0.0439  1.2379 -0.0055
 7602SOL     OW34438   4.476   2.210   7.670 -0.8607 -0.3829 -0.2071
 7602SOL    HW134439   4.477   2.282   7.734 -0.7189  1.4312 -2.2415
 7602SOL    HW234440   4.551   2.164   7.707 -1.0428 -0.3867  0.1543
 7603SOL     OW34441   1.091   0.028   4.945  0.1169 -0.4654  0.1866
 7603SOL    HW134442   1.172   0.039   4.994 -0.9089 -1.1855  2.0169
 7603SOL    HW234443   1.086   4.673   4.951  0.1034 -0.5267 -0.7058
 7604SOL     OW34444   4.403   3.182   5.946  0.6230 -0.8073  0.0989
 7604SOL    HW134445   4.404   3.192   6.041 -2.6282  2.4209 -0.2064
 7604SOL    HW234446   4.426   3.089   5.941 -0.8826 -1.2721  1.9553
 7605SOL     OW34447   0.245   2.303   4.324 -0.3040  0.2011 -0.0376
 7605SOL    HW134448   0.291   2.315   4.241  1.0804 -0.3734  0.6502
 7605SOL    HW234449   0.171   2.363   4.314 -0.6100 -0.1110  0.3776
 7606SOL     OW34450   4.004   3.120   5.431 -0.1588  0.2444  0.1906
 7606SOL    HW134451   3.991   3.038   5.478 -0.5835 -0.1077 -0.5475
 7606SOL    HW234452   3.927   3.168   5.463 -1.2412 -0.7210 -0.9850
 7607SOL     OW34453   4.330   2.426   7.551  0.0481  0.4394 -0.3305
 7607SOL    HW134454   4.359   2.351   7.603  0.0398  0.9450  0.4219
 7607SOL    HW234455   4.247   2.452   7.591  0.2602  0.5945  0.0165
 7608SOL     OW34456   2.473   0.296   6.553  0.0999  0.1854 -0.0539
 7608SOL    HW134457   2.545   0.264   6.499 -1.5605 -0.5858 -1.8249
 7608SOL    HW234458   2.425   0.341   6.483 -0.3556  0.8930  0.7137
 7609SOL     OW34459   1.320   3.024   9.275  0.2357 -0.1404 -0.2206
 7609SOL    HW134460   1.298   3.066   9.358  0.2167  0.9839 -0.7978
 7609SOL    HW234461   1.413   3.044   9.274  0.2318 -0.0509  0.9450
 7610SOL     OW34462   2.874   1.229  13.533  0.3510  0.6791  0.1173
 7610SOL    HW134463   2.885   1.163  13.602 -4.7509 -1.3179 -1.0026
 7610SOL    HW234464   2.779   1.226  13.522  0.4591 -1.5100 -0.2644
 7611SOL     OW34465   3.869   2.479   6.738 -0.6390 -1.0375 -0.3315
 7611SOL    HW134466   3.825   2.496   6.654 -1.5337  2.4211  0.8405
 7611SOL    HW234467   3.957   2.466   6.703 -0.4962  0.5157 -0.5385
 7612SOL     OW34468   4.149   4.038   6.318 -0.3533  0.1738  0.5574
 7612SOL    HW134469   4.122   4.075   6.233  0.5662 -1.0914 -0.2837
 7612SOL    HW234470   4.118   4.099   6.385  3.5417 -0.1806  2.6487
 7613SOL     OW34471   2.037   3.111   6.366 -0.2093 -0.2704 -0.7972
 7613SOL    HW134472   2.104   3.045   6.353  1.1457  1.0024 -0.2841
 7613SOL    HW234473   2.067   3.159   6.444  2.0658 -0.2275 -1.7089
 7614SOL     OW34474   1.918   3.223  13.445  0.7401  0.2627  0.1011
 7614SOL    HW134475   1.999   3.174  13.431  0.6185  0.8267 -2.4864
 7614SOL    HW234476   1.885   3.242  13.357 -0.8452 -2.2978  0.1512
 7615SOL     OW34477   0.592   3.846  11.180 -0.2956 -0.2874  0.0202
 7615SOL    HW134478   0.665   3.789  11.203  0.0607 -0.0733 -0.5907
 7615SOL    HW234479   0.611   3.869  11.089 -1.2630  0.9721  0.1326
 7616SOL     OW34480   0.027   0.542   4.636 -0.3840  0.0775  0.2109
 7616SOL    HW134481   0.021   0.637   4.624  1.5777  0.3395  1.2140
 7616SOL    HW234482   0.123   0.542   4.635 -0.3648 -0.8303  1.5940
 7617SOL     OW34483   3.595   1.936   5.988  0.2967  0.3178  0.3186
 7617SOL    HW134484   3.589   1.888   6.071 -1.9773 -2.3961 -1.4184
 7617SOL    HW234485   3.573   1.863   5.931 -0.0492  1.0083 -0.4366
 7618SOL     OW34486   0.515   4.241  17.279 -1.0017 -0.3434  0.9329
 7618SOL    HW134487   0.448   4.177  17.304 -1.0486  0.3448  2.5961
 7618SOL    HW234488   0.468   4.288  17.211  0.8627  0.5410  0.2473
 7619SOL     OW34489   2.274   0.044  11.032  0.5361  0.1563 -0.3286
 7619SOL    HW134490   2.189   4.740  11.028  0.1968  0.8701 -1.2637
 7619SOL    HW234491   2.253   0.128  11.074 -0.9726  1.2109 -3.1634
 7620SOL     OW34492   2.481   1.094   0.026  0.0776  0.2105 -0.4235
 7620SOL    HW134493   2.464   1.071   0.117  0.5782  1.4350 -0.0071
 7620SOL    HW234494   2.538   1.171   0.027 -0.0257  0.2969 -0.8931
 7621SOL     OW34495   0.596   1.716   7.145 -0.2667  0.2355  0.7936
 7621SOL    HW134496   0.611   1.807   7.171 -1.7266  0.0624  2.2044
 7621SOL    HW234497   0.588   1.667   7.227 -0.1904 -1.8084 -0.4148
 7622SOL     OW34498   2.934   3.208  13.270 -0.1878 -0.0376  0.1559
 7622SOL    HW134499   3.005   3.160  13.227 -1.0585  0.1357 -1.4738
 7622SOL    HW234500   2.927   3.294  13.228  1.6885  0.7271  1.4253
 7623SOL     OW34501   1.081   2.981  15.869 -0.3799  0.3110  0.3290
 7623SOL    HW134502   1.014   3.031  15.916 -2.8105 -1.7511 -0.9175
 7623SOL    HW234503   1.163   3.014  15.906 -0.5000  1.6308 -0.5836
 7624SOL     OW34504   3.330   0.500  11.112  0.3998 -0.4096  0.4421
 7624SOL    HW134505   3.317   0.518  11.205 -1.3456 -3.1985  0.7269
 7624SOL    HW234506   3.391   0.426  11.116  0.7229 -0.2041 -0.5853
 7625SOL     OW34507   3.678   2.219   2.529 -0.1304 -0.2292  0.6708
 7625SOL    HW134508   3.608   2.224   2.593 -1.2775  0.0654 -0.6062
 7625SOL    HW234509   3.720   2.137   2.555 -2.9733 -1.4396  1.4090
 7626SOL     OW34510   1.959   0.121   8.459 -0.3126  0.5362  0.1473
 7626SOL    HW134511   1.938   0.073   8.540  0.7445  3.0059  1.8683
 7626SOL    HW234512   2.023   0.068   8.411 -1.6026 -1.1130  0.2398
 7627SOL     OW34513   2.248   0.615   4.981  1.1171 -1.1786  0.2225
 7627SOL    HW134514   2.336   0.639   4.950  0.4797  0.5838 -0.2238
 7627SOL    HW234515   2.193   0.615   4.903  3.0509  4.1038 -1.1587
 7628SOL     OW34516   2.778   4.621   5.348 -0.2924  0.4278  0.3178
 7628SOL    HW134517   2.711   4.558   5.320  2.8680 -1.5293 -2.7239
 7628SOL    HW234518   2.746   4.706   5.317 -2.6490 -1.3718 -2.1741
 7629SOL     OW34519   3.058   2.707   5.566  0.1646  0.3391 -0.3569
 7629SOL    HW134520   3.124   2.765   5.529 -2.4392  3.5689  0.0696
 7629SOL    HW234521   3.047   2.748   5.652 -0.9362  1.0696 -0.8321
 7630SOL     OW34522   0.759   1.056   9.193 -1.1132 -0.0934 -0.4958
 7630SOL    HW134523   0.723   1.066   9.281 -0.0820 -0.3642 -0.0483
 7630SOL    HW234524   0.836   1.110   9.207  0.8257 -2.3450 -2.4334
 7631SOL     OW34525   2.000   3.407  11.031  0.4267 -0.5822  0.5942
 7631SOL    HW134526   2.094   3.421  11.046  0.7383 -0.8306 -1.1042
 7631SOL    HW234527   1.992   3.314  11.012 -2.3743 -0.4591  1.2534
 7632SOL     OW34528   0.431   0.313   4.910 -0.0010 -0.0148  0.3612
 7632SOL    HW134529   0.378   0.329   4.832 -0.2450  0.8965  0.7175
 7632SOL    HW234530   0.434   0.394   4.960 -1.1753  0.0003  0.4162
 7633SOL     OW34531   4.091   2.224   5.488  0.2064 -0.5575  0.2676
 7633SOL    HW134532   3.998   2.244   5.476  0.4837  1.5717  1.6799
 7633SOL    HW234533   4.121   2.246   5.399 -0.0693  0.4447  0.4143
 7634SOL     OW34534   1.499   3.719  11.485  0.3794 -0.9664 -0.1435
 7634SOL    HW134535   1.563   3.724  11.415  1.1242 -0.6055  0.5723
 7634SOL    HW234536   1.420   3.738  11.434  0.2607  0.7687  0.6755
 7635SOL     OW34537   2.180   2.195   3.426  0.3499  0.3757 -0.1611
 7635SOL    HW134538   2.196   2.152   3.510 -0.6267 -0.3279 -0.3365
 7635SOL    HW234539   2.259   2.249   3.425  0.1642  0.6840  0.6343
 7636SOL     OW34540   2.828   4.240   7.448  0.3182  0.3881 -0.1229
 7636SOL    HW134541   2.801   4.298   7.519 -2.5052 -1.1075  0.0264
 7636SOL    HW234542   2.751   4.184   7.457 -1.0093  2.3183  0.2771
 7637SOL     OW34543   1.437   1.317   7.182 -0.0290  0.8016  0.2467
 7637SOL    HW134544   1.425   1.321   7.277 -1.0183  0.1197  0.1482
 7637SOL    HW234545   1.531   1.335   7.169  0.2923 -1.2904 -0.4200
 7638SOL     OW34546   3.319   4.669   5.775 -0.5140  0.2794  0.0229
 7638SOL    HW134547   3.372   4.677   5.854 -1.2928 -1.3969  0.7241
 7638SOL    HW234548   3.277   4.585   5.797 -0.3813 -0.1702 -1.4277
 7639SOL     OW34549   1.149   0.635   7.068  0.8369 -0.2003  0.2578
 7639SOL    HW134550   1.202   0.704   7.027  1.8684 -1.4790 -0.5528
 7639SOL    HW234551   1.135   0.674   7.154  2.4275  2.9244 -0.8816
 7640SOL     OW34552   1.865   4.138  15.620 -0.0542 -0.0973 -0.1173
 7640SOL    HW134553   1.772   4.136  15.600  0.1705  0.0724 -1.2083
 7640SOL    HW234554   1.895   4.218  15.577 -1.3125  0.3640 -0.1122
 7641SOL     OW34555   4.489   1.464   1.073  0.1719  0.0910  0.0593
 7641SOL    HW134556   4.550   1.415   1.129  0.1907  0.4353  0.3378
 7641SOL    HW234557   4.471   1.532   1.138  0.4880 -0.8106  1.0985
 7642SOL     OW34558   0.575   1.437   4.033  0.2388  0.5351 -0.1589
 7642SOL    HW134559   0.616   1.436   4.120  0.9970  2.1329 -0.4949
 7642SOL    HW234560   0.615   1.357   3.998 -1.8494 -1.6770  2.5649
 7643SOL     OW34561   4.325   2.145   8.436  0.0635 -0.0372  0.1401
 7643SOL    HW134562   4.275   2.220   8.467  0.4788  0.0871  0.5093
 7643SOL    HW234563   4.292   2.076   8.495  0.8939 -0.6251 -0.0831
 7644SOL     OW34564   3.899   0.501   5.907  0.0702 -0.1026 -0.0770
 7644SOL    HW134565   3.808   0.473   5.904  0.3944 -0.9774 -1.3284
 7644SOL    HW234566   3.898   0.595   5.887  1.2735  0.2206  1.3561
 7645SOL     OW34567   0.221   3.083   2.186  0.3022  0.0221 -0.1377
 7645SOL    HW134568   0.236   3.165   2.139 -1.3458  0.9032  0.8670
 7645SOL    HW234569   0.126   3.072   2.185  0.4108 -0.7598 -2.0086
 7646SOL     OW34570   2.475   0.727   2.435  0.4409 -0.1162  0.2615
 7646SOL    HW134571   2.482   0.635   2.458 -1.0361 -0.9479 -2.6573
 7646SOL    HW234572   2.431   0.752   2.516  1.6457 -0.6905  1.0903
 7647SOL     OW34573   4.582   3.431  14.647  0.0582 -0.1537  0.2966
 7647SOL    HW134574   4.617   3.481  14.573  1.2384 -0.4111  0.6710
 7647SOL    HW234575   4.617   3.477  14.724 -0.4968 -1.4245  1.2986
 7648SOL     OW34576   1.544   3.434   2.047  0.2087 -0.3260 -0.4164
 7648SOL    HW134577   1.453   3.457   2.062  0.3535 -0.1610  0.2082
 7648SOL    HW234578   1.546   3.434   1.951 -0.6369  0.0272 -0.4300
 7649SOL     OW34579   1.596   3.450  15.609  0.0033  0.3768 -0.1129
 7649SOL    HW134580   1.524   3.396  15.576  1.2825 -0.9822 -0.7131
 7649SOL    HW234581   1.568   3.540  15.592  0.9963  0.6564 -0.2623
 7650SOL     OW34582   0.819   3.557   2.196 -0.3858 -0.2237  0.5696
 7650SOL    HW134583   0.908   3.524   2.210 -0.2094  0.9276  2.0146
 7650SOL    HW234584   0.765   3.512   2.261 -2.0342  0.3993 -0.3747
 7651SOL     OW34585   3.447   2.921   9.007 -0.0604 -0.3123 -0.5741
 7651SOL    HW134586   3.425   3.001   8.959  0.4328 -0.5719 -1.2376
 7651SOL    HW234587   3.426   2.851   8.945 -1.4914 -1.4540  1.2279
 7652SOL     OW34588   3.423   1.009   1.685 -0.0626  0.2105  0.0995
 7652SOL    HW134589   3.387   1.014   1.773 -2.3875  0.1231 -0.8251
 7652SOL    HW234590   3.438   1.100   1.658  1.2000 -0.0450 -0.0362
 7653SOL     OW34591   4.140   3.361  15.984 -0.2052 -1.0205  0.1423
 7653SOL    HW134592   4.101   3.330  16.066 -0.5640  0.0338  0.3684
 7653SOL    HW234593   4.078   3.428  15.955 -1.0308 -1.4514  0.9253
 7654SOL     OW34594   2.903   1.854   2.064  0.1454 -0.4355 -0.4630
 7654SOL    HW134595   2.959   1.807   2.124  0.9775 -0.0811 -0.9645
 7654SOL    HW234596   2.924   1.797   1.990 -0.9408  1.3847 -2.2052
 7655SOL     OW34597   2.925   0.711  17.123  0.1765 -0.5852  0.3728
 7655SOL    HW134598   2.959   0.793  17.087  0.7657 -0.7693  0.5093
 7655SOL    HW234599   3.004   0.658  17.109  0.9060  0.3829  0.8404
 7656SOL     OW34600   3.866   1.926   1.796 -0.0904 -0.4292  0.2424
 7656SOL    HW134601   3.920   1.858   1.756  0.5873  0.3433 -0.1482
 7656SOL    HW234602   3.894   1.913   1.887  0.1344 -1.4792  0.0278
 7657SOL     OW34603   0.524   4.568   6.049  0.5528 -0.3843  0.6293
 7657SOL    HW134604   0.479   4.490   6.018  1.5632  0.7674 -3.8334
 7657SOL    HW234605   0.537   4.620   5.969 -0.5647 -0.9222  0.1053
 7658SOL     OW34606   1.593   0.961   2.400 -0.3700  0.0312 -0.0558
 7658SOL    HW134607   1.534   1.011   2.343  0.2017 -1.5430 -2.0328
 7658SOL    HW234608   1.542   0.881   2.410 -1.3186  0.4096 -1.8203
 7659SOL     OW34609   1.835   3.603   6.986 -0.0326  0.1653  0.4683
 7659SOL    HW134610   1.818   3.553   7.065  0.7541 -0.6497  0.1237
 7659SOL    HW234611   1.801   3.687   7.015 -0.2386 -0.5940  2.4118
 7660SOL     OW34612   3.361   4.477   4.431 -0.0564  0.1807 -0.0071
 7660SOL    HW134613   3.296   4.459   4.500 -0.1713  0.1079 -0.1341
 7660SOL    HW234614   3.435   4.513   4.480 -1.7460  0.3945  2.4258
 7661SOL     OW34615   0.271   3.790   2.263  0.3317 -0.3980 -0.5679
 7661SOL    HW134616   0.228   3.799   2.178 -1.2234  0.0889  0.2527
 7661SOL    HW234617   0.362   3.783   2.234  1.1029  1.5837  1.3349
 7662SOL     OW34618   1.753   1.393  16.013  0.2511 -0.1136 -0.0254
 7662SOL    HW134619   1.839   1.424  15.986  0.5965  0.7345  2.0939
 7662SOL    HW234620   1.705   1.469  16.045 -0.3748 -0.1018 -0.9717
 7663SOL     OW34621   3.624   3.067   6.199 -0.5291  0.1515  0.5071
 7663SOL    HW134622   3.582   3.013   6.132  1.5328 -1.2379  0.3302
 7663SOL    HW234623   3.603   3.013   6.276 -1.5038  0.0912  0.1968
 7664SOL     OW34624   4.035   4.628  15.097  0.1205  0.5593  0.2809
 7664SOL    HW134625   3.944   4.603  15.080 -0.0692  1.1654  0.4051
 7664SOL    HW234626   4.026   4.652  15.189 -0.5881 -0.0280  0.3610
 7665SOL     OW34627   1.288   0.050   7.682 -0.1421 -0.5579  0.0585
 7665SOL    HW134628   1.337   0.072   7.603 -0.4877  2.1246  0.6105
 7665SOL    HW234629   1.358   0.019   7.738  0.7596  0.0283 -0.7542
 7666SOL     OW34630   0.144   4.567  14.329  0.1357 -0.5852  0.1761
 7666SOL    HW134631   0.078   4.498  14.321 -1.5535  0.8055  2.0066
 7666SOL    HW234632   0.084   4.640  14.318  2.4571  1.1397 -1.1403
 7667SOL     OW34633   1.204   3.909   4.721  0.0154 -0.7233  0.6027
 7667SOL    HW134634   1.110   3.926   4.735  0.0838  1.0576 -1.1661
 7667SOL    HW234635   1.232   3.839   4.779  1.4981 -1.3878 -0.9116
 7668SOL     OW34636   0.858   1.953   5.983 -0.3859 -0.6476  0.7831
 7668SOL    HW134637   0.888   1.863   5.991  3.1624  0.3636 -0.9610
 7668SOL    HW234638   0.908   1.984   5.907 -0.5308 -0.1544  0.8874
 7669SOL     OW34639   0.985   3.397  14.322  0.0958  0.3087  0.3557
 7669SOL    HW134640   0.956   3.320  14.372  0.8353 -0.3248 -0.1864
 7669SOL    HW234641   0.977   3.374  14.229 -1.2647 -0.3321  0.6250
 7670SOL     OW34642   1.902   4.529   2.453  0.5022 -0.1509 -0.2274
 7670SOL    HW134643   1.993   4.525   2.485  0.2748 -3.7369 -0.0320
 7670SOL    HW234644   1.910   4.465   2.383  1.3930 -0.7011  0.3567
 7671SOL     OW34645   3.580   3.912   0.536  0.6399 -0.4006  0.1853
 7671SOL    HW134646   3.596   3.923   0.442 -0.8409  0.5839  0.0508
 7671SOL    HW234647   3.497   3.866   0.531  0.4128  0.0103  0.2415
 7672SOL     OW34648   1.059   0.211   9.668 -0.0312 -0.0809  0.4931
 7672SOL    HW134649   1.113   0.283   9.636 -0.6486 -0.4417 -1.3824
 7672SOL    HW234650   1.074   0.199   9.762  1.5176 -0.5587  0.1894
 7673SOL     OW34651   2.601   0.759   5.773 -0.6970  0.6066  0.1386
 7673SOL    HW134652   2.532   0.816   5.741 -1.9576 -0.3012  1.2085
 7673SOL    HW234653   2.561   0.720   5.851  0.9140  0.8415  1.0893
 7674SOL     OW34654   1.701   4.443   0.778 -0.0659  0.4359 -0.1364
 7674SOL    HW134655   1.665   4.516   0.828 -0.9667  0.8778 -1.4155
 7674SOL    HW234656   1.749   4.491   0.711  2.6152  0.0314  1.5207
 7675SOL     OW34657   1.096   1.900   5.262  0.6887  0.8956 -0.3145
 7675SOL    HW134658   1.141   1.947   5.192 -1.5813  1.7255 -1.2220
 7675SOL    HW234659   1.170   1.850   5.294  1.9336  2.1135 -1.2687
 7676SOL     OW34660   1.208   1.282   4.724  0.2040  0.2188  0.3825
 7676SOL    HW134661   1.144   1.345   4.694 -1.2399 -1.6370 -0.4189
 7676SOL    HW234662   1.280   1.291   4.662 -0.6373  0.7922 -0.5025
 7677SOL     OW34663   0.918   3.060  14.691 -0.1660 -0.2454  0.2860
 7677SOL    HW134664   0.959   2.987  14.737  1.5359  0.6391  0.1524
 7677SOL    HW234665   0.940   3.138  14.742 -0.0926  0.7947 -1.3376
 7678SOL     OW34666   4.320   0.660   0.062  0.0830 -0.6723 -0.2197
 7678SOL    HW134667   4.275   0.646  17.741 -1.3742  2.6234 -0.0075
 7678SOL    HW234668   4.408   0.662   0.025  1.6405 -2.9446  3.3322
 7679SOL     OW34669   1.928   4.098   2.428  0.3530 -0.6789 -0.7958
 7679SOL    HW134670   1.932   4.181   2.382  0.2817 -1.6041 -2.4807
 7679SOL    HW234671   1.869   4.048   2.371  0.9057 -0.6612 -1.3806
 7680SOL     OW34672   1.898   4.469   1.634  0.3156  0.0969  0.1100
 7680SOL    HW134673   1.870   4.437   1.549  2.8441 -0.8869 -0.3350
 7680SOL    HW234674   1.811   4.458   1.673  0.2543 -0.0491 -0.0678
 7681SOL     OW34675   4.526   0.426   7.364  0.1661 -0.4185  0.2262
 7681SOL    HW134676   4.480   0.433   7.281 -0.8586 -0.2123  0.8073
 7681SOL    HW234677   4.513   0.336   7.393 -2.4823  0.1823  0.9719
 7682SOL     OW34678   0.745   3.761   2.609 -0.3891 -0.5909 -0.3801
 7682SOL    HW134679   0.702   3.750   2.525 -0.1317 -0.2717 -0.5522
 7682SOL    HW234680   0.776   3.851   2.604 -1.5058 -0.2232 -0.6245
 7683SOL     OW34681   1.197   4.583  17.506  0.0096 -0.2041  0.1849
 7683SOL    HW134682   1.247   4.604  17.585  0.0496  1.2712 -0.2327
 7683SOL    HW234683   1.245   4.505  17.476 -1.6278 -0.5630 -1.4944
 7684SOL     OW34684   1.121   4.010   3.350  0.5771  0.5749  0.7172
 7684SOL    HW134685   1.149   4.025   3.441 -0.5057  1.7730  0.8476
 7684SOL    HW234686   1.198   4.053   3.313  1.4428 -0.5361  1.1975
 7685SOL     OW34687   4.304   2.400   5.669 -0.3663  0.1150  0.7371
 7685SOL    HW134688   4.319   2.317   5.714  0.0587  0.4487  1.2135
 7685SOL    HW234689   4.226   2.387   5.616  0.4019  1.9657 -0.8824
 7686SOL     OW34690   1.198   2.252  11.524  0.4936  0.1180  0.1858
 7686SOL    HW134691   1.105   2.272  11.528  1.1627  3.5484 -1.4072
 7686SOL    HW234692   1.202   2.173  11.578 -3.0168  0.7956  1.4351
 7687SOL     OW34693   1.747   3.189   5.684 -0.3421 -0.0740  0.1881
 7687SOL    HW134694   1.717   3.219   5.598 -0.8433  0.6651  0.6267
 7687SOL    HW234695   1.778   3.271   5.722  0.5575 -0.6836  0.7630
 7688SOL     OW34696   1.646   0.323   1.177 -0.6405 -0.3111 -0.0998
 7688SOL    HW134697   1.631   0.260   1.247 -0.7883  1.5145  1.5363
 7688SOL    HW234698   1.719   0.291   1.125 -1.2421  0.4269 -1.3876
 7689SOL     OW34699   2.853   1.697  11.350  0.3876  0.4570 -0.1338
 7689SOL    HW134700   2.821   1.616  11.311  0.2005  0.7749 -0.6503
 7689SOL    HW234701   2.948   1.685  11.352  0.2630 -0.2434  1.1416
 7690SOL     OW34702   1.698   0.994   0.792  0.0343  0.2179  0.1094
 7690SOL    HW134703   1.771   0.985   0.853  0.9618 -2.2710 -1.3330
 7690SOL    HW234704   1.657   1.076   0.817 -0.8158 -0.6678  1.6152
 7691SOL     OW34705   3.785   4.511  12.008 -0.5788  0.0150 -0.5906
 7691SOL    HW134706   3.876   4.540  11.995  0.1275 -2.0122 -0.1842
 7691SOL    HW234707   3.748   4.507  11.920 -0.5453  2.0275 -0.6956
 7692SOL     OW34708   0.721   0.212  12.044 -0.2579 -0.2089  0.2280
 7692SOL    HW134709   0.744   0.146  12.109 -1.4260 -0.7282  0.1028
 7692SOL    HW234710   0.668   0.273  12.094 -1.1926 -0.7060 -0.1662
 7693SOL     OW34711   1.725   4.102   7.333  0.2837 -0.1611 -0.3055
 7693SOL    HW134712   1.724   4.014   7.372 -2.0362  0.6480  1.4613
 7693SOL    HW234713   1.692   4.080   7.246 -0.6616 -0.6877  0.1913
 7694SOL     OW34714   0.525   0.907   4.155  0.6778 -0.2649 -0.1102
 7694SOL    HW134715   0.508   0.817   4.125 -0.0218 -0.9777  2.4437
 7694SOL    HW234716   0.519   0.956   4.072 -1.6399  1.1260  0.8604
 7695SOL     OW34717   3.424   1.354   3.514  0.3182 -0.3985  0.6142
 7695SOL    HW134718   3.511   1.381   3.485 -0.4175 -0.5888 -1.7260
 7695SOL    HW234719   3.386   1.305   3.441 -0.1746  0.0393  0.5766
 7696SOL     OW34720   2.348   4.328   1.974  0.2083 -0.2669 -0.5988
 7696SOL    HW134721   2.434   4.369   1.981  0.7873 -1.4004 -1.0451
 7696SOL    HW234722   2.308   4.345   1.888 -0.6837 -2.2872 -0.5843
 7697SOL     OW34723   0.438   0.133  14.020 -0.0079  0.3187 -0.2687
 7697SOL    HW134724   0.437   0.047  14.064  1.5186 -1.7603 -4.3154
 7697SOL    HW234725   0.348   0.159  14.037  0.1312  1.3272 -1.1135
 7698SOL     OW34726   3.629   3.989   7.731 -0.4707  0.4029  0.8950
 7698SOL    HW134727   3.655   3.966   7.821  1.5235  0.9193  0.4532
 7698SOL    HW234728   3.695   3.945   7.677 -3.0835 -2.0983 -0.2130
 7699SOL     OW34729   0.066   2.569  16.160 -0.1061 -0.3290  0.0222
 7699SOL    HW134730   0.111   2.585  16.243 -1.3696 -1.7277  0.9930
 7699SOL    HW234731   4.718   2.572  16.195  0.3020  2.8573  0.8399
 7700SOL     OW34732   2.104   4.617   4.845  0.0515 -0.4335 -0.0312
 7700SOL    HW134733   2.072   4.659   4.765 -0.7080  1.8167  1.4538
 7700SOL    HW234734   2.149   4.547   4.798  2.7827  1.0354  0.4609
 7701SOL     OW34735   2.849   0.398   5.408 -0.1797  0.5212 -0.4135
 7701SOL    HW134736   2.829   0.465   5.343 -0.0822 -0.8355 -1.8323
 7701SOL    HW234737   2.813   0.436   5.488 -1.5668  0.0372 -0.8035
 7702SOL     OW34738   0.969   2.493   3.183 -0.3915 -0.1964  0.2196
 7702SOL    HW134739   0.921   2.456   3.109  0.9085 -0.9228 -0.2608
 7702SOL    HW234740   1.016   2.416   3.215  1.2757  0.0696 -1.5837
 7703SOL     OW34741   2.589   3.668   0.916 -0.0799 -0.1233 -0.2800
 7703SOL    HW134742   2.622   3.755   0.892  0.3046  0.0214  0.7542
 7703SOL    HW234743   2.540   3.653   0.835  0.2169  0.2347 -0.5272
 7704SOL     OW34744   1.437   2.495   1.868 -0.6697  0.1010 -0.1703
 7704SOL    HW134745   1.501   2.472   1.801 -1.6066 -0.1918 -0.9628
 7704SOL    HW234746   1.377   2.553   1.821  0.3387  0.1167 -1.4221
 7705SOL     OW34747   4.302   3.397  14.566  0.7100  0.2940 -0.1503
 7705SOL    HW134748   4.389   3.405  14.604  0.7075  2.3458 -0.5627
 7705SOL    HW234749   4.282   3.483  14.527 -0.1149 -0.0894 -0.5905
 7706SOL     OW34750   2.331   2.922   7.408  1.0105 -0.0652  0.1908
 7706SOL    HW134751   2.250   2.973   7.411 -0.2222 -1.9670 -1.0407
 7706SOL    HW234752   2.388   2.979   7.460  0.1833  1.0939 -0.1676
 7707SOL     OW34753   4.188   3.285  15.744  0.0129 -0.6330 -0.5261
 7707SOL    HW134754   4.180   3.376  15.717  2.1132 -0.0106  1.0012
 7707SOL    HW234755   4.162   3.304  15.834  0.9223  0.2682 -0.4595
 7708SOL     OW34756   1.324   3.722   9.732 -0.1409 -0.1593  0.3816
 7708SOL    HW134757   1.378   3.688   9.803  2.1910  2.5075 -0.0851
 7708SOL    HW234758   1.354   3.813   9.734 -0.6256  0.0120 -0.1620
 7709SOL     OW34759   0.983   0.249   4.528 -0.2434 -0.3654 -0.0610
 7709SOL    HW134760   0.954   0.284   4.613 -1.7309 -0.1782 -0.6670
 7709SOL    HW234761   1.037   0.179   4.565  0.8919 -0.1583 -1.3106
 7710SOL     OW34762   2.300   0.923   1.731 -0.3661 -0.7122 -0.0579
 7710SOL    HW134763   2.241   0.997   1.734 -0.0400 -0.4218 -0.8969
 7710SOL    HW234764   2.343   0.939   1.647  2.8467  0.0826  1.7112
 7711SOL     OW34765   1.300   3.872   2.230  0.6048 -0.2721 -0.2554
 7711SOL    HW134766   1.378   3.818   2.238  0.0944 -0.7555  1.5275
 7711SOL    HW234767   1.251   3.839   2.305  1.4284 -0.2563  0.2863
 7712SOL     OW34768   2.507   1.617   3.598  0.4695 -0.1430 -0.7715
 7712SOL    HW134769   2.498   1.713   3.597  0.7247 -0.1241 -2.3831
 7712SOL    HW234770   2.596   1.607   3.631  0.6511 -0.9873 -1.5224
 7713SOL     OW34771   2.177   2.952  14.462  0.7250  0.3928  0.2887
 7713SOL    HW134772   2.085   2.955  14.438  0.5628  0.3829  0.9121
 7713SOL    HW234773   2.164   2.913  14.548 -2.5037 -1.3029 -1.0034
 7714SOL     OW34774   3.414   2.333   8.493 -0.8131  0.0157  0.0644
 7714SOL    HW134775   3.369   2.251   8.512  0.1337 -0.1258  1.6171
 7714SOL    HW234776   3.339   2.392   8.499  0.2854  1.5376 -1.2928
 7715SOL     OW34777   4.630   3.065   1.189  0.4821 -0.4683 -0.6699
 7715SOL    HW134778   4.565   2.995   1.196  0.1986 -0.1927 -0.5512
 7715SOL    HW234779   4.573   3.141   1.192  0.1075 -0.7365 -1.0729
 7716SOL     OW34780   0.132   0.530  11.630 -0.2983 -0.1331 -0.5506
 7716SOL    HW134781   0.107   0.586  11.557  0.4216 -0.3664 -0.9824
 7716SOL    HW234782   0.087   0.574  11.703 -0.5522 -1.7916  0.2781
 7717SOL     OW34783   2.216   2.802  13.264 -0.8302 -0.4955 -0.2281
 7717SOL    HW134784   2.130   2.786  13.303  0.2826  0.7767  2.7461
 7717SOL    HW234785   2.196   2.875  13.207 -0.0904  1.4731  2.0352
 7718SOL     OW34786   0.970   2.308   4.733  0.0258 -0.9041  0.8837
 7718SOL    HW134787   1.059   2.331   4.760  0.7180 -2.7645  0.1681
 7718SOL    HW234788   0.925   2.392   4.741 -1.4873 -1.7652  1.3299
 7719SOL     OW34789   0.293   1.828   2.213 -0.2735  0.2017 -0.4411
 7719SOL    HW134790   0.248   1.880   2.279 -0.9763 -0.3384 -0.4881
 7719SOL    HW234791   0.269   1.737   2.233 -0.7949  0.1584 -1.2974
 7720SOL     OW34792   2.950   0.670  11.128 -0.1395 -0.3368 -0.0290
 7720SOL    HW134793   2.998   0.627  11.199  0.6347 -0.8357 -0.8515
 7720SOL    HW234794   3.019   0.667  11.061  1.2631  2.3896  1.2817
 7721SOL     OW34795   3.673   4.395   6.690  0.1068  0.1272  0.6560
 7721SOL    HW134796   3.644   4.307   6.670 -1.0712 -0.4229  4.8204
 7721SOL    HW234797   3.700   4.382   6.781  1.2481 -0.2262  0.2745
 7722SOL     OW34798   0.499   1.412   6.724 -0.2615 -0.0815 -0.3192
 7722SOL    HW134799   0.588   1.427   6.693  0.0028  2.4314  1.5852
 7722SOL    HW234800   0.482   1.488   6.780  3.2156 -0.3094  1.0635
 7723SOL     OW34801   3.356   2.066   3.910  0.2102 -0.0170  0.2791
 7723SOL    HW134802   3.414   2.118   3.965  0.1022  0.0501  0.3290
 7723SOL    HW234803   3.379   2.100   3.823  1.3345 -0.1801  0.5188
 7724SOL     OW34804   2.500   2.146  10.401  0.4087 -0.2407 -0.0433
 7724SOL    HW134805   2.518   2.120  10.310  2.3228 -1.8288  0.7721
 7724SOL    HW234806   2.442   2.220  10.387 -1.2401 -1.7707 -1.2906
 7725SOL     OW34807   3.794   4.253  13.348 -0.3428 -0.4635  0.1960
 7725SOL    HW134808   3.811   4.175  13.401  1.5776  0.4519  0.9071
 7725SOL    HW234809   3.880   4.290  13.328  0.6203 -2.4881  0.6255
 7726SOL     OW34810   4.418   4.061   4.435  0.1263  0.0730 -0.5036
 7726SOL    HW134811   4.490   4.035   4.491 -0.3935  1.9596  1.0493
 7726SOL    HW234812   4.363   3.984   4.449 -0.6530  0.8259  0.5266
 7727SOL     OW34813   3.646   0.442   6.156 -0.6228 -0.6520 -0.0553
 7727SOL    HW134814   3.630   0.467   6.065  3.1310 -0.7307 -0.7349
 7727SOL    HW234815   3.637   0.532   6.185  3.3644 -0.2501 -0.0384
 7728SOL     OW34816   1.660   2.186   4.157  0.2920  0.0607  0.0818
 7728SOL    HW134817   1.648   2.101   4.115  0.1925 -0.7942  1.8544
 7728SOL    HW234818   1.749   2.180   4.191  1.1155 -0.6747 -2.2667
 7729SOL     OW34819   0.830   4.504   1.156 -0.2903 -0.4793  0.3524
 7729SOL    HW134820   0.803   4.415   1.132  2.4847 -1.0674 -0.6747
 7729SOL    HW234821   0.763   4.554   1.111  0.2872  0.4756  0.5499
 7730SOL     OW34822   2.255   1.724   7.748 -0.2189 -0.0491 -0.0497
 7730SOL    HW134823   2.260   1.678   7.664 -0.9920  1.0696 -0.6990
 7730SOL    HW234824   2.166   1.756   7.736 -0.6645 -1.5299 -0.6472
 7731SOL     OW34825   0.662   4.719   0.556 -0.0995  0.3676  0.3150
 7731SOL    HW134826   0.702   4.729   0.642  1.0342 -0.9215 -0.0515
 7731SOL    HW234827   0.568   4.702   0.569  0.0690  0.0835  1.1704
 7732SOL     OW34828   0.732   4.314   2.944 -0.2948 -0.1705  0.2647
 7732SOL    HW134829   0.760   4.247   2.882  0.2974  0.4971 -0.1896
 7732SOL    HW234830   0.692   4.253   3.007  0.1623 -0.7465 -0.0073
 7733SOL     OW34831   1.754   2.102   1.498 -0.4773  0.5045  0.2545
 7733SOL    HW134832   1.746   2.036   1.566 -0.8624 -1.3295 -1.5766
 7733SOL    HW234833   1.664   2.124   1.472 -0.5866 -1.3814 -0.9243
 7734SOL     OW34834   0.260   0.063   3.483  0.4082  0.4328  1.0666
 7734SOL    HW134835   0.240   0.017   3.402 -2.4613 -0.0497  2.0466
 7734SOL    HW234836   0.180   0.111   3.504  0.1816  0.4141  0.2505
 7735SOL     OW34837   0.496   0.724   6.732  0.4001 -0.3373 -0.0083
 7735SOL    HW134838   0.412   0.681   6.752  0.4166 -0.9820 -1.3540
 7735SOL    HW234839   0.511   0.676   6.651  2.7940 -1.6384  1.2004
 7736SOL     OW34840   0.990   4.048   6.564  0.3558 -0.4302 -0.4957
 7736SOL    HW134841   1.053   4.095   6.620 -0.3477  0.6786 -0.6535
 7736SOL    HW234842   0.905   4.057   6.606  0.7113  1.5517 -0.1762
 7737SOL     OW34843   1.565   3.760   0.653  0.0798 -0.4784  0.3524
 7737SOL    HW134844   1.509   3.712   0.592 -0.7543  0.1073  0.6555
 7737SOL    HW234845   1.649   3.718   0.633 -0.0378 -0.3755 -0.3666
 7738SOL     OW34846   2.435   0.940   7.352 -0.8348 -0.5293 -0.2261
 7738SOL    HW134847   2.451   0.930   7.446 -0.9234  0.3744 -0.1072
 7738SOL    HW234848   2.520   0.972   7.320  0.5028 -3.3740  0.5477
 7739SOL     OW34849   0.581   1.514   5.978 -0.0563 -0.1788  0.4626
 7739SOL    HW134850   0.646   1.496   5.910  0.4820  0.2513  0.8589
 7739SOL    HW234851   0.602   1.446   6.041 -0.4899 -3.0335 -2.5006
 7740SOL     OW34852   0.979   2.530   6.170  0.3113 -0.3373  0.4500
 7740SOL    HW134853   0.956   2.437   6.164  1.1298 -0.5252  0.2794
 7740SOL    HW234854   0.903   2.577   6.205  0.5684 -0.4902  1.2191
 7741SOL     OW34855   1.490   0.820   1.526  0.2331  0.2845 -0.5961
 7741SOL    HW134856   1.561   0.883   1.515 -0.7653  1.4941 -0.0600
 7741SOL    HW234857   1.467   0.794   1.436  1.6272 -0.1278 -0.8284
 7742SOL     OW34858   2.504   3.109   6.580 -0.7056 -0.1670  0.1046
 7742SOL    HW134859   2.444   3.086   6.651 -0.3793 -1.6487 -0.0970
 7742SOL    HW234860   2.588   3.103   6.626  0.0489  1.4828 -1.0409
 7743SOL     OW34861   3.185   4.587  12.651  0.1505 -0.3238 -0.4705
 7743SOL    HW134862   3.244   4.573  12.725  0.3503 -3.4640 -1.2510
 7743SOL    HW234863   3.104   4.551  12.684  0.1402  0.3508  0.2476
 7744SOL     OW34864   2.683   3.751   6.296 -0.3328  0.0654  0.0017
 7744SOL    HW134865   2.695   3.756   6.201 -0.4426  0.8649  0.0294
 7744SOL    HW234866   2.688   3.845   6.310  0.9592  0.3881 -2.5298
 7745SOL     OW34867   3.250   4.332   5.249 -0.3864 -0.5224  0.1997
 7745SOL    HW134868   3.200   4.263   5.294 -1.3837 -1.4363 -2.3341
 7745SOL    HW234869   3.187   4.404   5.258 -0.8842 -0.5705 -3.0268
 7746SOL     OW34870   0.094   1.130  16.809 -0.2343 -0.3645  0.0886
 7746SOL    HW134871   0.069   1.060  16.749  1.0236 -0.0898 -0.7584
 7746SOL    HW234872   0.187   1.110  16.815 -0.0047  1.0192  1.3420
 7747SOL     OW34873   3.516   3.972   7.425 -0.3643  0.4264 -0.2036
 7747SOL    HW134874   3.590   4.016   7.383 -0.2094  0.4619  0.1049
 7747SOL    HW234875   3.460   4.049   7.443  0.6073  1.6055 -2.2612
 7748SOL     OW34876   3.085   1.153   6.433 -0.0646 -0.2894  0.7921
 7748SOL    HW134877   3.057   1.243   6.417  1.7292 -0.0322 -0.8905
 7748SOL    HW234878   3.027   1.126   6.505 -2.2140  0.6637 -0.5782
 7749SOL     OW34879   4.650   3.219   2.596 -0.7094 -0.2479  0.4688
 7749SOL    HW134880   4.605   3.164   2.531  0.1616 -0.9928  0.4959
 7749SOL    HW234881   4.658   3.163   2.673  0.7032 -1.9947 -0.9446
 7750SOL     OW34882   2.842   0.091   8.024 -0.2112 -0.3764 -0.5510
 7750SOL    HW134883   2.869   0.031   8.095 -1.5125  2.8669  2.6938
 7750SOL    HW234884   2.748   0.072   8.019 -0.3277  0.0043  0.1581
 7751SOL     OW34885   4.662   2.380   1.768 -0.3878  0.5860 -0.0503
 7751SOL    HW134886   4.669   2.475   1.780 -0.6291  0.6553 -0.4715
 7751SOL    HW234887   4.582   2.369   1.717 -0.5343 -2.7196  0.8908
 7752SOL     OW34888   2.495   1.621  15.688 -0.0164 -0.2195  0.0661
 7752SOL    HW134889   2.581   1.663  15.695  0.4964 -1.2278 -0.2458
 7752SOL    HW234890   2.503   1.553  15.755 -0.3241 -0.2728  0.0512
 7753SOL     OW34891   3.499   0.118   3.059  0.4571  0.0038 -0.0063
 7753SOL    HW134892   3.476   0.081   3.145 -0.2901  1.5674  0.4700
 7753SOL    HW234893   3.423   0.171   3.034 -0.4213 -0.7592  1.0066
 7754SOL     OW34894   1.448   1.007   7.419 -0.1212  0.1410  0.5231
 7754SOL    HW134895   1.389   0.942   7.457  0.2303 -0.6056 -0.2060
 7754SOL    HW234896   1.425   1.009   7.326  0.3821  0.9812  0.4185
 7755SOL     OW34897   3.055   3.985  12.113  0.6800  0.7510 -0.0775
 7755SOL    HW134898   3.117   4.010  12.182  1.6246  0.8032 -0.9440
 7755SOL    HW234899   2.988   3.941  12.164 -1.1271  3.6895  0.0788
 7756SOL     OW34900   0.756   3.330   8.628  0.1664 -0.1693 -0.5102
 7756SOL    HW134901   0.760   3.251   8.575  2.2618  0.1615 -0.8565
 7756SOL    HW234902   0.819   3.382   8.577 -0.0498  2.1318  1.5491
 7757SOL     OW34903   0.426   1.465  10.102 -0.8783 -0.5855  0.2482
 7757SOL    HW134904   0.430   1.389  10.045  1.7377  0.0751 -0.4496
 7757SOL    HW234905   0.517   1.479  10.129 -1.2397 -0.4954  1.4186
 7758SOL     OW34906   0.710   0.043   5.612 -0.0038  0.2298 -0.1170
 7758SOL    HW134907   0.788   0.099   5.608 -0.1175  0.0277 -4.8879
 7758SOL    HW234908   0.695   0.022   5.520 -1.1182 -0.1954  0.1658
 7759SOL     OW34909   4.647   4.291   5.048  0.0084 -0.6353  0.2726
 7759SOL    HW134910   4.634   4.376   5.004 -0.1528 -1.0973 -0.5727
 7759SOL    HW234911   4.560   4.271   5.083 -0.0879 -1.1391 -0.2671
 7760SOL     OW34912   4.674   3.384  13.740 -0.1546 -0.2967 -0.5933
 7760SOL    HW134913   0.025   3.391  13.715  0.3574 -0.5001  1.2426
 7760SOL    HW234914   4.641   3.467  13.705  0.0045 -0.6052 -1.4969
 7761SOL     OW34915   3.153   3.847  11.489 -0.5133  0.2819  0.2233
 7761SOL    HW134916   3.184   3.845  11.580 -0.9012  2.1681  0.3928
 7761SOL    HW234917   3.197   3.775  11.443  0.6889  1.5660 -0.6392
 7762SOL     OW34918   2.627   1.479   3.398  0.4552 -0.1076  0.4232
 7762SOL    HW134919   2.570   1.506   3.470 -0.4380 -1.7275  0.3181
 7762SOL    HW234920   2.713   1.487   3.439  1.0509 -0.1167 -0.8213
 7763SOL     OW34921   0.413   1.685   6.859  0.8031 -0.2437 -0.4689
 7763SOL    HW134922   0.470   1.614   6.889  0.0795 -0.9142 -0.6838
 7763SOL    HW234923   0.478   1.755   6.856  1.8046 -1.2234 -1.3609
 7764SOL     OW34924   3.126   2.231   7.301  0.9306 -0.3987 -0.4031
 7764SOL    HW134925   3.069   2.272   7.367  0.9145 -1.2102  0.0827
 7764SOL    HW234926   3.186   2.173   7.349 -0.2089 -1.4238 -0.2081
 7765SOL     OW34927   1.923   0.385  11.070 -0.9671  0.2874 -0.1538
 7765SOL    HW134928   1.939   0.394  10.976 -1.9739  0.0762 -0.3456
 7765SOL    HW234929   1.910   0.477  11.094 -0.8729 -0.0616  1.2443
 7766SOL     OW34930   4.377   0.018   7.836 -0.1193  0.1388 -0.2776
 7766SOL    HW134931   4.354   0.080   7.905  0.4400  1.1515 -1.0112
 7766SOL    HW234932   4.410   4.699   7.904 -1.3182  0.3536  0.5033
 7767SOL     OW34933   4.341   0.884   8.134 -0.3591  0.7512  0.2957
 7767SOL    HW134934   4.388   0.801   8.140  1.4575  1.8412  1.1460
 7767SOL    HW234935   4.251   0.852   8.127 -0.2031  0.5854 -1.1325
 7768SOL     OW34936   3.094   0.233   1.728 -0.1110  0.9091 -0.2753
 7768SOL    HW134937   3.107   0.140   1.707 -0.0169  0.1142  3.3788
 7768SOL    HW234938   3.076   0.275   1.644  1.8105  1.5942 -0.3462
 7769SOL     OW34939   4.072   4.299   4.536  0.6298  0.2420 -0.1866
 7769SOL    HW134940   4.024   4.269   4.613  1.6938  0.1402  0.4382
 7769SOL    HW234941   4.099   4.386   4.565  1.7098 -0.1246 -0.0861
 7770SOL     OW34942   2.398   2.353   8.935  0.0802 -0.2283 -0.2773
 7770SOL    HW134943   2.312   2.395   8.939  0.4612  0.3847  1.4910
 7770SOL    HW234944   2.374   2.273   8.888  1.6325 -1.2028  0.5977
 7771SOL     OW34945   0.997   0.242   4.077  0.3476 -0.0556  0.3848
 7771SOL    HW134946   0.938   0.270   4.148  0.3213 -0.3751  0.4915
 7771SOL    HW234947   1.074   0.296   4.096 -0.1652  1.1171 -0.8616
 7772SOL     OW34948   3.982   2.848   8.266 -0.0394 -0.3862 -0.4705
 7772SOL    HW134949   4.026   2.931   8.248 -0.8297 -0.0049 -0.6740
 7772SOL    HW234950   3.933   2.872   8.345  1.5077 -0.3663  0.4816
 7773SOL     OW34951   2.330   3.757  15.835 -0.2483 -0.0182  0.2546
 7773SOL    HW134952   2.384   3.829  15.866 -0.6186  1.1948 -1.9570
 7773SOL    HW234953   2.307   3.787  15.747  0.0155  0.2774  0.2903
 7774SOL     OW34954   3.923   1.772   4.284  0.1118 -0.1511  0.3096
 7774SOL    HW134955   3.851   1.784   4.347 -1.6961  2.9826 -2.3898
 7774SOL    HW234956   3.878   1.731   4.210 -0.3310 -0.2280  0.6184
 7775SOL     OW34957   1.442   4.265   7.445  0.1665  0.2535 -0.2764
 7775SOL    HW134958   1.488   4.268   7.529  2.3100  1.0971 -1.4706
 7775SOL    HW234959   1.480   4.346   7.413 -0.0874  1.4727  2.5187
 7776SOL     OW34960   3.516   1.402   2.062  0.4592  0.2260  0.7687
 7776SOL    HW134961   3.497   1.473   2.001  0.1921  0.5903  1.2742
 7776SOL    HW234962   3.609   1.392   2.042  0.2014 -1.5062  0.5128
 7777SOL     OW34963   3.296   1.343  13.838  0.2969 -0.2251  0.1377
 7777SOL    HW134964   3.360   1.316  13.773 -0.0264 -1.2189  0.2407
 7777SOL    HW234965   3.220   1.354  13.780  1.8609  1.2999 -1.6148
 7778SOL     OW34966   1.573   1.721  13.257 -0.3758  0.2133  0.1102
 7778SOL    HW134967   1.631   1.790  13.226  1.4410 -1.5791 -0.4383
 7778SOL    HW234968   1.645   1.668  13.290 -1.0612 -1.7574 -1.5661
 7779SOL     OW34969   4.033   4.396   0.985 -0.4281 -1.1225 -0.9915
 7779SOL    HW134970   4.108   4.449   0.956 -0.0715 -1.7648 -1.2342
 7779SOL    HW234971   4.064   4.311   0.953 -0.1961 -1.9841  1.5596
 7780SOL     OW34972   4.385   4.549  13.756  0.8312  1.0635  0.5666
 7780SOL    HW134973   4.426   4.555  13.670  2.3804  1.9695  1.3643
 7780SOL    HW234974   4.439   4.487  13.806  1.3953  2.1073  1.2501
 7781SOL     OW34975   0.655   0.222   4.570 -0.0962 -0.3604 -0.1313
 7781SOL    HW134976   0.656   0.210   4.665 -0.7273  0.5191 -0.0190
 7781SOL    HW234977   0.716   0.151   4.550 -0.9180 -0.5050 -2.1164
 7782SOL     OW34978   0.002   1.680   8.196 -0.1706  0.2323  0.0489
 7782SOL    HW134979   4.649   1.667   8.204 -0.1861  0.0299 -0.5117
 7782SOL    HW234980   0.001   1.773   8.174  0.8427  0.3225  0.4067
 7783SOL     OW34981   3.695   3.380   6.847  0.2511 -0.4427  0.3409
 7783SOL    HW134982   3.622   3.319   6.843 -1.3687  1.7045 -2.3704
 7783SOL    HW234983   3.767   3.325   6.815 -1.3857 -2.7682  0.6988
 7784SOL     OW34984   0.201   3.504   3.977 -0.2255  0.2441 -0.7809
 7784SOL    HW134985   0.250   3.564   3.920 -1.1781  2.6528  0.9549
 7784SOL    HW234986   0.242   3.530   4.059 -2.4953  0.5883  0.2534
 7785SOL     OW34987   0.803   0.435   0.918  0.0336  0.2943  0.4917
 7785SOL    HW134988   0.877   0.455   0.861 -0.9376  0.7939 -0.5950
 7785SOL    HW234989   0.745   0.378   0.867 -0.3617  2.1540 -1.1539
 7786SOL     OW34990   0.344   0.884   2.781 -0.0884 -0.3667 -0.2094
 7786SOL    HW134991   0.406   0.866   2.711  1.0500  3.5861 -0.2618
 7786SOL    HW234992   0.405   0.868   2.852 -0.0467 -0.8488 -0.3583
 7787SOL     OW34993   0.602   0.930  14.371 -0.2480  0.1996  0.3529
 7787SOL    HW134994   0.564   1.017  14.361  1.3847  0.9435  0.5069
 7787SOL    HW234995   0.593   0.898  14.282  0.3442  1.4465 -0.1523
 7788SOL     OW34996   1.745   1.214   8.069 -0.2755  0.0727 -0.5514
 7788SOL    HW134997   1.698   1.185   7.991  1.7118 -0.3681 -1.5649
 7788SOL    HW234998   1.833   1.233   8.038 -0.5110  1.1674 -0.5597
 7789SOL     OW34999   4.722   3.826   8.640  0.3336 -0.2095 -0.1774
 7789SOL    HW135000   4.695   3.816   8.731 -0.3366 -0.4468 -0.4052
 7789SOL    HW235001   0.066   3.782   8.636  0.1502 -0.5042 -0.9163
 7790SOL     OW35002   0.217   2.358   2.047 -0.3189  0.1398  1.0764
 7790SOL    HW135003   0.274   2.390   1.977 -2.5161  2.1052  0.1643
 7790SOL    HW235004   0.226   2.263   2.052 -1.0196 -0.0116 -0.6675
 7791SOL     OW35005   1.864   3.337   8.107  0.0493  0.0225  0.3490
 7791SOL    HW135006   1.958   3.350   8.097 -0.1502  0.8272 -0.4140
 7791SOL    HW235007   1.832   3.401   8.044  2.4648 -1.0414 -1.9458
 7792SOL     OW35008   1.688   0.646  17.460  0.4034 -0.2344 -0.0874
 7792SOL    HW135009   1.685   0.695  17.542  1.2938 -1.2408  0.5455
 7792SOL    HW235010   1.641   0.711  17.407 -1.4429  0.3375  2.2555
 7793SOL     OW35011   1.226   2.321   8.325  0.8105 -0.4427  0.2359
 7793SOL    HW135012   1.145   2.351   8.366 -1.3455 -1.2785 -3.3886
 7793SOL    HW235013   1.238   2.237   8.370 -0.5405  0.9200  3.1702
 7794SOL     OW35014   2.730   3.491   3.368  0.2204  0.4308 -0.3413
 7794SOL    HW135015   2.645   3.505   3.328 -0.1551 -0.7333  0.0437
 7794SOL    HW235016   2.704   3.474   3.458 -0.8617 -2.1912 -1.1387
 7795SOL     OW35017   0.559   3.752  11.550 -0.5802 -0.2000  0.3163
 7795SOL    HW135018   0.578   3.768  11.457  0.7880 -2.2856  0.2504
 7795SOL    HW235019   0.519   3.665  11.549 -0.8276 -0.0772 -0.5260
 7796SOL     OW35020   1.691   0.165   7.297  1.0472  0.0431  0.9970
 7796SOL    HW135021   1.699   0.261   7.295  1.1588  0.1290  4.3371
 7796SOL    HW235022   1.771   0.134   7.255  0.7822 -0.4761  0.8843
 7797SOL     OW35023   4.574   4.153  11.364 -0.3233  0.1221  0.2680
 7797SOL    HW135024   4.587   4.241  11.327 -0.8209 -0.0583 -0.3356
 7797SOL    HW235025   4.533   4.110  11.289  1.2768  0.3465 -0.7395
 7798SOL     OW35026   1.147   3.632   3.880  0.0420 -0.4327 -0.2454
 7798SOL    HW135027   1.142   3.696   3.951  0.0841 -0.8367  0.1283
 7798SOL    HW235028   1.078   3.570   3.906 -0.0495  0.2878  1.2596
 7799SOL     OW35029   1.756   1.680   2.920 -0.4054 -0.8009  0.5037
 7799SOL    HW135030   1.803   1.744   2.867  1.4865 -1.7911  0.9839
 7799SOL    HW235031   1.817   1.608   2.903  0.8339  0.4738 -0.4762
 7800SOL     OW35032   1.893   3.713   1.757 -0.0656 -0.0495  0.1304
 7800SOL    HW135033   1.987   3.709   1.777 -0.0481  0.7826  0.1991
 7800SOL    HW235034   1.858   3.684   1.841 -0.4209  0.7572  0.2614
 7801SOL     OW35035   1.441   0.979   3.979 -0.2916 -0.4253 -0.2205
 7801SOL    HW135036   1.386   1.026   3.917 -0.1993 -0.5481 -0.3958
 7801SOL    HW235037   1.402   0.991   4.066 -1.0621 -0.2748 -0.5890
 7802SOL     OW35038   3.046   2.504   7.523 -0.1081 -0.3178  0.2868
 7802SOL    HW135039   3.122   2.536   7.571 -1.4849  1.9625  0.9336
 7802SOL    HW235040   3.025   2.568   7.455 -2.1213 -0.9166  0.3271
 7803SOL     OW35041   2.583   1.990  10.688 -0.2712 -0.1520  0.7228
 7803SOL    HW135042   2.589   2.005  10.594  1.4130  0.8352  0.9757
 7803SOL    HW235043   2.657   2.043  10.718 -1.2479  2.0307 -0.7254
 7804SOL     OW35044   4.663   1.396   8.000 -0.4244 -0.5912  0.3934
 7804SOL    HW135045   4.580   1.427   8.035 -1.9388 -4.1202 -0.0281
 7804SOL    HW235046   4.663   1.442   7.916 -0.2920 -1.4192 -0.0649
 7805SOL     OW35047   4.208   2.674   5.475 -0.2420 -0.0499 -0.5803
 7805SOL    HW135048   4.156   2.606   5.518  0.0243 -1.6603 -2.8375
 7805SOL    HW235049   4.262   2.623   5.416 -0.2993 -0.1200 -0.5720
 7806SOL     OW35050   2.770   0.498   0.337 -0.2621  0.7614  0.3205
 7806SOL    HW135051   2.817   0.418   0.363 -3.1870 -1.2699 -0.6344
 7806SOL    HW235052   2.824   0.526   0.262 -1.1505  2.8026  0.4590
 7807SOL     OW35053   4.181   2.708   8.883  0.0712  0.5216  0.4861
 7807SOL    HW135054   4.100   2.659   8.897  0.4287 -0.2116 -0.0562
 7807SOL    HW235055   4.139   2.793   8.895  0.7829  0.9403  0.0007
 7808SOL     OW35056   4.740   2.309   5.828 -0.6033  0.2275 -0.7355
 7808SOL    HW135057   0.028   2.248   5.896 -1.9001  1.1213  0.6177
 7808SOL    HW235058   4.663   2.263   5.795 -1.0171 -0.2471  0.8777
 7809SOL     OW35059   1.137   2.345   7.029 -0.5696  0.0398  0.1125
 7809SOL    HW135060   1.117   2.299   6.947  2.3633  0.6781 -0.9711
 7809SOL    HW235061   1.059   2.333   7.084 -0.1199 -2.9160  0.1415
 7810SOL     OW35062   0.669   0.517   5.596 -0.0077  0.2859  0.3215
 7810SOL    HW135063   0.688   0.544   5.506  1.2003  0.4143  0.6128
 7810SOL    HW235064   0.592   0.463   5.577 -0.2174  1.0708 -1.1109
 7811SOL     OW35065   1.832   2.295   2.189 -0.4285  0.7840  0.1919
 7811SOL    HW135066   1.909   2.298   2.245 -0.3530 -0.4473  0.1692
 7811SOL    HW235067   1.800   2.383   2.208 -0.8029  0.8905 -0.9273
 7812SOL     OW35068   3.312   0.636   7.135  0.2939 -0.5877 -0.3211
 7812SOL    HW135069   3.355   0.717   7.107  1.1866 -0.5709  1.1264
 7812SOL    HW235070   3.374   0.600   7.198 -0.5785 -1.4936  0.0209
 7813SOL     OW35071   0.359   4.284  10.318 -0.1476 -0.2626 -0.1214
 7813SOL    HW135072   0.347   4.248  10.230 -0.0286 -1.7492  0.4833
 7813SOL    HW235073   0.269   4.310  10.338 -0.0120  0.0623  0.0726
 7814SOL     OW35074   2.461   0.471   2.581 -0.0620 -0.0674  0.4033
 7814SOL    HW135075   2.482   0.383   2.614  1.7049  0.2260  0.0731
 7814SOL    HW235076   2.392   0.486   2.646  0.0342 -0.0924  0.5119
 7815SOL     OW35077   2.803   3.593   8.882 -0.3345 -0.1758 -0.7136
 7815SOL    HW135078   2.749   3.545   8.819  0.1511 -0.7082 -0.7283
 7815SOL    HW235079   2.769   3.682   8.877 -1.7292 -0.7176 -0.9439
 7816SOL     OW35080   0.649   3.027   6.457  0.8876 -0.0399  0.2462
 7816SOL    HW135081   0.667   2.954   6.517 -0.2709  0.2052  0.8869
 7816SOL    HW235082   0.682   2.987   6.376 -0.9450 -1.1829  0.0652
 7817SOL     OW35083   3.465   3.083  10.860  0.3345  0.5328 -0.0271
 7817SOL    HW135084   3.528   3.138  10.813  0.7735 -0.6472 -0.8208
 7817SOL    HW235085   3.436   3.139  10.932  0.0298  1.5587 -0.9493
 7818SOL     OW35086   3.328   0.129   8.030  0.1993  0.4325  0.4737
 7818SOL    HW135087   3.355   0.194   8.095  1.3500  0.5925 -0.1526
 7818SOL    HW235088   3.412   0.101   7.991  0.4325  0.4858  0.9366
 7819SOL     OW35089   0.672   0.011   3.326 -0.4424  0.0319 -0.3557
 7819SOL    HW135090   0.601   4.709   3.277  0.7787 -2.2232 -0.1194
 7819SOL    HW235091   0.678   4.689   3.398  1.8340  2.8591  1.9389
 7820SOL     OW35092   2.970   1.133   3.112  0.0416 -0.3328  0.0835
 7820SOL    HW135093   2.980   1.171   3.025  0.6208 -0.3321  0.1551
 7820SOL    HW235094   2.912   1.198   3.153 -1.0825 -2.3634  1.7256
 7821SOL     OW35095   4.079   0.002  14.018  0.1871 -0.4083 -0.0443
 7821SOL    HW135096   4.088   4.648  14.024  0.5932 -0.3308  0.6823
 7821SOL    HW235097   4.152   0.017  13.958 -0.9968  3.2282 -0.5674
 7822SOL     OW35098   2.103   4.504  15.663 -0.2390  0.0214 -0.2483
 7822SOL    HW135099   2.128   4.575  15.604  0.8422  0.5494  0.8449
 7822SOL    HW235100   2.184   4.456  15.677  0.1490  0.2559 -1.6686
 7823SOL     OW35101   2.335   2.782   0.670 -0.0754  0.2979 -0.4465
 7823SOL    HW135102   2.246   2.813   0.690 -0.3482  0.0575 -1.2895
 7823SOL    HW235103   2.359   2.761   0.761  1.8626 -3.5001 -1.8293
 7824SOL     OW35104   1.004   1.499   5.808 -0.0933 -0.2930 -0.4399
 7824SOL    HW135105   1.035   1.501   5.717 -1.5962  0.6455 -0.9442
 7824SOL    HW235106   0.910   1.496   5.788 -0.5471 -2.6536  2.0787
 7825SOL     OW35107   2.427   2.029   2.758  0.8197  0.3605 -0.0040
 7825SOL    HW135108   2.441   2.123   2.774 -2.4034  0.5030  1.9610
 7825SOL    HW235109   2.364   2.024   2.686  0.6220  1.3653  0.0955
 7826SOL     OW35110   4.696   2.785   8.132  0.2677 -0.2790 -0.0993
 7826SOL    HW135111   0.024   2.730   8.169  1.2939  0.2169 -1.2772
 7826SOL    HW235112   0.007   2.854   8.091 -0.1855  0.2769  0.2618
 7827SOL     OW35113   0.397   0.477   5.250 -0.1760 -0.2871  0.0408
 7827SOL    HW135114   0.334   0.530   5.300 -0.0874 -1.3486  1.2579
 7827SOL    HW235115   0.359   0.390   5.261  2.6218 -1.7645 -2.1107
 7828SOL     OW35116   4.057   1.549   2.404 -0.3685  0.6726  0.0198
 7828SOL    HW135117   3.981   1.493   2.384  0.1838  0.5721 -1.8333
 7828SOL    HW235118   4.131   1.503   2.363 -0.3939 -0.3748  1.1391
 7829SOL     OW35119   2.808   3.309   7.898 -0.0492  0.7045  0.2171
 7829SOL    HW135120   2.728   3.339   7.854  0.0503 -0.0718 -0.4868
 7829SOL    HW235121   2.847   3.391   7.928 -2.4738  2.5129 -1.6060
 7830SOL     OW35122   4.635   1.077  10.333 -0.1071  0.3312 -0.3358
 7830SOL    HW135123   4.590   1.142  10.387  2.4617  0.8594  1.1856
 7830SOL    HW235124   4.623   1.008  10.398  4.3644 -1.1780 -1.0772
 7831SOL     OW35125   0.698   1.903   1.831 -0.6182 -0.1404 -0.6585
 7831SOL    HW135126   0.742   1.980   1.867 -1.2295  0.2786 -0.8003
 7831SOL    HW235127   0.648   1.957   1.770 -0.2101  1.9959  0.8956
 7832SOL     OW35128   2.962   0.907  13.331 -0.1286 -0.1464 -0.3985
 7832SOL    HW135129   2.963   0.848  13.407 -0.1342 -0.8456 -0.9409
 7832SOL    HW235130   3.036   0.963  13.355  1.0561 -1.4582 -1.0403
 7833SOL     OW35131   1.974   4.354   4.201 -0.2622  0.4946  0.4319
 7833SOL    HW135132   2.046   4.295   4.181  0.9132  1.3867  1.9654
 7833SOL    HW235133   1.923   4.339   4.122 -0.2552  0.7728  0.3758
 7834SOL     OW35134   0.184   2.003   7.696  0.1270 -0.0598 -0.0185
 7834SOL    HW135135   0.135   1.956   7.628 -0.9920  1.9556 -0.5981
 7834SOL    HW235136   0.117   2.029   7.758 -0.4701 -1.0043 -0.2661
 7835SOL     OW35137   4.147   1.720   7.227 -0.7471 -0.3103  0.4593
 7835SOL    HW135138   4.133   1.810   7.199  0.7513  0.0812  1.0176
 7835SOL    HW235139   4.190   1.691   7.146 -1.3800 -0.1514  0.0627
 7836SOL     OW35140   1.014   0.192   1.958 -0.8214  0.2177  0.2195
 7836SOL    HW135141   0.969   0.166   2.038  0.0829 -0.2554  0.5745
 7836SOL    HW235142   1.103   0.171   1.984 -1.4172 -0.1665  1.9355
 7837SOL     OW35143   3.732   0.004   4.742 -0.1726 -0.0314 -0.1889
 7837SOL    HW135144   3.675   4.702   4.678 -0.0357 -2.1973  1.1326
 7837SOL    HW235145   3.747   4.674   4.804  0.6447 -0.8115 -1.2730
 7838SOL     OW35146   0.036   2.671  11.063  0.0120 -0.1381 -0.1202
 7838SOL    HW135147   0.085   2.617  11.000  0.9122  0.3679  0.1436
 7838SOL    HW235148   0.066   2.750  11.017 -1.6382  0.3290 -0.4112
 7839SOL     OW35149   1.023   4.180  12.102  0.0400 -0.0683 -0.0839
 7839SOL    HW135150   0.988   4.250  12.047  2.3394 -0.1869 -1.6813
 7839SOL    HW235151   1.050   4.241  12.170  1.8841  0.3484 -1.2108
 7840SOL     OW35152   0.875   3.251  15.163 -1.0773  0.2980  0.0324
 7840SOL    HW135153   0.819   3.175  15.148  0.0954 -0.3753 -0.9060
 7840SOL    HW235154   0.934   3.231  15.236 -0.2678 -1.1453 -1.0042
 7841SOL     OW35155   4.344   3.901   8.622  0.2321 -0.1768 -0.0311
 7841SOL    HW135156   4.304   3.862   8.699  1.1317  0.1958  0.6190
 7841SOL    HW235157   4.391   3.974   8.663  0.5990 -0.2336 -0.3477
 7842SOL     OW35158   4.081   1.866   3.915 -0.0603  0.2352  0.1837
 7842SOL    HW135159   3.998   1.867   3.868  0.6223  0.8401 -1.0096
 7842SOL    HW235160   4.138   1.892   3.843 -1.2806 -0.4561 -1.0357
 7843SOL     OW35161   1.336   0.932   8.455 -0.5968 -0.0222  0.1853
 7843SOL    HW135162   1.378   0.950   8.539  1.2297 -1.6176 -0.3747
 7843SOL    HW235163   1.413   0.887   8.421  1.1967  2.6932  0.6659
 7844SOL     OW35164   1.621   3.204  11.207  0.4774 -0.3995  0.1551
 7844SOL    HW135165   1.705   3.223  11.167  0.0028  0.9473 -0.1809
 7844SOL    HW235166   1.643   3.204  11.300  2.5958  2.2526 -0.3585
 7845SOL     OW35167   2.675   3.443  13.590  0.0892 -0.6553 -0.8759
 7845SOL    HW135168   2.630   3.358  13.591 -1.1535  0.0037 -0.5961
 7845SOL    HW235169   2.714   3.433  13.503  1.8504 -1.2256 -0.0068
 7846SOL     OW35170   0.681   0.977   4.380 -0.3923  0.0799  0.2080
 7846SOL    HW135171   0.749   0.915   4.356 -0.9864  0.1138 -1.5147
 7846SOL    HW235172   0.627   0.978   4.301  3.1214  0.2653 -2.1936
 7847SOL     OW35173   1.419   1.337   6.773  0.2117  0.1448 -0.4908
 7847SOL    HW135174   1.378   1.412   6.816  0.1081 -0.8483  1.1313
 7847SOL    HW235175   1.432   1.377   6.686  1.7350  0.1995 -0.2288
 7848SOL     OW35176   2.608   1.312  10.692  0.2207 -0.0755  0.0176
 7848SOL    HW135177   2.604   1.360  10.610 -1.8479 -0.0526  0.1124
 7848SOL    HW235178   2.684   1.345  10.740 -0.2590 -1.9956  2.1497
 7849SOL     OW35179   0.605   3.511   5.718 -0.2789 -1.0843  0.4554
 7849SOL    HW135180   0.596   3.598   5.759  1.3329 -1.8970  2.5372
 7849SOL    HW235181   0.518   3.487   5.686 -0.0623  0.6195 -1.3614
 7850SOL     OW35182   3.790   0.745   1.939  0.0524  0.0611 -0.5057
 7850SOL    HW135183   3.745   0.685   1.880  0.3201  0.8847 -1.5434
 7850SOL    HW235184   3.734   0.741   2.017  0.5279  2.3428 -0.0672
 7851SOL     OW35185   3.483   2.193   2.058  0.0284  0.8881 -0.2512
 7851SOL    HW135186   3.429   2.163   1.984 -1.5543  0.2955  1.1410
 7851SOL    HW235187   3.541   2.246   2.004  0.6267 -1.0639 -1.5381
 7852SOL     OW35188   1.167   2.281   6.754  0.3820 -0.0396  0.1495
 7852SOL    HW135189   1.123   2.357   6.717 -0.6581 -0.5085  0.4255
 7852SOL    HW235190   1.242   2.264   6.698  1.5923 -2.0364  2.3578
 7853SOL     OW35191   2.145   1.374   8.671 -0.5004  0.1786  0.8291
 7853SOL    HW135192   2.065   1.371   8.725 -1.1278 -1.4774 -0.2073
 7853SOL    HW235193   2.194   1.309   8.720 -1.4255  0.2044  1.8005
 7854SOL     OW35194   2.724   0.115   4.226 -0.0946  0.1638  0.3474
 7854SOL    HW135195   2.758   0.202   4.247 -0.4804  0.4260 -0.1260
 7854SOL    HW235196   2.715   0.127   4.132 -1.4684 -0.4159  0.3941
 7855SOL     OW35197   2.298   1.892   2.975 -0.4334  0.5194  0.4779
 7855SOL    HW135198   2.288   1.958   3.043  1.6280  0.7221  0.5806
 7855SOL    HW235199   2.383   1.910   2.934 -1.0318 -1.2226 -1.4810
 7856SOL     OW35200   4.430   2.914   7.244  0.2636  0.5368  0.8566
 7856SOL    HW135201   4.411   2.854   7.172  1.9501  0.3972  0.5228
 7856SOL    HW235202   4.433   3.001   7.204  1.3349 -0.4630 -1.2357
 7857SOL     OW35203   0.989   4.488   3.852  0.7047  0.2664 -0.0504
 7857SOL    HW135204   1.061   4.427   3.841  1.6390  1.5882 -1.3358
 7857SOL    HW235205   0.995   4.531   3.766 -0.8371  0.3559 -0.1090
 7858SOL     OW35206   1.582   2.933  11.129 -0.3668 -0.4812  0.1110
 7858SOL    HW135207   1.492   2.965  11.123 -0.3046 -0.4867 -0.7606
 7858SOL    HW235208   1.620   3.016  11.158  0.4776 -0.9632  0.3797
 7859SOL     OW35209   3.132   0.223   3.623 -0.1933  0.2637 -0.4896
 7859SOL    HW135210   3.086   0.147   3.587  2.8812 -2.0655  0.5219
 7859SOL    HW235211   3.068   0.250   3.689 -1.0969 -0.6359 -0.9960
 7860SOL     OW35212   3.203   4.557   2.664  0.3944  0.8739  0.1816
 7860SOL    HW135213   3.183   4.467   2.640  0.7847 -0.2065  3.8979
 7860SOL    HW235214   3.281   4.580   2.613  0.5471 -2.4236 -1.0439
 7861SOL     OW35215   4.008   0.709   3.911  0.2764  0.3017 -0.1328
 7861SOL    HW135216   3.914   0.717   3.927  0.5378  0.7157  1.1335
 7861SOL    HW235217   4.032   0.625   3.951  1.6139  0.4658 -0.6047
 7862SOL     OW35218   4.701   0.568   7.799 -0.1091  0.2867  0.2218
 7862SOL    HW135219   0.007   0.632   7.746 -4.0857  2.0168 -1.1921
 7862SOL    HW235220   4.623   0.584   7.746  0.5097  3.9519  0.4198
 7863SOL     OW35221   4.448   2.621   4.842  0.3605 -0.0561  0.7802
 7863SOL    HW135222   4.489   2.679   4.907 -1.7112  1.4448  0.7441
 7863SOL    HW235223   4.374   2.590   4.894 -0.3678 -0.1238 -0.2958
 7864SOL     OW35224   3.635   1.549  14.079  0.4801 -0.1500  0.0642
 7864SOL    HW135225   3.597   1.464  14.058  1.0774  0.0852 -1.9597
 7864SOL    HW235226   3.568   1.603  14.037 -0.2810 -0.8485  0.3845
 7865SOL     OW35227   3.294   1.595   6.785 -0.4188 -0.4374 -0.4869
 7865SOL    HW135228   3.220   1.565   6.732 -1.8636 -0.8720  1.7384
 7865SOL    HW235229   3.286   1.690   6.785 -1.5518 -0.5295  0.0199
 7866SOL     OW35230   0.907   2.260  13.554 -0.1183  0.0988 -0.5046
 7866SOL    HW135231   0.898   2.286  13.462 -0.6537 -0.0082 -0.4830
 7866SOL    HW235232   0.895   2.338  13.609  1.8033  0.7443 -0.9960
 7867SOL     OW35233   2.037   4.643   9.393  0.4020  0.1614 -0.0161
 7867SOL    HW135234   2.031   4.738   9.401  1.4225  0.3698 -1.8163
 7867SOL    HW235235   2.005   4.623   9.481  0.2386  0.2021 -0.0662
 7868SOL     OW35236   1.128   0.039  16.413 -0.1934 -0.0842  0.6830
 7868SOL    HW135237   1.223   0.040  16.399 -0.2050 -0.8475  0.5879
 7868SOL    HW235238   1.118   4.739  16.498 -0.8928 -1.4603 -0.0683
 7869SOL     OW35239   1.103   3.363   6.635 -0.7417  0.0210 -0.5825
 7869SOL    HW135240   1.066   3.275   6.627  1.3717 -1.0267  1.0234
 7869SOL    HW235241   1.197   3.344   6.628 -0.5315  0.7311  0.3713
 7870SOL     OW35242   3.872   3.122   5.821  0.2600  0.2893 -0.1802
 7870SOL    HW135243   3.947   3.064   5.836  0.4593 -0.0170 -2.3231
 7870SOL    HW235244   3.899   3.175   5.746 -1.4015  0.7575 -0.4441
 7871SOL     OW35245   0.235   2.008  14.948  0.5120  0.0341 -0.0453
 7871SOL    HW135246   0.325   2.024  14.975 -0.3560  2.7696  1.3234
 7871SOL    HW235247   0.189   2.015  15.031  0.9661  0.9828  0.1328
 7872SOL     OW35248   2.122   4.504   2.606 -0.7170  0.9034  0.0068
 7872SOL    HW135249   2.215   4.508   2.584 -0.8996  0.0960 -0.9078
 7872SOL    HW235250   2.097   4.590   2.640 -1.0343  1.4900 -1.6830
 7873SOL     OW35251   0.374   0.200   7.605 -0.2911 -0.1399  0.0504
 7873SOL    HW135252   0.388   0.128   7.543 -0.9663  1.9985 -2.6044
 7873SOL    HW235253   0.465   0.223   7.624 -0.8640  0.9670  1.4271
 7874SOL     OW35254   4.324   2.653   6.142 -0.4701  0.6123  0.2925
 7874SOL    HW135255   4.335   2.627   6.051  0.6862  2.7295 -0.1601
 7874SOL    HW235256   4.233   2.625   6.154 -0.1406 -1.0179 -1.1386
 7875SOL     OW35257   3.832   3.582  16.458 -0.1595  0.1405 -0.0599
 7875SOL    HW135258   3.783   3.590  16.376  1.5899  2.7616 -0.8549
 7875SOL    HW235259   3.771   3.536  16.515 -0.7838  0.3627 -0.5359
 7876SOL     OW35260   1.373   4.366   2.188  0.2212 -0.2220 -0.2781
 7876SOL    HW135261   1.363   4.392   2.279 -2.1421 -0.3917 -0.4924
 7876SOL    HW235262   1.338   4.278   2.192 -0.4073  0.0124 -0.6433
 7877SOL     OW35263   4.567   0.016  16.670 -0.6435 -0.9552 -0.6894
 7877SOL    HW135264   4.527   4.691  16.613  0.7361 -1.3720 -1.1703
 7877SOL    HW235265   4.659   0.018  16.645 -0.6310  0.9447 -0.5188
 7878SOL     OW35266   3.534   2.969  16.818 -0.1054 -0.3518 -0.1020
 7878SOL    HW135267   3.479   2.942  16.891 -0.3028 -0.2325 -0.2049
 7878SOL    HW235268   3.475   3.036  16.782  0.0600 -1.5869 -2.6862
 7879SOL     OW35269   1.912   1.672   6.710 -0.1187 -0.5202  0.0443
 7879SOL    HW135270   1.872   1.592   6.676 -0.6609 -1.1144  2.0414
 7879SOL    HW235271   1.882   1.658   6.800 -2.2646  0.5958 -0.5106
 7880SOL     OW35272   2.547   2.153   4.035 -0.1499  0.1478 -0.4077
 7880SOL    HW135273   2.478   2.154   3.969  0.1326  0.6629 -0.6974
 7880SOL    HW235274   2.605   2.082   4.008 -0.4705 -0.2947  0.0621
 7881SOL     OW35275   2.914   0.614   7.983 -0.1725 -0.2816  0.0538
 7881SOL    HW135276   2.924   0.519   7.975 -1.5589 -0.2847 -1.8073
 7881SOL    HW235277   2.861   0.639   7.907  0.8733 -1.3398 -1.0218
 7882SOL     OW35278   4.713   3.976   6.441 -0.7824 -0.2136  0.0215
 7882SOL    HW135279   4.686   4.065   6.465 -1.3421  0.0520 -1.5573
 7882SOL    HW235280   4.722   3.992   6.347 -0.8095  1.5087  0.3102
 7883SOL     OW35281   1.060   0.199   3.508  0.0884 -0.8798 -0.0169
 7883SOL    HW135282   0.998   0.174   3.439  1.1015 -0.2368 -1.1619
 7883SOL    HW235283   1.004   0.219   3.583 -0.3069 -2.2509  0.0595
 7884SOL     OW35284   2.169   0.084   3.216 -0.2904  0.4664 -0.4440
 7884SOL    HW135285   2.076   0.095   3.234 -0.8200 -0.7393 -2.6098
 7884SOL    HW235286   2.194   0.045   3.300 -0.3764  2.0742  0.3474
 7885SOL     OW35287   0.952   3.211   2.255 -0.1280  0.0369 -0.0477
 7885SOL    HW135288   0.982   3.129   2.295 -0.7436  0.2655  0.8923
 7885SOL    HW235289   0.926   3.173   2.171  1.1527  0.4307 -0.6125
 7886SOL     OW35290   3.870   3.860   6.630  0.6133 -0.3911  0.6110
 7886SOL    HW135291   3.827   3.817   6.705 -1.7886 -0.5044 -0.8413
 7886SOL    HW235292   3.837   3.813   6.554 -2.0306 -0.4101  1.7650
 7887SOL     OW35293   0.015   0.779   2.586  0.2215  0.2786 -0.6743
 7887SOL    HW135294   4.662   0.776   2.602  0.0336 -0.3787 -1.9560
 7887SOL    HW235295   0.037   0.853   2.644  1.3975  0.4818 -1.3766
 7888SOL     OW35296   3.700   1.864   6.496  0.4238 -0.2884 -0.0239
 7888SOL    HW135297   3.691   1.827   6.584 -1.5701  0.0574 -0.0825
 7888SOL    HW235298   3.793   1.887   6.499 -0.0508  1.0293  3.7181
 7889SOL     OW35299   1.649   2.463  13.127 -0.4616 -0.1817 -0.2050
 7889SOL    HW135300   1.627   2.370  13.125 -1.0930 -0.0016 -1.6234
 7889SOL    HW235301   1.743   2.460  13.109 -0.2425 -0.8896  1.0488
 7890SOL     OW35302   2.059   4.372  10.935  0.0196 -0.2609  0.3357
 7890SOL    HW135303   2.075   4.392  10.843 -1.1224 -0.0443  0.1825
 7890SOL    HW235304   2.060   4.461  10.969  0.6240  0.9455 -2.7915
 7891SOL     OW35305   4.265   0.867   4.068  0.3745  0.3636 -0.0717
 7891SOL    HW135306   4.203   0.794   4.068 -1.5164  1.9721  2.3056
 7891SOL    HW235307   4.330   0.845   4.135  1.2425  0.1445 -0.9780
 7892SOL     OW35308   4.611   2.148   6.193  0.5473  0.6982  0.0546
 7892SOL    HW135309   4.633   2.203   6.268 -1.3867  1.3041  0.1827
 7892SOL    HW235310   4.690   2.148   6.139 -1.0080 -0.5443 -2.2154
 7893SOL     OW35311   3.363   2.821   8.065  0.4897 -0.0810 -0.0666
 7893SOL    HW135312   3.377   2.758   8.136 -0.6850 -0.1965  0.0616
 7893SOL    HW235313   3.375   2.902   8.115  1.2596 -1.4166  1.9262
 7894SOL     OW35314   4.226   0.938   7.225 -0.1083  0.0309  0.2031
 7894SOL    HW135315   4.198   0.867   7.283 -0.4035  1.0514  1.3063
 7894SOL    HW235316   4.296   0.887   7.185 -0.5525  0.5828 -1.2536
 7895SOL     OW35317   2.737   3.955   3.027  0.4215  0.5394  0.1314
 7895SOL    HW135318   2.737   3.996   3.114 -1.1152 -0.9130  0.8038
 7895SOL    HW235319   2.642   3.962   3.016  0.8154  0.2971 -3.3517
 7896SOL     OW35320   0.437   0.503   3.614 -0.0015  0.0027 -0.0125
 7896SOL    HW135321   0.453   0.445   3.540  1.2870 -3.2666  2.8097
 7896SOL    HW235322   0.496   0.578   3.600  1.3222 -0.6603  1.9265
 7897SOL     OW35323   4.043   0.057   2.016  0.2127 -0.1087  0.4845
 7897SOL    HW135324   3.952   0.028   2.016  0.7475 -1.7701  0.5127
 7897SOL    HW235325   4.034   0.090   2.105 -1.2734  0.2170  0.2050
 7898SOL     OW35326   3.886   2.571   6.430  0.1447 -0.0857 -0.2850
 7898SOL    HW135327   3.830   2.648   6.437  0.2546 -0.0848  0.6450
 7898SOL    HW235328   3.840   2.525   6.361 -0.5857  2.1462 -1.3049
 7899SOL     OW35329   3.444   2.334   5.046 -0.0385  0.2468  0.3188
 7899SOL    HW135330   3.460   2.316   4.953 -0.6819  0.2949  0.2013
 7899SOL    HW235331   3.489   2.261   5.088 -0.1790  0.0874  0.1927
 7900SOL     OW35332   0.937   3.157   5.862  0.5994  0.0803 -0.4028
 7900SOL    HW135333   0.864   3.184   5.918  0.7529 -1.8620  0.7111
 7900SOL    HW235334   0.892   3.118   5.787  1.9031  0.9470 -1.6333
 7901SOL     OW35335   0.511   3.887   8.992  0.1017  0.0183  0.2361
 7901SOL    HW135336   0.543   3.975   9.012 -0.7500  0.4160 -0.1670
 7901SOL    HW235337   0.420   3.895   9.020  0.8033  3.1969  1.5647
 7902SOL     OW35338   0.675   3.612   8.165  0.3357 -0.5191 -0.4899
 7902SOL    HW135339   0.653   3.701   8.191  0.7927 -0.7617  0.7306
 7902SOL    HW235340   0.767   3.618   8.139 -0.6243 -2.3600 -4.3871
 7903SOL     OW35341   0.146   0.781   4.164  0.1572  0.1366 -0.0875
 7903SOL    HW135342   0.059   0.820   4.165 -0.0162 -0.3220  1.9077
 7903SOL    HW235343   0.207   0.845   4.202 -1.1859  1.7013 -0.5739
 7904SOL     OW35344   0.920   3.963  12.247 -0.1056  0.4429  0.1457
 7904SOL    HW135345   1.007   3.933  12.274  0.3425  2.0324  0.4449
 7904SOL    HW235346   0.938   4.038  12.190  0.9879 -0.4596 -0.7047
 7905SOL     OW35347   0.419   2.742  13.026  0.9011 -0.2246 -0.1982
 7905SOL    HW135348   0.457   2.829  13.038 -0.2636  0.2779 -0.2274
 7905SOL    HW235349   0.386   2.718  13.113  1.1038  0.0487 -0.0463
 7906SOL     OW35350   4.690   2.392  13.426  0.0000  0.0084 -0.0676
 7906SOL    HW135351   4.648   2.473  13.398 -0.6969 -0.0509  0.8036
 7906SOL    HW235352   4.615   2.348  13.466  0.9274  0.3459  2.0571
 7907SOL     OW35353   3.913   0.679   3.341  0.2480  0.2578 -0.1749
 7907SOL    HW135354   3.884   0.753   3.394 -1.8486 -0.9159  0.2859
 7907SOL    HW235355   3.979   0.727   3.290  0.1912 -2.2184 -2.5506
 7908SOL     OW35356   2.995   0.951   0.495  0.0680  0.4736  0.2070
 7908SOL    HW135357   3.039   0.900   0.564  0.6385 -0.1293 -0.6016
 7908SOL    HW235358   2.942   0.892   0.441  0.9729 -1.0636  0.9810
 7909SOL     OW35359   1.745   0.460   6.561 -0.1272  0.4120  0.1842
 7909SOL    HW135360   1.838   0.475   6.547 -0.2688 -0.5033 -1.8113
 7909SOL    HW235361   1.718   0.453   6.469  0.7113 -3.3986  0.2423
 7910SOL     OW35362   1.823   2.685   2.014 -0.1599  0.6695 -0.1213
 7910SOL    HW135363   1.819   2.661   2.106 -0.3919  1.0243 -0.0374
 7910SOL    HW235364   1.744   2.738   2.007 -1.1619 -0.7489  0.6525
 7911SOL     OW35365   0.800   0.729   0.239  0.0350 -0.0355  0.3434
 7911SOL    HW135366   0.888   0.738   0.275  0.7759 -2.5847 -0.9060
 7911SOL    HW235367   0.795   0.804   0.179  1.8714  0.0374  0.2897
 7912SOL     OW35368   0.668   3.025  15.639 -0.2705 -0.6166  0.1316
 7912SOL    HW135369   0.758   2.994  15.624  0.1868  1.3263 -1.1357
 7912SOL    HW235370   0.622   2.944  15.619  1.0827 -1.5592  0.8157
 7913SOL     OW35371   0.531   0.653   4.069 -0.1307 -0.2410 -0.4791
 7913SOL    HW135372   0.578   0.591   4.126  0.7104  2.0019  1.2484
 7913SOL    HW235373   0.486   0.600   4.003 -0.6325  0.6979 -0.8797
 7914SOL     OW35374   1.191   2.499   4.656  0.6275  0.5202  0.5128
 7914SOL    HW135375   1.159   2.561   4.722 -2.4404  0.0426 -0.5045
 7914SOL    HW235376   1.121   2.510   4.592  0.4139 -2.3641  0.2660
 7915SOL     OW35377   3.896   2.382   1.817  0.2490 -0.2707 -0.3624
 7915SOL    HW135378   3.861   2.465   1.786  1.8704  0.3940 -0.3940
 7915SOL    HW235379   3.818   2.330   1.799  0.1596  0.2471 -1.4623
 7916SOL     OW35380   1.607   0.072  17.583  0.0971  0.5527  0.1227
 7916SOL    HW135381   1.542   0.003  17.598  2.9080 -2.0621  0.3263
 7916SOL    HW235382   1.667   0.053  17.655  0.8428  0.5105 -0.5177
 7917SOL     OW35383   2.940   3.071   9.707 -0.0951  0.7538 -0.2651
 7917SOL    HW135384   2.969   3.132   9.775  0.4113  2.7890 -2.3040
 7917SOL    HW235385   2.989   3.104   9.631 -0.4509  2.1040  0.0818
 7918SOL     OW35386   1.380   1.425  13.408 -0.0773 -0.1131  0.0868
 7918SOL    HW135387   1.348   1.435  13.497  2.4430  0.5430  0.9198
 7918SOL    HW235388   1.353   1.499  13.353 -1.7618 -0.6327  0.2258
 7919SOL     OW35389   2.028   2.617   6.839 -0.6165  1.0867  0.1860
 7919SOL    HW135390   1.946   2.605   6.887  0.1403 -2.3370  0.6093
 7919SOL    HW235391   2.057   2.702   6.874  1.2680  0.2401  0.6486
 7920SOL     OW35392   2.746   2.360   2.690 -0.3849 -0.2281  0.3177
 7920SOL    HW135393   2.806   2.420   2.645 -0.2624 -0.4143  0.2349
 7920SOL    HW235394   2.681   2.419   2.728  0.1565 -0.0147  0.9219
 7921SOL     OW35395   4.489   0.048   4.357 -0.2592 -0.3793  0.2874
 7921SOL    HW135396   4.502   0.143   4.347  0.6562 -0.6279 -0.8093
 7921SOL    HW235397   4.564   0.012   4.311  0.3792  1.2252  0.0533
 7922SOL     OW35398   3.920   1.593   0.837  0.1853 -0.1640 -0.4468
 7922SOL    HW135399   3.997   1.545   0.867  0.8404  1.4927  0.4970
 7922SOL    HW235400   3.876   1.539   0.772 -0.8787 -0.5542  0.5901
 7923SOL     OW35401   1.793   2.290   9.053  0.4963  0.1871  0.6073
 7923SOL    HW135402   1.759   2.312   9.140  0.8128  1.3469  0.4369
 7923SOL    HW235403   1.860   2.354   9.030  2.5088 -1.2333  2.5848
 7924SOL     OW35404   3.141   3.570   4.520  0.4489 -0.1765  0.4174
 7924SOL    HW135405   3.178   3.601   4.437  0.2113  1.6938  1.0171
 7924SOL    HW235406   3.216   3.580   4.579 -1.7481  0.4044  3.1062
 7925SOL     OW35407   2.756   3.345   3.650 -0.2317 -0.1411  0.5169
 7925SOL    HW135408   2.741   3.304   3.735 -0.1749  0.7453  0.9479
 7925SOL    HW235409   2.809   3.419   3.679  0.8306  0.5477 -3.1175
 7926SOL     OW35410   0.483   0.993   6.798 -0.2507  0.2074 -0.6169
 7926SOL    HW135411   0.488   0.904   6.763  1.5469 -0.5070  1.4139
 7926SOL    HW235412   0.408   1.021   6.745 -1.4205  0.7652  1.3281
 7927SOL     OW35413   1.231   2.572   8.729  0.4226  0.2614  0.1198
 7927SOL    HW135414   1.143   2.588   8.761  0.8766 -0.9386  1.9724
 7927SOL    HW235415   1.230   2.483   8.692  1.5376 -0.1519  1.0948
 7928SOL     OW35416   0.971   4.186  14.780  0.0482 -0.2728 -0.2131
 7928SOL    HW135417   1.051   4.154  14.738  0.2867  0.8484 -0.6196
 7928SOL    HW235418   0.943   4.109  14.829 -0.0583 -0.5764 -0.7472
 7929SOL     OW35419   4.147   2.197   7.780 -0.3447 -0.0910 -0.3460
 7929SOL    HW135420   4.068   2.175   7.830  0.1057 -0.5199  0.1884
 7929SOL    HW235421   4.163   2.291   7.789  0.6056 -0.3121  0.2396
 7930SOL     OW35422   1.638   1.180   5.658  0.3504  0.2706 -0.3500
 7930SOL    HW135423   1.584   1.170   5.580  0.9641 -0.5588 -0.6738
 7930SOL    HW235424   1.679   1.094   5.670 -0.2285 -0.0183 -0.4112
 7931SOL     OW35425   2.361   0.879  10.079  0.0931 -0.2280  0.2942
 7931SOL    HW135426   2.404   0.964  10.070 -2.5780  1.1324  0.2374
 7931SOL    HW235427   2.394   0.856  10.166  0.3796 -0.0259  0.2404
 7932SOL     OW35428   2.135   2.613  15.250 -0.2929 -0.0023 -0.0643
 7932SOL    HW135429   2.102   2.566  15.326  1.1937  0.1758  0.6956
 7932SOL    HW235430   2.054   2.652  15.216  0.4302  1.1577 -0.4703
 7933SOL     OW35431   3.000   0.500   0.799  0.4703  0.3809 -0.0117
 7933SOL    HW135432   3.018   0.406   0.801 -0.7913  0.1450  0.1481
 7933SOL    HW235433   3.084   0.539   0.774  0.9038 -1.1948 -1.0263
 7934SOL     OW35434   0.602   3.882   3.617  0.1089 -0.1686 -0.1650
 7934SOL    HW135435   0.512   3.913   3.633  0.0848  0.3696 -1.3689
 7934SOL    HW235436   0.626   3.838   3.698  1.1255  1.6449  0.5097
 7935SOL     OW35437   1.613   4.264   0.574  0.3756 -0.6854  0.4987
 7935SOL    HW135438   1.533   4.224   0.607 -0.4401  0.0943 -0.5502
 7935SOL    HW235439   1.623   4.333   0.640  1.6924 -0.0248 -0.3956
 7936SOL     OW35440   1.358   3.494  10.280 -0.2504  0.0384  0.2981
 7936SOL    HW135441   1.306   3.523  10.205 -0.0696 -1.1604 -0.2880
 7936SOL    HW235442   1.428   3.559  10.278  0.3128 -0.5909 -0.5838
 7937SOL     OW35443   0.912   0.216   6.896  0.0376  0.3638 -0.0206
 7937SOL    HW135444   0.839   0.155   6.908 -0.4449  0.5886 -1.9094
 7937SOL    HW235445   0.894   0.238   6.805  0.7039 -0.7605 -0.4102
 7938SOL     OW35446   3.383   2.375  10.949  0.4571  0.1961  0.3918
 7938SOL    HW135447   3.380   2.292  10.996 -1.1197 -0.9434 -1.7318
 7938SOL    HW235448   3.295   2.396  10.979  0.3857 -1.7727  1.5458
 7939SOL     OW35449   0.344   1.885   8.260 -0.0931 -0.3306 -0.1993
 7939SOL    HW135450   0.417   1.907   8.318 -0.3350 -0.9552  0.3441
 7939SOL    HW235451   0.276   1.876   8.326 -0.6795 -2.1504 -1.0559
 7940SOL     OW35452   2.034   0.623   5.172 -0.4044  0.1798 -0.1808
 7940SOL    HW135453   2.119   0.633   5.129 -0.5676 -3.2611 -1.2773
 7940SOL    HW235454   2.038   0.531   5.197 -2.3307  0.4605  1.1967
 7941SOL     OW35455   1.703   3.693  15.716  0.0188 -0.4442 -0.1092
 7941SOL    HW135456   1.665   3.607  15.732 -2.4014  0.4637 -1.0950
 7941SOL    HW235457   1.644   3.723  15.647 -0.4988 -0.6731  0.2351
 7942SOL     OW35458   0.333   1.337   6.511 -0.4171 -0.3645  0.1458
 7942SOL    HW135459   0.365   1.372   6.428 -0.6164  1.3475  0.7963
 7942SOL    HW235460   0.389   1.373   6.579 -2.4415  1.1490  1.0049
 7943SOL     OW35461   3.878   2.532  10.632  0.7955  0.3536 -0.1114
 7943SOL    HW135462   3.942   2.591  10.672  1.2284  0.0212 -0.3186
 7943SOL    HW235463   3.884   2.457  10.691 -1.7327 -0.9889 -1.5232
 7944SOL     OW35464   0.116   4.238  10.123 -0.2157  0.4843  0.2350
 7944SOL    HW135465   0.109   4.267  10.032  0.1480  0.9110  0.3422
 7944SOL    HW235466   0.028   4.246  10.157 -0.2521  0.9883  0.0225
 7945SOL     OW35467   1.669   0.957   3.839 -0.0276 -0.0853  0.0669
 7945SOL    HW135468   1.683   1.051   3.849 -0.9740  0.2598 -1.8512
 7945SOL    HW235469   1.586   0.952   3.888 -1.9119  1.9509 -2.8967
 7946SOL     OW35470   3.817   3.344   8.587 -0.2116 -0.3803  0.0903
 7946SOL    HW135471   3.725   3.364   8.603  0.6058  0.1300  4.0835
 7946SOL    HW235472   3.819   3.295   8.505  0.9659  2.1145 -1.3625
 7947SOL     OW35473   3.301   2.697  16.487  0.1325 -0.2128  0.2383
 7947SOL    HW135474   3.322   2.604  16.482 -0.5684 -0.3055 -1.0544
 7947SOL    HW235475   3.316   2.726  16.397 -1.3747 -1.5408 -0.4401
 7948SOL     OW35476   0.462   3.566   3.723  0.2989 -0.2682 -0.1688
 7948SOL    HW135477   0.555   3.586   3.719  0.2433 -0.4510 -2.0473
 7948SOL    HW235478   0.462   3.493   3.784 -2.8635 -0.4156 -0.3204
 7949SOL     OW35479   0.539   4.154   1.891  0.2832  0.4714  0.2133
 7949SOL    HW135480   0.553   4.241   1.928 -2.4756  1.4997 -1.1677
 7949SOL    HW235481   0.447   4.156   1.865 -0.3894  0.4333  2.6157
 7950SOL     OW35482   1.623   4.571   3.146  0.0149 -0.6787 -0.2501
 7950SOL    HW135483   1.575   4.526   3.215  0.2066 -1.6792 -0.7676
 7950SOL    HW235484   1.686   4.503   3.123  0.6165  0.0088 -0.6506
 7951SOL     OW35485   1.544   2.417   1.646  0.8410 -0.3219 -0.4839
 7951SOL    HW135486   1.627   2.439   1.605  1.3480 -1.9076 -0.3028
 7951SOL    HW235487   1.510   2.336   1.608 -0.6887  0.3269 -0.4884
 7952SOL     OW35488   2.536   2.181   7.787  0.1792  0.4337  0.4926
 7952SOL    HW135489   2.475   2.111   7.762  0.0843  1.2784 -1.5633
 7952SOL    HW235490   2.536   2.164   7.882  1.4835  1.1546  0.6155
 7953SOL     OW35491   2.579   3.285   4.800  0.0115 -0.6524 -0.5056
 7953SOL    HW135492   2.586   3.191   4.786  1.6416 -0.2656 -2.3703
 7953SOL    HW235493   2.493   3.282   4.840  0.4004  0.4830  0.4146
 7954SOL     OW35494   2.945   1.979  15.475  0.2622  0.4840  0.0550
 7954SOL    HW135495   2.853   2.004  15.484  0.0490  0.7617 -3.0124
 7954SOL    HW235496   2.944   1.928  15.394  1.8716  0.4942  0.0399
 7955SOL     OW35497   3.389   2.880   2.558  0.2314 -0.4948 -0.0218
 7955SOL    HW135498   3.362   2.790   2.578  1.4329 -0.6869  0.7585
 7955SOL    HW235499   3.359   2.888   2.468 -1.9960  1.8533  0.9584
 7956SOL     OW35500   2.255   0.167   2.486 -0.2744  0.2769 -0.5159
 7956SOL    HW135501   2.216   0.182   2.400 -0.6401  1.0784 -0.2050
 7956SOL    HW235502   2.300   0.251   2.490 -0.5215  0.4206 -0.7110
 7957SOL     OW35503   2.196   3.003   8.461  0.5592 -0.8867 -0.4459
 7957SOL    HW135504   2.273   2.966   8.417  0.6242 -1.4660  0.1630
 7957SOL    HW235505   2.132   2.933   8.450  0.4266 -1.2138  2.3375
 7958SOL     OW35506   3.573   1.838  15.554  0.1280  0.3972 -0.3867
 7958SOL    HW135507   3.496   1.884  15.520 -1.0255 -2.0450 -1.0107
 7958SOL    HW235508   3.571   1.756  15.505 -1.5373 -1.0943  2.1441
 7959SOL     OW35509   1.372   0.977  12.413  0.3259 -0.0439  0.1260
 7959SOL    HW135510   1.381   1.072  12.411 -1.1400  0.0908  0.0325
 7959SOL    HW235511   1.418   0.956  12.495  1.6682  1.8347 -0.1707
 7960SOL     OW35512   1.181   1.744   9.333 -0.1635 -0.7645 -0.0931
 7960SOL    HW135513   1.100   1.769   9.289 -1.3410 -0.6224  2.1373
 7960SOL    HW235514   1.249   1.755   9.267 -1.1158 -0.8151 -1.0746
 7961SOL     OW35515   4.222   3.528   8.516  0.1991  0.2953  0.3876
 7961SOL    HW135516   4.132   3.525   8.549  0.5105  1.1152  1.2867
 7961SOL    HW235517   4.220   3.442   8.474  1.3368  0.2279  0.4759
 7962SOL     OW35518   0.166   2.398   0.110  0.0453  0.4833  0.2716
 7962SOL    HW135519   0.180   2.480   0.063 -1.9549  1.7818  1.9295
 7962SOL    HW235520   0.135   2.335   0.045  1.1463  2.0512 -1.7526
 7963SOL     OW35521   4.307   2.983   7.679 -0.1098  0.2470  0.0094
 7963SOL    HW135522   4.327   2.945   7.765  0.2236 -0.3304 -0.3209
 7963SOL    HW235523   4.365   2.931   7.623 -2.7543 -0.3370 -2.1587
 7964SOL     OW35524   0.930   4.067   9.875 -0.1167  0.0234  0.3667
 7964SOL    HW135525   0.899   4.037   9.789  0.0370  1.5995 -0.2415
 7964SOL    HW235526   0.877   4.147   9.880 -1.0135 -0.7579  3.2699
 7965SOL     OW35527   1.435   4.575   7.453 -0.2263  0.4296 -0.1300
 7965SOL    HW135528   1.417   4.645   7.390  1.0193 -1.1376 -2.2265
 7965SOL    HW235529   1.524   4.593   7.483  0.2819 -1.6266 -0.4561
 7966SOL     OW35530   0.315   2.352   9.036  0.0123  0.5433  0.1859
 7966SOL    HW135531   0.345   2.364   8.946  2.2974 -0.9871  0.7473
 7966SOL    HW235532   0.347   2.264   9.059 -0.8475 -0.0044 -0.7124
 7967SOL     OW35533   3.816   0.997   3.028  0.0334 -0.2468 -0.4151
 7967SOL    HW135534   3.843   1.044   3.106  1.2906 -1.5507 -0.0620
 7967SOL    HW235535   3.757   1.065   2.996 -0.6328 -2.0605 -3.1239
 7968SOL     OW35536   1.027   2.352   3.855  0.3343  0.3998 -0.2943
 7968SOL    HW135537   1.012   2.305   3.937 -0.8293  2.2738  0.5695
 7968SOL    HW235538   1.005   2.286   3.789  3.8381  0.6502 -1.7224
 7969SOL     OW35539   2.393   1.115   5.341  0.8199  0.5496  0.2565
 7969SOL    HW135540   2.363   1.132   5.252  3.0002  3.8476  0.1610
 7969SOL    HW235541   2.429   1.197   5.375  2.7911 -0.4317  0.5087
 7970SOL     OW35542   3.370   3.389   0.943 -0.0879  0.2915  0.0045
 7970SOL    HW135543   3.353   3.392   0.849  1.2778  0.7118 -0.2330
 7970SOL    HW235544   3.437   3.321   0.950  0.2290  0.7216  1.0994
 7971SOL     OW35545   1.118   2.125   1.090  0.6409  0.1083 -0.1739
 7971SOL    HW135546   1.176   2.050   1.102 -1.3443 -1.7236 -1.9478
 7971SOL    HW235547   1.035   2.085   1.063  0.9016 -0.3132 -0.3544
 7972SOL     OW35548   1.745   2.893   5.174  0.2821  0.4094 -0.4275
 7972SOL    HW135549   1.752   2.952   5.099 -1.7571 -2.9646 -3.2506
 7972SOL    HW235550   1.677   2.948   5.213  0.9109  0.2087  0.9779
 7973SOL     OW35551   3.806   3.304   2.509 -0.2028  0.9393  0.0723
 7973SOL    HW135552   3.852   3.324   2.590 -0.3437 -2.3297  0.9632
 7973SOL    HW235553   3.868   3.272   2.444  3.1485  2.5365  2.4967
 7974SOL     OW35554   4.096   4.055   2.109  0.2825 -0.5245 -0.1316
 7974SOL    HW135555   4.120   3.998   2.182  0.0096  0.4560  0.7265
 7974SOL    HW235556   4.002   4.045   2.125  0.2089  0.3520 -0.0260
 7975SOL     OW35557   2.515   3.434  10.303 -0.0668 -0.1148 -0.1373
 7975SOL    HW135558   2.592   3.464  10.351  0.2501 -0.7021 -0.2861
 7975SOL    HW235559   2.550   3.440  10.214  0.2774  2.7134  0.1914
 7976SOL     OW35560   3.718   4.449   2.149  0.3502 -0.4953 -0.3204
 7976SOL    HW135561   3.635   4.413   2.120 -0.4592  0.4616  0.7643
 7976SOL    HW235562   3.714   4.457   2.245  0.6088 -1.0953 -0.2636
 7977SOL     OW35563   1.081   0.808   8.453 -0.4345 -0.2112  0.0181
 7977SOL    HW135564   1.167   0.847   8.465 -0.7012  0.1290  0.8872
 7977SOL    HW235565   1.072   0.842   8.364 -1.2260  3.2726  1.4413
 7978SOL     OW35566   2.900   3.637   4.395 -0.0357 -0.0191  0.8587
 7978SOL    HW135567   2.970   3.582   4.430  0.6464 -0.3779 -1.0761
 7978SOL    HW235568   2.829   3.612   4.454 -1.1506 -0.0001 -0.4739
 7979SOL     OW35569   2.408   3.690  12.558 -0.8568 -0.0695 -0.1237
 7979SOL    HW135570   2.313   3.684  12.543 -0.6012 -1.6671 -1.1082
 7979SOL    HW235571   2.407   3.769  12.611 -0.1363  0.7568 -1.3457
 7980SOL     OW35572   1.653   3.942  10.057 -0.3928 -0.0182  0.5074
 7980SOL    HW135573   1.589   3.930   9.987 -1.2072  1.2850  1.0242
 7980SOL    HW235574   1.663   4.037  10.053  0.2180 -0.0797  0.5162
 7981SOL     OW35575   3.292   3.099  16.657  0.0765  0.1392 -0.0947
 7981SOL    HW135576   3.211   3.130  16.617 -1.6615 -3.3770  0.7795
 7981SOL    HW235577   3.352   3.110  16.583  0.8087 -1.3838  0.2765
 7982SOL     OW35578   1.601   2.829  16.943  0.0395  0.1981 -0.6549
 7982SOL    HW135579   1.674   2.811  16.885 -1.0801  0.2385 -2.0813
 7982SOL    HW235580   1.649   2.866  17.018 -0.2426 -0.6184 -0.0654
 7983SOL     OW35581   4.060   4.552   4.714 -0.1718 -0.5153 -0.0348
 7983SOL    HW135582   4.122   4.541   4.785 -0.4228  1.0319  0.4154
 7983SOL    HW235583   3.979   4.539   4.763  0.0427 -0.7438  0.2609
 7984SOL     OW35584   3.391   4.174   6.318 -0.2363 -0.7829 -0.3063
 7984SOL    HW135585   3.481   4.205   6.330 -0.4760 -1.4045  2.9996
 7984SOL    HW235586   3.402   4.124   6.237 -1.7190 -1.0260 -0.3570
 7985SOL     OW35587   0.371   3.643   5.070  0.1848  0.1482  0.1257
 7985SOL    HW135588   0.443   3.582   5.088  0.6241  0.5017 -0.4109
 7985SOL    HW235589   0.388   3.708   5.137 -0.1058  1.6852 -1.2918
 7986SOL     OW35590   4.349   0.770   5.452  0.0726 -0.0046  0.2059
 7986SOL    HW135591   4.305   0.854   5.460  1.2614  0.6698 -0.3570
 7986SOL    HW235592   4.296   0.722   5.388  0.1400  0.0660  0.0968
 7987SOL     OW35593   4.603   1.669  13.085 -0.3168  0.4246  0.2877
 7987SOL    HW135594   4.540   1.597  13.099  1.4738 -1.2883 -0.5035
 7987SOL    HW235595   4.682   1.617  13.101  0.1697  1.5786  1.5884
 7988SOL     OW35596   2.037   3.481   9.455 -0.2081  0.0652  0.1405
 7988SOL    HW135597   2.076   3.501   9.370  0.7713  1.0815  0.8350
 7988SOL    HW235598   2.067   3.391   9.466  2.0916  0.7542 -0.5031
 7989SOL     OW35599   1.058   3.012   6.073 -0.0713 -0.2880 -0.0355
 7989SOL    HW135600   1.027   3.072   6.005  0.9246  0.8475  0.5064
 7989SOL    HW235601   1.119   2.952   6.029 -0.2610 -1.3568  1.1812
 7990SOL     OW35602   2.473   3.320  12.913  0.8689  0.4771  0.2328
 7990SOL    HW135603   2.382   3.351  12.918  0.1636 -1.2020 -1.7891
 7990SOL    HW235604   2.507   3.374  12.841 -0.9637  0.3808 -0.7098
 7991SOL     OW35605   0.279   2.565   6.255 -0.1360  0.3471 -0.1920
 7991SOL    HW135606   0.232   2.648   6.263 -0.2847  0.1442  1.0986
 7991SOL    HW235607   0.312   2.545   6.343 -1.7339 -0.0189  0.3216
 7992SOL     OW35608   1.740   1.786   7.563 -0.0233 -1.0138 -0.1297
 7992SOL    HW135609   1.696   1.830   7.636 -1.6721  2.5601 -3.2933
 7992SOL    HW235610   1.721   1.856   7.501  0.0630 -0.1654  0.8131
 7993SOL     OW35611   2.552   0.236   9.057  0.0509 -0.1745 -0.2895
 7993SOL    HW135612   2.458   0.252   9.054 -0.1933 -1.4119  0.8905
 7993SOL    HW235613   2.560   0.208   8.966 -3.6000  0.5436 -0.8171
 7994SOL     OW35614   4.580   2.383  17.119  0.1707  0.1999 -0.2797
 7994SOL    HW135615   4.549   2.338  17.041  0.9706 -0.3919 -0.2511
 7994SOL    HW235616   4.528   2.463  17.109 -0.7850 -0.6629 -2.1716
 7995SOL     OW35617   2.722   2.841   5.792 -0.1202 -0.2961  0.1554
 7995SOL    HW135618   2.654   2.863   5.729 -0.2058 -0.8933  0.0408
 7995SOL    HW235619   2.677   2.768   5.834  0.5424 -1.5999 -1.4003
 7996SOL     OW35620   2.054   4.360   3.693 -0.0792 -0.3043  0.2012
 7996SOL    HW135621   2.099   4.297   3.636 -0.1544 -1.0586  0.9752
 7996SOL    HW235622   1.965   4.358   3.657  0.8433 -0.3099 -2.1074
 7997SOL     OW35623   1.648   2.915   1.892 -0.2040 -0.4647  0.3480
 7997SOL    HW135624   1.608   2.995   1.857  2.6837  1.1567  0.7683
 7997SOL    HW235625   1.618   2.852   1.826  0.4397  0.7657 -1.1214
 7998SOL     OW35626   1.074   4.679   9.044 -0.3365  0.6853  0.2401
 7998SOL    HW135627   1.132   4.639   9.108  0.1972 -0.1556 -0.7617
 7998SOL    HW235628   1.135   4.732   8.995 -0.1792 -0.7674 -1.1400
 7999SOL     OW35629   0.622   0.362  13.664  0.0213  0.2860  0.3459
 7999SOL    HW135630   0.554   0.390  13.726 -0.6917  1.8329 -1.1116
 7999SOL    HW235631   0.702   0.373  13.714  1.0877 -0.6766 -1.1745
 8000SOL     OW35632   2.448   3.295   8.892  0.1302  0.5184  0.2395
 8000SOL    HW135633   2.422   3.378   8.932 -0.9006  1.4380 -2.3031
 8000SOL    HW235634   2.379   3.235   8.921  0.7128 -0.4686 -0.4515
 8001SOL     OW35635   1.465   0.916  12.704 -0.2331 -0.0690  0.3554
 8001SOL    HW135636   1.462   1.011  12.699 -3.9780 -0.0739  2.1425
 8001SOL    HW235637   1.382   0.901  12.750  0.4348 -1.0813  1.2403
 8002SOL     OW35638   3.226   3.237  14.035 -0.6736  0.3032 -0.5326
 8002SOL    HW135639   3.298   3.299  14.029  1.0174 -1.6620 -0.7182
 8002SOL    HW235640   3.268   3.173  13.977 -1.7896 -1.8163  0.9536
 8003SOL     OW35641   4.573   1.433   2.321 -0.6386 -0.2590 -1.2663
 8003SOL    HW135642   4.548   1.467   2.406  2.6536  0.3312 -0.5075
 8003SOL    HW235643   4.605   1.346   2.346 -0.8517  0.5395  1.6864
 8004SOL     OW35644   0.706   4.727   5.320 -0.0390 -0.0452  0.1464
 8004SOL    HW135645   0.648   4.656   5.293  0.9193 -1.6615  2.3848
 8004SOL    HW235646   0.786   4.699   5.275 -0.6732 -0.6989 -0.5547
 8005SOL     OW35647   3.640   4.280   5.083  0.6965  0.4545  1.0923
 8005SOL    HW135648   3.678   4.232   5.157 -0.4683  1.6136  2.4283
 8005SOL    HW235649   3.605   4.359   5.124 -1.9610  0.6049 -1.5026
 8006SOL     OW35650   0.224   3.493   2.218 -0.0147 -0.3333 -0.1864
 8006SOL    HW135651   0.244   3.427   2.284 -0.0998  0.4058  0.5864
 8006SOL    HW235652   0.284   3.567   2.223  0.5312 -0.8399  0.8625
 8007SOL     OW35653   0.593   2.220   1.442  0.0673 -0.0443 -0.3284
 8007SOL    HW135654   0.627   2.254   1.360 -0.4446  0.7633 -0.2121
 8007SOL    HW235655   0.503   2.251   1.430  0.5114  1.2940 -0.2305
 8008SOL     OW35656   0.299   4.342   7.851 -0.1276 -0.3546 -0.3044
 8008SOL    HW135657   0.226   4.315   7.908 -1.7654  1.8927 -1.3414
 8008SOL    HW235658   0.266   4.409   7.792  2.4935  0.6047 -0.6610
 8009SOL     OW35659   2.086   3.376  16.680 -0.0573  0.0815  0.2474
 8009SOL    HW135660   2.178   3.377  16.709  0.0858 -1.9608 -0.1039
 8009SOL    HW235661   2.057   3.460  16.715  1.1467  1.8015 -2.9175
 8010SOL     OW35662   3.095   2.358   3.622  0.1124  0.1866 -0.5172
 8010SOL    HW135663   3.147   2.412   3.563  0.1254  1.6926  0.8748
 8010SOL    HW235664   3.023   2.415   3.650  1.0368  1.7431 -1.3074
 8011SOL     OW35665   2.733   3.702   3.598  0.2567  0.2661 -0.4164
 8011SOL    HW135666   2.641   3.729   3.607 -0.4569 -1.9589 -0.7492
 8011SOL    HW235667   2.748   3.730   3.508 -0.9103 -2.7126 -1.5438
 8012SOL     OW35668   4.557   0.210   7.510 -0.2176  0.1835 -0.2454
 8012SOL    HW135669   4.638   0.176   7.470  0.0535 -0.6409  1.0109
 8012SOL    HW235670   4.592   0.260   7.584 -0.7514 -0.3334  0.3505
 8013SOL     OW35671   2.061   0.681  17.101 -0.2911  0.2080  0.9514
 8013SOL    HW135672   2.136   0.627  17.075  1.1832  2.4419  0.5481
 8013SOL    HW235673   2.001   0.663  17.028 -0.5156 -0.3963  1.2821
 8014SOL     OW35674   1.715   1.962  13.933 -0.0046  0.4487 -0.1052
 8014SOL    HW135675   1.687   1.905  14.005  0.4982 -0.0928 -0.3467
 8014SOL    HW235676   1.697   1.913  13.853  0.4910  1.2292 -0.6907
 8015SOL     OW35677   1.928   0.182   3.333 -0.5120  0.1080 -0.4535
 8015SOL    HW135678   1.859   0.238   3.297 -1.4306 -0.7515 -0.0473
 8015SOL    HW235679   1.875   0.110   3.368  2.1602  0.4820  4.2940
 8016SOL     OW35680   3.705   1.236   2.687  0.2628 -0.1667  0.2223
 8016SOL    HW135681   3.697   1.141   2.690 -0.3120 -0.0884  1.3055
 8016SOL    HW235682   3.740   1.257   2.773 -1.3961  1.6169  0.4683
 8017SOL     OW35683   2.064   1.059   1.905 -0.6345  0.1635  0.1052
 8017SOL    HW135684   2.129   1.111   1.859  1.6495 -1.7887  1.1133
 8017SOL    HW235685   1.984   1.071   1.854 -1.4737  0.9972  1.5982
 8018SOL     OW35686   0.935   1.372   8.562 -0.0914  0.2083 -0.1727
 8018SOL    HW135687   0.846   1.401   8.582 -0.1113  0.6584 -0.9020
 8018SOL    HW235688   0.970   1.451   8.520  1.2223  0.0244  0.5690
 8019SOL     OW35689   1.444   0.286   3.743  0.1405 -0.1237 -0.5040
 8019SOL    HW135690   1.531   0.266   3.707  0.5184 -0.3340  0.5484
 8019SOL    HW235691   1.462   0.284   3.837  2.2038  5.8377 -0.7699
 8020SOL     OW35692   4.051   2.444   7.619  0.3740  0.3309  0.0027
 8020SOL    HW135693   4.023   2.522   7.667  1.7914  0.4128  0.7019
 8020SOL    HW235694   3.993   2.387   7.668  1.6965 -0.2502  0.8899
 8021SOL     OW35695   0.508   4.449   3.448 -0.1035  0.4140  0.1655
 8021SOL    HW135696   0.600   4.460   3.424  0.4580  1.3003  2.7459
 8021SOL    HW235697   0.467   4.509   3.386 -0.9580 -1.9757 -1.5850
 8022SOL     OW35698   2.962   1.921   4.773 -0.0097  0.3938  0.2449
 8022SOL    HW135699   3.033   1.935   4.837 -1.6987 -0.5394  2.3301
 8022SOL    HW235700   2.910   1.854   4.818 -0.4480  1.9082  2.0022
 8023SOL     OW35701   0.267   0.262   4.081 -0.1015  0.5089  0.0402
 8023SOL    HW135702   0.213   0.237   4.006  0.2592 -0.6908  0.1876
 8023SOL    HW235703   0.275   0.182   4.132 -2.0776  0.8083  0.8083
 8024SOL     OW35704   2.348   3.881   0.576 -0.1393 -0.3680 -0.0600
 8024SOL    HW135705   2.367   3.955   0.518  2.4740 -0.2618  0.9450
 8024SOL    HW235706   2.267   3.917   0.613 -0.0499 -0.4789  0.2440
 8025SOL     OW35707   1.287   0.063   8.783 -0.3742  0.1470  0.2204
 8025SOL    HW135708   1.328   0.138   8.740 -2.3334  0.4305 -1.1484
 8025SOL    HW235709   1.216   0.103   8.832 -0.6907 -1.8178  1.3736
 8026SOL     OW35710   4.300   0.450  16.929 -0.6246 -0.1217  0.2969
 8026SOL    HW135711   4.325   0.535  16.965  0.9162  0.5713 -2.4045
 8026SOL    HW235712   4.344   0.456  16.844  1.4782 -3.2520  1.1844
 8027SOL     OW35713   3.709   3.777   1.004 -0.0816  0.5861  0.8639
 8027SOL    HW135714   3.673   3.689   1.013 -1.0842  0.9200  0.1627
 8027SOL    HW235715   3.703   3.793   0.910  1.1571 -0.3113  0.6338
 8028SOL     OW35716   2.253   0.465   4.662  0.5754 -0.3833  0.0111
 8028SOL    HW135717   2.162   0.438   4.667  0.0612  1.4621  0.5640
 8028SOL    HW235718   2.239   0.554   4.695  2.8843 -0.7815  2.0681
 8029SOL     OW35719   3.732   3.620  15.020 -0.1808  0.3969 -0.6299
 8029SOL    HW135720   3.804   3.611  15.082 -1.6167  1.1194  1.1176
 8029SOL    HW235721   3.744   3.533  14.980  0.4918  0.5447 -0.7505
 8030SOL     OW35722   2.072   3.480   8.909 -0.1361 -0.2733 -0.7561
 8030SOL    HW135723   2.086   3.490   9.003  1.1865  1.2595 -1.1336
 8030SOL    HW235724   1.999   3.417   8.912 -1.2355  1.0401  0.1227
 8031SOL     OW35725   2.381   1.778  17.178 -0.3128  0.2326  0.3881
 8031SOL    HW135726   2.403   1.833  17.103  1.0341  1.4760  1.7116
 8031SOL    HW235727   2.403   1.689  17.149 -0.1272  0.2239  0.5554
 8032SOL     OW35728   3.961   3.076   4.713 -0.4341 -0.0117 -0.2197
 8032SOL    HW135729   4.024   3.142   4.742 -2.1163  1.8894 -0.8747
 8032SOL    HW235730   3.997   3.057   4.626  0.5704  1.1373 -0.0488
 8033SOL     OW35731   3.674   4.139   8.962  1.0501  0.2656  0.5092
 8033SOL    HW135732   3.621   4.101   9.032  1.8461  0.9741  1.4935
 8033SOL    HW235733   3.720   4.061   8.930  4.0832  1.1841  2.6599
 8034SOL     OW35734   0.375   4.734  14.253  0.3058  0.2260 -0.4416
 8034SOL    HW135735   0.375   4.663  14.189 -1.3183 -0.3260  0.1731
 8034SOL    HW235736   0.284   4.724  14.281 -0.0387  1.0516 -1.2880
 8035SOL     OW35737   0.114   3.972  14.377 -0.2472 -0.2461  0.4353
 8035SOL    HW135738   0.109   4.060  14.414 -0.1008  0.7978 -2.0110
 8035SOL    HW235739   0.041   3.927  14.418  0.2664 -1.1375  0.3662
 8036SOL     OW35740   4.627   0.006   5.176  0.0590 -0.1622 -0.3523
 8036SOL    HW135741   4.684   0.008   5.100  0.5009 -4.7718 -0.1939
 8036SOL    HW235742   4.535   0.007   5.147 -0.3033 -2.8137  0.6082
 8037SOL     OW35743   4.532   0.003  10.492  1.1518 -0.1590 -0.0508
 8037SOL    HW135744   4.613   4.728  10.541  1.2259 -0.6648 -0.3459
 8037SOL    HW235745   4.565   0.062  10.425 -0.2609  0.4503 -0.1992
 8038SOL     OW35746   3.978   0.131   5.506 -0.4835 -0.0293 -0.1262
 8038SOL    HW135747   3.994   0.224   5.490 -1.1106  0.4669  2.2142
 8038SOL    HW235748   3.968   0.133   5.601  0.1901 -0.2885 -0.0425
 8039SOL     OW35749   2.843   2.789  13.490 -0.0055 -0.5573 -0.3258
 8039SOL    HW135750   2.862   2.865  13.545 -3.4058 -0.3171  0.5180
 8039SOL    HW235751   2.891   2.812  13.411  0.1949  2.6370  0.7424
 8040SOL     OW35752   0.600   1.504   3.318  0.4911 -0.3700  0.1401
 8040SOL    HW135753   0.611   1.582   3.263 -0.9377  1.3473  2.3146
 8040SOL    HW235754   0.577   1.539   3.404 -0.7075  0.0550 -0.3603
 8041SOL     OW35755   3.384   0.223   8.980  0.4923 -0.1927 -0.2583
 8041SOL    HW135756   3.442   0.220   9.056 -0.3110 -0.0841  0.3523
 8041SOL    HW235757   3.401   0.313   8.951 -2.7686 -0.0938 -1.8180
 8042SOL     OW35758   4.372   4.100   1.425  0.6498 -0.2181  0.3424
 8042SOL    HW135759   4.348   4.136   1.510  1.4188 -0.4664  0.6685
 8042SOL    HW235760   4.328   4.166   1.371  0.3753 -0.0632  0.7567
 8043SOL     OW35761   0.206   0.652  13.739  0.3488  0.1086 -1.1003
 8043SOL    HW135762   0.136   0.588  13.755 -0.8074  2.0865  1.8535
 8043SOL    HW235763   0.225   0.662  13.833 -0.1817 -1.6829 -0.7854
 8044SOL     OW35764   3.542   1.171  12.372  0.3864  0.6559  0.3683
 8044SOL    HW135765   3.502   1.091  12.406 -3.4436  1.7371 -1.5994
 8044SOL    HW235766   3.571   1.142  12.286  1.1181 -1.2484  1.2485
 8045SOL     OW35767   1.642   1.385   6.444 -0.0290 -0.0793 -0.4018
 8045SOL    HW135768   1.646   1.289   6.444  1.2490 -0.0232  3.0206
 8045SOL    HW235769   1.619   1.393   6.351  4.7286  1.4672 -1.4583
 8046SOL     OW35770   0.307   4.551   2.110 -0.6284 -0.1303 -0.5938
 8046SOL    HW135771   0.299   4.457   2.122 -2.7556  0.6463  3.9437
 8046SOL    HW235772   0.276   4.547   2.020 -2.3959  0.5705 -0.0218
 8047SOL     OW35773   4.699   1.659   3.967  0.2624  0.3284 -0.2288
 8047SOL    HW135774   4.645   1.592   3.924  2.0889 -0.0382 -2.0032
 8047SOL    HW235775   4.633   1.728   3.969  0.4216  0.3777  2.2470
 8048SOL     OW35776   2.658   0.390   7.908  0.4593  0.9093  0.2061
 8048SOL    HW135777   2.586   0.431   7.860  0.6129  0.0251 -0.7797
 8048SOL    HW235778   2.680   0.464   7.965  1.2719  1.6832 -1.1274
 8049SOL     OW35779   1.422   0.146   5.334  0.2878 -0.0980 -0.4359
 8049SOL    HW135780   1.380   0.106   5.258  1.8355 -0.6570 -0.9996
 8049SOL    HW235781   1.356   0.117   5.396  1.7614 -0.9028  0.7582
 8050SOL     OW35782   2.924   2.542   3.752 -0.4359 -0.2117  0.2138
 8050SOL    HW135783   2.997   2.595   3.782  0.1627 -0.5276 -0.7134
 8050SOL    HW235784   2.874   2.535   3.834  0.7643 -0.5511  0.9107
 8051SOL     OW35785   2.048   1.363   8.383 -0.4326  0.7792  0.6370
 8051SOL    HW135786   2.106   1.401   8.318 -0.5491 -1.0897 -0.5533
 8051SOL    HW235787   2.095   1.377   8.465 -1.2703 -1.5227  1.5149
 8052SOL     OW35788   1.545   3.958  11.677  0.0393 -0.2317 -0.3125
 8052SOL    HW135789   1.633   3.943  11.712 -0.2529 -1.4461 -0.0922
 8052SOL    HW235790   1.565   3.945  11.584 -0.4301  0.9082 -0.5805
 8053SOL     OW35791   0.246   0.962   9.271 -0.4221  0.1177 -0.2561
 8053SOL    HW135792   0.255   0.897   9.201  1.9180  0.5780 -0.3754
 8053SOL    HW235793   0.168   0.931   9.316 -0.7206  0.5422 -0.4744
 8054SOL     OW35794   4.673   4.591   5.769 -0.1657 -0.5854  0.4082
 8054SOL    HW135795   4.675   4.549   5.855  1.2459 -0.8281  0.2605
 8054SOL    HW235796   4.592   4.560   5.729 -0.2300 -0.3585  0.3626
 8055SOL     OW35797   3.277   4.467   7.214  0.1177 -0.2014  0.1120
 8055SOL    HW135798   3.190   4.447   7.249 -0.3712 -0.6122 -1.3286
 8055SOL    HW235799   3.327   4.445   7.292  0.7223  0.3503 -0.1243
 8056SOL     OW35800   3.635   0.431   5.879 -0.2889  0.0096 -0.0583
 8056SOL    HW135801   3.587   0.368   5.825  0.8580 -1.3041  0.4805
 8056SOL    HW235802   3.661   0.497   5.815  2.4378 -0.2612  0.7716
 8057SOL     OW35803   1.660   3.716  15.139  0.5639 -0.7044 -0.1791
 8057SOL    HW135804   1.678   3.748  15.051  0.1003  1.3832  0.4993
 8057SOL    HW235805   1.721   3.766  15.191  1.5514 -1.4854 -0.5805
 8058SOL     OW35806   4.313   1.927  16.629 -0.8676 -0.0896 -0.1102
 8058SOL    HW135807   4.354   1.939  16.543  2.4965 -0.1940  1.4762
 8058SOL    HW235808   4.391   1.932  16.684 -0.9933 -0.7779  0.1351
 8059SOL     OW35809   2.443   1.238   9.044  0.1146 -0.1576  0.1026
 8059SOL    HW135810   2.488   1.195   8.971 -3.1227 -2.3822 -0.5805
 8059SOL    HW235811   2.402   1.320   9.016 -2.0332 -1.2415  0.0352
 8060SOL     OW35812   0.110   2.380   7.745 -0.5991  0.5165 -0.0790
 8060SOL    HW135813   0.085   2.372   7.653 -1.1183  1.1449  0.0076
 8060SOL    HW235814   0.204   2.358   7.744 -0.7509 -0.2354  1.0527
 8061SOL     OW35815   3.555   2.087  15.960 -0.5460  0.1722  0.5453
 8061SOL    HW135816   3.598   2.022  15.903  0.6231  2.9597 -1.7449
 8061SOL    HW235817   3.605   2.090  16.041 -0.3194  0.9050  0.3804
 8062SOL     OW35818   2.901   2.026   0.190  0.7074  0.0625  0.2199
 8062SOL    HW135819   2.840   2.047   0.118  0.7386  0.8835  0.4390
 8062SOL    HW235820   2.913   2.111   0.230  1.0485 -0.2765  0.8389
 8063SOL     OW35821   1.797   1.362   8.277 -0.5031 -0.0079  0.1080
 8063SOL    HW135822   1.781   1.307   8.201  0.3184 -0.7049  0.4387
 8063SOL    HW235823   1.891   1.379   8.282 -0.3528 -0.7270 -0.2927
 8064SOL     OW35824   1.007   4.182   1.211  0.0111 -0.5382 -0.2333
 8064SOL    HW135825   1.071   4.252   1.205  0.8819 -1.3820 -0.9350
 8064SOL    HW235826   1.065   4.106   1.221  1.3657  0.6057  0.6935
 8065SOL     OW35827   2.046   4.190   4.653  0.4091 -0.5065 -0.2657
 8065SOL    HW135828   1.961   4.224   4.624  0.4911  0.0369  0.1228
 8065SOL    HW235829   2.017   4.106   4.689  0.5530  0.3114  1.7600
 8066SOL     OW35830   3.334   1.870   1.478  0.0098 -0.0679  0.2295
 8066SOL    HW135831   3.361   1.962   1.480 -0.0587 -0.0475  0.2287
 8066SOL    HW235832   3.250   1.878   1.523 -0.5308 -1.2559 -0.5776
 8067SOL     OW35833   4.460   2.732   2.334  0.3359 -0.3849 -0.2455
 8067SOL    HW135834   4.406   2.735   2.255  0.1857  0.4170 -0.1179
 8067SOL    HW235835   4.394   2.685   2.384 -1.0693  0.9692 -0.8273
 8068SOL     OW35836   2.908   1.604   5.511 -0.3340 -0.6349 -0.0627
 8068SOL    HW135837   2.845   1.633   5.445  0.5313  1.2937 -0.0405
 8068SOL    HW235838   2.852   1.602   5.588 -0.6533 -1.2853 -0.3131
 8069SOL     OW35839   1.158   3.932   2.912  0.3144  0.4694 -0.3771
 8069SOL    HW135840   1.063   3.931   2.921  0.3817 -1.1079  0.1634
 8069SOL    HW235841   1.159   4.024   2.938 -0.5360  0.7963 -1.4593
 8070SOL     OW35842   3.402   2.141   5.323  0.5947 -0.9284 -0.6392
 8070SOL    HW135843   3.465   2.091   5.272  1.1214 -0.5513 -0.3614
 8070SOL    HW235844   3.324   2.159   5.270  0.3341  1.8823  0.6568
 8071SOL     OW35845   4.103   1.487  12.529  0.1501  0.5941  1.3312
 8071SOL    HW135846   4.026   1.509  12.477  1.3602  5.2514  1.5479
 8071SOL    HW235847   4.074   1.499  12.620  0.7538  1.9263  1.3319
 8072SOL     OW35848   4.569   1.880  13.443  0.0792  0.3758 -0.4230
 8072SOL    HW135849   4.539   1.818  13.510 -1.7110  1.0744 -0.5735
 8072SOL    HW235850   4.518   1.842  13.371  2.3515 -2.1807 -0.6798
 8073SOL     OW35851   2.509   3.379   6.646  0.1712 -0.0700 -0.2936
 8073SOL    HW135852   2.593   3.420   6.625 -0.1637  0.4739 -0.5693
 8073SOL    HW235853   2.516   3.292   6.609  1.1034 -0.5428  0.9908
 8074SOL     OW35854   0.807   0.868   8.250  0.1984  0.2130 -0.0141
 8074SOL    HW135855   0.721   0.843   8.285  0.8157 -0.0608  1.2943
 8074SOL    HW235856   0.794   0.961   8.267 -1.0300 -0.0048  0.2549
 8075SOL     OW35857   3.408   0.975   1.962  0.3170  0.5727  0.1595
 8075SOL    HW135858   3.432   0.924   2.040 -0.3628  0.7496  0.4810
 8075SOL    HW235859   3.386   1.057   2.006 -1.2376  0.4994 -0.4745
 8076SOL     OW35860   2.149   3.120   7.051 -0.1013 -0.2526  0.3133
 8076SOL    HW135861   2.132   3.209   7.019  0.8767 -0.2203 -0.1352
 8076SOL    HW235862   2.072   3.071   7.024 -1.1101  1.7001 -0.3949
 8077SOL     OW35863   0.307   1.299  16.632  0.1942  0.7560  0.0622
 8077SOL    HW135864   0.214   1.321  16.629  0.5661  2.1297 -1.3587
 8077SOL    HW235865   0.324   1.325  16.541 -2.6361  1.0667 -0.4066
 8078SOL     OW35866   4.131   3.761   2.024  0.4290  0.0479  0.2189
 8078SOL    HW135867   4.129   3.854   2.004 -0.9742  0.0226  0.2447
 8078SOL    HW235868   4.043   3.743   2.058 -0.2056  1.6883 -0.5523
 8079SOL     OW35869   2.453   1.776   1.540 -0.5222  0.7320  0.4883
 8079SOL    HW135870   2.388   1.844   1.525 -2.5584 -0.8070  2.3670
 8079SOL    HW235871   2.520   1.791   1.472 -1.1132 -0.9856 -0.4564
 8080SOL     OW35872   3.952   3.820  15.697  0.8234 -0.2353 -0.0378
 8080SOL    HW135873   4.032   3.873  15.700 -1.0156  2.3817  2.4094
 8080SOL    HW235874   3.945   3.801  15.604 -1.8563  1.4657 -0.1738
 8081SOL     OW35875   1.344   3.459   2.989  0.0077  0.5213  0.2583
 8081SOL    HW135876   1.319   3.368   2.976  1.8747 -0.0763  0.8215
 8081SOL    HW235877   1.290   3.498   2.921 -0.0562 -0.3288 -0.1780
 8082SOL     OW35878   0.119   3.122   1.312 -0.1230 -0.0480  0.8101
 8082SOL    HW135879   0.061   3.083   1.247 -0.2785  2.9554 -0.8515
 8082SOL    HW235880   0.136   3.044   1.366  1.0723  0.1832  0.7733
 8083SOL     OW35881   3.477   0.212   2.140 -0.2461  0.4637  0.0023
 8083SOL    HW135882   3.390   0.226   2.103 -0.8843 -0.8232  1.0417
 8083SOL    HW235883   3.482   0.288   2.198  0.4860 -0.7240  1.4644
 8084SOL     OW35884   2.896   0.805   1.368 -0.4207 -0.2942 -0.3859
 8084SOL    HW135885   2.905   0.860   1.291 -2.2823  1.8976  0.9773
 8084SOL    HW235886   2.949   0.850   1.433 -1.2961  2.5428 -1.6439
 8085SOL     OW35887   1.224   4.629   2.067 -0.2929  0.3899  0.0224
 8085SOL    HW135888   1.263   4.555   2.114  0.4835  0.8670  0.1314
 8085SOL    HW235889   1.140   4.594   2.035 -1.2007  2.8215 -0.2748
 8086SOL     OW35890   3.192   4.323  12.132  0.2687  0.1818 -0.1175
 8086SOL    HW135891   3.206   4.248  12.190  1.9371  0.6048  0.0119
 8086SOL    HW235892   3.189   4.285  12.044  0.1863 -0.1668  0.0346
 8087SOL     OW35893   0.902   4.552   9.483 -0.5711  0.3165 -0.5906
 8087SOL    HW135894   0.833   4.489   9.464 -0.1062 -1.0424  2.2530
 8087SOL    HW235895   0.911   4.608   9.406 -0.4725  0.7645 -0.2531
 8088SOL     OW35896   1.967   4.339   0.877  0.1752  0.3782  0.5223
 8088SOL    HW135897   1.902   4.299   0.819 -0.8359  3.4535 -0.4927
 8088SOL    HW235898   2.044   4.302   0.835  0.8368 -0.8303  2.7846
 8089SOL     OW35899   2.033   0.652  11.191 -0.1601 -0.0138 -0.0355
 8089SOL    HW135900   2.043   0.735  11.144  0.4240  0.8599  1.6481
 8089SOL    HW235901   2.122   0.620  11.206  0.1760  1.1406  0.4616
 8090SOL     OW35902   0.914   0.616   7.376 -0.6446  0.0091  0.4554
 8090SOL    HW135903   0.891   0.526   7.353  2.3387 -0.7689  0.5652
 8090SOL    HW235904   0.829   0.656   7.358 -0.8693 -0.3475  0.7318
 8091SOL     OW35905   3.853   4.521   8.573 -1.0013  0.1955  0.6779
 8091SOL    HW135906   3.793   4.463   8.619 -2.0209  1.0376  0.4246
 8091SOL    HW235907   3.829   4.512   8.480 -0.9887  1.3457  0.5547
 8092SOL     OW35908   2.357   0.992   4.000  0.1269  0.2498  0.5036
 8092SOL    HW135909   2.270   0.954   4.009 -1.3055  3.2864 -0.4292
 8092SOL    HW235910   2.366   0.993   3.905 -0.5352  0.1872  0.4368
 8093SOL     OW35911   0.432   0.695  17.182 -0.4792 -0.3959  0.1491
 8093SOL    HW135912   0.448   0.763  17.249  1.5187  1.3536 -2.1151
 8093SOL    HW235913   0.461   0.618  17.231  2.4355  1.6858  1.6967
 8094SOL     OW35914   0.273   0.554   7.685 -0.3148  0.3042  0.2690
 8094SOL    HW135915   0.277   0.574   7.592  2.5342 -0.4229  0.2554
 8094SOL    HW235916   0.366   0.546   7.705  0.1037  1.8138 -1.1036
 8095SOL     OW35917   2.252   2.703   3.475  0.3362  0.0982  0.2450
 8095SOL    HW135918   2.227   2.640   3.543 -0.8680  0.1692 -0.1316
 8095SOL    HW235919   2.306   2.643   3.423  0.4894  1.1851 -0.8462
 8096SOL     OW35920   4.560   0.303  14.266  0.0813 -0.2289 -0.5748
 8096SOL    HW135921   4.654   0.298  14.287  0.2348 -2.0118 -1.7586
 8096SOL    HW235922   4.552   0.223  14.215  2.6597  1.0329 -2.9458
 8097SOL     OW35923   3.287   1.067  12.143 -0.0150  0.0718 -0.7851
 8097SOL    HW135924   3.377   1.097  12.155 -0.6076  1.6933 -0.2651
 8097SOL    HW235925   3.267   1.124  12.069  1.0267 -0.4453 -1.4563
 8098SOL     OW35926   3.710   2.142   1.676 -0.2688 -0.3201 -0.8968
 8098SOL    HW135927   3.767   2.069   1.699 -1.2464 -1.4474 -2.0068
 8098SOL    HW235928   3.707   2.127   1.582 -0.5828 -0.6078 -0.8383
 8099SOL     OW35929   0.434   0.787   1.505 -0.2689 -0.0939  0.2621
 8099SOL    HW135930   0.417   0.701   1.543  0.6260 -1.3799 -2.2426
 8099SOL    HW235931   0.351   0.796   1.457 -0.5943 -1.0454  0.6468
 8100SOL     OW35932   4.318   0.297  12.370 -0.7748 -0.0487  0.7394
 8100SOL    HW135933   4.269   0.370  12.408 -0.0089 -0.2580  2.1160
 8100SOL    HW235934   4.386   0.286  12.436 -2.7470 -4.3341  2.0372
 8101SOL     OW35935   1.485   3.087  15.255  0.5194  0.3777 -0.0704
 8101SOL    HW135936   1.548   3.122  15.192  2.2254 -1.0698  0.8116
 8101SOL    HW235937   1.412   3.093  15.193  0.6270  0.1806 -0.2178
 8102SOL     OW35938   1.494   0.403   1.792  0.8565 -0.6398 -0.2174
 8102SOL    HW135939   1.528   0.324   1.750  3.1552 -0.0122  0.4752
 8102SOL    HW235940   1.540   0.467   1.737 -1.1347  2.5092  1.8083
 8103SOL     OW35941   4.156   2.521   2.971 -0.4734  0.5098  0.4842
 8103SOL    HW135942   4.183   2.583   2.903  0.2387 -0.7080 -0.3551
 8103SOL    HW235943   4.137   2.437   2.929 -0.9688  0.5992  0.5389
 8104SOL     OW35944   4.728   4.112   8.707  0.2070  0.1514  0.4749
 8104SOL    HW135945   4.681   4.100   8.790 -2.2893  1.9643 -0.6634
 8104SOL    HW235946   4.696   4.034   8.662 -0.7860 -0.1533  1.7206
 8105SOL     OW35947   3.721   4.513   2.421 -0.1065  0.2314 -0.1333
 8105SOL    HW135948   3.783   4.480   2.486 -0.3734 -0.5264 -0.2582
 8105SOL    HW235949   3.633   4.515   2.459 -0.5708 -0.7622 -1.1627
 8106SOL     OW35950   0.931   0.821   2.795  0.2909  0.0700  0.2293
 8106SOL    HW135951   1.002   0.882   2.775  0.2630  0.4357  1.2473
 8106SOL    HW235952   0.936   0.816   2.890  0.0803 -1.0992  0.1785
 8107SOL     OW35953   3.662   2.738   7.108 -0.2657  0.5679  0.1633
 8107SOL    HW135954   3.685   2.772   7.194  0.3075  1.1416 -0.2157
 8107SOL    HW235955   3.735   2.681   7.083 -0.8708 -0.0140 -0.2954
 8108SOL     OW35956   1.977   0.275  15.645 -0.1856 -0.5840 -0.4950
 8108SOL    HW135957   1.911   0.230  15.592  0.1082 -1.4732 -0.1101
 8108SOL    HW235958   2.057   0.276  15.592  0.0702  1.4645 -0.0676
 8109SOL     OW35959   2.009   3.328  12.433 -0.3060 -0.0478  0.8243
 8109SOL    HW135960   2.083   3.338  12.492  0.0785 -0.1615  0.3586
 8109SOL    HW235961   1.966   3.412  12.448 -2.2338 -1.0652  1.0752
 8110SOL     OW35962   3.415   0.129   8.734  0.0322 -0.0125 -0.5422
 8110SOL    HW135963   3.414   0.135   8.830 -0.6137 -0.7258 -0.5041
 8110SOL    HW235964   3.353   0.201   8.719 -0.4115 -0.0779  0.9885
 8111SOL     OW35965   1.471   2.535   7.514  0.1324 -0.2401  0.2206
 8111SOL    HW135966   1.463   2.578   7.429  2.7541 -1.4726 -0.6408
 8111SOL    HW235967   1.381   2.526   7.548 -0.0481 -1.8259 -0.6903
 8112SOL     OW35968   0.878   1.509  15.141 -0.2089 -0.2081  0.0251
 8112SOL    HW135969   0.878   1.470  15.053 -1.1386 -0.7010  0.2463
 8112SOL    HW235970   0.971   1.497  15.160 -0.0859 -2.5685 -2.0252
 8113SOL     OW35971   2.021   1.593  13.236 -0.0699 -0.2289 -0.2605
 8113SOL    HW135972   1.953   1.577  13.170 -1.5889  0.3317  1.1685
 8113SOL    HW235973   1.970   1.634  13.306  1.1853  1.8402 -0.5532
 8114SOL     OW35974   3.338   4.459   7.941 -0.2408  0.4401 -0.4348
 8114SOL    HW135975   3.365   4.476   8.031 -0.2290  1.6212 -0.6717
 8114SOL    HW235976   3.247   4.487   7.950 -1.0185 -1.0731 -3.4913
 8115SOL     OW35977   1.469   3.413  15.079 -0.3175  0.0091  0.1810
 8115SOL    HW135978   1.489   3.438  14.989  0.2450 -1.3026 -0.0723
 8115SOL    HW235979   1.515   3.329  15.089 -0.7360 -0.2061  0.2745
 8116SOL     OW35980   2.777   3.855   8.955  0.4227 -0.0808  0.6038
 8116SOL    HW135981   2.707   3.848   8.890 -0.9537  0.1022  2.0593
 8116SOL    HW235982   2.786   3.951   8.954 -0.1575 -0.0753 -2.9592
 8117SOL     OW35983   4.542   4.547   3.687  0.4226  0.1616  0.2211
 8117SOL    HW135984   4.452   4.577   3.676  0.5546  1.4178  2.6214
 8117SOL    HW235985   4.580   4.618   3.739  0.7539 -0.8320  1.3186
 8118SOL     OW35986   1.861   0.208  13.249 -0.1768  0.0337  0.2102
 8118SOL    HW135987   1.781   0.187  13.297  0.7451 -0.8317  1.3608
 8118SOL    HW235988   1.868   0.130  13.193 -1.4122 -1.1229  1.6597
 8119SOL     OW35989   2.302   1.766  14.437  0.2788 -0.2029 -0.5957
 8119SOL    HW135990   2.351   1.683  14.442 -0.2505 -0.5719 -1.4672
 8119SOL    HW235991   2.347   1.820  14.501  0.2424 -1.3401  0.4021
 8120SOL     OW35992   1.193   4.496   6.731  0.1369 -0.0895  0.3055
 8120SOL    HW135993   1.222   4.582   6.762 -1.6592 -0.1970  2.3288
 8120SOL    HW235994   1.269   4.440   6.744 -2.5492 -3.9049 -0.2953
 8121SOL     OW35995   2.917   4.700   6.129  0.0992 -0.5982 -0.6488
 8121SOL    HW135996   2.930   4.666   6.041  0.6949 -2.1414  0.0271
 8121SOL    HW235997   2.899   4.620   6.178  0.7896  0.7346  1.8185
 8122SOL     OW35998   2.325   0.152   1.928  0.2070  0.0339  0.1804
 8122SOL    HW135999   2.239   0.194   1.934  0.9333  1.3582  1.3977
 8122SOL    HW236000   2.361   0.206   1.858 -2.3269 -0.5868 -1.5869
 8123SOL     OW36001   4.687   3.128   7.412  0.7769  0.4820  0.2023
 8123SOL    HW136002   4.665   3.207   7.362  1.0149 -0.1170 -0.8376
 8123SOL    HW236003   0.010   3.082   7.358  0.6047  1.1885 -0.5903
 8124SOL     OW36004   0.876   3.754   7.209 -0.3095 -0.1704 -0.0480
 8124SOL    HW136005   0.784   3.731   7.196 -0.9318  1.1521  1.9913
 8124SOL    HW236006   0.926   3.707   7.143 -0.3733 -0.4957  0.1354
 8125SOL     OW36007   2.089   3.643   8.088  0.7357  0.2314 -0.3490
 8125SOL    HW136008   2.048   3.558   8.071  0.5073  0.2040  0.3619
 8125SOL    HW236009   2.009   3.694   8.102  0.2456 -0.3420 -1.0598
 8126SOL     OW36010   1.070   1.066   5.552  0.1358 -0.9270  0.1273
 8126SOL    HW136011   1.080   0.974   5.528  0.3437 -0.2204 -2.5250
 8126SOL    HW236012   0.980   1.091   5.531 -0.1610 -1.6082  0.6003
 8127SOL     OW36013   2.404   1.050   3.719  0.0040 -1.0939  0.0872
 8127SOL    HW136014   2.430   0.958   3.719 -0.1318 -1.1347 -1.3689
 8127SOL    HW236015   2.322   1.021   3.678  1.1579 -1.8148 -1.6862
 8128SOL     OW36016   4.327   1.637   1.979  0.1780 -0.5846  0.3488
 8128SOL    HW136017   4.296   1.546   1.988 -0.7010 -0.3742 -0.5747
 8128SOL    HW236018   4.374   1.671   2.055  1.1556 -0.5473 -0.2774
 8129SOL     OW36019   0.119   2.661   7.556  0.1423 -0.2273  0.5998
 8129SOL    HW136020   0.102   2.683   7.647  0.9481 -3.5724  1.5866
 8129SOL    HW236021   0.202   2.698   7.529 -0.0457  1.9073  2.9736
 8130SOL     OW36022   4.205   0.430   5.739 -0.0368  0.0197 -0.2581
 8130SOL    HW136023   4.145   0.495   5.703  0.0834 -0.1917 -0.8345
 8130SOL    HW236024   4.153   0.389   5.808  3.1192  0.2540  2.2706
 8131SOL     OW36025   2.603   4.247  10.059 -0.1470 -0.0100 -0.0568
 8131SOL    HW136026   2.619   4.245   9.965 -1.1301 -0.2352 -0.2182
 8131SOL    HW236027   2.643   4.162  10.079 -0.9747 -0.3537  0.1581
 8132SOL     OW36028   3.124   4.106  17.099 -0.5222 -0.1940  0.0890
 8132SOL    HW136029   3.214   4.135  17.114  0.5574 -2.0620 -2.7751
 8132SOL    HW236030   3.108   4.174  17.034 -2.8294 -0.8945 -0.0604
 8133SOL     OW36031   2.696   4.098  12.133  0.1810  0.0407  0.2515
 8133SOL    HW136032   2.637   4.169  12.109 -0.8112 -0.7968  0.1905
 8133SOL    HW236033   2.631   4.027  12.135  0.0742  0.1734  1.4111
 8134SOL     OW36034   3.774   2.088   3.410  0.4521 -0.4559  0.1707
 8134SOL    HW136035   3.726   2.151   3.464 -2.1742 -1.6857 -0.7062
 8134SOL    HW236036   3.701   2.026   3.400  1.2775 -1.7889  2.2463
 8135SOL     OW36037   0.215   1.654   4.386 -0.1183 -0.3200 -0.6960
 8135SOL    HW136038   0.136   1.649   4.332  1.0732 -2.4055 -2.2496
 8135SOL    HW236039   0.272   1.596   4.336  2.0098  0.5016  0.7738
 8136SOL     OW36040   2.704   2.199   8.196 -0.5810  0.2485  0.3877
 8136SOL    HW136041   2.638   2.147   8.152 -2.3170  0.6782  2.4822
 8136SOL    HW236042   2.751   2.244   8.126  1.2320 -0.1231  1.3398
 8137SOL     OW36043   0.279   1.912  12.359  0.4320  0.6836 -0.2940
 8137SOL    HW136044   0.203   1.869  12.397  3.2627 -2.0000  2.3019
 8137SOL    HW236045   0.271   1.908  12.263 -1.9250 -1.2764 -0.0122
 8138SOL     OW36046   1.867   0.965  17.530  0.1206 -0.1335  0.0357
 8138SOL    HW136047   1.871   0.928  17.442 -4.2645  1.2696 -0.7397
 8138SOL    HW236048   1.793   0.918  17.566 -0.1796 -0.9450 -1.6270
 8139SOL     OW36049   1.824   3.347  15.712  0.7571  0.0062 -0.1645
 8139SOL    HW136050   1.756   3.391  15.662  2.7615  2.2707 -0.9226
 8139SOL    HW236051   1.867   3.284  15.654  1.7915  2.6478 -2.2250
 8140SOL     OW36052   2.974   4.716   6.671 -0.2044 -0.2929  0.5124
 8140SOL    HW136053   3.034   4.705   6.598 -0.6824 -0.8234  0.1990
 8140SOL    HW236054   3.016   0.052   6.710  0.6436 -0.3057 -0.4009
 8141SOL     OW36055   0.285   0.104   8.511 -0.5878 -0.6735  0.4937
 8141SOL    HW136056   0.352   0.172   8.504  0.5177 -1.7786  0.3250
 8141SOL    HW236057   0.233   0.125   8.434  0.0479  0.0531  0.2637
 8142SOL     OW36058   0.149   2.173   2.395 -0.0276  0.1891  0.0597
 8142SOL    HW136059   0.236   2.212   2.396 -0.5514  1.3524 -2.0098
 8142SOL    HW236060   0.087   2.244   2.382  0.0933  0.2850  0.0153
 8143SOL     OW36061   4.376   3.121   7.075  1.0463 -0.4017  0.1418
 8143SOL    HW136062   4.434   3.166   7.013  1.4434  0.0259  0.8110
 8143SOL    HW236063   4.336   3.194   7.123  0.4400 -1.0496  0.6034
 8144SOL     OW36064   3.116   1.584   5.740 -0.7127 -0.0562  0.9946
 8144SOL    HW136065   3.066   1.508   5.708  0.7005 -0.9399  0.8968
 8144SOL    HW236066   3.082   1.651   5.680 -0.6709 -1.0688 -0.1768
 8145SOL     OW36067   2.574   4.307  15.638 -0.1896  0.2963  0.1415
 8145SOL    HW136068   2.486   4.269  15.632 -0.0092 -0.1184  0.1315
 8145SOL    HW236069   2.631   4.231  15.644  1.4103  1.3357 -2.1763
 8146SOL     OW36070   1.594   3.422  14.840  0.4225 -0.5174 -0.1641
 8146SOL    HW136071   1.602   3.336  14.798 -1.4084 -0.0289 -1.4978
 8146SOL    HW236072   1.682   3.454  14.857 -0.3175  0.6499  1.3767
 8147SOL     OW36073   4.266   4.370  14.712  0.0897 -0.1407 -0.4007
 8147SOL    HW136074   4.210   4.367  14.634 -1.9060  2.7861  0.9128
 8147SOL    HW236075   4.215   4.432  14.764 -0.0564  0.2344 -0.9950
 8148SOL     OW36076   0.331   0.104   1.685 -0.0861 -0.5132 -0.8580
 8148SOL    HW136077   0.413   0.056   1.696  0.3237  0.4620  0.3918
 8148SOL    HW236078   0.285   0.045   1.624 -3.6065  1.1547  0.1530
 8149SOL     OW36079   4.246   3.438   0.580 -0.0230  0.5424 -0.1514
 8149SOL    HW136080   4.327   3.435   0.631 -0.3526  0.3057  0.3535
 8149SOL    HW236081   4.282   3.424   0.492 -2.1630  0.2720 -0.9755
 8150SOL     OW36082   0.300   3.739   7.282 -0.0364  0.1160 -0.1664
 8150SOL    HW136083   0.252   3.656   7.283 -0.4218  0.3750  2.6913
 8150SOL    HW236084   0.379   3.707   7.324  0.6641  0.4309 -1.2376
 8151SOL     OW36085   2.566   2.398   7.621 -0.3697  0.0617 -0.0917
 8151SOL    HW136086   2.562   2.311   7.663 -1.2987  0.4359  0.6081
 8151SOL    HW236087   2.514   2.377   7.543 -0.5678 -1.0894  0.3417
 8152SOL     OW36088   1.052   0.845   0.350  0.0660 -0.5704  0.0110
 8152SOL    HW136089   1.144   0.841   0.377  0.4577 -0.9537 -1.4040
 8152SOL    HW236090   1.043   0.937   0.327 -0.0975 -0.7393 -0.6036
 8153SOL     OW36091   0.971   4.423   2.880  0.1647  0.0146 -0.2380
 8153SOL    HW136092   0.881   4.393   2.866 -0.2268  0.4505  1.3697
 8153SOL    HW236093   1.009   4.347   2.925 -2.8130 -1.3695 -0.0695
 8154SOL     OW36094   1.914   0.110   6.903  0.0340  0.2997 -0.2566
 8154SOL    HW136095   1.874   0.173   6.843 -0.6232  1.0478  0.9913
 8154SOL    HW236096   1.858   0.034   6.886  0.7892 -0.8513  2.4197
 8155SOL     OW36097   0.989   2.172  14.992  0.5367  0.0723 -0.1467
 8155SOL    HW136098   0.974   2.080  15.014  2.7402 -0.3090 -0.2057
 8155SOL    HW236099   1.043   2.188  15.070 -1.1395 -0.3614  1.0948
 8156SOL     OW36100   1.633   0.822   2.741 -0.0353 -0.0383 -0.0528
 8156SOL    HW136101   1.669   0.910   2.756  1.7270 -0.5082 -1.4775
 8156SOL    HW236102   1.556   0.841   2.688 -0.4631 -0.7801  0.3106
 8157SOL     OW36103   3.882   3.896   1.186 -0.1311  0.2073  0.0661
 8157SOL    HW136104   3.844   3.829   1.129 -2.9900  0.1150  2.0688
 8157SOL    HW236105   3.815   3.901   1.254  0.9728 -1.4530  1.2726
 8158SOL     OW36106   2.255   2.415   7.643  0.9975  0.5548 -0.5650
 8158SOL    HW136107   2.299   2.500   7.642 -1.1604  1.6915 -0.6772
 8158SOL    HW236108   2.163   2.443   7.645  0.2439 -2.0226  1.0354
 8159SOL     OW36109   3.566   1.865   8.600  0.2817  0.1668  0.3301
 8159SOL    HW136110   3.638   1.806   8.621  0.3723  1.7886  4.5432
 8159SOL    HW236111   3.510   1.801   8.555  1.3470 -0.6792  0.1993
 8160SOL     OW36112   4.439   0.542  15.838 -0.4816 -0.2906  0.7120
 8160SOL    HW136113   4.377   0.574  15.772  2.1590  1.2469 -1.0351
 8160SOL    HW236114   4.509   0.504  15.786 -1.2169 -0.5628 -0.0805
 8161SOL     OW36115   0.185   4.038   8.136  0.7440  0.0020 -0.4792
 8161SOL    HW136116   0.266   3.996   8.106 -0.8335 -2.3073 -1.4316
 8161SOL    HW236117   0.150   4.070   8.053 -0.8110  1.0924  0.5903
 8162SOL     OW36118   1.349   3.020   7.175 -0.5437  0.2130  0.3671
 8162SOL    HW136119   1.435   2.981   7.160 -0.6859 -1.2785  3.4238
 8162SOL    HW236120   1.349   3.022   7.271 -1.7891  2.8530  0.3096
 8163SOL     OW36121   2.882   1.387   6.813 -0.0644 -0.2774  0.0253
 8163SOL    HW136122   2.932   1.411   6.735  0.4538 -0.5094  0.2856
 8163SOL    HW236123   2.838   1.471   6.821  1.1435  0.2394  1.2090
 8164SOL     OW36124   1.761   1.937   9.590  0.2405  0.3866 -0.5597
 8164SOL    HW136125   1.817   1.880   9.642 -0.6346  2.1255  2.2792
 8164SOL    HW236126   1.821   1.983   9.531  0.0204 -0.1160 -1.1777
 8165SOL     OW36127   2.333   4.433   4.099  0.0226  0.2802  0.0486
 8165SOL    HW136128   2.298   4.453   4.186 -0.1267  2.1384 -0.4423
 8165SOL    HW236129   2.272   4.370   4.061 -0.1584  0.0561  0.7021
 8166SOL     OW36130   2.117   2.068  12.732  0.0261 -0.2175 -0.1699
 8166SOL    HW136131   2.167   2.143  12.763 -1.7276  0.7562  0.2886
 8166SOL    HW236132   2.048   2.113  12.682  1.6099  2.2970 -0.0647
 8167SOL     OW36133   3.487   1.306  17.311 -0.2569  0.2789 -0.2678
 8167SOL    HW136134   3.430   1.289  17.235  0.1311  1.2598 -0.7831
 8167SOL    HW236135   3.447   1.382  17.354  0.7198  0.4480  0.3396
 8168SOL     OW36136   3.168   0.872   9.388  0.2498 -0.0235  0.1654
 8168SOL    HW136137   3.129   0.827   9.313 -0.3298 -0.7481  0.8974
 8168SOL    HW236138   3.257   0.835   9.381  0.7348  1.0314  0.7581
 8169SOL     OW36139   3.101   0.391   7.690 -0.0655 -0.0991 -0.0262
 8169SOL    HW136140   3.054   0.387   7.773  2.3612 -0.4570  1.3455
 8169SOL    HW236141   3.129   0.300   7.681 -1.2161 -0.7275  2.6905
 8170SOL     OW36142   2.822   2.389   3.376 -0.3332 -0.3274 -0.0488
 8170SOL    HW136143   2.854   2.301   3.357  2.4239  0.2873  1.8150
 8170SOL    HW236144   2.868   2.438   3.308  1.4699 -1.1062  0.6306
 8171SOL     OW36145   1.082   2.182   8.895 -0.0989  0.5556 -0.5893
 8171SOL    HW136146   1.007   2.127   8.917 -0.7489  1.3852 -0.7202
 8171SOL    HW236147   1.067   2.254   8.957  1.6383  0.9538 -0.6397
 8172SOL     OW36148   3.087   1.477   2.222 -0.1719 -0.1158 -0.3054
 8172SOL    HW136149   3.072   1.554   2.167 -1.0243  0.4971  0.7908
 8172SOL    HW236150   3.180   1.484   2.244 -0.6739 -2.4584  2.5077
 8173SOL     OW36151   1.896   4.371  15.467  0.2010 -0.0725  0.7865
 8173SOL    HW136152   1.922   4.410  15.382 -3.1632  0.0374 -0.1829
 8173SOL    HW236153   1.965   4.404  15.525 -1.1572 -0.6680  2.7282
 8174SOL     OW36154   3.817   0.872   2.743 -0.0241 -0.6778 -0.4871
 8174SOL    HW136155   3.855   0.793   2.781  1.2933 -0.4761 -1.3930
 8174SOL    HW236156   3.870   0.935   2.792 -1.3700  0.8368 -0.9608
 8175SOL     OW36157   4.191   4.738   4.420  0.1967 -0.1036 -0.1095
 8175SOL    HW136158   4.228   4.650   4.414  1.4028  0.4100 -0.1784
 8175SOL    HW236159   4.237   0.030   4.497 -1.8529  1.5801  0.4054
 8176SOL     OW36160   2.208   2.600   8.975 -0.0914  0.1098 -0.3528
 8176SOL    HW136161   2.240   2.637   8.893 -0.3080  0.2223 -0.3870
 8176SOL    HW236162   2.207   2.681   9.027 -2.8280 -0.7352  0.9094
 8177SOL     OW36163   1.071   0.057   7.857  0.3446 -0.2582 -0.2243
 8177SOL    HW136164   1.088   4.719   7.909 -0.8897  0.9250  1.9970
 8177SOL    HW236165   1.129   0.036   7.784  0.4096  1.8277 -0.7706
 8178SOL     OW36166   1.737   4.357  17.202 -0.5446  0.0572  0.3205
 8178SOL    HW136167   1.699   4.413  17.270 -0.4782  1.0109 -0.4376
 8178SOL    HW236168   1.774   4.291  17.261 -1.3610 -1.2281 -0.6282
 8179SOL     OW36169   3.120   3.603   3.890  0.4500 -0.2414 -0.2313
 8179SOL    HW136170   3.067   3.606   3.969 -0.8810  3.2155 -1.2299
 8179SOL    HW236171   3.175   3.679   3.910 -0.2520  0.1535  0.2068
 8180SOL     OW36172   0.323   2.077   3.466  0.3213 -0.1622  0.6570
 8180SOL    HW136173   0.244   2.044   3.510  0.4153 -0.6054  0.4874
 8180SOL    HW236174   0.322   2.018   3.392  1.6114 -1.2112  1.4684
 8181SOL     OW36175   1.665   0.234   8.224  0.0197 -0.2325 -0.3423
 8181SOL    HW136176   1.610   0.312   8.221  1.0566  0.5397  0.6275
 8181SOL    HW236177   1.619   0.176   8.164 -4.2718  1.2684  1.5375
 8182SOL     OW36178   2.050   2.638   2.841 -0.4819  0.4899 -0.6709
 8182SOL    HW136179   1.964   2.634   2.799 -1.4688  0.3387  1.3629
 8182SOL    HW236180   2.074   2.731   2.836 -2.9282  1.1282 -0.4182
 8183SOL     OW36181   0.087   2.110  10.694  0.5509  0.0562  0.1258
 8183SOL    HW136182   0.005   2.160  10.698 -0.0054 -0.7714 -0.8954
 8183SOL    HW236183   0.072   2.032  10.747  2.0309 -0.2080  0.1417
 8184SOL     OW36184   0.004   0.372   6.823  0.3937  0.4275 -0.0667
 8184SOL    HW136185   0.009   0.461   6.859  1.0670  0.5247 -0.4013
 8184SOL    HW236186   0.076   0.332   6.872 -0.4483 -0.5488  0.3664
 8185SOL     OW36187   3.346   1.979   3.227  0.6908 -0.2190  0.3722
 8185SOL    HW136188   3.278   2.042   3.203  2.0205  1.5681  1.2946
 8185SOL    HW236189   3.318   1.898   3.185 -0.6550 -0.1240  1.0996
 8186SOL     OW36190   4.176   4.201   8.578  0.3956  0.1332 -0.6407
 8186SOL    HW136191   4.191   4.278   8.524 -0.3932  1.2025  0.6599
 8186SOL    HW236192   4.125   4.151   8.514 -2.1879  1.2081  0.5493
 8187SOL     OW36193   3.029   3.117  12.930  0.0339  0.7405  0.3760
 8187SOL    HW136194   3.048   3.032  12.890  0.0151  0.9908 -0.1565
 8187SOL    HW236195   3.039   3.101  13.024  2.4870 -3.4177 -0.6268
 8188SOL     OW36196   3.803   1.690   3.019  0.3718  0.5402 -0.2731
 8188SOL    HW136197   3.787   1.679   3.112 -0.6819  3.1615 -0.1450
 8188SOL    HW236198   3.895   1.663   3.011  0.3670  0.2657  0.6278
 8189SOL     OW36199   1.988   3.566   4.102  0.1239 -0.2116  0.6684
 8189SOL    HW136200   2.038   3.488   4.076 -0.4295 -0.5284  0.5406
 8189SOL    HW236201   1.900   3.527   4.109  0.1515 -0.5615 -0.9833
 8190SOL     OW36202   2.339   2.667   2.979 -0.5328  0.6696  0.5045
 8190SOL    HW136203   2.247   2.672   3.006 -0.2736  1.3357  1.2514
 8190SOL    HW236204   2.359   2.573   2.977 -0.6373  0.6068  3.7937
 8191SOL     OW36205   0.442   0.832   8.854  1.3042  0.4756 -0.9292
 8191SOL    HW136206   0.486   0.914   8.873  2.2154  0.1651 -1.7067
 8191SOL    HW236207   0.519   0.781   8.831  0.9499 -0.2584 -0.5218
 8192SOL     OW36208   2.982   3.902   9.404  0.1328 -0.2047  0.4537
 8192SOL    HW136209   2.979   3.833   9.470 -0.4795  1.3575  2.0534
 8192SOL    HW236210   2.889   3.925   9.414  0.5373  0.7562  1.9806
 8193SOL     OW36211   0.673   3.134  17.291  0.0103 -0.4072  0.0783
 8193SOL    HW136212   0.653   3.064  17.353  0.2360  0.5884  1.2731
 8193SOL    HW236213   0.584   3.167  17.278 -1.4521 -4.5249 -0.2315
 8194SOL     OW36214   1.991   3.013   2.246  0.1165  0.0427 -0.0388
 8194SOL    HW136215   1.897   2.997   2.251  0.0509  0.7849  1.1153
 8194SOL    HW236216   1.995   3.034   2.153 -0.9806 -1.2384 -0.3818
 8195SOL     OW36217   4.386   2.831   7.887 -0.7073 -0.1351  0.5857
 8195SOL    HW136218   4.447   2.760   7.866  0.4402  1.5619 -1.7751
 8195SOL    HW236219   4.361   2.804   7.975 -1.0995  0.5050  0.6687
 8196SOL     OW36220   0.351   2.222   3.071  0.8314 -0.1909 -0.1795
 8196SOL    HW136221   0.294   2.292   3.041  0.8111 -0.4688 -0.7966
 8196SOL    HW236222   0.305   2.184   3.146  1.2402 -1.2014 -0.4383
 8197SOL     OW36223   4.537   0.094   8.112  0.3238  0.2774  0.7746
 8197SOL    HW136224   4.590   0.131   8.183  0.8313  0.1829  0.4425
 8197SOL    HW236225   4.597   0.066   8.043 -1.1152 -0.4455 -0.1790
 8198SOL     OW36226   2.743   0.100   7.370  0.1095 -0.1346  0.2391
 8198SOL    HW136227   2.717   0.181   7.413 -1.1715 -0.8713  0.8541
 8198SOL    HW236228   2.672   0.074   7.311 -1.4310  2.9742  0.6958
 8199SOL     OW36229   2.908   0.291   8.380 -0.1654 -0.1283  0.3487
 8199SOL    HW136230   2.933   0.243   8.301 -1.0823 -0.4014  0.2307
 8199SOL    HW236231   2.813   0.286   8.370 -0.2290 -1.1789  1.5811
 8200SOL     OW36232   4.379   2.241   3.095  0.0529  0.5844  0.2921
 8200SOL    HW136233   4.385   2.158   3.141 -0.8925  0.4253  0.1391
 8200SOL    HW236234   4.285   2.258   3.104 -0.8176 -2.4463 -3.2715
 8201SOL     OW36235   0.157   3.441   1.600 -0.3712  0.0038  0.1883
 8201SOL    HW136236   0.196   3.515   1.647 -1.7722  0.7459  0.1571
 8201SOL    HW236237   0.150   3.376   1.671  0.1317  0.2397  0.4585
 8202SOL     OW36238   0.832   0.500  10.410 -0.2425 -0.4568 -0.2227
 8202SOL    HW136239   0.789   0.489  10.325  0.4333  0.3560 -0.6783
 8202SOL    HW236240   0.796   0.423  10.455  0.2735  0.5421  1.8965
 8203SOL     OW36241   3.269   2.876   1.770 -0.5511 -0.1269  0.3010
 8203SOL    HW136242   3.299   2.843   1.686  1.9346 -0.3590  1.2802
 8203SOL    HW236243   3.176   2.898   1.760 -0.1631  2.2325  1.6541
 8204SOL     OW36244   3.050   1.101   3.777  0.3897  0.6179  0.2907
 8204SOL    HW136245   3.124   1.042   3.791 -1.4098 -1.5669  0.6469
 8204SOL    HW236246   3.020   1.062   3.695 -0.0633  1.1346  0.2056
 8205SOL     OW36247   0.466   1.081  12.770 -0.7096 -0.2137 -0.0302
 8205SOL    HW136248   0.439   1.077  12.862  1.9886  0.0673  0.7519
 8205SOL    HW236249   0.560   1.066  12.779 -0.6134  1.3585  1.5541
 8206SOL     OW36250   3.389   0.610   2.117  0.1986  0.4510  0.0001
 8206SOL    HW136251   3.430   0.553   2.182  0.4518  1.5527  0.8192
 8206SOL    HW236252   3.347   0.673   2.176  3.0398  0.4945  1.9995
 8207SOL     OW36253   1.463   3.597   2.685  0.9576 -0.2803  0.6273
 8207SOL    HW136254   1.524   3.654   2.733  1.3670  1.1075 -1.5751
 8207SOL    HW236255   1.380   3.627   2.723  0.6051 -1.0338  0.4453
 8208SOL     OW36256   4.732   1.322   6.656 -0.5792  0.4451  0.5453
 8208SOL    HW136257   4.667   1.262   6.693 -0.2612 -0.9356 -1.1095
 8208SOL    HW236258   0.056   1.344   6.723 -0.1817 -1.3842  0.7705
 8209SOL     OW36259   2.815   4.422   7.669  0.1512  0.5728  0.7175
 8209SOL    HW136260   2.735   4.458   7.705 -0.8571  0.0712 -0.9882
 8209SOL    HW236261   2.865   4.502   7.655  1.7532 -0.8105 -1.5250
 8210SOL     OW36262   3.694   4.307   8.663  0.0898  0.2253 -0.5258
 8210SOL    HW136263   3.725   4.226   8.705  0.9942  0.2968 -1.0630
 8210SOL    HW236264   3.645   4.276   8.588 -2.7369  1.2352  0.9165
 8211SOL     OW36265   0.996   4.289   3.196  0.5535  0.4180  0.1005
 8211SOL    HW136266   1.038   4.281   3.110 -2.2496 -0.1001 -1.2048
 8211SOL    HW236267   0.938   4.213   3.194  1.5014 -0.3192  1.2041
 8212SOL     OW36268   4.099   0.446   4.055  0.4952  0.3296  0.4196
 8212SOL    HW136269   4.054   0.363   4.067 -0.4245  0.8849  0.8176
 8212SOL    HW236270   4.100   0.482   4.144  0.6250  3.3843 -0.7936
 8213SOL     OW36271   0.122   2.639   1.854  0.1643  0.3049  0.1717
 8213SOL    HW136272   0.032   2.649   1.822 -0.1176 -1.8069  0.3324
 8213SOL    HW236273   0.144   2.730   1.872 -0.2547 -0.1757  3.0798
 8214SOL     OW36274   1.338   0.612   2.143  0.4117  0.0569 -0.0843
 8214SOL    HW136275   1.412   0.561   2.108 -0.6095 -0.4224 -1.5506
 8214SOL    HW236276   1.273   0.543   2.132  1.7130 -0.9879 -1.3010
 8215SOL     OW36277   4.083   0.868   8.347 -0.3486  0.1015  0.2623
 8215SOL    HW136278   4.094   0.804   8.417  0.3849 -1.1961 -1.0418
 8215SOL    HW236279   4.026   0.940   8.372 -0.7784  0.1022 -0.7346
 8216SOL     OW36280   0.607   3.133   1.405 -0.4629 -0.1851 -0.4414
 8216SOL    HW136281   0.674   3.198   1.423  1.9355 -2.5038 -0.9674
 8216SOL    HW236282   0.564   3.121   1.490  1.3329  1.3192  0.6860
 8217SOL     OW36283   3.566   3.537   1.946 -0.5698  0.2103 -0.1342
 8217SOL    HW136284   3.565   3.598   2.020 -0.8568 -1.1791  1.0118
 8217SOL    HW236285   3.542   3.453   1.984 -1.7389 -0.0305 -1.3844
 8218SOL     OW36286   0.298   3.772   2.699  1.0904  0.1338  0.1585
 8218SOL    HW136287   0.326   3.820   2.621  2.7821 -0.7233  0.2385
 8218SOL    HW236288   0.203   3.770   2.692  1.1396 -0.4132 -0.3826
 8219SOL     OW36289   3.257   3.991   4.009  0.3290  0.1819 -0.3584
 8219SOL    HW136290   3.173   4.037   4.001  0.0670  0.0390  1.5689
 8219SOL    HW236291   3.251   3.964   4.101 -0.5968  0.1276 -0.4312
 8220SOL     OW36292   4.601   1.114   8.014 -0.7501  0.2003 -0.0746
 8220SOL    HW136293   4.677   1.138   8.066 -0.4938 -0.0938 -0.3132
 8220SOL    HW236294   4.530   1.125   8.078 -1.1325  0.6691 -0.5855
 8221SOL     OW36295   1.813   0.564   3.967 -0.3526 -0.4880 -0.6254
 8221SOL    HW136296   1.736   0.569   3.910 -0.0505 -1.4350 -1.1220
 8221SOL    HW236297   1.793   0.488   4.021  1.5732 -1.1912 -0.8920
 8222SOL     OW36298   1.300   1.477  13.670  0.0723  0.2207  0.6282
 8222SOL    HW136299   1.324   1.554  13.721 -0.8927 -0.7137  2.4998
 8222SOL    HW236300   1.209   1.468  13.700 -0.9426  0.3938 -2.4341
 8223SOL     OW36301   4.547   0.600  14.985 -0.1989  0.3425 -0.2542
 8223SOL    HW136302   4.517   0.688  15.009  2.9552  0.7983  1.9822
 8223SOL    HW236303   4.622   0.586  15.043 -0.2132 -0.0267 -0.3227
 8224SOL     OW36304   0.848   2.859   6.572 -0.2729 -0.7586 -0.6785
 8224SOL    HW136305   0.917   2.803   6.537 -0.1734 -0.7873 -0.4328
 8224SOL    HW236306   0.868   2.845   6.664 -0.1923 -0.6463 -0.6793
 8225SOL     OW36307   0.101   1.992  16.641  0.3036 -0.5715  0.2722
 8225SOL    HW136308   0.103   1.974  16.547  0.2225  1.6399 -0.1695
 8225SOL    HW236309   0.035   1.924  16.654  0.7766 -0.5437  2.9345
 8226SOL     OW36310   2.212   0.760   8.526 -0.1838  0.0054 -0.1278
 8226SOL    HW136311   2.192   0.845   8.488 -0.4100  0.2990  0.6373
 8226SOL    HW236312   2.303   0.775   8.553  0.5286 -2.7018 -1.0141
 8227SOL     OW36313   3.145   2.336   1.985 -0.2675 -0.6449  0.2226
 8227SOL    HW136314   3.073   2.324   2.047  0.3620 -0.3086  1.0112
 8227SOL    HW236315   3.104   2.290   1.911  1.3630 -0.6241 -0.6968
 8228SOL     OW36316   1.389   4.525   2.428 -0.1055 -0.1286 -0.0262
 8228SOL    HW136317   1.368   4.607   2.474 -1.3101  1.5485 -3.5457
 8228SOL    HW236318   1.483   4.519   2.446 -0.1454  2.5098  1.1359
 8229SOL     OW36319   0.280   3.978  16.994 -0.2376 -0.5942 -0.5974
 8229SOL    HW136320   0.272   3.886  16.970  1.0430 -0.6863 -0.6798
 8229SOL    HW236321   0.250   3.975  17.085  2.4170 -1.5875  0.2410
 8230SOL     OW36322   0.130   2.763   9.540  0.5942 -0.0601 -0.2614
 8230SOL    HW136323   0.155   2.674   9.512  1.5168  0.0774  0.1077
 8230SOL    HW236324   0.204   2.801   9.588  1.6325 -0.4547 -1.5502
 8231SOL     OW36325   1.671   4.121   2.168  0.2530  0.1031  0.5629
 8231SOL    HW136326   1.636   4.126   2.257 -0.7892  1.0955  0.0985
 8231SOL    HW236327   1.666   4.211   2.136 -3.6780  0.2441  1.5629
 8232SOL     OW36328   1.026   1.316   6.842 -0.0693 -0.1386 -0.4057
 8232SOL    HW136329   1.082   1.392   6.826  0.5729 -0.2741  1.2638
 8232SOL    HW236330   1.040   1.272   6.758 -1.8292 -0.2265 -0.6596
 8233SOL     OW36331   1.738   2.847   8.936  0.1518  0.2891 -0.3955
 8233SOL    HW136332   1.823   2.865   8.977 -0.0524 -0.6307  0.4417
 8233SOL    HW236333   1.730   2.928   8.886  0.5102  0.4182 -0.2446
 8234SOL     OW36334   2.772   3.868  17.551  0.3896  0.2103  0.3782
 8234SOL    HW136335   2.831   3.800  17.520 -0.3901 -0.8088  1.1110
 8234SOL    HW236336   2.736   3.890  17.464  0.6196 -0.9708 -0.0139
 8235SOL     OW36337   4.513   3.918  11.871 -0.2164 -0.7958 -0.1353
 8235SOL    HW136338   4.501   3.840  11.925  0.2792 -1.0546 -0.4016
 8235SOL    HW236339   4.601   3.904  11.836 -0.0108 -0.6589  0.3289
 8236SOL     OW36340   1.877   3.138  15.579 -0.1858 -0.4603 -0.3986
 8236SOL    HW136341   1.873   3.171  15.489 -0.3889 -1.8967 -0.9240
 8236SOL    HW236342   1.940   3.067  15.571  0.4890  0.2008 -0.9760
 8237SOL     OW36343   0.181   0.276   2.386  0.0611  0.3742  0.3149
 8237SOL    HW136344   0.150   0.361   2.417 -3.3343 -0.5548 -0.5905
 8237SOL    HW236345   0.232   0.307   2.311 -0.2780  0.7629  0.2472
 8238SOL     OW36346   0.038   0.957   2.336  0.0312  0.5558  0.4813
 8238SOL    HW136347   0.112   0.915   2.292 -0.1300  2.4539 -1.6123
 8238SOL    HW236348   4.734   0.886   2.382  1.5388 -1.4037 -1.0384
 8239SOL     OW36349   3.260   0.739   1.156 -0.1105  0.2154  0.1200
 8239SOL    HW136350   3.262   0.783   1.241 -0.1025 -1.4788  1.0070
 8239SOL    HW236351   3.208   0.792   1.096 -0.8660 -0.2000  0.4058
 8240SOL     OW36352   3.582   0.996   2.777 -0.1775 -0.0813 -0.2637
 8240SOL    HW136353   3.642   0.923   2.789 -0.6641 -0.1985  1.4452
 8240SOL    HW236354   3.516   0.974   2.843 -0.0905  0.1846 -0.0853
 8241SOL     OW36355   2.488   4.535  17.195 -0.3370 -0.3830 -0.5126
 8241SOL    HW136356   2.461   4.480  17.122  1.0919 -2.4840  0.5295
 8241SOL    HW236357   2.564   4.489  17.231  0.2541  0.7521 -0.3114
 8242SOL     OW36358   3.186   3.215   7.513  0.0329 -0.2152  0.3671
 8242SOL    HW136359   3.174   3.278   7.442 -1.8451 -0.9277  0.0412
 8242SOL    HW236360   3.115   3.242   7.572 -0.7743  0.2801 -0.8457
 8243SOL     OW36361   0.912   3.328   2.572 -0.1279  0.1302 -0.2262
 8243SOL    HW136362   0.831   3.307   2.619  0.2339 -1.1541 -0.1752
 8243SOL    HW236363   0.875   3.336   2.484 -1.2191 -0.5308  0.1724
 8244SOL     OW36364   1.897   3.830   9.214 -0.2398 -0.2565 -0.0070
 8244SOL    HW136365   1.847   3.764   9.167 -0.5825 -0.3843  0.5289
 8244SOL    HW236366   1.890   3.903   9.152  0.6170  0.3152  0.5635
 8245SOL     OW36367   1.739   1.524  11.767  0.1725 -0.4996  0.1983
 8245SOL    HW136368   1.658   1.546  11.813  0.2502 -0.7602  0.4659
 8245SOL    HW236369   1.761   1.454  11.830 -0.0847 -0.2607  0.5555
 8246SOL     OW36370   3.022   3.603  17.224  0.4300  0.0611  0.3030
 8246SOL    HW136371   2.935   3.595  17.186  1.7495  0.9011 -2.8646
 8246SOL    HW236372   3.056   3.674  17.169  1.7050 -1.2778 -0.6523
 8247SOL     OW36373   0.021   3.507  11.400 -0.1781 -0.0424 -0.0247
 8247SOL    HW136374   4.674   3.541  11.386  0.2689  0.7007 -1.0056
 8247SOL    HW236375   0.062   3.553  11.327 -0.6794 -0.0123 -0.2868
 8248SOL     OW36376   2.486   2.421   8.486 -0.8463  0.1266 -0.0479
 8248SOL    HW136377   2.411   2.365   8.465  0.2637 -1.2825 -0.2400
 8248SOL    HW236378   2.561   2.365   8.504 -1.1393  0.2237  1.4771
 8249SOL     OW36379   1.094   2.523   6.622  0.7032  0.4914 -0.5238
 8249SOL    HW136380   1.010   2.491   6.589  0.9816 -0.8773  0.0603
 8249SOL    HW236381   1.095   2.599   6.564 -1.4610  0.4987 -0.5415
 8250SOL     OW36382   2.768   2.028  11.571 -0.1197  0.2051 -0.0886
 8250SOL    HW136383   2.730   1.993  11.490  2.1893 -0.3346 -0.9424
 8250SOL    HW236384   2.828   1.963  11.604  0.8386  1.1575  0.0378
 8251SOL     OW36385   1.154   2.091  16.351  0.0718  0.1848 -0.1950
 8251SOL    HW136386   1.138   1.998  16.368 -0.9897  0.1511 -1.3819
 8251SOL    HW236387   1.168   2.085  16.256 -1.0496 -0.6533 -0.3148
 8252SOL     OW36388   4.421   0.527   5.580  0.6656  0.6030 -0.3124
 8252SOL    HW136389   4.377   0.598   5.532 -0.0810 -1.0093 -2.0089
 8252SOL    HW236390   4.346   0.488   5.623  0.9980  0.7153  0.3712
 8253SOL     OW36391   4.075   3.272   9.571 -0.3773  0.0098  0.4998
 8253SOL    HW136392   4.098   3.226   9.651 -0.7362 -0.1506  0.5130
 8253SOL    HW236393   4.146   3.253   9.509  1.0416  0.5910  1.9557
 8254SOL     OW36394   3.217   1.888  17.196 -0.0362  0.1760 -0.2104
 8254SOL    HW136395   3.239   1.943  17.272 -0.6600 -0.3627  0.3608
 8254SOL    HW236396   3.301   1.884  17.151 -0.1493  1.7081 -0.5568
 8255SOL     OW36397   2.462   0.429   1.954 -0.5716  0.5332  0.0431
 8255SOL    HW136398   2.556   0.432   1.970 -0.3225  3.1881 -1.8648
 8255SOL    HW236399   2.462   0.407   1.861  3.4365 -2.3956  0.7308
 8256SOL     OW36400   4.123   3.842  13.482 -0.3864  0.3095  0.6458
 8256SOL    HW136401   4.174   3.840  13.562 -0.1102 -0.1258  0.4547
 8256SOL    HW236402   4.185   3.826  13.411 -0.4784 -0.0506  0.6492
 8257SOL     OW36403   4.485   1.585   8.061  0.6149  0.2153  0.0508
 8257SOL    HW136404   4.408   1.566   8.115  0.1373  2.1563  0.0750
 8257SOL    HW236405   4.449   1.645   7.996 -0.4376 -1.3425 -0.8071
 8258SOL     OW36406   1.308   1.599   8.054  0.2493  0.2849  0.4776
 8258SOL    HW136407   1.355   1.525   8.094 -0.0092 -0.5401 -0.7502
 8258SOL    HW236408   1.357   1.674   8.089  1.1716 -0.1399  0.1173
 8259SOL     OW36409   2.037   2.519   5.466 -0.2447 -0.0449 -0.1672
 8259SOL    HW136410   1.959   2.571   5.487  0.6535  0.6511  1.4626
 8259SOL    HW236411   2.002   2.431   5.453  1.0367 -0.7969  1.4280
 8260SOL     OW36412   1.280   1.958   3.760  0.3177  0.1701  0.6821
 8260SOL    HW136413   1.185   1.948   3.762  0.0169  2.5934 -2.0956
 8260SOL    HW236414   1.286   2.053   3.759 -0.3367  0.1960 -0.8953
 8261SOL     OW36415   2.724   1.708   6.063 -0.3788 -0.4328 -0.2322
 8261SOL    HW136416   2.763   1.791   6.090 -0.4753 -0.2502 -0.6513
 8261SOL    HW236417   2.759   1.649   6.130  0.3973  1.0005  0.6035
 8262SOL     OW36418   3.008   0.578   3.658 -0.3387 -0.4885 -0.1311
 8262SOL    HW136419   3.002   0.507   3.722  1.4898 -1.9345 -1.5831
 8262SOL    HW236420   2.943   0.639   3.692  0.1485  0.3166 -0.6588
 8263SOL     OW36421   1.716   2.651   6.640 -0.0102 -0.4489  0.5969
 8263SOL    HW136422   1.758   2.616   6.562  1.7742 -0.0435  1.3730
 8263SOL    HW236423   1.625   2.654   6.610  0.3349 -1.7630 -0.5900
 8264SOL     OW36424   0.969   1.261   9.136 -0.2048  0.1171  0.2756
 8264SOL    HW136425   1.057   1.239   9.105 -0.3587  0.9641 -0.7544
 8264SOL    HW236426   0.934   1.274   9.047  1.3472  0.1132 -0.3283
 8265SOL     OW36427   4.213   3.392   9.275  0.0233 -0.4722  0.4755
 8265SOL    HW136428   4.295   3.353   9.303  0.1076 -0.3872  0.3501
 8265SOL    HW236429   4.160   3.318   9.246  0.8613  0.0891 -2.4919
 8266SOL     OW36430   4.541   2.393  12.707  0.4515 -0.3417 -0.0803
 8266SOL    HW136431   4.581   2.472  12.743  0.3052 -0.4633  0.3484
 8266SOL    HW236432   4.519   2.418  12.617 -0.2095  1.2572  0.5277
 8267SOL     OW36433   3.360   4.374   6.994  0.4967  0.0983  0.0491
 8267SOL    HW136434   3.339   4.413   7.079 -3.2924 -0.1576 -0.7875
 8267SOL    HW236435   3.335   4.439   6.929  1.1040 -2.0167 -2.2923
 8268SOL     OW36436   3.794   2.373   4.609  0.2926 -0.0295 -0.0968
 8268SOL    HW136437   3.881   2.399   4.577  0.3543  1.3802  1.1721
 8268SOL    HW236438   3.737   2.438   4.568 -0.4865  2.0739  4.3198
 8269SOL     OW36439   1.045   2.552  17.420  0.0592 -0.0620 -0.2405
 8269SOL    HW136440   1.078   2.620  17.361 -0.1174  1.3549  1.2950
 8269SOL    HW236441   1.053   2.585  17.509 -1.1199 -0.5907  0.0520
 8270SOL     OW36442   3.317   2.500   6.873 -0.1256  0.4971  0.2125
 8270SOL    HW136443   3.313   2.561   6.947  1.4055 -0.1592  0.8325
 8270SOL    HW236444   3.390   2.446   6.904 -1.0851 -0.4690  0.7991
 8271SOL     OW36445   4.123   1.008   6.515 -0.5259  0.1238  0.2262
 8271SOL    HW136446   4.095   0.955   6.440  2.6657 -1.6497  0.2748
 8271SOL    HW236447   4.124   0.940   6.582  1.4722  1.0510  1.1658
 8272SOL     OW36448   4.055   4.051   8.780 -1.0556 -0.0280  0.0990
 8272SOL    HW136449   4.093   3.973   8.737  0.7219  1.1943 -0.5506
 8272SOL    HW236450   4.077   4.124   8.723 -0.6097 -1.7584 -1.9635
 8273SOL     OW36451   0.659   4.185   8.686  0.3179 -0.1757  0.0143
 8273SOL    HW136452   0.713   4.263   8.694 -0.9842  1.1463 -3.8985
 8273SOL    HW236453   0.580   4.216   8.731  1.1697  1.9754  0.0556
 8274SOL     OW36454   0.031   4.155   5.254  0.0812  0.1991 -0.3225
 8274SOL    HW136455   0.078   4.226   5.297  1.9198 -2.0401  1.4049
 8274SOL    HW236456   4.715   4.208   5.199  0.5971  0.7252 -0.3598
 8275SOL     OW36457   4.521   1.449   5.742 -0.2922  0.6987  0.2649
 8275SOL    HW136458   4.494   1.509   5.673  0.0048 -0.5736 -0.9503
 8275SOL    HW236459   4.444   1.392   5.743  2.2898 -2.7390 -1.0805
 8276SOL     OW36460   1.851   1.608   2.202  0.1677 -0.0839 -0.1373
 8276SOL    HW136461   1.897   1.595   2.285 -1.5225 -1.8575  0.4954
 8276SOL    HW236462   1.774   1.558   2.227 -0.2123  0.9530  0.7383
 8277SOL     OW36463   3.355   1.227   4.232  0.8511  0.6639  0.4839
 8277SOL    HW136464   3.303   1.187   4.302 -0.8388  1.1119 -0.5295
 8277SOL    HW236465   3.366   1.153   4.172 -0.8770  0.4672  0.4236
 8278SOL     OW36466   2.733   1.878  14.690 -0.3147  0.0490 -0.4046
 8278SOL    HW136467   2.715   1.804  14.633 -0.1843 -0.4124  0.1455
 8278SOL    HW236468   2.757   1.832  14.771  0.3444 -1.3920 -1.4329
 8279SOL     OW36469   4.198   4.611   7.425  0.1940 -0.1228 -0.1541
 8279SOL    HW136470   4.226   4.694   7.463  0.2483  0.4173 -1.3797
 8279SOL    HW236471   4.169   4.577   7.509  1.4008  0.4266  0.4819
 8280SOL     OW36472   3.969   1.790   2.290  0.3473 -0.2186  0.9272
 8280SOL    HW136473   3.994   1.708   2.332 -0.8386 -1.3045 -0.4618
 8280SOL    HW236474   4.053   1.836   2.289  0.1829  0.0809  0.9155
 8281SOL     OW36475   1.920   3.212   3.739  0.0932  0.4529 -0.1688
 8281SOL    HW136476   1.990   3.276   3.724 -0.0541  0.1690 -2.0349
 8281SOL    HW236477   1.970   3.131   3.747  0.4867  0.5339 -1.8959
 8282SOL     OW36478   0.840   1.701  11.974  0.1468 -0.1351  0.0101
 8282SOL    HW136479   0.753   1.682  11.940  0.2828  0.0957 -0.4613
 8282SOL    HW236480   0.888   1.624  11.942 -0.1951 -0.4105  0.1535
 8283SOL     OW36481   1.128   0.039   5.353 -0.4598 -0.3913 -0.3996
 8283SOL    HW136482   1.104   0.009   5.265 -1.9764 -1.9487  0.5285
 8283SOL    HW236483   1.143   4.699   5.402  0.7003 -1.4545 -2.5163
 8284SOL     OW36484   4.061   1.764   6.882  0.3201 -0.2603  0.0742
 8284SOL    HW136485   4.150   1.735   6.900 -0.3927 -1.6939  1.2112
 8284SOL    HW236486   4.072   1.855   6.855 -1.8954 -0.1294 -0.3964
 8285SOL     OW36487   0.294   3.606   6.015 -0.9399  0.1991 -0.0773
 8285SOL    HW136488   0.199   3.613   6.028 -1.0025 -2.4277  0.9415
 8285SOL    HW236489   0.311   3.699   6.008 -0.1143  0.1138  0.7911
 8286SOL     OW36490   1.526   0.471  16.386 -0.1412 -0.1690 -0.2135
 8286SOL    HW136491   1.449   0.414  16.394 -0.8063  0.7961  0.1761
 8286SOL    HW236492   1.597   0.410  16.365 -0.6107 -1.1288  0.9705
 8287SOL     OW36493   2.042   0.400   4.252 -0.4449  0.1697 -0.1092
 8287SOL    HW136494   2.027   0.419   4.160 -1.6412 -0.5864 -0.0632
 8287SOL    HW236495   2.103   0.327   4.241 -0.8082  0.1528 -1.9374
 8288SOL     OW36496   0.663   3.327   4.982 -0.3425 -0.0313  0.6940
 8288SOL    HW136497   0.575   3.317   4.945  0.5421  1.1264 -1.7500
 8288SOL    HW236498   0.641   3.330   5.075  1.1698 -1.6991  1.0907
 8289SOL     OW36499   3.649   1.462   6.447  0.3846  0.2794 -0.7542
 8289SOL    HW136500   3.554   1.462   6.459  0.3673  2.4143 -0.8596
 8289SOL    HW236501   3.684   1.456   6.536 -3.1864 -1.8771  0.4941
 8290SOL     OW36502   3.162   0.806   7.972 -0.6873  0.1801  0.1802
 8290SOL    HW136503   3.134   0.827   7.883 -0.1129  1.1444  0.2348
 8290SOL    HW236504   3.088   0.755   8.005  0.2480 -0.0169  1.9312
 8291SOL     OW36505   2.446   1.261   4.057  0.6514  0.3563 -0.2944
 8291SOL    HW136506   2.400   1.338   4.091  0.2775  0.1972 -0.4400
 8291SOL    HW236507   2.379   1.193   4.051 -0.3488  1.1239  2.0200
 8292SOL     OW36508   3.150   1.673   6.476  0.4384 -0.4440 -0.4489
 8292SOL    HW136509   3.068   1.708   6.441  1.2123  0.9926 -0.8148
 8292SOL    HW236510   3.212   1.740   6.449 -0.2007  0.4607  0.3498
 8293SOL     OW36511   4.492   4.333   6.880 -0.0968  0.1145  0.0888
 8293SOL    HW136512   4.433   4.314   6.807 -0.2450  0.0004  0.2401
 8293SOL    HW236513   4.563   4.371   6.828  0.4501  0.9925  1.4773
 8294SOL     OW36514   3.288   0.540  15.749 -0.0693  0.1300  0.3943
 8294SOL    HW136515   3.277   0.557  15.655  0.4350  4.1010  1.0515
 8294SOL    HW236516   3.232   0.610  15.784  1.0105 -0.3663  3.0951
 8295SOL     OW36517   3.940   4.000  11.181 -0.1999 -0.4222 -0.1450
 8295SOL    HW136518   3.885   4.077  11.195  0.5406 -0.0368  0.7334
 8295SOL    HW236519   3.903   3.943  11.249 -1.8999  0.7577 -0.0945
 8296SOL     OW36520   1.702   1.186   9.176  0.3282  0.2816  0.1790
 8296SOL    HW136521   1.755   1.106   9.176 -0.7506 -0.4185  2.4731
 8296SOL    HW236522   1.720   1.224   9.262  3.0953  2.4420 -1.3516
 8297SOL     OW36523   1.756   3.681   3.102 -0.2051  0.3627 -0.5752
 8297SOL    HW136524   1.777   3.754   3.045 -0.3689  0.5328 -0.4200
 8297SOL    HW236525   1.836   3.669   3.153  0.1777 -1.3652 -1.5615
 8298SOL     OW36526   1.859   0.028  14.405 -0.4060 -0.4619  0.3291
 8298SOL    HW136527   1.932   4.710  14.427  0.6903  0.4636 -0.8472
 8298SOL    HW236528   1.893   0.091  14.342 -1.2648 -0.0843  0.2406
 8299SOL     OW36529   2.835   0.046   5.730  0.0876 -0.1881 -0.1070
 8299SOL    HW136530   2.810   0.138   5.738 -2.3665 -0.8972  0.5342
 8299SOL    HW236531   2.878   0.032   5.814 -0.8390 -1.0834  0.2267
 8300SOL     OW36532   1.568   1.216   8.778 -0.1976  0.1264 -0.0829
 8300SOL    HW136533   1.619   1.207   8.697  1.1683 -2.4983  1.0790
 8300SOL    HW236534   1.483   1.233   8.738  0.5381  1.8733 -0.8975
 8301SOL     OW36535   0.660   4.473   2.357 -0.1765  0.4405  0.7231
 8301SOL    HW136536   0.603   4.534   2.403 -1.1311 -0.3404  0.5723
 8301SOL    HW236537   0.713   4.540   2.314  1.2335  0.4535  2.4949
 8302SOL     OW36538   1.039   0.515   6.380 -0.4832  0.5827 -0.0986
 8302SOL    HW136539   1.100   0.570   6.331 -0.3296  0.6219  0.1340
 8302SOL    HW236540   0.964   0.518   6.321 -0.2518  0.8958 -0.3740
 8303SOL     OW36541   1.403   4.358   8.256  0.1679  0.2705 -0.2512
 8303SOL    HW136542   1.343   4.418   8.301  1.2039  2.1691 -1.3943
 8303SOL    HW236543   1.470   4.422   8.235  0.4391 -0.6417 -2.1307
 8304SOL     OW36544   0.489   2.240   5.900 -0.1695  0.2513  0.4360
 8304SOL    HW136545   0.576   2.209   5.874  0.2882  1.8016  0.0959
 8304SOL    HW236546   0.445   2.249   5.815 -0.3234 -0.2360  0.4680
 8305SOL     OW36547   3.965   0.211   3.767  0.9180  0.5297  0.7819
 8305SOL    HW136548   3.969   0.201   3.862  2.4660 -1.9068  0.4372
 8305SOL    HW236549   4.016   0.291   3.754 -0.4008  1.5323  1.7101
 8306SOL     OW36550   0.656   0.157   8.938 -0.4460  0.3759 -0.6114
 8306SOL    HW136551   0.584   0.102   8.967 -0.1890  0.6576  0.5544
 8306SOL    HW236552   0.618   0.189   8.856  0.5978 -2.9259 -2.4226
 8307SOL     OW36553   3.264   4.584  12.192  0.0967 -0.5812  0.0268
 8307SOL    HW136554   3.349   4.550  12.218  0.6653  2.4656  2.2746
 8307SOL    HW236555   3.221   4.500  12.179  0.2427 -0.3387 -1.9425
 8308SOL     OW36556   4.533   3.732   3.628 -0.0573  0.0169  0.1357
 8308SOL    HW136557   4.447   3.774   3.630 -0.7302 -1.3666  0.8519
 8308SOL    HW236558   4.512   3.655   3.575 -1.2969  0.7249 -0.3925
 8309SOL     OW36559   2.003   4.718   2.695  0.2390 -0.5077 -0.2991
 8309SOL    HW136560   1.916   0.015   2.690 -0.3873 -1.8934  0.1345
 8309SOL    HW236561   2.047   0.058   2.720 -2.8161  1.4749 -1.3368
 8310SOL     OW36562   3.122   2.351   7.794 -0.5061  0.1032 -0.3760
 8310SOL    HW136563   3.031   2.341   7.766 -0.2552  0.4769 -1.3417
 8310SOL    HW236564   3.162   2.411   7.731  0.0673 -0.5596 -0.6430
 8311SOL     OW36565   0.852   2.304   6.184 -0.4855 -0.2264 -0.5496
 8311SOL    HW136566   0.836   2.284   6.092 -4.5765  0.0306  0.1042
 8311SOL    HW236567   0.769   2.299   6.231  0.9496 -1.8208  1.8100
 8312SOL     OW36568   2.543   2.207   7.164  0.0325 -0.0237 -0.3583
 8312SOL    HW136569   2.514   2.272   7.100 -0.7374 -0.0179 -0.0017
 8312SOL    HW236570   2.637   2.221   7.148  0.4763 -0.5201  1.8466
 8313SOL     OW36571   1.953   1.544   2.434  0.1065 -0.9415  0.5958
 8313SOL    HW136572   1.892   1.564   2.505 -0.7678 -0.8289 -0.1880
 8313SOL    HW236573   2.021   1.611   2.447 -1.0370  0.0022  1.6873
 8314SOL     OW36574   2.919   3.895   2.364 -0.0568 -0.3666 -0.0296
 8314SOL    HW136575   2.845   3.865   2.417  0.1337 -0.4433  0.1901
 8314SOL    HW236576   2.972   3.817   2.348 -1.0157 -1.1506  0.5928
 8315SOL     OW36577   1.071   1.015   6.873  0.3880  0.1432 -0.9759
 8315SOL    HW136578   0.985   0.974   6.864  0.0911  0.4667  0.3979
 8315SOL    HW236579   1.054   1.109   6.871 -1.5503 -0.1946 -0.5960
 8316SOL     OW36580   3.728   4.706  17.608 -0.1345 -1.2489 -0.3009
 8316SOL    HW136581   3.699   4.719  17.518  1.9470 -0.4824 -0.8753
 8316SOL    HW236582   3.821   4.688  17.594  0.2359 -0.4643  1.1814
 8317SOL     OW36583   3.279   0.874   9.687 -0.2046 -0.3960  0.9332
 8317SOL    HW136584   3.355   0.927   9.665  0.1111 -0.5212  1.7208
 8317SOL    HW236585   3.309   0.787   9.663 -2.8713 -0.9574 -0.4033
 8318SOL     OW36586   0.273   2.516   3.594  0.1561 -0.1998  0.0931
 8318SOL    HW136587   0.341   2.581   3.613 -1.3291  1.8377 -1.5983
 8318SOL    HW236588   0.324   2.442   3.563  0.5896  0.7971 -1.5626
 8319SOL     OW36589   3.456   0.589   4.402 -0.2705  0.0802 -0.0930
 8319SOL    HW136590   3.366   0.619   4.414  0.0189  0.2316  1.6794
 8319SOL    HW236591   3.503   0.640   4.467 -0.3852  1.9879 -1.4993
 8320SOL     OW36592   4.396   0.518   7.790  0.3876  0.6345 -0.0824
 8320SOL    HW136593   4.329   0.511   7.722  0.7975 -1.6562 -0.2248
 8320SOL    HW236594   4.373   0.604   7.827 -0.4443  0.9632 -1.3503
 8321SOL     OW36595   0.385   4.476   1.304  0.1793  0.2171 -0.5984
 8321SOL    HW136596   0.350   4.395   1.266 -1.8795  1.0153 -0.4323
 8321SOL    HW236597   0.456   4.440   1.358  0.1104 -0.5226 -1.0142
 8322SOL     OW36598   0.759   2.696   6.240 -0.3600  0.4615 -0.2494
 8322SOL    HW136599   0.787   2.786   6.222  0.3409  0.4674  0.8431
 8322SOL    HW236600   0.727   2.707   6.330 -1.3086  0.2586 -0.5540
 8323SOL     OW36601   1.387   0.704  10.312 -0.2234  0.0709  0.5724
 8323SOL    HW136602   1.394   0.770  10.243 -1.4250 -2.2130 -1.7376
 8323SOL    HW236603   1.292   0.695  10.317 -0.3064 -1.0689 -2.7619
 8324SOL     OW36604   1.120   3.754   4.116 -0.0200  0.0321 -0.1729
 8324SOL    HW136605   1.214   3.768   4.123 -0.0883  0.3412  0.1395
 8324SOL    HW236606   1.106   3.684   4.179  0.3517  0.0405 -0.0848
 8325SOL     OW36607   3.015   3.640   2.349 -0.1311 -0.0326  0.3726
 8325SOL    HW136608   2.946   3.589   2.307  0.8046 -0.9806  0.0115
 8325SOL    HW236609   3.079   3.573   2.372  0.9648  1.7417  2.6014
 8326SOL     OW36610   2.606   1.532   1.360  0.0127 -0.1972  0.3938
 8326SOL    HW136611   2.587   1.505   1.450 -0.0191  0.7816  0.6840
 8326SOL    HW236612   2.523   1.575   1.339  0.6108  0.7666  0.0080
 8327SOL     OW36613   3.368   1.246   6.263  0.0614  0.6437 -0.1210
 8327SOL    HW136614   3.344   1.155   6.284  1.3913 -0.0192 -1.5277
 8327SOL    HW236615   3.405   1.272   6.347 -2.4832 -0.4762  1.3656
 8328SOL     OW36616   0.990   0.447   5.460  0.3089 -0.3659  0.2679
 8328SOL    HW136617   0.943   0.520   5.501 -0.2240 -0.1044 -0.8168
 8328SOL    HW236618   1.055   0.433   5.529  1.4348  0.6091 -0.5908
 8329SOL     OW36619   4.330   4.337   7.785 -0.3696 -0.3594 -0.0092
 8329SOL    HW136620   4.379   4.340   7.868 -0.3099  0.2543 -0.0676
 8329SOL    HW236621   4.310   4.243   7.790 -0.0595 -0.5547 -2.4783
 8330SOL     OW36622   0.582   3.788   7.428 -0.8270  0.0722  0.1899
 8330SOL    HW136623   0.655   3.838   7.466 -0.5812  0.2736 -0.5456
 8330SOL    HW236624   0.544   3.865   7.385 -2.0005 -1.8902 -2.2700
 8331SOL     OW36625   1.244   0.049   2.298  0.0143  0.3200  0.2993
 8331SOL    HW136626   1.218   0.009   2.215 -1.9169 -0.5713  1.3209
 8331SOL    HW236627   1.304   0.118   2.270  0.5794 -0.2528  0.0797
 8332SOL     OW36628   1.982   4.339  14.824  0.3053  0.3314  0.4425
 8332SOL    HW136629   1.911   4.383  14.870  1.1658  1.0409  1.0916
 8332SOL    HW236630   2.064   4.364  14.868  0.9894  0.6090 -0.9818
 8333SOL     OW36631   2.804   2.393  15.127 -0.5070 -0.0109 -0.2660
 8333SOL    HW136632   2.777   2.422  15.040  1.9164 -1.4565 -1.5065
 8333SOL    HW236633   2.864   2.463  15.151  1.8000 -0.1040 -5.7015
 8334SOL     OW36634   4.719   3.754  11.712  0.2960 -0.6614 -0.1158
 8334SOL    HW136635   0.071   3.745  11.734  0.1496  1.4646  1.4217
 8334SOL    HW236636   4.682   3.736  11.798  2.5165 -1.0684  0.7521
 8335SOL     OW36637   0.414   0.658   6.207 -0.1441  0.1674 -0.2152
 8335SOL    HW136638   0.333   0.632   6.162 -0.1582  1.3804 -0.9196
 8335SOL    HW236639   0.471   0.677   6.132  0.1642  0.0505 -0.0061
 8336SOL     OW36640   4.499   2.791   8.320 -0.5480  0.4097  0.2514
 8336SOL    HW136641   4.451   2.708   8.323 -1.9733  1.3419  2.3763
 8336SOL    HW236642   4.561   2.774   8.248 -0.9077 -0.1942  0.0793
 8337SOL     OW36643   3.095   2.031   3.846  0.2681  0.7108  0.7738
 8337SOL    HW136644   3.186   2.041   3.873  0.8588 -1.0388 -0.5927
 8337SOL    HW236645   3.060   1.958   3.897  0.3511 -0.8353 -1.3854
 8338SOL     OW36646   1.091   1.061   2.057 -0.7236  0.8753  0.1458
 8338SOL    HW136647   1.067   1.003   1.984  0.8504  0.5548 -0.1275
 8338SOL    HW236648   1.084   0.996   2.127  2.8685  0.9583  0.5686
 8339SOL     OW36649   2.380   2.247   6.027  0.2530 -0.3729 -0.4299
 8339SOL    HW136650   2.316   2.273   6.093  3.5083  1.2163  2.1255
 8339SOL    HW236651   2.376   2.322   5.968 -0.9475  0.4659  0.7231
 8340SOL     OW36652   1.076   3.771   9.822  0.0520  0.5285 -0.0815
 8340SOL    HW136653   1.164   3.751   9.791 -0.2365  1.3636 -1.4161
 8340SOL    HW236654   1.086   3.862   9.849  2.7236 -0.1062  1.0081
 8341SOL     OW36655   4.468   2.861   7.506 -0.6110 -0.0569  0.1038
 8341SOL    HW136656   4.556   2.892   7.527  0.4443 -2.1111 -1.3198
 8341SOL    HW236657   4.470   2.878   7.412  0.0424 -0.4090  0.0518
 8342SOL     OW36658   0.473   0.378   1.397  0.3894 -0.5630 -0.5168
 8342SOL    HW136659   0.532   0.303   1.398  0.7570 -0.2474  1.2939
 8342SOL    HW236660   0.451   0.390   1.304 -0.4354  0.0781 -0.2408
 8343SOL     OW36661   0.904   0.886   7.506 -0.5073  0.6363 -0.2043
 8343SOL    HW136662   0.952   0.969   7.510  0.9260 -0.1825 -0.5364
 8343SOL    HW236663   0.944   0.832   7.574 -2.6317 -1.0375 -0.2814
 8344SOL     OW36664   2.312   0.131   5.256  0.1792  0.4542  0.1205
 8344SOL    HW136665   2.373   0.057   5.248  0.9491  1.4444 -3.1300
 8344SOL    HW236666   2.355   0.190   5.318  0.1234  0.7648 -0.1370
 8345SOL     OW36667   4.576   3.462   7.915  0.6777  0.1680 -0.3446
 8345SOL    HW136668   4.566   3.377   7.872 -1.1183 -0.3508  1.0685
 8345SOL    HW236669   4.639   3.441   7.984  1.3608  0.6162 -0.8388
 8346SOL     OW36670   2.487   0.741   1.758 -0.0900 -0.2438  0.5604
 8346SOL    HW136671   2.443   0.661   1.788 -0.4321  0.2509  1.3961
 8346SOL    HW236672   2.412   0.801   1.753 -0.0275 -0.0834  1.5370
 8347SOL     OW36673   2.076   1.658  11.091  0.4018 -0.1709  0.1001
 8347SOL    HW136674   2.117   1.574  11.069  2.1384  0.2765  1.6252
 8347SOL    HW236675   2.066   1.650  11.186 -1.9246  3.7868  0.1583
 8348SOL     OW36676   4.424   1.559   7.418 -0.0555  0.3896  0.4939
 8348SOL    HW136677   4.436   1.482   7.474  2.9231 -0.1081 -0.8591
 8348SOL    HW236678   4.431   1.630   7.482  2.5423  1.1797 -0.6568
 8349SOL     OW36679   0.227   1.936   8.988  0.3580  0.4729 -0.3617
 8349SOL    HW136680   0.294   2.001   9.012  0.8071 -0.4370  0.8685
 8349SOL    HW236681   0.226   1.887   9.070 -2.7884  0.7259 -0.2495
 8350SOL     OW36682   2.381   0.034   6.377  0.1792 -0.7969 -0.3608
 8350SOL    HW136683   2.327   0.055   6.301 -0.7426  0.0329  0.5339
 8350SOL    HW236684   2.311   4.736   6.429  0.3890 -1.8214 -0.8378
 8351SOL     OW36685   3.792   4.697   1.983 -0.2621 -0.1258 -0.6065
 8351SOL    HW136686   3.737   4.696   1.905 -2.2342  1.0554  0.7844
 8351SOL    HW236687   3.780   4.607   2.011 -1.2381 -0.8076 -3.2289
 8352SOL     OW36688   1.699   3.604   0.436 -0.2290  0.1379  0.1675
 8352SOL    HW136689   1.693   3.642   0.348 -2.3878 -0.3874  0.0995
 8352SOL    HW236690   1.725   3.514   0.416 -0.1605  0.2578 -0.2949
 8353SOL     OW36691   1.251   1.486   5.379 -0.0282  0.0013  0.1887
 8353SOL    HW136692   1.294   1.482   5.294  0.5092  0.4561  0.4415
 8353SOL    HW236693   1.239   1.392   5.396 -1.5751  0.0408 -0.7566
 8354SOL     OW36694   1.106   2.906   3.863 -0.3229  0.2527  0.0862
 8354SOL    HW136695   1.169   2.932   3.796 -0.0693  1.9293  0.9813
 8354SOL    HW236696   1.127   2.813   3.876  1.0218  0.7627  1.5598
 8355SOL     OW36697   3.327   4.293   1.840  0.2460  0.3696 -0.3681
 8355SOL    HW136698   3.315   4.326   1.751 -0.6728 -2.5197 -1.3298
 8355SOL    HW236699   3.357   4.204   1.822  0.5530  0.8107 -2.0027
 8356SOL     OW36700   0.876   0.075   8.145  0.2910  0.2101 -0.7100
 8356SOL    HW136701   0.817   0.066   8.220  1.9525  1.5426  0.7408
 8356SOL    HW236702   0.914   4.729   8.159  0.5139  0.6641  1.5442
 8357SOL     OW36703   1.743   3.260   6.406 -0.4233  0.1251 -0.1900
 8357SOL    HW136704   1.773   3.227   6.321  0.2135  1.6331 -0.5547
 8357SOL    HW236705   1.751   3.354   6.388  0.1012 -0.0237 -0.7509
 8358SOL     OW36706   0.869   3.844   5.412  0.4523 -0.4303  0.3004
 8358SOL    HW136707   0.858   3.847   5.507 -0.6255  2.3621  0.1085
 8358SOL    HW236708   0.820   3.921   5.385 -0.0360 -0.3433  1.4134
 8359SOL     OW36709   0.985   2.971  17.199  0.2002  0.1851  1.1132
 8359SOL    HW136710   0.948   3.044  17.249 -0.5765  0.3695  0.2683
 8359SOL    HW236711   0.933   2.963  17.119  0.3680  0.7045  0.9548
 8360SOL     OW36712   4.732   0.196   8.709 -0.1007  0.1551 -0.1591
 8360SOL    HW136713   4.708   0.116   8.661 -0.3339  0.3543 -0.3762
 8360SOL    HW236714   4.646   0.239   8.714  0.7014  1.8187 -0.8006
 8361SOL     OW36715   2.867   0.655   8.248  0.5172 -0.5252 -0.0383
 8361SOL    HW136716   2.775   0.663   8.224  0.6031  0.3324 -0.0754
 8361SOL    HW236717   2.906   0.644   8.162  0.2949  1.4392 -0.3778
 8362SOL     OW36718   0.891   4.150   4.748 -0.2306  0.4890  0.2100
 8362SOL    HW136719   0.816   4.102   4.785 -0.7378  0.1055 -1.3134
 8362SOL    HW236720   0.923   4.085   4.686 -2.1252 -0.0506 -0.2081
 8363SOL     OW36721   0.379   2.348   8.325 -0.3441  0.3316  0.2488
 8363SOL    HW136722   0.397   2.442   8.322  0.2700  0.2334  1.0410
 8363SOL    HW236723   0.294   2.355   8.370 -0.6725 -1.0515 -0.1474
 8364SOL     OW36724   0.262   3.454   4.740 -0.3211 -0.1571 -0.1847
 8364SOL    HW136725   0.174   3.492   4.733 -0.1752  0.1651 -0.2491
 8364SOL    HW236726   0.289   3.440   4.649  0.0462 -0.7642  0.0110
 8365SOL     OW36727   2.985   0.577   6.328  0.1125  0.3935  0.3065
 8365SOL    HW136728   2.890   0.586   6.329  0.2096  1.1520  1.6352
 8365SOL    HW236729   2.997   0.535   6.243 -0.5410 -1.4898  1.1566
 8366SOL     OW36730   1.836   1.107   6.853  0.0854 -0.1964  0.1860
 8366SOL    HW136731   1.810   1.152   6.933 -1.7277 -2.7119  1.0235
 8366SOL    HW236732   1.749   1.072   6.831 -0.2774 -1.0236  2.9405
 8367SOL     OW36733   0.640   4.649   7.576  0.2128 -0.4375 -0.4275
 8367SOL    HW136734   0.559   4.681   7.536  2.1288  3.3349 -1.3573
 8367SOL    HW236735   0.599   4.594   7.643 -0.3219  2.0860  1.3425
 8368SOL     OW36736   2.380   2.632   4.382 -0.0019 -0.3677  0.4442
 8368SOL    HW136737   2.400   2.579   4.459 -0.9119  1.3606  1.8771
 8368SOL    HW236738   2.466   2.654   4.346 -1.0996  0.3814 -1.6869
 8369SOL     OW36739   1.813   3.742   9.713  0.2957 -0.2794 -0.2160
 8369SOL    HW136740   1.793   3.821   9.663 -0.5541  0.4653  1.3092
 8369SOL    HW236741   1.815   3.670   9.649 -1.7595 -0.9731  0.5014
 8370SOL     OW36742   0.628   4.722   6.243 -0.2863  0.9231 -0.1469
 8370SOL    HW136743   0.601   4.661   6.174 -2.5242  2.4659 -0.6130
 8370SOL    HW236744   0.555   0.043   6.242 -0.8609  0.3230  2.1848
 8371SOL     OW36745   0.513   2.807   2.847 -0.4299  0.3620  0.1338
 8371SOL    HW136746   0.546   2.725   2.811  3.2121  2.0103 -0.3744
 8371SOL    HW236747   0.530   2.863   2.771  1.8964  1.1246  1.1980
 8372SOL     OW36748   0.644   4.355  10.999 -0.0102 -0.2157 -0.3411
 8372SOL    HW136749   0.704   4.375  11.071 -1.3487  2.8769 -0.0751
 8372SOL    HW236750   0.708   4.325  10.936 -1.5436  0.2009 -2.0939
 8373SOL     OW36751   1.039   1.528  12.466  0.6690 -0.0609 -0.3571
 8373SOL    HW136752   1.040   1.613  12.509 -0.4110 -0.0247 -0.3842
 8373SOL    HW236753   0.996   1.546  12.382 -0.9817 -0.4524  0.4092
 8374SOL     OW36754   0.127   1.165   8.540  0.1737 -0.0755  0.0937
 8374SOL    HW136755   0.053   1.202   8.492 -0.0725  1.5002  1.6745
 8374SOL    HW236756   0.119   1.070   8.534  0.3408 -0.2915  3.2552
 8375SOL     OW36757   1.865   3.692   5.799 -0.6560  0.6958  0.7109
 8375SOL    HW136758   1.857   3.710   5.893 -2.4577 -0.5105  0.7833
 8375SOL    HW236759   1.838   3.773   5.756  1.7866  1.6404  0.9386
 8376SOL     OW36760   2.756   1.472  11.233  0.1167 -0.1501 -0.1298
 8376SOL    HW136761   2.805   1.397  11.199 -0.9840 -0.9112 -0.0543
 8376SOL    HW236762   2.713   1.500  11.152  1.1907  1.1136 -0.2603
 8377SOL     OW36763   1.811   0.849   7.379  1.1031 -1.1277 -0.2578
 8377SOL    HW136764   1.778   0.892   7.300 -0.3615  2.0404  2.0769
 8377SOL    HW236765   1.744   0.781   7.389  1.2444 -1.2079  0.1613
 8378SOL     OW36766   1.892   2.901   9.282 -0.0881 -0.3040 -0.3197
 8378SOL    HW136767   1.839   2.823   9.297  0.5069 -0.2810  1.9396
 8378SOL    HW236768   1.846   2.965   9.337  0.0826 -1.1022  0.7542
 8379SOL     OW36769   4.410   4.324   0.353 -0.0717 -0.1672  0.1211
 8379SOL    HW136770   4.346   4.253   0.347 -0.7205  0.3082  1.3660
 8379SOL    HW236771   4.429   4.323   0.447  0.1554 -0.0455  0.0758
 8380SOL     OW36772   0.978   2.791   2.808 -0.0118  1.0061 -0.2246
 8380SOL    HW136773   1.063   2.797   2.851 -1.1935  1.7473  2.0118
 8380SOL    HW236774   0.923   2.776   2.885  1.1996 -0.2944  0.3835
 8381SOL     OW36775   0.519   2.628   3.309  0.1614 -0.2679  0.2823
 8381SOL    HW136776   0.445   2.595   3.361  0.7635  0.6763  1.7368
 8381SOL    HW236777   0.598   2.593   3.351 -0.2897 -2.0363 -0.3391
 8382SOL     OW36778   3.248   3.000   6.212  0.0324 -0.2708 -0.1480
 8382SOL    HW136779   3.262   3.067   6.279  2.5648  0.3321 -1.2677
 8382SOL    HW236780   3.231   2.925   6.269 -0.2581  0.7741  1.1499
 8383SOL     OW36781   3.481   1.444   6.935 -0.6027  0.2026  0.0839
 8383SOL    HW136782   3.423   1.506   6.891  0.2135  0.1053 -1.1205
 8383SOL    HW236783   3.558   1.500   6.945 -2.1152  1.9314  2.0798
 8384SOL     OW36784   1.069   1.643   5.538  0.0119 -0.1989  0.3947
 8384SOL    HW136785   1.114   1.585   5.478 -0.0683  0.3410 -0.1809
 8384SOL    HW236786   1.136   1.710   5.548  1.2554 -1.3171 -0.4389
 8385SOL     OW36787   4.236   0.684  15.716  0.1714  0.4031 -0.6198
 8385SOL    HW136788   4.162   0.635  15.681  0.5943 -1.4564  1.1127
 8385SOL    HW236789   4.213   0.777  15.713 -0.3307  0.3664  2.0575
 8386SOL     OW36790   1.228   0.348   5.954 -0.1210 -0.4081  0.8044
 8386SOL    HW136791   1.245   0.259   5.984 -3.0614 -0.8458  1.2576
 8386SOL    HW236792   1.138   0.359   5.987  0.1312  2.3466  0.6326
 8387SOL     OW36793   4.616   1.177   2.361 -0.3119 -0.2360 -0.3565
 8387SOL    HW136794   4.604   1.125   2.441  0.6388 -0.7899 -0.5675
 8387SOL    HW236795   4.666   1.112   2.310 -1.3737 -0.5629 -0.9750
 8388SOL     OW36796   0.897   1.271  14.677  0.2019  0.3958 -0.0664
 8388SOL    HW136797   0.887   1.182  14.643 -1.3644 -0.6749  3.1775
 8388SOL    HW236798   0.958   1.306  14.612  0.3757  1.0405  0.4499
 8389SOL     OW36799   1.471   4.314   4.592 -0.6124  0.1459  0.3644
 8389SOL    HW136800   1.543   4.344   4.537 -1.4105 -0.2419 -0.9124
 8389SOL    HW236801   1.488   4.224   4.620 -0.2510 -0.2085 -0.9451
 8390SOL     OW36802   2.346   3.703   5.007 -0.1249 -0.2308  0.0303
 8390SOL    HW136803   2.408   3.630   5.011 -0.4273 -0.4009  1.6614
 8390SOL    HW236804   2.410   3.755   4.959  0.4222 -1.9903 -1.1486
 8391SOL     OW36805   1.392   4.190   5.768 -0.7144  0.0661 -0.3387
 8391SOL    HW136806   1.337   4.167   5.843  0.0758 -0.0540  0.2042
 8391SOL    HW236807   1.473   4.169   5.814  0.3121  1.8922 -1.3077
 8392SOL     OW36808   0.386   3.348   5.965 -0.5314 -0.2890 -0.0590
 8392SOL    HW136809   0.406   3.355   5.872 -1.1415 -1.4218 -0.2797
 8392SOL    HW236810   0.346   3.435   5.975  1.0679 -0.0256  4.2415
 8393SOL     OW36811   3.939   2.592   3.665  0.5783 -0.2547 -0.6265
 8393SOL    HW136812   3.960   2.622   3.754  1.4204 -1.6151 -0.3743
 8393SOL    HW236813   4.026   2.579   3.627  0.3428 -0.3897 -1.1105
 8394SOL     OW36814   1.913   3.708   2.495 -0.0626 -0.1341  0.2903
 8394SOL    HW136815   1.872   3.623   2.477 -2.1612  1.0300 -0.4125
 8394SOL    HW236816   1.904   3.755   2.412 -0.9522  0.8780  0.9608
 8395SOL     OW36817   1.312   2.730   8.299  0.4616 -0.1282  0.4425
 8395SOL    HW136818   1.244   2.744   8.234  2.2442 -0.4443 -1.4981
 8395SOL    HW236819   1.265   2.727   8.383 -0.1434  1.1366  0.1518
 8396SOL     OW36820   3.624   1.140  12.134  0.1976  0.1080 -0.6429
 8396SOL    HW136821   3.592   1.192  12.061 -1.2905  2.8265  1.9196
 8396SOL    HW236822   3.701   1.102  12.091 -0.5070 -1.1270 -0.8238
 8397SOL     OW36823   0.840   3.303   7.397 -0.6051 -0.3316  0.3973
 8397SOL    HW136824   0.899   3.228   7.405  1.5198  1.2572 -0.4079
 8397SOL    HW236825   0.900   3.367   7.358  0.1115 -0.8450  0.6564
 8398SOL     OW36826   3.888   3.964   1.592  0.4060  0.3133 -0.0471
 8398SOL    HW136827   3.960   3.965   1.529  1.1683  2.0219  0.8395
 8398SOL    HW236828   3.919   3.897   1.653 -0.2274  0.0165 -0.0496
 8399SOL     OW36829   3.285   0.602  15.496 -0.5178  0.2030  0.2808
 8399SOL    HW136830   3.314   0.692  15.477  0.0998 -0.7046 -3.0497
 8399SOL    HW236831   3.198   0.621  15.460 -0.5715 -0.2610  0.1738
 8400SOL     OW36832   2.938   3.856   3.379 -0.1050 -0.2939 -0.1859
 8400SOL    HW136833   2.844   3.852   3.358 -0.4167  0.6601  1.0541
 8400SOL    HW236834   2.975   3.849   3.291 -1.4657  0.2513 -0.8171
 8401SOL     OW36835   1.955   2.361   3.378 -0.4572  0.0837 -0.2909
 8401SOL    HW136836   2.027   2.322   3.427 -0.1803  1.1246  0.1269
 8401SOL    HW236837   1.911   2.290   3.331 -1.9251  1.7767 -1.4636
 8402SOL     OW36838   3.163   3.063   1.987  0.5773  1.0080  0.6812
 8402SOL    HW136839   3.116   2.979   1.989  0.6005  0.9584 -0.9040
 8402SOL    HW236840   3.119   3.104   1.913  0.0104 -0.9182 -0.0481
 8403SOL     OW36841   3.664   3.860  15.715 -0.7007 -0.2642 -0.2161
 8403SOL    HW136842   3.748   3.822  15.692 -0.8628 -0.4074 -0.5696
 8403SOL    HW236843   3.672   3.943  15.669  2.0033  1.1515  2.8120
 8404SOL     OW36844   3.942   1.654   6.427  0.1440  0.0173 -0.2084
 8404SOL    HW136845   3.894   1.632   6.347  1.0079  0.6245 -0.9036
 8404SOL    HW236846   4.010   1.710   6.388  0.3044 -0.3240 -0.4254
 8405SOL     OW36847   1.717   2.938   4.364 -0.1891 -0.1937  0.0073
 8405SOL    HW136848   1.703   3.010   4.303 -0.7967 -0.2316  0.0948
 8405SOL    HW236849   1.625   2.916   4.379 -1.3501  3.2344 -2.1020
 8406SOL     OW36850   1.407   4.375   3.689 -0.2780 -0.3184 -0.7091
 8406SOL    HW136851   1.346   4.435   3.646 -1.0647  1.6643  3.1546
 8406SOL    HW236852   1.346   4.336   3.752  0.9106  0.6998  1.0550
 8407SOL     OW36853   3.853   1.467   9.026  0.3427  0.2387 -0.2380
 8407SOL    HW136854   3.913   1.511   8.967  1.4954 -0.8669  0.1040
 8407SOL    HW236855   3.779   1.523   9.002  0.7840 -0.0072 -2.2076
 8408SOL     OW36856   4.259   4.520   1.727 -0.1466 -0.0709 -0.0827
 8408SOL    HW136857   4.185   4.517   1.788 -2.2623  0.9368 -2.5582
 8408SOL    HW236858   4.241   4.606   1.688 -0.0709 -0.9009 -1.9808
 8409SOL     OW36859   0.437   1.796  16.583 -0.2890  0.2328 -0.1152
 8409SOL    HW136860   0.462   1.795  16.675  3.8873  3.8253 -1.1807
 8409SOL    HW236861   0.361   1.739  16.595 -0.3109  0.7644  2.2102
 8410SOL     OW36862   3.264   1.974   4.859 -0.0852  0.1675  0.3379
 8410SOL    HW136863   3.333   1.954   4.796  0.5579  0.9730  0.7853
 8410SOL    HW236864   3.312   1.965   4.941 -1.6299  2.4737  1.4985
 8411SOL     OW36865   1.504   2.937   3.450 -0.2861  0.0725  0.4003
 8411SOL    HW136866   1.495   2.882   3.372 -0.5728  0.4016  0.2059
 8411SOL    HW236867   1.595   2.968   3.451 -0.6000  1.0614 -1.3413
 8412SOL     OW36868   0.712   4.013   5.787  0.3185 -0.0246 -0.2362
 8412SOL    HW136869   0.666   4.065   5.720  0.0297 -1.3486 -1.0535
 8412SOL    HW236870   0.788   3.974   5.743  1.2822  0.2533  1.1879
 8413SOL     OW36871   2.657   1.443   2.510 -0.4424  0.0451  0.1454
 8413SOL    HW136872   2.678   1.398   2.591 -1.2380 -0.8709 -0.1644
 8413SOL    HW236873   2.731   1.504   2.498  0.1395 -0.9928 -1.5658
 8414SOL     OW36874   0.689   2.213   7.223  0.1542 -0.2218  0.0385
 8414SOL    HW136875   0.677   2.160   7.302  1.8523 -0.6491 -0.0016
 8414SOL    HW236876   0.597   2.220   7.197 -0.3634  0.1228  1.9390
 8415SOL     OW36877   0.370   4.105   4.581 -0.1025  0.1059  0.1444
 8415SOL    HW136878   0.285   4.073   4.551 -0.2934 -0.1962  0.9999
 8415SOL    HW236879   0.381   4.065   4.668 -0.9801 -0.9882 -0.2537
 8416SOL     OW36880   4.493   1.133   7.294  0.9248 -0.3138 -0.2384
 8416SOL    HW136881   4.398   1.141   7.293  1.2164  3.4887 -0.6687
 8416SOL    HW236882   4.512   1.195   7.365  0.6273 -0.1842 -0.2736
 8417SOL     OW36883   0.282   4.104   7.037  0.0259  0.0435  0.0664
 8417SOL    HW136884   0.370   4.074   7.017 -0.1732 -0.3109 -0.2937
 8417SOL    HW236885   0.265   4.174   6.975 -0.0204 -0.1779 -0.1708
 8418SOL     OW36886   2.569   2.951   9.114  0.3190 -0.0383  0.0098
 8418SOL    HW136887   2.522   2.926   9.035 -0.2027 -2.4177  1.0645
 8418SOL    HW236888   2.543   2.891   9.184  1.0796 -0.8433 -0.3987
 8419SOL     OW36889   2.000   4.695   4.596 -0.3702  0.0208  0.5620
 8419SOL    HW136890   2.044   0.017   4.540 -1.1438 -0.2574 -0.3526
 8419SOL    HW236891   1.980   4.628   4.530  1.6949 -0.2626  0.2332
 8420SOL     OW36892   3.898   1.302   3.777 -0.4045 -0.4367  0.9952
 8420SOL    HW136893   3.992   1.316   3.789 -0.7625  0.0314  3.3062
 8420SOL    HW236894   3.893   1.211   3.807  0.3382 -0.9970 -0.5858
 8421SOL     OW36895   1.478   2.975  16.169 -0.1121  0.2243 -0.1611
 8421SOL    HW136896   1.407   3.016  16.120  0.1664  1.2638  0.3074
 8421SOL    HW236897   1.505   3.048  16.226 -0.4799  0.9478 -0.9071
 8422SOL     OW36898   2.405   0.784   3.761 -0.1572 -0.1538  0.4335
 8422SOL    HW136899   2.431   0.712   3.818  1.1766  0.3195  0.4350
 8422SOL    HW236900   2.319   0.760   3.727  0.0611 -0.0893 -0.1643
 8423SOL     OW36901   2.072   1.339   7.453  0.3566  0.2669 -0.0905
 8423SOL    HW136902   2.092   1.258   7.405 -0.9788  0.4817 -0.9994
 8423SOL    HW236903   2.008   1.320   7.521 -0.8631 -0.2245 -1.3534
 8424SOL     OW36904   4.603   2.465  17.437 -0.0372 -0.4107 -0.5046
 8424SOL    HW136905   4.514   2.444  17.467 -0.4909  1.0172 -0.8344
 8424SOL    HW236906   4.620   2.406  17.364  0.0156  2.6575 -2.9750
 8425SOL     OW36907   4.509   0.846   3.798 -0.0289 -0.0276 -0.2337
 8425SOL    HW136908   4.538   0.920   3.744  0.6120 -1.3205 -1.6930
 8425SOL    HW236909   4.448   0.905   3.841 -0.0573  1.1541 -1.8639
 8426SOL     OW36910   3.394   4.048   6.575  0.5840 -0.0245 -0.2731
 8426SOL    HW136911   3.349   4.113   6.521 -0.2353 -0.3128  0.0573
 8426SOL    HW236912   3.416   4.094   6.655  1.2477  0.1281 -0.5451
 8427SOL     OW36913   3.509   4.172   6.773  0.2134  0.4421 -0.6481
 8427SOL    HW136914   3.526   4.178   6.867 -3.3553  2.5743 -0.1021
 8427SOL    HW236915   3.591   4.134   6.742 -0.6922 -0.1298 -2.3297
 8428SOL     OW36916   1.147   3.328   9.546 -0.1766 -0.7402  0.0261
 8428SOL    HW136917   1.065   3.286   9.518 -0.8800  1.3065 -1.0017
 8428SOL    HW236918   1.207   3.253   9.549 -0.2347 -0.8427 -1.4360
 8429SOL     OW36919   3.593   1.867   2.534  0.5632  0.4705  0.0767
 8429SOL    HW136920   3.561   1.871   2.624  0.1407 -0.8262 -0.0194
 8429SOL    HW236921   3.599   1.773   2.519  2.3994  0.9609 -2.4084
 8430SOL     OW36922   2.397   4.171   7.749  0.0453  0.0033  0.7383
 8430SOL    HW136923   2.448   4.156   7.670 -0.4449  0.8838  0.2562
 8430SOL    HW236924   2.417   4.264   7.758 -1.5644  0.2080  2.2897
 8431SOL     OW36925   0.305   4.403  15.301  0.5451  0.2099 -0.0967
 8431SOL    HW136926   0.274   4.490  15.275  0.3657  0.3959  0.7680
 8431SOL    HW236927   0.318   4.407  15.395 -0.1131  1.6690 -0.0660
 8432SOL     OW36928   2.721   4.219   0.137 -0.7099 -0.4433 -0.4184
 8432SOL    HW136929   2.745   4.225   0.230  0.0296  1.6564 -0.7315
 8432SOL    HW236930   2.783   4.155   0.101  0.2532  0.0387  0.3472
 8433SOL     OW36931   0.771   2.386   2.503  0.1809  0.0641 -0.7821
 8433SOL    HW136932   0.719   2.327   2.558 -0.9275  0.6077 -1.2467
 8433SOL    HW236933   0.735   2.361   2.418 -0.0500 -0.0358 -0.6577
 8434SOL     OW36934   4.392   4.319   6.405 -0.0925 -0.2525 -0.1108
 8434SOL    HW136935   4.463   4.381   6.425  0.7761 -1.4597  0.5297
 8434SOL    HW236936   4.321   4.382   6.395 -0.8050 -0.5537  3.0090
 8435SOL     OW36937   1.421   1.184  12.685 -0.0179  0.2855 -0.2136
 8435SOL    HW136938   1.343   1.226  12.649  0.7112 -0.2894 -2.4486
 8435SOL    HW236939   1.433   1.223  12.772  0.6679  1.7287 -0.9451
 8436SOL     OW36940   4.562   4.234  15.305  0.1427  0.2280  0.4509
 8436SOL    HW136941   4.592   4.268  15.221  0.0913 -2.3735 -0.6016
 8436SOL    HW236942   4.641   4.204  15.349 -1.1585 -1.9036  1.3108
 8437SOL     OW36943   3.239   3.543   4.976  0.4890  0.2078  0.1916
 8437SOL    HW136944   3.169   3.477   4.974  2.5854 -2.1165  2.0965
 8437SOL    HW236945   3.205   3.611   4.918  1.7971  1.2942  0.7148
 8438SOL     OW36946   4.711   4.046   1.220 -0.2092 -0.1096 -0.2690
 8438SOL    HW136947   4.627   4.046   1.174  0.3688  0.7023 -1.3438
 8438SOL    HW236948   4.711   3.961   1.264  1.3189  0.7889  1.4538
 8439SOL     OW36949   3.572   3.184   8.487  0.3419  0.2180  0.2590
 8439SOL    HW136950   3.561   3.268   8.443  2.2032  0.1921 -0.2212
 8439SOL    HW236951   3.651   3.151   8.446  0.0331 -1.8297  1.3313
 8440SOL     OW36952   1.941   4.699  16.750 -0.2548 -0.0302 -0.5367
 8440SOL    HW136953   1.889   4.638  16.802 -0.5283  0.0069 -0.7658
 8440SOL    HW236954   1.949   0.024  16.818 -1.6469  0.2977 -0.7043
 8441SOL     OW36955   4.229   1.703  17.597  0.6308  0.1149 -0.1555
 8441SOL    HW136956   4.299   1.762  17.567 -0.2051  0.9704 -0.4115
 8441SOL    HW236957   4.253   1.652  17.674  0.0022 -0.7683 -0.5507
 8442SOL     OW36958   0.542   1.010   2.261  0.3069 -0.6380 -0.2490
 8442SOL    HW136959   0.525   0.948   2.332 -0.4844 -0.9324 -0.6970
 8442SOL    HW236960   0.476   1.001   2.192  1.5288 -2.3789 -1.1910
 8443SOL     OW36961   1.007   3.332   8.037 -0.0295  0.4386 -0.8949
 8443SOL    HW136962   1.065   3.257   8.023 -0.5561  0.0308 -0.8871
 8443SOL    HW236963   0.979   3.363   7.951  0.0993  0.9619 -0.7457
 8444SOL     OW36964   2.765   3.830  11.960  0.3375  0.3031 -0.1167
 8444SOL    HW136965   2.763   3.910  12.013  2.2383  0.4315 -0.2507
 8444SOL    HW236966   2.754   3.866  11.872 -2.0111 -2.3593 -0.9059
 8445SOL     OW36967   2.970   3.586  17.531 -0.5057 -0.3392  0.4148
 8445SOL    HW136968   2.887   3.550  17.501  0.4381  0.8653 -3.6550
 8445SOL    HW236969   3.005   3.580  17.442 -1.6717  0.0051 -0.0665
 8446SOL     OW36970   2.321   4.092  11.843  0.3589  0.4373  0.4643
 8446SOL    HW136971   2.379   4.084  11.767 -0.7096 -3.8221  0.1009
 8446SOL    HW236972   2.384   4.125  11.906  2.5654 -0.5960 -1.2088
 8447SOL     OW36973   0.897   0.789   1.231 -0.5569 -0.1296  0.0921
 8447SOL    HW136974   0.843   0.826   1.300 -2.6185  0.9998 -2.1265
 8447SOL    HW236975   0.872   0.698   1.216 -2.7341  0.7912 -1.8188
 8448SOL     OW36976   1.915   2.942   8.618 -0.1478  0.3899 -0.1384
 8448SOL    HW136977   1.899   3.005   8.548  4.0125  1.8330  0.1929
 8448SOL    HW236978   2.001   2.972   8.648 -0.2787  2.0816 -1.4361
 8449SOL     OW36979   1.215   1.454   4.171 -0.0393 -0.1003  0.2407
 8449SOL    HW136980   1.289   1.394   4.185  0.0551  0.4654  2.1364
 8449SOL    HW236981   1.234   1.534   4.221  0.6933 -0.7692  1.0250
 8450SOL     OW36982   2.323   2.911   5.860 -0.3453 -0.1836  0.0899
 8450SOL    HW136983   2.273   2.831   5.843  1.3203 -0.5773 -2.9681
 8450SOL    HW236984   2.299   2.948   5.775  0.0420  1.0373  0.5148
 8451SOL     OW36985   0.986   3.229  12.517  0.0697 -0.3522 -0.2843
 8451SOL    HW136986   1.039   3.154  12.545  0.9546  0.4931  0.3179
 8451SOL    HW236987   0.901   3.201  12.551 -0.3508  1.0155 -0.2136
 8452SOL     OW36988   2.511   2.364   5.600 -0.2683 -0.7288  0.1101
 8452SOL    HW136989   2.508   2.450   5.559  0.3741 -0.3695  0.8222
 8452SOL    HW236990   2.418   2.343   5.613  0.0816 -1.6428  1.1251
 8453SOL     OW36991   3.286   0.922  12.394  0.0203  0.6039  0.1115
 8453SOL    HW136992   3.350   0.913  12.323  2.1010 -0.3679  2.1275
 8453SOL    HW236993   3.230   0.992  12.360 -1.4795 -1.6653 -2.1121
 8454SOL     OW36994   0.271   1.197   7.422 -0.4683 -0.4407 -0.0319
 8454SOL    HW136995   0.311   1.237   7.345 -1.3765 -0.4020 -0.4784
 8454SOL    HW236996   0.354   1.169   7.460  1.3377  1.6370 -2.4678
 8455SOL     OW36997   0.629   2.826   7.689  0.6825 -0.0554  0.2243
 8455SOL    HW136998   0.593   2.864   7.609  1.3776  0.4619  0.1528
 8455SOL    HW236999   0.646   2.901   7.746  1.7489 -0.5589  0.5701
 8456SOL     OW37000   2.530   2.440  13.460 -0.2350 -0.1316 -1.1277
 8456SOL    HW137001   2.439   2.440  13.430 -0.7616 -0.1737  0.5014
 8456SOL    HW237002   2.561   2.523  13.422 -1.1320 -0.0329 -1.6399
 8457SOL     OW37003   2.838   3.975   0.049  0.6274 -0.4909 -0.0985
 8457SOL    HW137004   2.848   3.962  17.716 -1.6102  0.3437 -0.4626
 8457SOL    HW237005   2.845   3.884   0.077 -0.0120 -1.0802 -1.8249
 8458SOL     OW37006   1.103   2.395   3.556 -0.2064 -0.1767  0.5933
 8458SOL    HW137007   1.153   2.451   3.496 -1.8643  0.6094 -0.0385
 8458SOL    HW237008   1.095   2.460   3.626  2.0063  1.3142 -0.4999
 8459SOL     OW37009   1.072   0.274  17.305  0.2905  0.0307  0.4027
 8459SOL    HW137010   1.095   0.341  17.241  0.3049 -1.0789 -0.7659
 8459SOL    HW237011   1.140   0.290  17.370 -0.2694 -0.7658  1.1918
 8460SOL     OW37012   2.016   4.352   8.906 -0.3197 -0.1641 -0.3711
 8460SOL    HW137013   2.075   4.310   8.969  0.4510 -0.1595 -1.0934
 8460SOL    HW237014   1.933   4.352   8.954  1.1563 -0.9041  2.2262
 8461SOL     OW37015   0.328   2.266   5.638 -0.4508 -0.2821  0.2671
 8461SOL    HW137016   0.238   2.257   5.604  0.3253  0.7838 -2.1412
 8461SOL    HW237017   0.322   2.360   5.655  3.6998  0.1796 -0.9241
 8462SOL     OW37018   1.449   2.544   2.250 -0.1526  0.2966  0.3542
 8462SOL    HW137019   1.488   2.596   2.180  1.7786 -1.0977  0.4083
 8462SOL    HW237020   1.453   2.453   2.219 -2.4209  0.8225 -1.5046
 8463SOL     OW37021   2.034   3.256   5.581 -0.3481 -0.3985  0.2219
 8463SOL    HW137022   1.983   3.301   5.648  0.4835  1.1389 -0.1495
 8463SOL    HW237023   2.056   3.179   5.633 -0.2242  1.9753  3.7082
 8464SOL     OW37024   2.993   1.938   5.362 -1.1461  0.4819 -0.0553
 8464SOL    HW137025   2.918   1.895   5.403 -1.7321 -1.0459 -2.7189
 8464SOL    HW237026   3.038   1.866   5.318 -0.3730 -0.3448  2.1121
 8465SOL     OW37027   0.272   0.240   5.258  0.1168  0.2280 -0.5691
 8465SOL    HW137028   0.296   0.166   5.201 -2.3748 -0.5165 -0.6355
 8465SOL    HW237029   0.193   0.209   5.301  2.0079 -2.5976  0.8574
 8466SOL     OW37030   1.860   3.618   9.976  0.0057  0.2866 -0.5711
 8466SOL    HW137031   1.887   3.680  10.044  0.7715  0.9000 -1.4341
 8466SOL    HW237032   1.855   3.678   9.902  1.1462  3.3089  1.8195
 8467SOL     OW37033   3.807   1.991   2.462 -0.7268 -0.0948  0.1051
 8467SOL    HW137034   3.731   1.934   2.476 -1.1121 -0.5410 -3.7530
 8467SOL    HW237035   3.867   1.929   2.420  0.4721  3.3506 -3.1300
 8468SOL     OW37036   3.077   3.890   4.443 -0.1121  0.3423 -0.1133
 8468SOL    HW137037   3.062   3.814   4.387 -0.0304 -0.7680  1.3439
 8468SOL    HW237038   3.166   3.915   4.419  0.9799 -0.9960  2.4801
 8469SOL     OW37039   1.996   1.347   8.882 -0.1092 -0.1391  0.6258
 8469SOL    HW137040   1.942   1.272   8.856  1.6188 -1.2534  0.3056
 8469SOL    HW237041   1.950   1.386   8.957  0.5499 -1.9224  1.9367
 8470SOL     OW37042   4.633   4.550  14.881  0.2301  0.2383  0.3603
 8470SOL    HW137043   4.652   4.637  14.918  2.1525 -0.3467  0.7565
 8470SOL    HW237044   4.618   4.508  14.966 -0.6830  0.4015  0.2771
 8471SOL     OW37045   0.322   0.837   3.368  0.5513 -0.1859 -0.1407
 8471SOL    HW137046   0.290   0.883   3.291  0.7381  1.5125  0.8081
 8471SOL    HW237047   0.395   0.788   3.331 -0.7980 -0.0149 -3.0381
 8472SOL     OW37048   0.435   4.441   1.626 -0.3822  0.7264  0.6168
 8472SOL    HW137049   0.511   4.500   1.623 -0.2116  0.4700 -0.0501
 8472SOL    HW237050   0.361   4.501   1.615 -1.1059 -0.1235  0.9112
 8473SOL     OW37051   1.892   4.055   9.826  0.4476  0.2524 -0.2165
 8473SOL    HW137052   1.927   4.105   9.900  0.0678  0.3729 -0.1189
 8473SOL    HW237053   1.880   3.963   9.852  2.2985 -0.3830 -1.6129
 8474SOL     OW37054   0.981   1.749  16.481  0.0795  0.1105  0.1077
 8474SOL    HW137055   1.026   1.710  16.556  1.0593  0.0442 -0.5164
 8474SOL    HW237056   0.889   1.736  16.505 -0.1014  0.6382 -0.3004
 8475SOL     OW37057   4.553   0.627  16.627 -0.2345  0.3743  0.3793
 8475SOL    HW137058   4.567   0.579  16.545 -0.1830  0.8647  0.1018
 8475SOL    HW237059   4.559   0.552  16.686  0.5689 -0.2933 -0.5529
 8476SOL     OW37060   0.914   0.433  12.345 -0.4379  0.0068  0.5741
 8476SOL    HW137061   0.837   0.429  12.289  1.1094  1.0225 -1.6137
 8476SOL    HW237062   0.923   0.339  12.362  0.4095  0.1344  0.8404
 8477SOL     OW37063   4.098   1.684   1.351  0.7661 -0.7404 -0.2261
 8477SOL    HW137064   4.148   1.749   1.300 -1.2386  2.0185  1.3302
 8477SOL    HW237065   4.161   1.652   1.417 -0.1404 -0.0092  0.9908
 8478SOL     OW37066   1.534   0.776   8.349 -0.8909 -0.0985 -0.2182
 8478SOL    HW137067   1.510   0.740   8.263  2.4804  0.9457 -1.6024
 8478SOL    HW237068   1.581   0.702   8.388  1.3857  0.4655 -1.9018
 8479SOL     OW37069   2.783   0.976   7.532  0.4719 -0.5595  0.7630
 8479SOL    HW137070   2.829   1.010   7.609 -0.7629 -0.9890  1.6816
 8479SOL    HW237071   2.808   1.040   7.465 -0.7850  0.6211  1.4390
 8480SOL     OW37072   3.701   0.579   3.176  0.1490  0.7026  0.0168
 8480SOL    HW137073   3.745   0.598   3.259 -0.8145 -1.3832  1.0088
 8480SOL    HW237074   3.609   0.570   3.197  0.4381 -1.5867  0.2811
 8481SOL     OW37075   2.818   0.593   0.056  0.1317  0.6414  0.0210
 8481SOL    HW137076   2.900   0.608   0.010  0.9545 -0.7860  0.9998
 8481SOL    HW237077   2.796   0.509   0.017 -0.6733  0.6975  0.3606
 8482SOL     OW37078   2.687   2.332   5.953  0.0443 -0.0068  0.0836
 8482SOL    HW137079   2.726   2.386   6.021  0.4784 -2.4024  1.7344
 8482SOL    HW237080   2.597   2.312   5.979  0.5593  1.2422  2.8476
 8483SOL     OW37081   0.897   4.425   5.997 -0.2643  0.1870 -0.0919
 8483SOL    HW137082   0.884   4.474   5.916 -1.5782 -1.3033 -0.7713
 8483SOL    HW237083   0.933   4.493   6.054 -1.8167  0.6614  0.3054
 8484SOL     OW37084   4.440   2.639   4.510  0.0424 -0.0549 -0.1452
 8484SOL    HW137085   4.351   2.662   4.485 -0.2118  1.1085  1.7924
 8484SOL    HW237086   4.429   2.633   4.605  2.8815  0.1761  0.1956
 8485SOL     OW37087   2.941   2.094   2.459  0.0129  0.4810 -0.2451
 8485SOL    HW137088   2.932   2.113   2.365 -1.2548 -1.2369 -0.4783
 8485SOL    HW237089   2.858   2.047   2.465  0.1062  0.4660  0.7818
 8486SOL     OW37090   4.263   4.215  12.562 -0.5475 -0.0461 -0.2842
 8486SOL    HW137091   4.247   4.281  12.630 -1.1634 -0.2202 -0.2658
 8486SOL    HW237092   4.224   4.138  12.602 -1.2333  1.7437  2.5461
 8487SOL     OW37093   1.608   4.122   5.910 -0.2670  0.0106  0.1792
 8487SOL    HW137094   1.666   4.182   5.956 -1.1613  0.7875  0.2900
 8487SOL    HW237095   1.637   4.038   5.945  2.4434  0.2399 -1.5054
 8488SOL     OW37096   1.324   4.147  12.860 -0.2522  0.4514  0.1849
 8488SOL    HW137097   1.317   4.169  12.953  0.1871 -1.5487  0.6869
 8488SOL    HW237098   1.244   4.187  12.826 -0.1562  0.5079  0.0274
 8489SOL     OW37099   0.549   1.295   2.295  0.6337 -0.4857  0.1630
 8489SOL    HW137100   0.480   1.292   2.229 -0.3486  1.7312  1.0840
 8489SOL    HW237101   0.558   1.200   2.305  2.0554 -0.4059 -0.4246
 8490SOL     OW37102   0.741   3.477   6.922 -0.3862  0.0295 -0.0982
 8490SOL    HW137103   0.738   3.386   6.892  0.8286 -0.2254  0.5246
 8490SOL    HW237104   0.721   3.520   6.839  1.4424  0.5997 -0.2446
 8491SOL     OW37105   2.737   0.840   6.068  0.0114  0.2595 -0.1202
 8491SOL    HW137106   2.643   0.827   6.077  0.2842 -1.2943  0.5055
 8491SOL    HW237107   2.726   0.935   6.063 -0.7963  0.1390 -0.5669
 8492SOL     OW37108   3.957   1.020  10.909 -0.2691  0.5025 -0.2279
 8492SOL    HW137109   3.915   1.060  10.833  0.9450 -1.0333 -1.6996
 8492SOL    HW237110   3.882   0.963  10.928  1.5955 -2.0803 -0.6887
 8493SOL     OW37111   1.310   2.222   3.687 -0.4586 -0.0421  0.3259
 8493SOL    HW137112   1.227   2.243   3.643 -0.4857  2.0590  1.3690
 8493SOL    HW237113   1.360   2.188   3.613  3.1303  2.6277  1.5329
 8494SOL     OW37114   4.426   3.058   8.325 -0.4672  0.3272  0.4096
 8494SOL    HW137115   4.424   2.980   8.269  1.1192  1.2972 -0.9777
 8494SOL    HW237116   4.517   3.071   8.349 -0.4876  1.4209 -0.1140
 8495SOL     OW37117   3.131   0.744   0.253 -0.8774 -0.4376 -0.3536
 8495SOL    HW137118   3.174   0.718   0.171  2.1932  1.8180  0.5487
 8495SOL    HW237119   3.155   0.666   0.304  1.8645  0.0295 -0.9395
 8496SOL     OW37120   0.579   2.243   6.211  0.1491  0.5981  0.1402
 8496SOL    HW137121   0.615   2.155   6.202  2.1860  1.5384 -0.8854
 8496SOL    HW237122   0.522   2.242   6.134 -0.2130 -0.9209  0.4382
 8497SOL     OW37123   3.818   2.506   5.369  0.2814 -0.2900  0.4500
 8497SOL    HW137124   3.787   2.549   5.289  0.5051 -1.8506 -0.4802
 8497SOL    HW237125   3.800   2.412   5.358  0.5354 -0.0006 -2.4953
 8498SOL     OW37126   1.306   4.080   6.752  0.3130  0.2463  0.1038
 8498SOL    HW137127   1.292   4.077   6.658  0.0038  2.2062  0.0907
 8498SOL    HW237128   1.375   4.014   6.765  0.5454  0.5932  0.6692
 8499SOL     OW37129   1.133   0.014  12.056 -0.1138  0.1828  0.2418
 8499SOL    HW137130   1.169   0.046  11.974  0.6896 -0.0462  0.5072
 8499SOL    HW237131   1.111   0.093  12.106 -2.0552  0.3284 -0.8339
 8500SOL     OW37132   3.480   3.182   6.838  0.2953 -0.0537  0.1173
 8500SOL    HW137133   3.528   3.109   6.876 -0.6828 -1.4098 -1.2546
 8500SOL    HW237134   3.501   3.181   6.744 -0.7283  0.0488 -0.1199
 8501SOL     OW37135   2.016   4.074   3.287 -0.2942  0.0820  0.0680
 8501SOL    HW137136   2.054   4.110   3.206  0.5161  0.7457  0.7462
 8501SOL    HW237137   1.963   4.147   3.318  1.3607  0.7360  1.3347
 8502SOL     OW37138   1.498   4.737  10.344  0.4333 -0.8300 -0.1175
 8502SOL    HW137139   1.532   4.660  10.389 -0.1229 -0.3648  1.0853
 8502SOL    HW237140   1.423   0.015  10.399  1.5770  1.0897  0.7607
 8503SOL     OW37141   2.076   4.670  15.929 -0.2996  0.3981  0.8681
 8503SOL    HW137142   2.029   4.662  16.012  0.3355  0.3162  1.2235
 8503SOL    HW237143   2.045   0.015  15.899  3.0839  0.3433 -2.7745
 8504SOL     OW37144   4.463   1.140   5.627 -0.0749  0.0741 -0.1344
 8504SOL    HW137145   4.394   1.091   5.582 -1.1368  1.3943  0.0626
 8504SOL    HW237146   4.402   1.183   5.686  1.4993  0.2399  1.3902
 8505SOL     OW37147   1.145   3.753   2.494 -0.2754  0.0597 -0.2050
 8505SOL    HW137148   1.089   3.678   2.514  1.6421 -0.9567  1.3030
 8505SOL    HW237149   1.077   3.816   2.470  0.0274  0.5606  0.2701
 8506SOL     OW37150   1.591   1.922  13.652 -0.3034 -0.1499  0.7329
 8506SOL    HW137151   1.633   1.958  13.574  0.3735  3.1833  2.5989
 8506SOL    HW237152   1.550   2.002  13.685 -1.5617 -1.0637  1.3746
 8507SOL     OW37153   1.597   0.192  13.375 -0.3060  0.4140 -0.3853
 8507SOL    HW137154   1.562   0.280  13.384  0.4711  0.4508  2.0686
 8507SOL    HW237155   1.628   0.183  13.465  0.7209  1.3069 -0.6543
 8508SOL     OW37156   2.974   4.037   7.876  0.4634 -0.2351  0.2129
 8508SOL    HW137157   3.058   4.026   7.832  2.5711 -0.5989  4.3208
 8508SOL    HW237158   2.987   4.129   7.899 -0.5617  0.3862 -1.6868
 8509SOL     OW37159   3.648   2.743   8.648  0.2683  0.2400 -0.2304
 8509SOL    HW137160   3.609   2.830   8.653 -0.8657 -0.2568 -0.5636
 8509SOL    HW237161   3.576   2.684   8.625  2.5721 -1.3991 -3.2366
 8510SOL     OW37162   4.418   3.781  14.322 -0.5844 -0.2696  0.1106
 8510SOL    HW137163   4.342   3.791  14.264 -0.5563 -1.4334 -0.1260
 8510SOL    HW237164   4.367   3.742  14.392 -2.5593  0.0193 -1.1523
 8511SOL     OW37165   4.221   3.578   4.428 -0.2272  0.2196  0.0871
 8511SOL    HW137166   4.242   3.498   4.476  0.6305 -0.0075 -0.6683
 8511SOL    HW237167   4.168   3.544   4.356  1.2542 -1.9809  0.0231
 8512SOL     OW37168   3.997   1.423  17.090 -0.1501  0.1273  0.0515
 8512SOL    HW137169   4.016   1.383  17.006 -0.9216 -0.8117  0.3286
 8512SOL    HW237170   3.989   1.517  17.071  1.4354  0.0854 -0.8138
 8513SOL     OW37171   3.654   2.419   8.735  0.0521  0.1762  0.0505
 8513SOL    HW137172   3.641   2.378   8.821 -0.4213  3.1771  1.4177
 8513SOL    HW237173   3.565   2.447   8.714 -0.4817 -1.6731 -0.1657
 8514SOL     OW37174   1.829   4.531   1.334 -0.1225  0.1803  0.1625
 8514SOL    HW137175   1.861   4.446   1.365  0.3505  0.3030  0.0084
 8514SOL    HW237176   1.767   4.505   1.267 -0.3119 -0.9769  0.7900
 8515SOL     OW37177   4.044   0.349   8.255  0.3673  0.0569 -0.3325
 8515SOL    HW137178   4.105   0.333   8.327  2.3251  1.6136 -1.6426
 8515SOL    HW237179   4.061   0.443   8.244 -1.0656  0.2973 -0.5360
 8516SOL     OW37180   4.571   1.264   0.726  0.1684 -0.5256 -0.3105
 8516SOL    HW137181   4.664   1.257   0.748  0.7151  2.3361 -1.7807
 8516SOL    HW237182   4.560   1.359   0.717 -2.2175 -0.6223  1.4353
 8517SOL     OW37183   0.489   0.880  12.021  0.1056  0.1781  0.0590
 8517SOL    HW137184   0.394   0.870  12.025  0.0989 -0.1964 -1.1511
 8517SOL    HW237185   0.512   0.790  11.996 -2.0408 -0.1822 -0.6135
 8518SOL     OW37186   3.009   4.103   9.739 -0.6530 -0.7875  0.2345
 8518SOL    HW137187   2.932   4.055   9.708 -1.5165  0.2863  0.7208
 8518SOL    HW237188   3.065   4.026   9.754  1.1264  0.1629 -1.6589
 8519SOL     OW37189   4.237   0.113   4.678  0.0092 -0.0191 -0.3534
 8519SOL    HW137190   4.208   0.032   4.720 -0.4048  0.3947  0.1483
 8519SOL    HW237191   4.151   0.151   4.658 -0.7670 -0.9585  1.1430
 8520SOL     OW37192   4.094   4.194   1.866 -0.3275  0.5847  0.2476
 8520SOL    HW137193   4.011   4.237   1.888  0.2594  1.3883  0.8677
 8520SOL    HW237194   4.112   4.158   1.953 -1.0943  0.2134  0.2540
 8521SOL     OW37195   1.759   3.959   1.924 -0.4133 -0.3993  0.1737
 8521SOL    HW137196   1.684   3.933   1.978  0.0062 -1.3292  0.3055
 8521SOL    HW237197   1.830   3.941   1.987 -0.0086 -1.2138 -0.5282
 8522SOL     OW37198   2.377   1.371  15.526  0.3890  0.7619  0.3069
 8522SOL    HW137199   2.338   1.301  15.473  1.3829  1.6553 -1.5705
 8522SOL    HW237200   2.438   1.405  15.461  2.2236 -0.2567  1.5108
 8523SOL     OW37201   0.042   1.280   6.388  0.5430 -0.1528 -0.2807
 8523SOL    HW137202   0.132   1.299   6.415  0.6753 -1.1401 -0.0242
 8523SOL    HW237203   0.001   1.297   6.473 -1.6442 -1.5304 -1.0840
 8524SOL     OW37204   0.096   2.139   6.053  0.4709  0.5348 -0.1012
 8524SOL    HW137205   0.172   2.196   6.064  1.3123 -1.3537  3.9623
 8524SOL    HW237206   0.146   2.062   6.026 -3.0502 -0.9232 -2.3769
 8525SOL     OW37207   2.041   0.372   6.629 -0.3048 -0.3252 -0.1510
 8525SOL    HW137208   2.090   0.296   6.597 -0.7825 -0.8763  0.4218
 8525SOL    HW237209   2.098   0.398   6.702  0.2792 -0.1668 -0.6598
 8526SOL     OW37210   4.237   4.110   0.401 -0.1946 -0.1322  0.9002
 8526SOL    HW137211   4.147   4.118   0.431 -0.1958 -4.3555  2.1158
 8526SOL    HW237212   4.276   4.106   0.488 -0.7500  1.1512  1.2016
 8527SOL     OW37213   0.456   3.611   8.597  0.1521 -0.1831 -0.1403
 8527SOL    HW137214   0.501   3.575   8.520 -1.5077 -0.5944 -0.9038
 8527SOL    HW237215   0.475   3.705   8.598 -2.2343  0.3227 -1.8131
 8528SOL     OW37216   2.837   0.913   6.751 -0.2455 -0.2124  0.1932
 8528SOL    HW137217   2.872   0.825   6.761  0.0591 -0.1671 -0.4800
 8528SOL    HW237218   2.775   0.918   6.823  1.1839 -2.2703  1.5654
 8529SOL     OW37219   0.802   0.045   6.477  0.1547  1.0422 -0.4175
 8529SOL    HW137220   0.879   4.733   6.494 -0.4758  0.3994  0.4096
 8529SOL    HW237221   0.746   4.723   6.431 -0.8240  1.2952  0.4257
 8530SOL     OW37222   3.272   2.396   3.961  0.0318 -0.1560 -0.3163
 8530SOL    HW137223   3.202   2.426   4.019  0.8301  0.4738  0.3244
 8530SOL    HW237224   3.230   2.391   3.875 -0.9170 -0.5358  0.1774
 8531SOL     OW37225   3.453   3.869   3.372  0.1194 -0.4498 -0.6605
 8531SOL    HW137226   3.537   3.893   3.412  1.1480  0.7783 -3.5816
 8531SOL    HW237227   3.391   3.891   3.442 -0.9294  0.0811 -1.7608
 8532SOL     OW37228   2.215   2.348   8.365  0.1509 -0.2426 -0.0718
 8532SOL    HW137229   2.155   2.327   8.437  1.2430  0.6874  1.1123
 8532SOL    HW237230   2.162   2.413   8.318  0.6820 -0.6249 -1.1947
 8533SOL     OW37231   2.240   3.597   3.448  0.1012  0.4635  0.2470
 8533SOL    HW137232   2.229   3.656   3.522 -0.6899 -1.5946  1.7899
 8533SOL    HW237233   2.193   3.638   3.376  5.6945  2.3616 -2.2867
 8534SOL     OW37234   3.084   2.788   2.074  0.0361 -0.5952 -0.0264
 8534SOL    HW137235   3.060   2.718   2.135  0.9987 -2.5621 -1.8887
 8534SOL    HW237236   3.169   2.754   2.047  0.3841  0.0486  0.2556
 8535SOL     OW37237   0.533   4.723   5.809  0.5585 -0.2579  0.1285
 8535SOL    HW137238   0.450   4.738   5.762  1.4351  0.8453 -1.0517
 8535SOL    HW237239   0.598   4.737   5.741  2.9415  2.0924  2.8864
 8536SOL     OW37240   4.464   3.500   3.215 -0.0501  0.5592  0.4521
 8536SOL    HW137241   4.457   3.499   3.311  0.1803 -1.3482  0.4548
 8536SOL    HW237242   4.372   3.513   3.189  0.2304 -1.6004 -1.5839
 8537SOL     OW37243   4.450   1.276   8.259 -0.6484  0.2586  0.2813
 8537SOL    HW137244   4.406   1.241   8.182  1.2022 -0.0062 -0.6705
 8537SOL    HW237245   4.386   1.242   8.321  1.2732  1.0858  2.7016
 8538SOL     OW37246   2.420   2.995   8.656  0.6862 -0.5255 -0.1632
 8538SOL    HW137247   2.433   3.034   8.569  1.3324 -0.6156 -0.1065
 8538SOL    HW237248   2.325   3.005   8.653  0.9432  1.3308 -2.6940
 8539SOL     OW37249   4.618   3.082  15.948  0.2693  0.2601 -0.2168
 8539SOL    HW137250   4.570   3.007  15.913 -1.3307  1.4723 -0.6099
 8539SOL    HW237251   4.539   3.134  15.963 -0.9628 -0.8822 -2.7465
 8540SOL     OW37252   2.618   2.468   9.552 -0.1771 -0.2007  0.0610
 8540SOL    HW137253   2.525   2.491   9.555 -0.5034 -1.6980  0.9851
 8540SOL    HW237254   2.644   2.537   9.614  0.4372 -0.5028  0.1381
 8541SOL     OW37255   1.742   2.913   7.284  0.7682  0.3089 -0.1541
 8541SOL    HW137256   1.712   2.831   7.246 -0.7545  1.4377 -1.3641
 8541SOL    HW237257   1.768   2.968   7.210  0.6756 -0.3732 -0.6832
 8542SOL     OW37258   3.161   4.231   7.600  0.5253  0.1576 -0.3166
 8542SOL    HW137259   3.254   4.225   7.621 -0.1427  0.9544  2.9089
 8542SOL    HW237260   3.160   4.276   7.516 -0.7278 -1.3661 -1.1259
 8543SOL     OW37261   2.075   1.840   4.000  0.1005  0.1990 -0.3328
 8543SOL    HW137262   2.119   1.898   4.062  1.7559 -1.4447  0.0036
 8543SOL    HW237263   2.142   1.827   3.933  0.5214 -3.3567  0.8119
 8544SOL     OW37264   1.140   1.212  12.752  0.2506  0.3430  0.0294
 8544SOL    HW137265   1.083   1.140  12.725 -0.3993  0.5929  0.7244
 8544SOL    HW237266   1.205   1.166  12.805  1.8814  4.5059  1.5918
 8545SOL     OW37267   1.500   1.953   9.529  0.6393  0.0591  0.7114
 8545SOL    HW137268   1.591   1.972   9.550  1.1001 -1.1885 -0.1450
 8545SOL    HW237269   1.508   1.908   9.445  1.6882  0.7669  0.4346
 8546SOL     OW37270   3.603   3.429   4.372  0.2144  0.0946 -0.3090
 8546SOL    HW137271   3.612   3.516   4.412 -0.5084 -0.1822  0.4590
 8546SOL    HW237272   3.689   3.388   4.382  0.0557  0.3018  2.0587
 8547SOL     OW37273   1.183   3.029   9.842  0.0371 -0.4797  0.2907
 8547SOL    HW137274   1.124   2.981   9.784  1.1123 -2.3695  0.7919
 8547SOL    HW237275   1.115   3.088   9.877  0.7114  0.3503  0.2109
 8548SOL     OW37276   2.475   1.363  15.790 -0.5081  0.8122  0.3590
 8548SOL    HW137277   2.430   1.374  15.706 -1.4202 -0.3848  0.6912
 8548SOL    HW237278   2.470   1.269  15.805 -0.8148  1.0353  1.6937
 8549SOL     OW37279   3.214   3.765   4.830  0.5850  0.3057 -0.0969
 8549SOL    HW137280   3.248   3.842   4.785  0.8449 -1.7539 -3.4466
 8549SOL    HW237281   3.216   3.796   4.920  1.2103  1.2538 -0.4423
 8550SOL     OW37282   3.011   0.155   9.441  0.2230  0.6939  0.1546
 8550SOL    HW137283   2.924   0.190   9.459  0.4978  0.3840  2.0194
 8550SOL    HW237284   3.070   0.198   9.504  0.2186  2.2928 -0.9193
 8551SOL     OW37285   0.432   4.037   1.337 -0.3968  0.2281  0.4977
 8551SOL    HW137286   0.445   4.099   1.266 -0.5507 -0.2190  0.0737
 8551SOL    HW237287   0.447   4.094   1.412 -1.3619 -1.3307  1.8935
 8552SOL     OW37288   1.442   3.436   7.879 -0.2717  0.0325  0.0915
 8552SOL    HW137289   1.440   3.360   7.821  2.0375  1.3277 -1.6207
 8552SOL    HW237290   1.353   3.470   7.886 -0.3716  0.0170 -1.1774
 8553SOL     OW37291   2.006   0.320   8.647  0.0833 -0.0153 -0.3197
 8553SOL    HW137292   2.042   0.247   8.697 -2.2885 -0.6252  0.5292
 8553SOL    HW237293   1.956   0.278   8.577 -0.2722  0.7147 -0.5082
 8554SOL     OW37294   4.228   4.697   5.333 -0.1169 -1.0607  0.5690
 8554SOL    HW137295   4.240   0.046   5.301 -0.4596 -1.3756 -0.4442
 8554SOL    HW237296   4.276   4.647   5.267 -0.4620 -1.5117  0.6608
 8555SOL     OW37297   0.923   4.363  11.935  0.3023  0.0927  0.1041
 8555SOL    HW137298   0.936   4.457  11.943 -2.2946  0.4714 -0.2329
 8555SOL    HW237299   0.856   4.378  11.868  0.9032 -2.1608 -1.0257
 8556SOL     OW37300   1.369   3.361   9.192  0.1382  0.4666 -0.3652
 8556SOL    HW137301   1.290   3.331   9.146 -0.8015  3.8922 -1.0115
 8556SOL    HW237302   1.408   3.277   9.213 -0.7712 -0.3766 -2.1088
 8557SOL     OW37303   4.446   3.255   1.281  0.2714 -0.1558  0.5768
 8557SOL    HW137304   4.466   3.306   1.360  0.0160  0.7295  0.0758
 8557SOL    HW237305   4.376   3.199   1.314 -1.6202  1.3804 -0.7744
 8558SOL     OW37306   0.557   2.589   0.012  0.0898  0.6141  0.3855
 8558SOL    HW137307   0.587   2.501   0.036  0.4323  0.3872 -0.8689
 8558SOL    HW237308   0.569   2.637   0.093  1.8666  0.8399 -0.0093
 8559SOL     OW37309   0.605   0.709   2.178  0.3967 -0.0044  0.0510
 8559SOL    HW137310   0.511   0.728   2.185  0.5097  0.5707 -0.0385
 8559SOL    HW237311   0.632   0.723   2.088  1.9196 -0.1433  0.4882
 8560SOL     OW37312   2.631   1.614   8.679  0.2743 -0.1075  0.6529
 8560SOL    HW137313   2.581   1.625   8.598  2.5968  1.5254 -0.5809
 8560SOL    HW237314   2.692   1.686   8.666 -1.1016  1.1649  1.2715
 8561SOL     OW37315   4.093   4.372   4.163  0.1418  0.5770 -0.7051
 8561SOL    HW137316   4.131   4.302   4.216 -1.6581  1.5055  1.7793
 8561SOL    HW237317   4.113   4.322   4.084 -0.3676 -1.0801  0.2320
 8562SOL     OW37318   0.856   3.906   1.668  0.2699 -0.0807 -0.0786
 8562SOL    HW137319   0.772   3.939   1.637  0.3993  0.0294 -0.3168
 8562SOL    HW237320   0.918   3.961   1.619  0.2097  0.1302  0.0814
 8563SOL     OW37321   1.648   3.127  15.775  0.0004 -0.4638 -0.4681
 8563SOL    HW137322   1.703   3.168  15.708  0.8606  0.2697  0.6981
 8563SOL    HW237323   1.600   3.060  15.726  0.3386 -0.2320 -1.1204
 8564SOL     OW37324   2.305   3.144  16.532 -0.0865 -0.2618  0.3582
 8564SOL    HW137325   2.226   3.177  16.488  0.2998 -2.0286 -1.6468
 8564SOL    HW237326   2.371   3.197  16.488  0.9787 -0.6105  1.5262
 8565SOL     OW37327   2.997   0.986   6.243 -0.2635 -1.1978 -0.5232
 8565SOL    HW137328   2.912   0.986   6.286 -0.6012  0.6515 -1.1925
 8565SOL    HW237329   3.042   1.063   6.280 -1.5091 -1.0082  0.5995
 8566SOL     OW37330   4.071   4.554  11.936 -0.2352 -0.0936 -0.5515
 8566SOL    HW137331   4.094   4.595  11.853 -1.5113  0.3689 -0.6709
 8566SOL    HW237332   4.113   4.597  12.011  0.2374 -1.3022 -0.1146
 8567SOL     OW37333   0.841   4.314   7.578  0.4144 -0.0011 -0.4081
 8567SOL    HW137334   0.914   4.365   7.542 -0.7364  0.8498 -1.5591
 8567SOL    HW237335   0.885   4.265   7.647  1.0638 -2.1770 -2.3682
 8568SOL     OW37336   0.009   2.504   6.160 -0.0157  0.0547  0.3968
 8568SOL    HW137337   4.700   2.528   6.237  0.7357 -0.8847  1.1814
 8568SOL    HW237338   0.053   2.426   6.194  1.2036 -0.3924 -2.1877
 8569SOL     OW37339   2.872   1.682  10.372 -0.0648  0.8495  0.4177
 8569SOL    HW137340   2.863   1.667  10.278 -2.5849  0.3028  0.7535
 8569SOL    HW237341   2.900   1.774  10.368  1.1451  0.5015  0.8546
 8570SOL     OW37342   1.078   1.854  11.032  0.2916 -0.0028 -0.3048
 8570SOL    HW137343   1.113   1.811  10.954 -0.0487  0.3144 -0.6323
 8570SOL    HW237344   1.152   1.909  11.060 -0.9432  1.3248  0.3300
 8571SOL     OW37345   4.228   3.563   2.196 -0.3611  0.0471 -0.0226
 8571SOL    HW137346   4.189   3.644   2.162  1.1495  0.5926 -0.4563
 8571SOL    HW237347   4.265   3.600   2.276 -0.1496 -0.6932  0.2211
 8572SOL     OW37348   4.414   4.659   3.955 -0.1178  0.1972  0.0704
 8572SOL    HW137349   4.368   4.648   3.872 -0.1214 -0.6282  0.1859
 8572SOL    HW237350   4.351   4.629   4.020  1.8620  1.0518  2.4129
 8573SOL     OW37351   2.073   3.661  15.172 -0.1846  0.1413  0.1859
 8573SOL    HW137352   2.136   3.643  15.102  0.1038 -2.5154  1.1551
 8573SOL    HW237353   2.106   3.600  15.238  0.2366  0.8941  0.6840
 8574SOL     OW37354   0.936   0.708   3.759  0.5244  0.6697  0.0418
 8574SOL    HW137355   0.855   0.756   3.779 -1.2855 -2.0848 -0.6153
 8574SOL    HW237356   0.960   0.762   3.684 -0.8269  0.2493 -0.6944
 8575SOL     OW37357   4.314   3.672   2.838 -0.4534  0.0949  0.2032
 8575SOL    HW137358   4.265   3.621   2.902  1.0716 -2.1110 -0.3942
 8575SOL    HW237359   4.358   3.734   2.897  0.5564 -0.5465  0.1197
 8576SOL     OW37360   1.635   3.891   4.486 -0.5420 -0.1683 -0.1747
 8576SOL    HW137361   1.632   3.897   4.390 -2.0957 -1.7633 -0.2189
 8576SOL    HW237362   1.704   3.827   4.501 -1.2034 -0.6002  1.0063
 8577SOL     OW37363   2.715   3.243   1.765 -0.7595  0.1617  0.1643
 8577SOL    HW137364   2.685   3.185   1.695  1.2017 -0.8746  0.1807
 8577SOL    HW237365   2.710   3.185   1.841  0.3691  1.2456  1.0633
 8578SOL     OW37366   0.896   1.264  10.116 -0.1047 -0.2130 -0.4640
 8578SOL    HW137367   0.886   1.294  10.206 -2.6470  3.3361 -1.9423
 8578SOL    HW237368   0.938   1.346  10.090  0.3787 -1.1046 -2.4689
 8579SOL     OW37369   4.392   3.385   2.542  0.1454 -0.6098 -0.0365
 8579SOL    HW137370   4.450   3.422   2.475  0.6341 -0.9795  0.1802
 8579SOL    HW237371   4.429   3.413   2.626 -0.9230  0.2244  0.1566
 8580SOL     OW37372   2.081   2.011   5.409  0.4209 -0.4070  0.4243
 8580SOL    HW137373   2.084   1.962   5.491 -2.2920  0.8764  1.2790
 8580SOL    HW237374   2.076   1.935   5.352 -0.2035  1.4558 -2.0246
 8581SOL     OW37375   4.718   3.629   1.539 -0.2346 -0.3389 -0.4282
 8581SOL    HW137376   0.052   3.572   1.554  0.4045  0.3205 -1.1392
 8581SOL    HW237377   4.652   3.565   1.514 -0.0832 -0.0808 -1.4801
 8582SOL     OW37378   2.254   1.836   7.434 -0.2637  0.4917  0.1150
 8582SOL    HW137379   2.248   1.742   7.449  1.0168  0.6371  1.6098
 8582SOL    HW237380   2.261   1.830   7.339 -1.7579 -0.7053  0.0935
 8583SOL     OW37381   2.789   1.036  10.381  0.2003 -0.1383  0.4975
 8583SOL    HW137382   2.868   0.983  10.395  0.4261 -0.7590 -3.2057
 8583SOL    HW237383   2.770   1.058  10.472  0.6393  1.5243  0.1839
 8584SOL     OW37384   1.627   0.177   1.634  0.0533 -0.0322  0.3936
 8584SOL    HW137385   1.700   0.156   1.692  1.0906 -0.2509 -0.9865
 8584SOL    HW237386   1.654   0.161   1.543 -2.2022 -1.1415 -0.0908
 8585SOL     OW37387   1.317   0.933   6.821  0.2013 -0.4083  0.7166
 8585SOL    HW137388   1.232   0.963   6.855 -0.1561 -1.2399  0.5529
 8585SOL    HW237389   1.288   0.860   6.766  0.4508  0.2033 -0.2342
 8586SOL     OW37390   3.791   1.911   7.670  0.8075  0.0918  0.3176
 8586SOL    HW137391   3.800   1.875   7.581  3.6465  0.5483  0.4430
 8586SOL    HW237392   3.707   1.957   7.674  0.7030 -0.1028  0.3873
 8587SOL     OW37393   1.652   3.616   9.317 -0.0364  0.0768 -0.6510
 8587SOL    HW137394   1.719   3.673   9.352 -0.2255  0.5639 -1.0860
 8587SOL    HW237395   1.627   3.563   9.393 -0.7029  0.6486 -0.4739
 8588SOL     OW37396   3.034   1.433  13.406 -0.7765  0.0511  0.4089
 8588SOL    HW137397   3.081   1.385  13.338 -1.5899 -0.1666 -0.0005
 8588SOL    HW237398   2.979   1.364  13.444 -1.7464  1.2574  1.2078
 8589SOL     OW37399   1.785   0.571  11.749  0.2260 -0.0434  0.4025
 8589SOL    HW137400   1.729   0.507  11.706  0.4770 -1.4390  2.1830
 8589SOL    HW237401   1.774   0.651  11.698  0.1327  0.2391  0.8601
 8590SOL     OW37402   3.736   3.490   7.879  0.3811  0.2073 -0.6482
 8590SOL    HW137403   3.728   3.438   7.799 -2.6937 -0.2062 -0.0960
 8590SOL    HW237404   3.767   3.424   7.941  0.8421  0.4325 -0.6435
 8591SOL     OW37405   0.908   3.677  16.722  0.6806  0.2143 -0.5745
 8591SOL    HW137406   0.887   3.607  16.660  0.6354 -0.2189 -0.0801
 8591SOL    HW237407   0.947   3.738  16.660 -1.4457  2.2087  0.0513
 8592SOL     OW37408   2.652   1.835   1.348 -0.3117 -0.0046 -0.3633
 8592SOL    HW137409   2.741   1.848   1.383  0.5595 -0.8581 -2.2797
 8592SOL    HW237410   2.664   1.869   1.259  0.4222 -0.5712 -0.4789
 8593SOL     OW37411   1.516   1.697   2.200  0.0033  0.2639  0.0441
 8593SOL    HW137412   1.565   1.624   2.237  0.5886 -0.1409 -1.5098
 8593SOL    HW237413   1.428   1.665   2.220  0.3138 -0.6389  0.0009
 8594SOL     OW37414   1.299   1.006   1.600  0.0414 -0.9004 -0.1162
 8594SOL    HW137415   1.264   0.945   1.666 -3.5575 -1.2730 -2.3347
 8594SOL    HW237416   1.388   0.979   1.580 -0.5043 -1.2907 -2.0578
 8595SOL     OW37417   0.158   2.010  15.931 -0.0846  0.1568  0.2349
 8595SOL    HW137418   0.140   2.096  15.969 -0.4176  0.6703 -1.0796
 8595SOL    HW237419   0.157   2.040  15.840 -1.0420  0.4201  0.3260
 8596SOL     OW37420   1.041   1.071   4.787 -0.3006  0.0038 -0.2812
 8596SOL    HW137421   1.094   1.144   4.754  1.5244 -1.1274  0.1829
 8596SOL    HW237422   1.059   1.005   4.721 -1.7496 -0.1567 -0.5082
 8597SOL     OW37423   0.967   1.705   6.983  0.8643 -0.0653 -0.3151
 8597SOL    HW137424   0.964   1.610   6.989 -0.8949 -0.1971 -3.6915
 8597SOL    HW237425   0.945   1.719   6.891  1.3312 -1.5486 -0.6455
 8598SOL     OW37426   0.716   3.625   4.869 -0.0901 -0.6299  0.3059
 8598SOL    HW137427   0.754   3.705   4.834 -0.5319 -0.8426 -0.6400
 8598SOL    HW237428   0.784   3.598   4.932 -0.7247 -2.6364  0.1298
 8599SOL     OW37429   3.842   3.225   6.295  0.3466 -0.2075 -0.3222
 8599SOL    HW137430   3.769   3.197   6.240  0.9688 -3.5558  0.5639
 8599SOL    HW237431   3.913   3.164   6.276  0.4130  0.1584 -1.2600
 8600SOL     OW37432   2.282   2.449  10.143 -0.3753  0.5167  0.6719
 8600SOL    HW137433   2.307   2.541  10.129  1.3409 -0.1157 -0.4973
 8600SOL    HW237434   2.267   2.420  10.053 -0.7406  0.0512  0.8869
 8601SOL     OW37435   3.084   4.741   4.090  0.9103  0.3592  0.3033
 8601SOL    HW137436   3.029   0.002   4.011 -0.8976 -0.2418  1.5518
 8601SOL    HW237437   3.118   0.089   4.094  1.2673  0.2814 -0.7763
 8602SOL     OW37438   4.313   0.814   2.193  0.4309 -0.1776 -0.3401
 8602SOL    HW137439   4.405   0.797   2.215  0.6170  0.0593 -0.9478
 8602SOL    HW237440   4.307   0.770   2.109  1.9618  0.7359 -0.9402
 8603SOL     OW37441   4.099   3.003   2.393  0.4006  0.1452 -0.2560
 8603SOL    HW137442   4.106   3.098   2.404 -1.7370  0.3604 -0.7515
 8603SOL    HW237443   4.165   2.966   2.452  0.3181 -0.5037 -0.5729
 8604SOL     OW37444   0.672   0.572  10.684 -0.0847  0.6232 -0.4496
 8604SOL    HW137445   0.599   0.549  10.741 -1.0922  3.5458 -0.5738
 8604SOL    HW237446   0.664   0.520  10.605  0.4014 -0.1608  0.0177
 8605SOL     OW37447   1.131   0.044   7.246 -0.4420 -0.1872 -0.1366
 8605SOL    HW137448   1.202   4.732   7.281 -0.6059 -0.7214 -0.6366
 8605SOL    HW237449   1.049   0.005   7.276 -0.5701  0.8434  0.8717
 8606SOL     OW37450   2.898   2.317   9.983  0.7088 -0.7206  0.0981
 8606SOL    HW137451   2.882   2.240  10.037 -0.8752 -0.2266  0.3362
 8606SOL    HW237452   2.975   2.295   9.930  0.2981  0.7312 -1.1195
 8607SOL     OW37453   2.468   3.871   3.583 -0.1458 -0.5122 -0.2852
 8607SOL    HW137454   2.549   3.923   3.580  0.9808 -2.2649  0.0777
 8607SOL    HW237455   2.395   3.933   3.574  1.0809  1.0085  0.2890
 8608SOL     OW37456   0.718   0.803   4.785 -0.1865  0.0759 -0.1122
 8608SOL    HW137457   0.706   0.895   4.808  0.3265  0.0659  0.2059
 8608SOL    HW237458   0.694   0.771   4.872 -0.5183 -1.1979 -0.6702
 8609SOL     OW37459   2.619   4.207  15.909  0.6048 -0.0920 -0.0564
 8609SOL    HW137460   2.646   4.249  15.991  0.1345  2.0148 -0.9739
 8609SOL    HW237461   2.699   4.160  15.883  0.5023  0.2628 -1.0210
 8610SOL     OW37462   2.687   3.790   3.316 -0.3744  0.4553 -0.2582
 8610SOL    HW137463   2.699   3.696   3.303  0.6383  0.4721  0.5149
 8610SOL    HW237464   2.595   3.791   3.293 -0.5758 -2.3574  0.4047
 8611SOL     OW37465   4.043   0.312  13.132  0.0276  0.5054 -0.0073
 8611SOL    HW137466   3.979   0.241  13.141 -0.5780  1.1641  0.8920
 8611SOL    HW237467   4.023   0.366  13.209 -0.6653  1.2378 -0.7047
 8612SOL     OW37468   3.630   2.811  16.166  0.0925  0.1351 -0.1388
 8612SOL    HW137469   3.662   2.721  16.160 -0.8920 -0.1760 -0.6946
 8612SOL    HW237470   3.627   2.835  16.074  2.5233 -1.2150 -0.5572
 8613SOL     OW37471   1.639   2.053  16.127  0.0387 -1.0704  0.0719
 8613SOL    HW137472   1.602   2.006  16.053 -0.0774  0.3766 -0.7847
 8613SOL    HW237473   1.592   2.136  16.126 -2.1958 -2.3331  0.3291
 8614SOL     OW37474   2.217   1.430   4.137 -0.2202 -0.2175  0.0019
 8614SOL    HW137475   2.243   1.421   4.228  0.8032  1.3011 -0.1422
 8614SOL    HW237476   2.141   1.486   4.151  1.6136  1.9851  1.1166
 8615SOL     OW37477   1.438   1.203   1.801  0.5252 -0.5842 -0.1467
 8615SOL    HW137478   1.510   1.266   1.793  0.1442 -0.3751 -2.0316
 8615SOL    HW237479   1.398   1.230   1.718 -0.9796  1.9308  1.3852
 8616SOL     OW37480   0.499   2.203   4.653 -0.5215 -0.4430  0.0979
 8616SOL    HW137481   0.590   2.183   4.634 -0.8931 -1.2000 -0.9453
 8616SOL    HW237482   0.491   2.149   4.731  2.8037  2.5832  2.4968
 8617SOL     OW37483   0.144   4.560  14.765 -0.6590  0.0352  0.0697
 8617SOL    HW137484   0.173   4.497  14.831 -2.1465 -0.6203  0.1064
 8617SOL    HW237485   0.051   4.539  14.772 -0.8149  0.6134 -0.2947
 8618SOL     OW37486   2.700   3.408   4.563  0.0983 -0.4642  0.5914
 8618SOL    HW137487   2.738   3.322   4.545  0.0847 -0.0383 -1.4338
 8618SOL    HW237488   2.633   3.382   4.626 -1.2573  0.1077 -0.6047
 8619SOL     OW37489   1.482   4.687   3.796  0.0459  0.4093  0.0722
 8619SOL    HW137490   1.414   4.729   3.849 -0.2149  0.7451 -0.5294
 8619SOL    HW237491   1.501   4.604   3.839 -0.0143 -0.0276 -0.7487
 8620SOL     OW37492   2.209   1.022   7.561  1.3948  0.2124  0.3859
 8620SOL    HW137493   2.258   0.940   7.569 -0.5630 -0.9804  0.2556
 8620SOL    HW237494   2.269   1.062   7.498 -0.5325  1.2235 -0.8238
 8621SOL     OW37495   0.412   3.115  13.045 -0.4289 -0.0418 -0.3937
 8621SOL    HW137496   0.377   3.204  13.040  0.6870  0.5546  2.3037
 8621SOL    HW237497   0.342   3.065  13.087  1.5411 -3.0227 -0.7239
 8622SOL     OW37498   3.815   1.101   1.823 -0.8668  0.0224  0.0466
 8622SOL    HW137499   3.731   1.141   1.847  0.4716  2.1912  1.0966
 8622SOL    HW237500   3.864   1.180   1.799 -1.3793  1.0706  2.3908
 8623SOL     OW37501   1.805   0.104   6.522  0.0138 -0.3987  0.0418
 8623SOL    HW137502   1.761   0.150   6.594  0.0370 -1.6675  0.8723
 8623SOL    HW237503   1.889   0.150   6.514 -1.4109  2.7266  2.9613
 8624SOL     OW37504   0.328   4.554   8.347 -1.0961 -0.2345  0.1993
 8624SOL    HW137505   0.372   4.550   8.263  0.5065  1.0059  0.9700
 8624SOL    HW237506   0.371   4.630   8.386  0.8640  0.1659 -2.7738
 8625SOL     OW37507   2.780   0.939   3.186  0.2889 -0.0927  0.5312
 8625SOL    HW137508   2.858   0.987   3.157  1.1658 -2.2742 -0.7343
 8625SOL    HW237509   2.806   0.853   3.152  1.1202 -0.1967  1.4303
 8626SOL     OW37510   3.595   4.693   8.353 -0.7223 -0.1794  0.4961
 8626SOL    HW137511   3.601   0.039   8.391  2.6036  0.5092 -1.6347
 8626SOL    HW237512   3.597   4.642   8.435  2.5267  2.2479  1.9206
 8627SOL     OW37513   1.420   1.399   2.764  0.2643 -0.4433 -0.3171
 8627SOL    HW137514   1.477   1.450   2.706  0.1519 -0.0416 -0.0707
 8627SOL    HW237515   1.429   1.309   2.731 -0.3387  0.9473 -4.2742
 8628SOL     OW37516   2.705   2.759  16.590 -0.3416 -0.2804 -0.4689
 8628SOL    HW137517   2.744   2.686  16.542 -0.0479 -1.3990  1.4537
 8628SOL    HW237518   2.760   2.787  16.663 -0.1025  0.2090 -0.8451
 8629SOL     OW37519   2.290   1.289   3.651  0.9428 -0.0700  0.1248
 8629SOL    HW137520   2.266   1.341   3.729  0.2942 -1.8902  1.1393
 8629SOL    HW237521   2.347   1.222   3.687  1.4406  0.8465  1.0653
 8630SOL     OW37522   0.618   0.370   7.999 -0.3957  0.6568  0.8306
 8630SOL    HW137523   0.618   0.370   8.094 -0.3759 -1.5154  0.8311
 8630SOL    HW237524   0.526   0.348   7.983  1.2869 -4.4029 -2.0003
 8631SOL     OW37525   3.028   0.294   1.470 -0.4987  0.1706 -0.2048
 8631SOL    HW137526   2.955   0.355   1.459  1.0138  2.2252  1.1424
 8631SOL    HW237527   3.029   0.252   1.385 -3.3865 -2.1455  0.9258
 8632SOL     OW37528   3.429   0.328   3.887 -0.4618 -0.2611  0.0017
 8632SOL    HW137529   3.450   0.334   3.794  0.4484 -1.6338  0.1312
 8632SOL    HW237530   3.497   0.378   3.932  0.3281  0.3149 -1.8599
 8633SOL     OW37531   4.220   3.575   3.640  0.1905  0.1140  0.2818
 8633SOL    HW137532   4.146   3.513   3.645  0.2828  0.0723  1.1092
 8633SOL    HW237533   4.166   3.651   3.619 -1.2708 -0.1467  2.9458
 8634SOL     OW37534   2.666   3.929   0.894  0.0053 -0.1643 -0.5158
 8634SOL    HW137535   2.588   3.975   0.862  1.8677  1.7157 -2.4129
 8634SOL    HW237536   2.727   4.003   0.886 -0.2456  0.1412  0.3464
 8635SOL     OW37537   4.551   3.832  10.693  0.0103 -0.5142  0.0482
 8635SOL    HW137538   4.589   3.853  10.608 -0.0543  3.8750  1.1210
 8635SOL    HW237539   4.627   3.780  10.721  0.1228  1.5656  3.5807
 8636SOL     OW37540   3.882   4.524   9.558 -0.2952 -0.2994  0.3010
 8636SOL    HW137541   3.903   4.585   9.629  0.1403  0.7528 -0.7221
 8636SOL    HW237542   3.955   4.466   9.536 -1.0681 -1.4971  0.9320
 8637SOL     OW37543   4.736   3.418   2.743 -0.4823 -0.1926 -0.2251
 8637SOL    HW137544   4.689   3.353   2.691 -1.2156  1.9450 -2.1702
 8637SOL    HW237545   4.672   3.423   2.815 -1.1039 -0.2304 -0.7773
 8638SOL     OW37546   3.360   0.398   3.603  0.4401 -0.2175 -0.1150
 8638SOL    HW137547   3.351   0.366   3.514  0.2162  0.5878 -0.3828
 8638SOL    HW237548   3.293   0.346   3.646  0.1459 -0.7295 -1.2200
 8639SOL     OW37549   4.388   0.032   0.209 -0.1010 -0.0974 -0.1133
 8639SOL    HW137550   4.446   4.702   0.239 -0.7798 -0.9557 -0.8428
 8639SOL    HW237551   4.452   0.089   0.166  0.7049 -1.4770 -0.7636
 8640SOL     OW37552   1.754   2.582   1.532 -0.5486 -0.1496  0.3430
 8640SOL    HW137553   1.819   2.652   1.518 -1.0540  0.0103 -1.1057
 8640SOL    HW237554   1.814   2.520   1.573 -0.1133 -0.2043 -0.3872
 8641SOL     OW37555   3.575   4.612   6.576  0.4668  0.2892 -0.7658
 8641SOL    HW137556   3.610   4.531   6.614 -0.7219 -0.0979 -0.5146
 8641SOL    HW237557   3.633   4.676   6.616  0.1300 -0.5343  1.0282
 8642SOL     OW37558   1.099   0.202   8.920 -0.1812 -0.3990 -0.3670
 8642SOL    HW137559   1.111   0.295   8.901  1.9812 -0.6385 -0.1719
 8642SOL    HW237560   1.026   0.199   8.982 -0.9356 -0.1252 -1.2496
 8643SOL     OW37561   0.384   2.105   9.136 -0.4147  0.0539 -0.4512
 8643SOL    HW137562   0.320   2.098   9.207 -1.6871 -0.8291 -1.6873
 8643SOL    HW237563   0.427   2.020   9.145  0.0339  0.7308  3.9551
 8644SOL     OW37564   1.277   4.104   7.259 -0.2773  0.4184  0.2873
 8644SOL    HW137565   1.290   4.194   7.231  2.3932  0.2130  0.8864
 8644SOL    HW237566   1.315   4.110   7.346  0.4467 -1.7817  0.1137
 8645SOL     OW37567   2.931   1.547   2.762  0.2448 -0.6470  0.6491
 8645SOL    HW137568   2.864   1.506   2.816 -1.3226 -0.1436 -0.9029
 8645SOL    HW237569   2.969   1.476   2.710  2.2551  0.8596  0.0574
 8646SOL     OW37570   4.077   4.460   7.074 -0.2065  0.5533 -0.2296
 8646SOL    HW137571   4.148   4.507   7.119 -0.8993  1.1550  0.2441
 8646SOL    HW237572   4.138   4.395   7.039 -1.2193 -0.8650  0.6500
 8647SOL     OW37573   1.178   2.608   5.042  0.2294 -0.3622 -1.0007
 8647SOL    HW137574   1.099   2.617   5.096  0.7005  0.2971 -0.4226
 8647SOL    HW237575   1.160   2.517   5.019 -1.3751  0.0294 -1.2709
 8648SOL     OW37576   1.439   3.111   6.395  0.4920  0.0247 -0.2113
 8648SOL    HW137577   1.387   3.064   6.331 -0.6634 -2.1934  2.3628
 8648SOL    HW237578   1.439   3.199   6.359 -2.2159 -0.0860 -0.4256
 8649SOL     OW37579   4.427   0.986   7.609  0.5695  0.0548  0.4164
 8649SOL    HW137580   4.457   1.076   7.625  0.1013  0.3622 -0.3833
 8649SOL    HW237581   4.335   0.996   7.634  0.7489  0.4752  0.9018
 8650SOL     OW37582   1.643   4.112   3.732  0.5271  0.6520 -0.1216
 8650SOL    HW137583   1.707   4.041   3.723  0.2909  0.5513 -0.9524
 8650SOL    HW237584   1.560   4.065   3.727  0.9002 -0.1377  1.1508
 8651SOL     OW37585   3.710   4.228   4.123 -0.3016 -0.7252  0.3736
 8651SOL    HW137586   3.634   4.170   4.127  0.3034 -1.6015 -1.1389
 8651SOL    HW237587   3.757   4.212   4.205  0.4742  0.9358  0.2594
 8652SOL     OW37588   1.102   2.602   5.620  0.4167  0.4963 -0.4788
 8652SOL    HW137589   1.122   2.571   5.532 -0.6389 -1.5358  0.0033
 8652SOL    HW237590   1.146   2.687   5.618  0.6070  0.3744 -1.4933
 8653SOL     OW37591   3.279   0.563   1.467  0.2969 -0.3509  0.2584
 8653SOL    HW137592   3.227   0.542   1.544 -1.1020  2.1945  0.0092
 8653SOL    HW237593   3.312   0.640   1.513  0.4411  0.0951 -0.5851
 8654SOL     OW37594   0.119   1.008   2.736 -1.1218  0.1656  0.3611
 8654SOL    HW137595   0.114   1.067   2.811 -3.1152 -1.2080  1.2951
 8654SOL    HW237596   0.202   0.960   2.739 -0.0311  1.8670 -1.5069
 8655SOL     OW37597   0.287   1.596   1.538 -0.0272  0.0275  0.5218
 8655SOL    HW137598   0.326   1.602   1.625  2.6215 -0.5604 -0.6498
 8655SOL    HW237599   0.351   1.644   1.485  0.6925  1.1330  2.3799
 8656SOL     OW37600   3.908   1.157  14.201 -0.4659 -0.0385 -0.1069
 8656SOL    HW137601   3.818   1.187  14.191 -0.4421  0.8827  2.3847
 8656SOL    HW237602   3.886   1.065  14.210  3.7312 -1.1696 -1.2771
 8657SOL     OW37603   2.055   0.629  12.259  0.0488 -0.3422  0.1430
 8657SOL    HW137604   2.146   0.654  12.247  0.0275  0.1817  1.0431
 8657SOL    HW237605   2.026   0.712  12.297  0.9445 -0.7215  1.6629
 8658SOL     OW37606   4.413   0.044   6.298 -0.1427 -0.0513 -0.3892
 8658SOL    HW137607   4.344   0.107   6.279  2.1284  2.6123  0.1356
 8658SOL    HW237608   4.471   0.054   6.222  1.2510 -1.2026  0.5206
 8659SOL     OW37609   2.135   3.382   2.285  0.1240 -0.3750 -0.1956
 8659SOL    HW137610   2.127   3.477   2.291  1.8871 -0.3406  1.4422
 8659SOL    HW237611   2.108   3.363   2.195  1.4881  0.0741 -0.6905
 8660SOL     OW37612   0.604   4.365   1.397 -0.0894 -0.5309  0.1472
 8660SOL    HW137613   0.581   4.323   1.314  0.9022  2.5674 -1.6596
 8660SOL    HW237614   0.671   4.299   1.417  0.4752 -0.0541 -0.1649
 8661SOL     OW37615   2.944   3.539   0.273 -0.2751  0.5146 -0.6072
 8661SOL    HW137616   2.881   3.537   0.201 -0.6946  1.4823 -0.2724
 8661SOL    HW237617   2.948   3.446   0.294  1.6006  0.5148 -0.9517
 8662SOL     OW37618   3.532   0.673   2.405  0.6560  0.4331 -0.4972
 8662SOL    HW137619   3.536   0.766   2.424 -0.9758  0.2887  0.5491
 8662SOL    HW237620   3.452   0.638   2.446 -0.0587 -0.7752 -2.8819
 8663SOL     OW37621   1.492   4.267   7.967 -0.3534  0.3845 -0.5452
 8663SOL    HW137622   1.397   4.275   7.978 -0.2356  0.5965  0.3155
 8663SOL    HW237623   1.514   4.238   8.056 -1.5277 -1.5146 -0.8810
 8664SOL     OW37624   1.673   2.318  14.402 -0.0754 -0.8704  0.4136
 8664SOL    HW137625   1.717   2.320  14.317  0.6101 -1.9206  0.7438
 8664SOL    HW237626   1.585   2.289  14.382 -0.7076  1.7584 -0.6362
 8665SOL     OW37627   0.541   0.654   5.819  0.1595  0.1836  0.3908
 8665SOL    HW137628   0.527   0.742   5.784 -3.4143 -0.1297  1.0498
 8665SOL    HW237629   0.590   0.617   5.745 -0.9243 -1.9202  0.7178
 8666SOL     OW37630   0.139   1.154   2.497 -0.2053  0.0317 -0.2095
 8666SOL    HW137631   0.149   1.140   2.591 -2.2773 -3.0830 -0.4487
 8666SOL    HW237632   0.103   1.072   2.463 -0.4782  0.3922 -0.7975
 8667SOL     OW37633   2.260   0.551  13.481 -0.2013 -0.0337  1.2913
 8667SOL    HW137634   2.286   0.632  13.525 -0.9867  2.5979 -3.0741
 8667SOL    HW237635   2.350   0.521  13.471 -0.3575 -0.5329  1.3481
 8668SOL     OW37636   3.731   3.208   3.436 -0.3436  0.2558 -0.1181
 8668SOL    HW137637   3.691   3.286   3.397 -1.8053  0.6231  2.1335
 8668SOL    HW237638   3.654   3.154   3.453  1.1958 -2.0278 -0.3811
 8669SOL     OW37639   4.586   0.625   1.900  0.2093  0.5362 -0.4394
 8669SOL    HW137640   4.674   0.622   1.860 -0.3522  0.0627 -1.6405
 8669SOL    HW237641   4.547   0.555   1.849 -0.8242 -1.0778  2.5920
 8670SOL     OW37642   1.657   1.153  13.729  0.3811 -0.5983 -0.1935
 8670SOL    HW137643   1.693   1.093  13.794  0.2398  0.9427  1.3110
 8670SOL    HW237644   1.630   1.082  13.671 -1.9829  0.3467 -0.2617
 8671SOL     OW37645   3.608   0.549   3.677 -0.1586 -0.2591  0.2256
 8671SOL    HW137646   3.548   0.480   3.650 -0.3467  0.0061 -0.0433
 8671SOL    HW237647   3.692   0.517   3.645  0.6061  0.4909  1.4614
 8672SOL     OW37648   1.844   1.752  15.885 -0.0125 -1.2522 -0.0004
 8672SOL    HW137649   1.918   1.728  15.941  0.7209 -1.3704 -1.0151
 8672SOL    HW237650   1.778   1.706  15.937 -2.9538  0.7757 -1.9283
 8673SOL     OW37651   3.433   2.440  13.204  0.5346 -0.0102 -0.0912
 8673SOL    HW137652   3.359   2.392  13.240  0.3513 -0.0684 -0.5516
 8673SOL    HW237653   3.506   2.380  13.219  0.9125  0.5467  0.2983
 8674SOL     OW37654   0.428   1.809   2.532 -0.7481  0.9335  0.8948
 8674SOL    HW137655   0.477   1.741   2.485 -2.3276  0.2261  0.2798
 8674SOL    HW237656   0.356   1.752   2.558 -1.8840  1.3895 -1.3072
 8675SOL     OW37657   3.826   2.140   6.428 -0.6215  0.2051 -0.6781
 8675SOL    HW137658   3.733   2.129   6.451 -0.1268 -1.2820  0.6122
 8675SOL    HW237659   3.828   2.194   6.349  1.6822 -1.2168 -1.5666
 8676SOL     OW37660   2.090   3.843   7.484  0.0351  0.2512 -0.4731
 8676SOL    HW137661   2.127   3.907   7.544  0.1288 -1.2660  1.1061
 8676SOL    HW237662   2.164   3.831   7.426  0.8697 -2.3171  1.1029
 8677SOL     OW37663   1.520   0.821  17.322  0.6658 -0.0908  0.0037
 8677SOL    HW137664   1.438   0.774  17.340  0.0659  0.5677 -0.9966
 8677SOL    HW237665   1.525   0.811  17.226  0.3416  0.2952 -0.0526
 8678SOL     OW37666   0.687   4.643   1.392  0.4853 -0.0292 -0.0873
 8678SOL    HW137667   0.781   4.631   1.401  0.3831 -1.5856 -1.1460
 8678SOL    HW237668   0.649   4.556   1.381 -1.6910  1.0498 -1.0635
 8679SOL     OW37669   0.708   0.743   7.022 -0.0194  0.0733 -0.5014
 8679SOL    HW137670   0.714   0.736   7.117 -1.3886 -0.4000 -0.4426
 8679SOL    HW237671   0.621   0.782   7.017  0.3796  0.9035 -0.8668
 8680SOL     OW37672   0.223   2.034   6.563  0.5011  0.4014 -0.0182
 8680SOL    HW137673   0.232   1.950   6.517 -0.7468  0.3159 -0.1157
 8680SOL    HW237674   0.150   2.003   6.618  2.3376 -1.2293  1.5160
 8681SOL     OW37675   2.181   3.691   4.783  0.0644 -0.1098 -0.0127
 8681SOL    HW137676   2.250   3.676   4.718 -0.8811 -0.0262 -1.0399
 8681SOL    HW237677   2.239   3.696   4.859  0.0259 -3.9074  0.2636
 8682SOL     OW37678   2.921   2.982   6.622 -0.3460 -0.4347 -0.2690
 8682SOL    HW137679   2.953   3.046   6.558  0.1126  1.0291  1.4229
 8682SOL    HW237680   2.968   2.906   6.589 -0.7053 -0.6073 -0.3873
 8683SOL     OW37681   1.993   3.641  13.690  0.0786  0.4866 -0.9945
 8683SOL    HW137682   1.957   3.729  13.676 -0.5115  0.4470  0.2256
 8683SOL    HW237683   2.077   3.651  13.646  1.0187 -0.7269  0.5356
 8684SOL     OW37684   2.842   4.385   3.029 -0.6154  0.2518 -0.1576
 8684SOL    HW137685   2.887   4.437   2.963  0.6237  0.1493  0.6066
 8684SOL    HW237686   2.751   4.375   3.000 -0.6794 -0.0376  0.1361
 8685SOL     OW37687   4.251   0.412   1.084 -0.2139  0.5099  0.5432
 8685SOL    HW137688   4.284   0.323   1.091 -2.9287 -0.5524 -0.0344
 8685SOL    HW237689   4.211   0.431   1.169 -0.0197  0.6681  0.5996
 8686SOL     OW37690   4.183   2.711   2.106 -0.4318  0.1384 -0.0431
 8686SOL    HW137691   4.093   2.727   2.133 -0.3327  1.8316 -0.6606
 8686SOL    HW237692   4.161   2.637   2.049 -0.3394 -0.8386  1.2023
 8687SOL     OW37693   1.653   3.416   4.376  0.1196 -0.2174  0.3788
 8687SOL    HW137694   1.627   3.472   4.449 -4.7961  2.8561 -3.6879
 8687SOL    HW237695   1.689   3.347   4.432  0.7317  1.7160  2.3732
 8688SOL     OW37696   1.840   4.047  14.828 -0.2255 -0.8767 -0.0838
 8688SOL    HW137697   1.922   4.025  14.784  1.2017 -0.8579  2.5812
 8688SOL    HW237698   1.843   4.139  14.856  1.6664 -1.5349  1.8337
 8689SOL     OW37699   0.807   0.732   4.412  0.1678 -0.4542 -0.2300
 8689SOL    HW137700   0.866   0.746   4.486 -0.3770 -2.2292  0.5347
 8689SOL    HW237701   0.855   0.663   4.367 -1.6318 -1.3447 -0.7871
 8690SOL     OW37702   3.402   1.207   1.026 -0.3651  0.1246 -0.1197
 8690SOL    HW137703   3.336   1.211   1.095  0.3779 -0.2405  0.6171
 8690SOL    HW237704   3.419   1.113   1.023  3.1722  0.7392  1.1642
 8691SOL     OW37705   0.433   3.416   1.755 -0.4281  0.0353  0.3146
 8691SOL    HW137706   0.506   3.454   1.706 -1.6928  0.5291 -1.1957
 8691SOL    HW237707   0.429   3.326   1.722 -1.1605  0.3875 -0.5662
 8692SOL     OW37708   1.413   1.537   3.278 -0.3781 -0.1806  0.4402
 8692SOL    HW137709   1.463   1.545   3.196 -1.1558  1.5393  0.1432
 8692SOL    HW237710   1.481   1.536   3.345  0.1246  2.2633 -0.0261
 8693SOL     OW37711   0.232   0.332   2.975  0.2443 -0.5355 -0.6737
 8693SOL    HW137712   0.244   0.424   2.950 -1.9067  0.2860  1.2530
 8693SOL    HW237713   0.221   0.344   3.069  1.2781 -1.5347 -0.4268
 8694SOL     OW37714   2.492   0.865   8.564 -0.0681  0.2584  0.5255
 8694SOL    HW137715   2.569   0.914   8.534  2.2133 -3.1062  0.7573
 8694SOL    HW237716   2.517   0.884   8.655 -0.9339  0.9332  0.6098
 8695SOL     OW37717   1.748   3.025   8.139  0.2419  0.0296  0.5739
 8695SOL    HW137718   1.758   2.931   8.156  2.1990 -0.1297 -1.5250
 8695SOL    HW237719   1.729   3.050   8.229 -0.4065 -2.5849  1.1782
 8696SOL     OW37720   2.123   3.044   1.191 -0.8102  0.1975 -0.3531
 8696SOL    HW137721   2.155   3.087   1.271  0.4706  0.0307 -0.7768
 8696SOL    HW237722   2.208   3.052   1.146 -0.6915 -2.7635 -0.6380
 8697SOL     OW37723   3.699   2.129   7.454  0.2059  0.2705  0.3812
 8697SOL    HW137724   3.673   2.055   7.399  1.1756  0.7587 -0.7193
 8697SOL    HW237725   3.793   2.136   7.438  0.4979 -3.6015  0.3683
 8698SOL     OW37726   2.081   3.053   7.361  0.3324 -0.0985  0.6341
 8698SOL    HW137727   2.029   3.126   7.395 -0.1910  0.5460 -1.5474
 8698SOL    HW237728   2.086   3.065   7.266  1.4627  0.3586  0.7526
 8699SOL     OW37729   3.922   1.741  15.975 -0.1883 -0.5797 -0.4069
 8699SOL    HW137730   3.921   1.713  15.884  2.0962 -0.3633 -0.5009
 8699SOL    HW237731   3.999   1.703  16.017  1.3465 -0.2645 -2.9229
 8700SOL     OW37732   4.325   3.449   5.682  0.0486 -0.0301 -0.2667
 8700SOL    HW137733   4.413   3.470   5.650  0.4269  0.1971  0.9364
 8700SOL    HW237734   4.312   3.361   5.647 -1.6823  1.3263 -3.0875
 8701SOL     OW37735   2.439   3.912   7.121 -0.2399 -0.1813  0.2418
 8701SOL    HW137736   2.388   3.993   7.119 -1.5477 -1.0119 -0.0009
 8701SOL    HW237737   2.524   3.933   7.083 -0.1153 -0.4492  0.3660
 8702SOL     OW37738   2.823   3.327   6.571 -0.1306 -0.2949  0.6055
 8702SOL    HW137739   2.786   3.390   6.508 -0.4661 -1.0069  0.0941
 8702SOL    HW237740   2.888   3.276   6.525  0.8176  0.3250  1.2548
 8703SOL     OW37741   4.047   1.551   3.302  0.0389  0.0234  0.3812
 8703SOL    HW137742   4.038   1.489   3.374  2.5662 -2.6213 -1.6003
 8703SOL    HW237743   4.054   1.630   3.356  1.1384 -0.4195  0.8729
 8704SOL     OW37744   4.402   0.008  15.429  0.1064 -0.3120 -0.2186
 8704SOL    HW137745   4.312   4.728  15.402 -0.4226  1.6201  0.0196
 8704SOL    HW237746   4.418   4.669  15.478  1.3588 -0.1224 -0.3247
 8705SOL     OW37747   0.437   0.721   1.825  0.4973 -0.7970  0.1147
 8705SOL    HW137748   0.527   0.736   1.797 -0.3249  1.2141 -1.5153
 8705SOL    HW237749   0.415   0.653   1.762  2.0657 -0.3326 -0.9187
 8706SOL     OW37750   0.187   1.695   4.898  0.3288 -0.5257 -0.5992
 8706SOL    HW137751   0.215   1.759   4.963  1.7905 -0.5635 -1.1916
 8706SOL    HW237752   0.269   1.651   4.876  0.6018  0.0023 -0.6180
 8707SOL     OW37753   1.999   0.631   6.348 -0.0454  0.0050 -0.5825
 8707SOL    HW137754   1.989   0.555   6.291  0.4136 -1.9821  1.9778
 8707SOL    HW237755   2.079   0.665   6.307 -0.7436 -0.5756 -2.4263
 8708SOL     OW37756   1.514   2.126   1.861 -0.0766 -0.2977  0.5609
 8708SOL    HW137757   1.503   2.034   1.886 -1.8511 -0.5849 -1.2803
 8708SOL    HW237758   1.463   2.134   1.781 -0.4437  2.2231  1.0607
 8709SOL     OW37759   0.562   4.207   8.010  0.1944  0.3596 -0.0929
 8709SOL    HW137760   0.522   4.294   8.011  2.1938  1.2812 -1.7233
 8709SOL    HW237761   0.607   4.198   8.094  0.5357 -1.1126 -0.4406
 8710SOL     OW37762   1.953   2.911   6.990 -0.4592 -0.0390  0.1460
 8710SOL    HW137763   1.916   2.880   6.907 -1.6870  0.9442  0.3204
 8710SOL    HW237764   1.955   2.834   7.047 -2.5867  0.4255  0.8560
 8711SOL     OW37765   1.874   3.689   9.451 -0.4844  0.2931  0.8979
 8711SOL    HW137766   1.933   3.615   9.465  0.3246  1.3805  3.1272
 8711SOL    HW237767   1.919   3.732   9.378  0.5317  1.9437  2.4866
 8712SOL     OW37768   2.540   4.237   8.660 -0.2239 -0.1608  0.2365
 8712SOL    HW137769   2.476   4.233   8.731 -1.1550  2.3223 -0.4384
 8712SOL    HW237770   2.594   4.313   8.680  0.2679 -0.8398  1.4738
 8713SOL     OW37771   2.218   4.608   9.180  0.2601 -1.0519 -0.4028
 8713SOL    HW137772   2.262   4.526   9.202  0.3483 -0.7172  0.6711
 8713SOL    HW237773   2.156   4.620   9.251 -0.4306  0.7741 -1.3024
 8714SOL     OW37774   3.630   4.550   0.538 -0.1258  0.5391  0.2850
 8714SOL    HW137775   3.601   4.479   0.595  1.2284 -1.3564 -1.3874
 8714SOL    HW237776   3.720   4.549   0.573  0.4156  1.7632 -1.0847
 8715SOL     OW37777   0.978   4.716   0.509 -0.1133 -0.3649 -0.2035
 8715SOL    HW137778   0.894   0.010   0.538  0.9023 -0.2872  2.5578
 8715SOL    HW237779   0.949   4.625   0.503  0.7837 -0.8109  2.3482
 8716SOL     OW37780   1.746   0.499  13.425  0.5002  0.4303 -0.1030
 8716SOL    HW137781   1.841   0.501  13.438  0.8693  0.9824 -2.8200
 8716SOL    HW237782   1.713   0.440  13.492  2.1128 -0.6576 -0.2495
 8717SOL     OW37783   2.700   0.035   9.221  0.1098 -0.1892  0.5588
 8717SOL    HW137784   2.659   0.077   9.146 -1.6827 -1.0887  1.0452
 8717SOL    HW237785   2.620   4.737   9.257 -0.8338 -0.3811 -1.7713
 8718SOL     OW37786   0.308   0.481   8.211  0.1951  0.7118  0.1842
 8718SOL    HW137787   0.326   0.499   8.303  3.7073 -0.2436 -0.2847
 8718SOL    HW237788   0.387   0.518   8.170 -0.2991  1.1283 -0.3854
 8719SOL     OW37789   4.086   2.477   2.025  0.4587 -0.2708 -0.0648
 8719SOL    HW137790   4.005   2.434   1.996  1.7186 -1.9924 -1.0737
 8719SOL    HW237791   4.138   2.440   1.953  1.4029  0.8670  0.0390
 8720SOL     OW37792   3.401   3.129  12.875  0.0391  0.4762  0.3790
 8720SOL    HW137793   3.383   3.057  12.935 -0.7522  0.5351  0.2120
 8720SOL    HW237794   3.496   3.125  12.865  0.0057  0.5767  0.0140
 8721SOL     OW37795   1.613   1.661   6.862 -0.1765  0.2767  0.4110
 8721SOL    HW137796   1.531   1.662   6.910  0.1380 -0.5684  0.9681
 8721SOL    HW237797   1.577   1.664   6.773  0.7174 -0.8131  0.0057
 8722SOL     OW37798   3.704   0.336   8.693 -0.4113  0.0396  0.3563
 8722SOL    HW137799   3.702   0.264   8.756  0.2418 -0.3146 -0.0237
 8722SOL    HW237800   3.778   0.385   8.730 -0.0377 -1.4294  1.5500
 8723SOL     OW37801   1.004   4.680   8.558  0.0308  0.1441 -0.2668
 8723SOL    HW137802   1.050   4.649   8.636 -0.5294  3.3864  1.3514
 8723SOL    HW237803   0.913   4.666   8.585 -0.3977  2.0572 -0.7248
 8724SOL     OW37804   4.608   4.388   0.185 -0.0423  0.7524  0.3047
 8724SOL    HW137805   4.620   4.481   0.206  0.9334  0.8836 -0.8391
 8724SOL    HW237806   4.524   4.377   0.230  1.9175 -1.9749  3.3683
 8725SOL     OW37807   2.758   1.423   5.270 -0.6117  0.3772  0.6425
 8725SOL    HW137808   2.775   1.344   5.321  2.2581  1.1863  0.9446
 8725SOL    HW237809   2.839   1.466   5.295  0.7002 -2.4587  1.2508
 8726SOL     OW37810   3.416   1.757   7.826 -0.1360  0.2450 -0.4562
 8726SOL    HW137811   3.439   1.849   7.836  1.7823 -0.1420 -1.1954
 8726SOL    HW237812   3.488   1.715   7.777 -1.3125 -1.5725 -0.6415
 8727SOL     OW37813   2.508   2.116   3.592 -0.3139 -0.4413 -0.1365
 8727SOL    HW137814   2.423   2.139   3.630 -0.1506 -2.5147  1.4865
 8727SOL    HW237815   2.572   2.162   3.646  1.1778 -0.5460 -1.8029
 8728SOL     OW37816   3.139   0.502  12.087  0.1166  0.4890 -0.7109
 8728SOL    HW137817   3.214   0.448  12.113 -1.7861 -1.0321  1.6808
 8728SOL    HW237818   3.153   0.577  12.144 -0.8488  0.0323  0.1333
 8729SOL     OW37819   2.295   0.734   7.261  0.3169  0.2141  0.2005
 8729SOL    HW137820   2.334   0.821   7.267  0.8803  0.0065 -0.3942
 8729SOL    HW237821   2.232   0.732   7.333 -0.4082 -1.1794 -0.4691
 8730SOL     OW37822   1.976   2.567   4.062  0.3939 -0.2322 -0.5779
 8730SOL    HW137823   2.047   2.505   4.078  0.0580 -0.0599  1.6732
 8730SOL    HW237824   2.014   2.651   4.086 -1.0229 -0.6799  3.3017
 8731SOL     OW37825   4.395   4.464   9.920 -0.2409  0.0813  0.0112
 8731SOL    HW137826   4.390   4.428  10.008 -0.5365  0.3465  0.1005
 8731SOL    HW237827   4.345   4.544   9.933 -0.0429  0.3177 -0.6966
 8732SOL     OW37828   4.689   1.247  17.441 -0.3888  1.0154 -0.2390
 8732SOL    HW137829   4.733   1.242  17.526 -0.1181 -2.9741 -0.6049
 8732SOL    HW237830   4.671   1.341  17.440 -0.6115  0.9798  0.1375
 8733SOL     OW37831   0.552   4.411   5.725  0.6686  0.9441  0.0759
 8733SOL    HW137832   0.525   4.428   5.816  0.5989 -2.8537  0.8063
 8733SOL    HW237833   0.490   4.462   5.673 -0.0542 -1.5700 -1.5147
 8734SOL     OW37834   3.040   3.939   9.114  0.3352 -0.8600 -0.0134
 8734SOL    HW137835   2.955   3.966   9.082  0.7673 -2.7779 -2.7818
 8734SOL    HW237836   3.069   4.024   9.147 -1.3941 -0.8801  1.5575
 8735SOL     OW37837   0.109   3.321  11.551 -0.1432 -0.2961 -0.6143
 8735SOL    HW137838   0.074   3.389  11.494 -1.4418 -0.1104  0.3926
 8735SOL    HW237839   0.048   3.329  11.625  0.3415  0.4680 -0.2984
 8736SOL     OW37840   3.141   1.750   6.201 -0.0285  0.1065  0.4068
 8736SOL    HW137841   3.091   1.703   6.135 -0.1589  0.1822  0.4508
 8736SOL    HW237842   3.077   1.742   6.273 -1.7029  1.9971 -0.8558
 8737SOL     OW37843   4.455   3.971  17.142  0.0974 -0.3128  0.0685
 8737SOL    HW137844   4.385   4.007  17.197 -2.0059 -1.5889 -1.7642
 8737SOL    HW237845   4.434   4.025  17.066 -1.8084  0.9824  1.4970
 8738SOL     OW37846   3.359   0.756  11.833  0.1599 -0.1289 -0.7236
 8738SOL    HW137847   3.337   0.816  11.762 -0.5029 -0.0000 -0.4077
 8738SOL    HW237848   3.427   0.806  11.878 -0.4095 -1.6975  1.9223
 8739SOL     OW37849   0.997   3.321  16.764 -0.6853 -0.1834 -0.0925
 8739SOL    HW137850   1.005   3.334  16.669 -1.4184  2.9166  0.2676
 8739SOL    HW237851   1.013   3.411  16.792  0.8421 -2.0141  4.8393
 8740SOL     OW37852   0.423   2.870  16.843  0.6823  0.1076 -0.0648
 8740SOL    HW137853   0.487   2.937  16.865 -0.9379  0.1671  4.4655
 8740SOL    HW237854   0.382   2.900  16.762  0.7993  3.4630  1.1531
 8741SOL     OW37855   0.485   1.696   2.835 -0.2133  0.8930 -0.3299
 8741SOL    HW137856   0.416   1.640   2.800 -1.1948  2.8845 -1.5658
 8741SOL    HW237857   0.565   1.669   2.789 -0.0999  0.8757 -0.1242
 8742SOL     OW37858   0.839   3.647   9.708 -0.0012  0.0855 -0.3071
 8742SOL    HW137859   0.914   3.687   9.752 -1.3557  2.2436  0.0131
 8742SOL    HW237860   0.853   3.553   9.724 -3.0606 -0.2098  0.6166
 8743SOL     OW37861   3.064   0.516   8.386 -0.6717  0.1821 -0.4318
 8743SOL    HW137862   3.023   0.581   8.329  2.4712  1.5930 -1.1090
 8743SOL    HW237863   2.995   0.453   8.407 -1.8499  1.1097 -1.5504
 8744SOL     OW37864   2.341   4.387   9.303  0.3994  0.0342 -0.1115
 8744SOL    HW137865   2.277   4.323   9.272  0.8095 -1.1548  1.4523
 8744SOL    HW237866   2.353   4.361   9.395 -2.3917  1.0551  0.5283
 8745SOL     OW37867   2.740   0.914  13.528  0.2769  0.7193  0.0730
 8745SOL    HW137868   2.791   0.982  13.573 -1.8866  2.5531 -0.2721
 8745SOL    HW237869   2.767   0.923  13.437 -1.0223 -1.0968 -0.4938
 8746SOL     OW37870   3.219   1.021   2.524 -0.2736 -0.3952 -0.4053
 8746SOL    HW137871   3.150   0.964   2.490 -0.3407 -0.0669 -0.8172
 8746SOL    HW237872   3.180   1.042   2.609 -0.6138 -0.6706 -0.4968
 8747SOL     OW37873   4.644   2.499   8.058 -0.0925  0.4959 -0.0016
 8747SOL    HW137874   4.727   2.510   8.105  1.2499 -0.2856 -2.1928
 8747SOL    HW237875   4.578   2.505   8.126 -0.3570 -1.8551 -0.0433
 8748SOL     OW37876   0.162   3.744  15.298 -0.0578 -0.3288  0.2335
 8748SOL    HW137877   0.201   3.684  15.234 -0.3734 -1.9354  1.5349
 8748SOL    HW237878   0.178   3.700  15.382  0.5911  1.2242  0.9424
 8749SOL     OW37879   0.064   4.176   2.728  0.2476 -0.0972  0.1139
 8749SOL    HW137880   0.056   4.089   2.768 -2.0083  0.3721  0.6985
 8749SOL    HW237881   0.083   4.236   2.801 -2.3228  0.5093  0.2851
 8750SOL     OW37882   4.128   1.089   3.517  0.0919  0.5439 -0.1807
 8750SOL    HW137883   4.089   1.013   3.560  1.8583 -0.7503 -0.8728
 8750SOL    HW237884   4.208   1.055   3.477 -1.0514 -1.6128 -0.6336
 8751SOL     OW37885   3.221   4.696   3.786  0.4405  0.3019 -0.0498
 8751SOL    HW137886   3.129   4.667   3.786  0.2604  0.8761 -0.8928
 8751SOL    HW237887   3.225   0.047   3.758  0.3589  0.6923  1.2389
 8752SOL     OW37888   3.875   4.542   1.696  0.1405  0.3068 -0.1127
 8752SOL    HW137889   3.957   4.555   1.743  0.0097  0.5090  0.0596
 8752SOL    HW237890   3.846   4.634   1.694  0.8047  0.5295  0.4865
 8753SOL     OW37891   3.112   3.156  14.999  0.7304  0.6038 -0.1585
 8753SOL    HW137892   3.158   3.097  14.939  0.4338 -0.1040  0.3114
 8753SOL    HW237893   3.031   3.110  15.019  0.2889  1.8958  1.0630
 8754SOL     OW37894   4.447   2.879   2.044 -0.1866 -0.2267  0.5201
 8754SOL    HW137895   4.375   2.883   2.107  1.1448 -0.7605  2.0938
 8754SOL    HW237896   4.404   2.920   1.969  1.5885 -0.0861 -0.4090
 8755SOL     OW37897   4.424   3.500   3.492 -0.5825 -0.0511  0.0587
 8755SOL    HW137898   4.390   3.412   3.502  0.5804 -0.8159 -2.5064
 8755SOL    HW237899   4.358   3.549   3.540 -2.2051 -1.2285 -1.0080
 8756SOL     OW37900   2.342   2.114   9.816 -0.5907 -0.2934 -0.1206
 8756SOL    HW137901   2.364   2.050   9.884 -0.1980 -0.0021  0.0283
 8756SOL    HW237902   2.252   2.085   9.800 -1.4328  1.9998  0.4991
 8757SOL     OW37903   1.339   3.473   2.465  0.3376 -0.5717  0.4704
 8757SOL    HW137904   1.344   3.379   2.483 -0.7627 -0.9154 -1.0210
 8757SOL    HW237905   1.387   3.513   2.538 -1.0006 -2.0437  2.1574
 8758SOL     OW37906   3.066   0.714  15.345 -0.4589  0.1899 -0.2218
 8758SOL    HW137907   2.972   0.696  15.337 -0.1969 -1.3503  0.0813
 8758SOL    HW237908   3.104   0.703  15.258 -0.9306  0.7573 -0.4969
 8759SOL     OW37909   3.563   2.406   6.066 -0.5138  0.4126  0.2778
 8759SOL    HW137910   3.526   2.426   5.980 -2.0051 -0.5551  0.6850
 8759SOL    HW237911   3.481   2.407   6.117 -1.2299 -0.3845 -0.8513
 8760SOL     OW37912   1.427   2.033   2.549  0.7773  0.4011 -0.0613
 8760SOL    HW137913   1.356   2.020   2.611 -0.0330  1.1561 -0.8233
 8760SOL    HW237914   1.397   2.045   2.458 -1.4594 -2.1433  0.3423
 8761SOL     OW37915   4.178   1.141   6.129 -0.3401  0.2396  0.0588
 8761SOL    HW137916   4.228   1.212   6.169 -0.9946  0.5863  0.2627
 8761SOL    HW237917   4.198   1.066   6.185  0.9266 -0.7859 -1.7727
 8762SOL     OW37918   4.089   2.371  12.035  0.1374 -0.2704  0.1305
 8762SOL    HW137919   4.074   2.375  11.941 -0.4178 -0.3044  0.2217
 8762SOL    HW237920   4.051   2.455  12.060  1.6656  0.0779  1.3451
 8763SOL     OW37921   2.703   0.191   3.970 -0.2189 -0.3508  0.1111
 8763SOL    HW137922   2.635   0.148   3.917  1.8157  0.6575 -3.2788
 8763SOL    HW237923   2.785   0.170   3.926 -1.1240 -0.8552 -1.3453
 8764SOL     OW37924   3.672   0.202   8.438  0.3098  0.2824  0.2207
 8764SOL    HW137925   3.678   0.276   8.377 -0.0732  0.0763 -0.0658
 8764SOL    HW237926   3.642   0.248   8.517 -1.9820  0.8774 -1.0002
 8765SOL     OW37927   3.669   1.092   7.681 -0.6201  0.2603 -0.0252
 8765SOL    HW137928   3.681   1.144   7.602  0.3550  0.4717  0.2548
 8765SOL    HW237929   3.618   1.021   7.642  0.7791 -1.0873  0.5987
 8766SOL     OW37930   4.462   2.495   3.094 -0.6957 -0.3821 -0.3254
 8766SOL    HW137931   4.379   2.538   3.071 -0.2273  0.1673 -1.0047
 8766SOL    HW237932   4.439   2.418   3.043  0.1179  0.4757 -1.9966
 8767SOL     OW37933   3.639   1.399  17.594 -0.3062 -0.3555  0.0629
 8767SOL    HW137934   3.684   1.465  17.542  0.1232 -0.5124  0.2360
 8767SOL    HW237935   3.548   1.429  17.587 -0.9006 -2.4479 -0.9985
 8768SOL     OW37936   3.091   0.929   7.110  0.0646  0.2900  0.1238
 8768SOL    HW137937   3.081   0.834   7.112  0.6350  0.1641 -2.8850
 8768SOL    HW237938   3.127   0.939   7.199 -1.3161  0.2978  0.6747
 8769SOL     OW37939   1.170   1.372   5.983 -0.2306 -0.6050 -0.7936
 8769SOL    HW137940   1.107   1.432   5.942  0.1920  0.3361 -0.0563
 8769SOL    HW237941   1.247   1.385   5.928  0.3487  0.8649  0.3742
 8770SOL     OW37942   4.195   1.020  13.144  0.4505 -0.2852  0.4757
 8770SOL    HW137943   4.271   0.986  13.097 -0.6481 -1.5480 -0.3919
 8770SOL    HW237944   4.185   0.960  13.218 -0.0852  0.8758  1.3589
 8771SOL     OW37945   0.711   3.100   4.734  0.3519 -0.2030  0.1499
 8771SOL    HW137946   0.641   3.133   4.678 -0.3584 -2.4801 -0.3094
 8771SOL    HW237947   0.766   3.178   4.747 -2.8219  2.0080  0.3080
 8772SOL     OW37948   4.509   3.642   7.087  0.9744  0.6106 -0.3203
 8772SOL    HW137949   4.460   3.594   7.153  1.0918  0.5886 -0.2484
 8772SOL    HW237950   4.512   3.724   7.136  1.0558 -0.7201  1.8957
 8773SOL     OW37951   2.004   0.493   3.139  0.1005 -0.3466 -0.3731
 8773SOL    HW137952   2.014   0.586   3.159  0.9655 -0.6770  0.7242
 8773SOL    HW237953   1.919   0.467   3.176  0.0191  0.6232  0.1202
 8774SOL     OW37954   0.766   0.271  16.124  0.1651 -0.1755 -0.2930
 8774SOL    HW137955   0.740   0.269  16.032  0.4639  0.3750 -0.3881
 8774SOL    HW237956   0.841   0.212  16.130 -1.1077 -1.7764 -0.0224
 8775SOL     OW37957   0.048   0.125   8.330 -0.2028  0.2707 -0.2482
 8775SOL    HW137958   4.705   0.121   8.375  0.2514 -1.5003  0.4167
 8775SOL    HW237959   0.043   0.043   8.282 -2.6421 -0.1480  0.7607
 8776SOL     OW37960   2.974   0.313   9.798  0.1952  0.1927 -0.1476
 8776SOL    HW137961   2.954   0.245   9.862  2.1275 -0.4907 -0.2793
 8776SOL    HW237962   3.056   0.278   9.763  0.0922 -0.2472  0.0581
 8777SOL     OW37963   2.089   1.027   4.948 -0.2830 -0.8575 -0.3537
 8777SOL    HW137964   2.057   0.939   4.970  1.6360 -1.0757  1.6174
 8777SOL    HW237965   2.057   1.040   4.859 -1.3839 -2.4281 -0.1937
 8778SOL     OW37966   1.243   3.904  14.875  0.0703  0.2606  0.0545
 8778SOL    HW137967   1.201   3.882  14.792  1.3554 -2.6038  0.1469
 8778SOL    HW237968   1.168   3.950  14.913  0.8991  2.2185 -0.6955
 8779SOL     OW37969   3.661   1.179   4.585 -0.2439  0.3916  0.2020
 8779SOL    HW137970   3.610   1.209   4.660 -2.5092  2.1249 -2.0256
 8779SOL    HW237971   3.640   1.241   4.514 -2.2386  0.7469  1.0999
 8780SOL     OW37972   4.478   1.419   8.615 -1.1580  0.0244 -0.1911
 8780SOL    HW137973   4.552   1.410   8.554 -2.0512  0.7012 -1.3661
 8780SOL    HW237974   4.430   1.338   8.601 -0.1626 -0.8194  1.3460
 8781SOL     OW37975   3.037   0.841   1.622 -0.3628  0.2797 -0.8734
 8781SOL    HW137976   3.122   0.844   1.579  0.3943  1.3744  0.7116
 8781SOL    HW237977   3.009   0.750   1.634 -1.9636  0.7301 -1.0998
 8782SOL     OW37978   0.210   1.926   5.957  0.0231 -0.6311 -0.7842
 8782SOL    HW137979   0.171   1.939   5.871 -1.0467 -1.3156 -0.3945
 8782SOL    HW237980   0.139   1.870   5.987 -0.2420 -0.1236 -0.4611
 8783SOL     OW37981   3.958   4.175   6.992  0.4794  0.2408  0.1835
 8783SOL    HW137982   3.939   4.090   7.031  0.5807 -0.1069 -0.5154
 8783SOL    HW237983   4.041   4.195   7.035  0.1756  0.2891  0.7512
 8784SOL     OW37984   1.424   4.721   0.224 -1.0227 -0.1887  0.6286
 8784SOL    HW137985   1.404   4.686   0.137 -2.2383  3.1786 -0.4930
 8784SOL    HW237986   1.335   4.737   0.255 -1.2805 -2.6292  1.0973
 8785SOL     OW37987   3.121   3.988  13.052 -0.6983 -0.0588  0.6075
 8785SOL    HW137988   3.200   4.031  13.018  0.2058  0.4756  3.4174
 8785SOL    HW237989   3.147   3.932  13.125  2.7763  1.8488  0.8347
 8786SOL     OW37990   2.186   2.267   3.037 -0.9109  0.3075 -0.3727
 8786SOL    HW137991   2.163   2.333   3.102 -2.9002 -0.9128  0.1750
 8786SOL    HW237992   2.244   2.313   2.977 -0.8769 -0.3443 -0.8379
 8787SOL     OW37993   1.172   4.386   3.418  0.5138 -0.4737  0.4929
 8787SOL    HW137994   1.122   4.354   3.343  2.9793  0.1829 -1.3888
 8787SOL    HW237995   1.166   4.316   3.483  4.7201 -0.2387  1.1382
 8788SOL     OW37996   1.617   4.295  15.858  0.4060  0.2527  0.1590
 8788SOL    HW137997   1.618   4.288  15.763 -1.9881 -1.2300  0.2364
 8788SOL    HW237998   1.710   4.314  15.869  0.0855  0.9131  1.8807
 8789SOL     OW37999   0.839   0.726   1.704  0.4760 -0.2833  0.1489
 8789SOL    HW138000   0.924   0.685   1.687  0.8940  0.4459  0.4941
 8789SOL    HW238001   0.783   0.651   1.686  0.4107  0.1832 -1.5924
 8790SOL     OW38002   2.750   0.695  10.468 -0.1596  0.3245  0.1832
 8790SOL    HW138003   2.667   0.735  10.440  0.9191  2.6295  0.2873
 8790SOL    HW238004   2.823   0.729  10.416  2.1484 -2.7829  1.4380
 8791SOL     OW38005   1.193   1.503   1.830  0.6132 -0.2059  0.0447
 8791SOL    HW138006   1.192   1.427   1.888  1.3583  1.1611  1.8847
 8791SOL    HW238007   1.190   1.579   1.889  0.0628  2.3635 -3.2834
 8792SOL     OW38008   2.485   1.024   5.569 -0.4434 -0.1852  0.0217
 8792SOL    HW138009   2.442   1.037   5.485  0.4532  0.4353 -0.3431
 8792SOL    HW238010   2.513   1.113   5.590 -1.4172  0.2443 -0.5049
 8793SOL     OW38011   2.069   2.356   5.771 -0.4197  0.5443 -0.1843
 8793SOL    HW138012   2.020   2.329   5.694  0.4516  2.6926 -1.4975
 8793SOL    HW238013   2.115   2.430   5.731  2.2207 -0.2979  1.2958
 8794SOL     OW38014   1.550   1.675   9.706  0.4607  0.3793 -0.1318
 8794SOL    HW138015   1.542   1.692   9.800 -0.7391 -1.3718  0.0812
 8794SOL    HW238016   1.547   1.760   9.663  0.4541  0.4671  0.0428
 8795SOL     OW38017   4.369   4.260   7.519  0.4173 -0.0654 -0.4603
 8795SOL    HW138018   4.293   4.259   7.461 -0.0563  0.3728  0.1657
 8795SOL    HW238019   4.333   4.304   7.596 -3.3055  2.7136 -3.7918
 8796SOL     OW38020   2.744   1.742   2.497  0.5318 -0.5037 -0.2675
 8796SOL    HW138021   2.732   1.780   2.584  2.0656 -0.3670 -0.1073
 8796SOL    HW238022   2.653   1.738   2.470  0.8468 -0.3279 -1.3595
 8797SOL     OW38023   3.750   3.245   2.140 -0.7987  0.4749 -0.1164
 8797SOL    HW138024   3.821   3.298   2.177 -0.7379  0.8541 -0.7891
 8797SOL    HW238025   3.788   3.218   2.057  0.3745 -2.5952  1.4075
 8798SOL     OW38026   2.994   0.123  10.031  0.7095  0.1927  0.3397
 8798SOL    HW138027   3.011   0.071   9.952 -1.0155  1.2418 -0.7300
 8798SOL    HW238028   2.940   0.067  10.087 -0.2226  0.6742 -0.0856
 8799SOL     OW38029   2.484   1.639  10.353  0.3144 -0.2761 -0.2010
 8799SOL    HW138030   2.514   1.563  10.403 -0.8809 -1.3826 -1.1705
 8799SOL    HW238031   2.564   1.666  10.308  1.8332 -1.7547  1.6341
 8800SOL     OW38032   3.725   4.413   8.053  0.5539  0.5983 -0.1827
 8800SOL    HW138033   3.663   4.342   8.040  1.5129 -0.0366 -1.3820
 8800SOL    HW238034   3.802   4.382   8.006  0.3178 -0.1943 -0.0378
 8801SOL     OW38035   1.053   1.011   3.557  0.3989 -0.3700 -0.5143
 8801SOL    HW138036   1.020   1.092   3.520 -2.5840 -2.0096 -1.4280
 8801SOL    HW238037   0.993   0.945   3.523 -0.1258  0.1647 -0.6256
 8802SOL     OW38038   1.233   2.615   7.121  0.5882  0.6184  0.1045
 8802SOL    HW138039   1.205   2.642   7.034 -0.1776  1.3544  0.5709
 8802SOL    HW238040   1.235   2.521   7.106 -0.8530  0.3548  1.5172
 8803SOL     OW38041   4.331   0.814  11.437 -0.3983 -0.0597  0.2175
 8803SOL    HW138042   4.308   0.893  11.388  0.3178 -1.3817 -2.2370
 8803SOL    HW238043   4.408   0.786  11.387 -0.3193  1.9536 -0.7994
 8804SOL     OW38044   3.608   3.960   2.089 -0.2001 -0.2050  0.6069
 8804SOL    HW138045   3.630   3.952   1.996 -0.1748  1.0901  0.5066
 8804SOL    HW238046   3.633   4.050   2.109  1.8399 -0.2398 -1.7114
 8805SOL     OW38047   2.356   0.824   1.476 -0.1380  0.1367 -0.0749
 8805SOL    HW138048   2.450   0.832   1.492 -0.4805  3.4410  0.1958
 8805SOL    HW238049   2.353   0.743   1.424 -0.4275  0.8686 -1.1965
 8806SOL     OW38050   3.276   0.264   4.803 -0.0483 -0.3136  0.0518
 8806SOL    HW138051   3.252   0.219   4.884 -1.2599  1.7715  0.8532
 8806SOL    HW238052   3.371   0.271   4.807 -0.3236  2.3807  2.0332
 8807SOL     OW38053   0.031   2.542   5.092  0.1560 -0.0876 -0.0922
 8807SOL    HW138054   4.689   2.590   5.086  1.3398  2.1555  1.7386
 8807SOL    HW238055   0.103   2.600   5.113 -1.0549  0.7650  1.6866
 8808SOL     OW38056   1.225   1.263   1.963  0.0873  0.0087 -0.3745
 8808SOL    HW138057   1.172   1.187   1.987 -0.7002  0.6384 -0.1151
 8808SOL    HW238058   1.300   1.232   1.912  1.4414  1.0100  0.9857
 8809SOL     OW38059   1.234   0.966  12.847 -0.1430  0.0409  0.2617
 8809SOL    HW138060   1.206   0.881  12.881 -1.3733 -0.5880 -2.2949
 8809SOL    HW238061   1.230   1.011  12.931  0.4518 -2.1936  1.4779
 8810SOL     OW38062   0.364   3.707   3.229  0.5627  0.6360 -0.0822
 8810SOL    HW138063   0.452   3.743   3.243  0.3062  1.5800 -0.9145
 8810SOL    HW238064   0.367   3.627   3.282 -1.4189 -1.1953 -2.7946
 8811SOL     OW38065   1.217   2.724   4.501 -0.0452 -0.2544 -0.4162
 8811SOL    HW138066   1.278   2.651   4.515 -0.4820 -0.9085 -1.8158
 8811SOL    HW238067   1.136   2.677   4.478 -1.0658  0.4668  1.6796
 8812SOL     OW38068   2.394   2.830  13.488  0.0552 -0.5561  0.1736
 8812SOL    HW138069   2.466   2.771  13.467  0.4641  0.3841 -1.0657
 8812SOL    HW238070   2.362   2.847  13.399 -0.9947 -0.3625  0.5917
 8813SOL     OW38071   2.059   3.146   8.758 -0.1247  0.1807  0.0557
 8813SOL    HW138072   2.097   3.218   8.707 -0.7715 -1.0811 -2.2127
 8813SOL    HW238073   1.989   3.187   8.811 -0.6519 -1.0116  0.2748
 8814SOL     OW38074   2.248   1.788   6.159  0.5553  0.1450  0.6888
 8814SOL    HW138075   2.316   1.838   6.114 -1.0105  0.8109 -0.9018
 8814SOL    HW238076   2.242   1.705   6.113  0.2081  0.3303  0.4058
 8815SOL     OW38077   2.120   1.801  15.743 -0.1058 -0.2154  0.8320
 8815SOL    HW138078   2.156   1.729  15.691  1.1262 -0.4390  1.9829
 8815SOL    HW238079   2.031   1.803  15.707 -0.1794 -1.8193  0.8953
 8816SOL     OW38080   3.557   3.883   6.397  0.0272 -0.2372 -0.3129
 8816SOL    HW138081   3.520   3.809   6.445 -0.4164  0.9832  1.2208
 8816SOL    HW238082   3.540   3.959   6.453 -1.0768  0.4315 -1.5433
 8817SOL     OW38083   1.371   1.933  17.549  0.0247  0.4601 -0.3091
 8817SOL    HW138084   1.419   1.851  17.559 -0.4300 -0.0099 -2.0177
 8817SOL    HW238085   1.412   1.965  17.469 -0.0893 -0.8638 -0.8942
 8818SOL     OW38086   0.495   0.750   4.511  0.2529  0.0377 -0.1986
 8818SOL    HW138087   0.588   0.772   4.514  0.2790  0.1880 -2.1023
 8818SOL    HW238088   0.508   0.677   4.451 -2.1037 -0.8858  0.4215
 8819SOL     OW38089   2.775   0.699   5.309 -0.1154  0.1980 -0.9501
 8819SOL    HW138090   2.787   0.756   5.385  1.5808 -1.9735  0.3932
 8819SOL    HW238091   2.859   0.708   5.264 -0.1516 -1.9227 -1.4500
 8820SOL     OW38092   3.821   1.591   4.110 -0.1003 -0.0350  0.5094
 8820SOL    HW138093   3.750   1.568   4.050  0.9305 -0.7909 -0.4209
 8820SOL    HW238094   3.848   1.501   4.126 -0.0330 -0.0856  0.1137
 8821SOL     OW38095   3.475   3.364   8.080  0.0963 -0.4545  0.2358
 8821SOL    HW138096   3.458   3.404   7.994  2.3022 -0.8821 -0.3889
 8821SOL    HW238097   3.387   3.334   8.103 -1.1572  2.5138 -0.5908
 8822SOL     OW38098   4.627   2.848   2.722 -0.3469  0.1146  0.1070
 8822SOL    HW138099   4.651   2.863   2.631 -2.0301 -1.3968 -0.5824
 8822SOL    HW238100   4.586   2.762   2.720 -0.7735  0.2671  1.8392
 8823SOL     OW38101   1.843   3.121   9.961 -0.5803  0.2381  0.0884
 8823SOL    HW138102   1.831   3.180   9.887 -4.3030 -1.6554 -0.8040
 8823SOL    HW238103   1.771   3.061   9.940  1.3016 -2.3583  1.0622
 8824SOL     OW38104   2.681   0.699   4.258 -0.0997 -0.2675 -0.2598
 8824SOL    HW138105   2.660   0.747   4.178 -0.5909 -0.2518 -0.1174
 8824SOL    HW238106   2.594   0.678   4.289 -0.9111  0.0284 -2.2936
 8825SOL     OW38107   0.089   3.662   9.205  0.0582  0.2955  0.1783
 8825SOL    HW138108   4.740   3.694   9.199  1.3011  3.8271  0.2943
 8825SOL    HW238109   0.107   3.650   9.298  2.0776  1.6990 -0.0330
 8826SOL     OW38110   3.138   1.649   9.577  0.1580  0.4575 -0.2951
 8826SOL    HW138111   3.166   1.635   9.668 -2.4883  1.7614  0.7126
 8826SOL    HW238112   3.044   1.654   9.590  0.2541 -0.3709  0.7941
 8827SOL     OW38113   1.563   3.283   7.573  0.6834 -0.0275 -0.0479
 8827SOL    HW138114   1.646   3.312   7.534  1.0942 -1.2770 -0.1191
 8827SOL    HW238115   1.554   3.209   7.513  2.8863  0.3374 -0.8261
 8828SOL     OW38116   0.872   0.740   6.612  0.3765  0.2653  0.1396
 8828SOL    HW138117   0.860   0.645   6.618  1.7520  0.2007  1.7798
 8828SOL    HW238118   0.850   0.740   6.519  0.9300 -0.9100  0.0022
 8829SOL     OW38119   4.310   1.490   6.562  0.5140 -0.0269 -0.2915
 8829SOL    HW138120   4.253   1.434   6.614 -0.0141  1.7232  1.0061
 8829SOL    HW238121   4.249   1.561   6.542 -0.8831 -0.5273  2.2828
 8830SOL     OW38122   2.517   4.400  16.102 -0.4694  0.1877  0.9236
 8830SOL    HW138123   2.422   4.385  16.105 -0.5165  0.6019  1.4009
 8830SOL    HW238124   2.538   4.462  16.171 -3.0054  1.7558  0.3046
 8831SOL     OW38125   2.250   1.222   3.402  0.0575 -0.7368 -0.1464
 8831SOL    HW138126   2.330   1.170   3.391 -0.2517 -1.2643  0.0680
 8831SOL    HW238127   2.260   1.258   3.490  3.2977 -1.0141 -0.4192
 8832SOL     OW38128   3.497   3.917  13.095  0.6940  0.0751  0.1339
 8832SOL    HW138129   3.454   3.966  13.025  0.1509  1.2541  1.2923
 8832SOL    HW238130   3.480   3.974  13.170  1.5793  0.9848 -0.3495
 8833SOL     OW38131   4.488   4.308   3.329  0.7244 -0.3612 -0.3264
 8833SOL    HW138132   4.534   4.392   3.337 -0.1387 -0.0737  1.5647
 8833SOL    HW238133   4.474   4.295   3.235 -2.2921  0.1782  0.0296
 8834SOL     OW38134   1.368   0.838   6.233  0.2755  0.0516  0.6565
 8834SOL    HW138135   1.445   0.801   6.276  0.6404  1.5238  1.2778
 8834SOL    HW238136   1.352   0.918   6.283 -3.2692  0.5771 -1.3335
 8835SOL     OW38137   2.616   0.858   5.085 -0.1510 -0.0635 -0.0898
 8835SOL    HW138138   2.665   0.846   5.166  0.8056  0.5851 -0.5815
 8835SOL    HW238139   2.668   0.808   5.023 -1.5486  0.0032 -1.3383
 8836SOL     OW38140   1.982   0.877   8.649 -0.0287 -0.5898  0.2526
 8836SOL    HW138141   2.067   0.834   8.641 -0.3169 -1.0327 -0.4309
 8836SOL    HW238142   2.002   0.960   8.605 -1.2704 -0.7736 -0.6671
 8837SOL     OW38143   3.079   0.260   5.472  0.0406 -0.3570 -0.7272
 8837SOL    HW138144   2.999   0.309   5.450  0.6293  0.4785 -0.9913
 8837SOL    HW238145   3.063   0.178   5.425  2.0100 -0.9460 -0.3638
 8838SOL     OW38146   2.565   1.316   5.545 -0.2572 -0.1164 -0.4259
 8838SOL    HW138147   2.613   1.367   5.480  0.5790  0.9300  1.0204
 8838SOL    HW238148   2.616   1.341   5.622  0.8055  1.3950 -1.6098
 8839SOL     OW38149   3.018   1.860  15.237 -0.0154  0.2638 -0.2141
 8839SOL    HW138150   3.061   1.800  15.176  1.1334  2.7001 -1.8356
 8839SOL    HW238151   3.001   1.937  15.181 -0.9746 -0.2377 -0.6116
 8840SOL     OW38152   2.279   3.099  13.480  0.3846 -0.3304 -0.5223
 8840SOL    HW138153   2.223   3.087  13.557  2.1307  0.6027  0.8920
 8840SOL    HW238154   2.313   3.012  13.459 -1.8520 -0.7757 -2.3370
 8841SOL     OW38155   0.206   3.233   6.551 -0.1359 -1.0526  0.4272
 8841SOL    HW138156   0.298   3.204   6.549 -0.5367 -2.3097  0.2185
 8841SOL    HW238157   0.212   3.310   6.494  2.1222 -1.9302 -0.5255
 8842SOL     OW38158   0.601   2.035  13.630  0.7671 -0.1558  0.5781
 8842SOL    HW138159   0.690   2.003  13.644  0.4633 -1.2476  0.0152
 8842SOL    HW238160   0.618   2.122  13.667 -2.2312  0.1338  1.2502
 8843SOL     OW38161   2.684   2.776   6.246  0.2304  0.0613 -0.0629
 8843SOL    HW138162   2.603   2.762   6.196 -0.3737 -1.1097  1.2400
 8843SOL    HW238163   2.699   2.870   6.244  1.4597 -0.2225 -3.6547
 8844SOL     OW38164   3.880   3.990   2.731 -0.4981 -0.1321  0.5648
 8844SOL    HW138165   3.813   3.934   2.694 -1.2886 -0.1009  1.9541
 8844SOL    HW238166   3.904   4.042   2.654  1.0580  1.1790  1.9151
 8845SOL     OW38167   1.830   0.666   5.357  0.0233  0.5171 -0.4032
 8845SOL    HW138168   1.914   0.674   5.312  1.2599  0.7528  1.9315
 8845SOL    HW238169   1.857   0.678   5.448  0.9575  0.7019 -0.7049
 8846SOL     OW38170   2.213   2.927   5.232 -0.1825 -0.0669 -0.1707
 8846SOL    HW138171   2.249   3.000   5.282  0.7451  0.3816 -1.4976
 8846SOL    HW238172   2.165   2.973   5.164  3.4084  1.5230 -1.6321
 8847SOL     OW38173   4.278   4.637   3.705  0.0319  0.5078 -0.1360
 8847SOL    HW138174   4.227   4.688   3.643 -1.2750 -1.3948 -0.6201
 8847SOL    HW238175   4.218   4.566   3.728  1.0366 -0.4936 -0.5511
 8848SOL     OW38176   0.884   0.188   2.187  0.1157  0.8298 -0.2284
 8848SOL    HW138177   0.950   0.215   2.250 -2.1120  0.8671  2.1233
 8848SOL    HW238178   0.811   0.248   2.205 -2.5249 -1.3811 -3.5056
 8849SOL     OW38179   0.862   1.598   1.822  0.0711  0.0771  0.0107
 8849SOL    HW138180   0.916   1.656   1.875  0.4154 -1.1504  0.9976
 8849SOL    HW238181   0.845   1.524   1.881 -1.5132 -0.8872 -1.6529
 8850SOL     OW38182   0.595   3.734   1.577 -0.6686 -0.0751 -0.3215
 8850SOL    HW138183   0.677   3.688   1.598 -0.6057 -0.0088 -0.4172
 8850SOL    HW238184   0.566   3.683   1.501 -2.6694  1.1033 -0.3240
 8851SOL     OW38185   3.691   2.451   9.290 -0.2462 -0.3068 -0.3207
 8851SOL    HW138186   3.646   2.520   9.242  1.4997  1.0901  0.0501
 8851SOL    HW238187   3.718   2.509   9.361  1.4347 -0.0391 -1.1816
 8852SOL     OW38188   1.678   1.073   3.345  0.1711  0.6157  0.7476
 8852SOL    HW138189   1.677   1.000   3.408  0.6712 -0.0352 -0.0009
 8852SOL    HW238190   1.770   1.092   3.361  0.5978 -0.9131  0.1361
 8853SOL     OW38191   2.943   0.179   4.731  0.2809 -0.3128  0.2370
 8853SOL    HW138192   2.941   0.086   4.751  1.9751 -0.1949  0.9012
 8853SOL    HW238193   2.853   0.188   4.697  0.6708  1.5532 -0.3022
 8854SOL     OW38194   1.362   3.950   7.696  0.2523  0.0422  0.3162
 8854SOL    HW138195   1.338   3.904   7.616  1.9553 -1.3246  0.5817
 8854SOL    HW238196   1.344   4.042   7.679 -1.6452 -0.6640 -1.4387
 8855SOL     OW38197   1.064   0.513  10.241  0.3971 -0.9250 -0.1910
 8855SOL    HW138198   0.988   0.555  10.281  4.0099  3.6972  1.8129
 8855SOL    HW238199   1.086   0.572  10.169  0.0552  0.9297  1.2195
 8856SOL     OW38200   3.108   2.324   1.436  0.0982  0.2334 -0.5558
 8856SOL    HW138201   3.073   2.257   1.377 -0.3331  0.9308 -1.0869
 8856SOL    HW238202   3.032   2.350   1.488  1.6838 -1.1587  2.4687
 8857SOL     OW38203   1.555   0.448   8.895 -0.4765 -0.4191 -0.5819
 8857SOL    HW138204   1.640   0.405   8.903  1.2364  3.6946  3.0883
 8857SOL    HW238205   1.562   0.476   8.803 -1.9849  0.8445 -0.3184
 8858SOL     OW38206   0.321   2.705  14.738 -0.3545  0.2030 -0.3164
 8858SOL    HW138207   0.361   2.620  14.718  1.1820  0.4991  1.4379
 8858SOL    HW238208   0.227   2.687  14.736 -0.1918 -0.7027  0.2834
 8859SOL     OW38209   1.402   4.661  10.657 -0.0362  0.7908  0.1775
 8859SOL    HW138210   1.316   4.619  10.646 -0.1589  1.5547 -1.8261
 8859SOL    HW238211   1.445   4.579  10.681 -2.4385 -0.1298  1.4127
 8860SOL     OW38212   1.260   0.706   3.028  0.2266 -0.6177  0.3084
 8860SOL    HW138213   1.349   0.685   2.999 -0.0169 -0.3078 -0.6623
 8860SOL    HW238214   1.280   0.799   3.039  0.8539 -0.7837  0.6116
 8861SOL     OW38215   4.397   0.136   1.679 -0.0627  0.2893 -0.4731
 8861SOL    HW138216   4.425   0.109   1.766 -0.7823  1.8535  0.2468
 8861SOL    HW238217   4.346   0.065   1.641  1.9367 -1.4993  0.1943
 8862SOL     OW38218   3.362   0.888   2.981 -0.5799  0.7129  0.2353
 8862SOL    HW138219   3.305   0.813   2.996 -0.8218  0.8876  0.1731
 8862SOL    HW238220   3.444   0.855   3.019  0.0209  0.9757 -0.8257
 8863SOL     OW38221   3.059   3.791   1.181 -0.0795 -0.0084 -0.8891
 8863SOL    HW138222   2.971   3.794   1.143 -0.2353  0.9244 -0.4640
 8863SOL    HW238223   3.107   3.737   1.119  3.4721  0.7952  1.1616
 8864SOL     OW38224   1.666   3.164   1.689 -0.5925  0.3724  0.4239
 8864SOL    HW138225   1.612   3.103   1.640 -0.6280  0.1981  0.6784
 8864SOL    HW238226   1.734   3.186   1.624  0.4661  0.0366  1.4069
 8865SOL     OW38227   1.986   2.084   5.950 -0.0226  0.2244  0.1719
 8865SOL    HW138228   2.002   2.092   6.044  1.0744 -1.9523  0.1531
 8865SOL    HW238229   1.948   2.169   5.928  0.4026  1.1459  2.9933
 8866SOL     OW38230   0.945   1.484  11.815  0.1044  0.2213 -0.3584
 8866SOL    HW138231   1.035   1.465  11.788  0.3062 -0.4584  0.7738
 8866SOL    HW238232   0.902   1.403  11.842 -0.5987  0.6809 -0.1224
 8867SOL     OW38233   2.036   4.391   3.189  0.1515  0.2814  0.0194
 8867SOL    HW138234   2.113   4.404   3.244  1.2228  1.2849 -1.7317
 8867SOL    HW238235   2.060   4.431   3.105  0.5974 -0.9814 -0.4477
 8868SOL     OW38236   4.268   1.419   2.338  0.1210 -0.2444 -0.2835
 8868SOL    HW138237   4.249   1.326   2.351 -1.4708  0.1839  0.4751
 8868SOL    HW238238   4.339   1.440   2.398  1.4125 -0.3331 -1.7954
 8869SOL     OW38239   3.368   1.065   6.517 -0.1629 -0.0028 -0.8573
 8869SOL    HW138240   3.393   1.080   6.608  0.7886 -1.5559 -0.8683
 8869SOL    HW238241   3.276   1.092   6.515 -0.4415 -0.9911 -2.0713
 8870SOL     OW38242   3.541   1.932  14.696 -0.0017 -0.6611 -0.0595
 8870SOL    HW138243   3.514   1.904  14.609  0.8313 -0.7496 -0.2967
 8870SOL    HW238244   3.622   1.881  14.698  0.4361  0.0126 -0.5202
 8871SOL     OW38245   3.771   0.878   6.562  0.3630  0.0661  0.4056
 8871SOL    HW138246   3.822   0.959   6.561  1.4013 -0.5943 -0.2218
 8871SOL    HW238247   3.789   0.839   6.648 -0.2314  0.7850  0.8509
 8872SOL     OW38248   1.855   2.141   8.144 -0.2862  0.0060 -0.2927
 8872SOL    HW138249   1.793   2.118   8.075  1.1383  0.9664 -1.9041
 8872SOL    HW238250   1.933   2.150   8.088 -0.7682  0.2470 -0.9183
 8873SOL     OW38251   2.575   3.195   8.504 -0.2203  0.0218 -0.7927
 8873SOL    HW138252   2.578   3.279   8.550 -0.3412 -0.8955  0.8729
 8873SOL    HW238253   2.655   3.153   8.535 -0.4033  0.0441 -0.2915
 8874SOL     OW38254   3.118   4.292   0.695 -0.0201 -0.1404  0.3691
 8874SOL    HW138255   3.128   4.214   0.640  0.1054  1.1504 -1.4668
 8874SOL    HW238256   3.113   4.353   0.622  2.6260 -0.8424 -0.3932
 8875SOL     OW38257   3.121   3.626   8.540  0.2992  0.2787 -0.4533
 8875SOL    HW138258   3.204   3.675   8.542 -1.4674  3.4025 -3.2249
 8875SOL    HW238259   3.057   3.693   8.566  0.6100  0.6266 -0.5720
 8876SOL     OW38260   1.574   4.192   2.960 -0.0694  0.4886  0.0964
 8876SOL    HW138261   1.512   4.263   2.976 -0.1116  0.9141 -1.8658
 8876SOL    HW238262   1.519   4.116   2.979  0.3245 -0.4416 -2.3881
 8877SOL     OW38263   2.463   0.130   5.693 -0.4089  0.4043 -0.3487
 8877SOL    HW138264   2.488   0.088   5.776  0.4714  2.5116  0.4587
 8877SOL    HW238265   2.460   0.058   5.630  2.5924  0.4060 -0.5167
 8878SOL     OW38266   3.829   4.513   7.180 -0.6128  0.2005 -0.0444
 8878SOL    HW138267   3.919   4.499   7.150  0.1029  0.2176  2.0868
 8878SOL    HW238268   3.809   4.607   7.176  0.1931  0.4442  1.6656
 8879SOL     OW38269   4.292   0.247   4.335 -0.9795  0.1809  0.0221
 8879SOL    HW138270   4.295   0.154   4.356  2.1395  1.0514  3.4010
 8879SOL    HW238271   4.279   0.255   4.241 -1.7250  1.8195  0.2605
 8880SOL     OW38272   3.598   4.134  11.186  0.1254  0.0098  0.2785
 8880SOL    HW138273   3.592   4.048  11.146  2.7502  0.0869 -0.2572
 8880SOL    HW238274   3.619   4.188  11.111  1.4291 -2.4775 -1.1462
 8881SOL     OW38275   4.380   2.362  16.589 -0.3555  0.0309  0.0372
 8881SOL    HW138276   4.315   2.354  16.659 -0.5360 -0.4713 -0.1883
 8881SOL    HW238277   4.458   2.397  16.632 -0.1423 -0.3068 -0.0660
 8882SOL     OW38278   2.337   0.093   9.365 -0.0139 -0.5658 -0.4786
 8882SOL    HW138279   2.355   0.184   9.390  0.4540 -1.2773  1.7617
 8882SOL    HW238280   2.422   0.056   9.388  0.1604  1.1721  1.7582
 8883SOL     OW38281   3.087   2.122  13.960  0.8013  0.0164 -0.3903
 8883SOL    HW138282   3.078   2.064  14.035 -0.7152 -0.6949 -1.1147
 8883SOL    HW238283   3.059   2.064  13.889 -1.3726  0.4606  0.0990
 8884SOL     OW38284   2.391   0.779   2.182 -0.3023 -0.2573 -1.0436
 8884SOL    HW138285   2.352   0.865   2.193  2.1621  0.6205  0.9586
 8884SOL    HW238286   2.440   0.780   2.265 -2.2842  1.9339  0.1080
 8885SOL     OW38287   1.317   1.702  13.331 -0.2548  0.2529 -0.1025
 8885SOL    HW138288   1.412   1.697  13.319 -0.2804 -0.1019 -0.1565
 8885SOL    HW238289   1.320   1.779  13.388  1.0407 -0.3177  0.5937
 8886SOL     OW38290   2.668   3.460   4.271 -0.2291  0.0847  0.0630
 8886SOL    HW138291   2.616   3.396   4.222  2.5442 -2.8670  1.0785
 8886SOL    HW238292   2.679   3.417   4.355  0.4172  2.5471  1.2528
 8887SOL     OW38293   3.794   1.164   5.549 -0.0200 -0.0291 -0.1081
 8887SOL    HW138294   3.723   1.111   5.512  0.2110 -0.4747  0.0839
 8887SOL    HW238295   3.737   1.201   5.616  0.1313 -0.6173  0.3469
 8888SOL     OW38296   2.099   1.434   6.836 -0.0773  0.1643 -0.2641
 8888SOL    HW138297   2.102   1.362   6.773  1.0652 -0.8684  0.9700
 8888SOL    HW238298   2.188   1.464   6.821  0.3381  0.4349  2.7734
 8889SOL     OW38299   2.252   4.719   3.446 -0.0206  0.2184 -0.6851
 8889SOL    HW138300   2.317   4.681   3.505 -0.6903  1.3453  0.8015
 8889SOL    HW238301   2.179   4.706   3.507 -2.1711  1.6566 -2.9587
 8890SOL     OW38302   4.711   4.169  11.730 -0.4891  0.4144 -0.0077
 8890SOL    HW138303   4.667   4.176  11.815 -1.0990  2.3550 -0.4646
 8890SOL    HW238304   4.686   4.250  11.684 -0.9821  0.0717 -0.3445
 8891SOL     OW38305   4.564   0.742   6.247 -0.3239 -0.3318  0.3334
 8891SOL    HW138306   4.586   0.836   6.239  0.8408 -0.6747 -0.6254
 8891SOL    HW238307   4.548   0.716   6.156 -0.4723 -0.0436  0.2752
 8892SOL     OW38308   3.873   1.555   5.166  0.0718 -0.3623 -0.5536
 8892SOL    HW138309   3.936   1.555   5.239 -0.1554 -2.5169 -0.3516
 8892SOL    HW238310   3.941   1.551   5.099 -0.5357 -0.5720 -1.1521
 8893SOL     OW38311   2.924   1.820   3.210 -0.2050  0.0907  0.1231
 8893SOL    HW138312   2.911   1.725   3.220 -0.7021  0.1778  0.2966
 8893SOL    HW238313   3.019   1.818   3.219 -0.0063  3.1689 -1.3484
 8894SOL     OW38314   1.741   4.624   4.757 -0.6486 -0.0762  0.5253
 8894SOL    HW138315   1.816   4.668   4.718 -2.6029  1.2794 -1.7200
 8894SOL    HW238316   1.671   4.682   4.724  0.5263  1.5558  0.8798
 8895SOL     OW38317   1.967   1.741   8.875 -0.6927 -0.7211 -0.4053
 8895SOL    HW138318   2.057   1.761   8.899  0.0398 -1.6522 -2.3690
 8895SOL    HW238319   1.913   1.770   8.949 -0.9605  3.7095 -2.2956
 8896SOL     OW38320   3.111   3.366   6.327 -0.3469 -0.2627  0.0725
 8896SOL    HW138321   3.025   3.404   6.312 -0.9358 -1.4064  0.6027
 8896SOL    HW238322   3.170   3.441   6.322  1.6400 -1.6872  1.8345
 8897SOL     OW38323   1.660   1.621  15.592 -0.0940  0.0958 -0.0915
 8897SOL    HW138324   1.592   1.642  15.656  1.2321  2.1692  0.6659
 8897SOL    HW238325   1.597   1.593  15.525 -0.7994  0.0327  0.5990
 8898SOL     OW38326   1.476   2.803   6.796 -0.0918 -0.4635 -0.0725
 8898SOL    HW138327   1.432   2.887   6.790  1.3235 -0.1086 -5.3523
 8898SOL    HW238328   1.542   2.810   6.728 -0.2309 -1.4252 -0.3131
 8899SOL     OW38329   2.752   1.545  10.974 -0.9147 -0.8051  0.2728
 8899SOL    HW138330   2.790   1.619  10.925 -1.9550 -0.9690 -0.7742
 8899SOL    HW238331   2.749   1.475  10.910  2.3174  0.6118 -1.4233
 8900SOL     OW38332   4.005   3.336   4.490  0.1101 -0.0439  0.1953
 8900SOL    HW138333   3.986   3.333   4.396  1.1840  1.2411 -0.0534
 8900SOL    HW238334   3.989   3.245   4.515  2.1147  0.5998  3.7428
 8901SOL     OW38335   2.286   1.352   0.060  0.2048  0.0724  0.1994
 8901SOL    HW138336   2.328   1.437   0.062  2.4830 -1.0718  0.6184
 8901SOL    HW238337   2.351   1.297   0.016  0.9100  1.2152 -0.1742
 8902SOL     OW38338   2.721   2.261   8.470  0.0004  0.6009  0.0157
 8902SOL    HW138339   2.789   2.328   8.462  1.7885 -1.2124 -0.1056
 8902SOL    HW238340   2.734   2.201   8.396  0.3395 -3.1618  3.1268
 8903SOL     OW38341   1.065   3.768   8.838 -0.1646 -0.7156 -0.0336
 8903SOL    HW138342   1.094   3.776   8.929 -0.5365  0.3825 -0.0189
 8903SOL    HW238343   0.971   3.750   8.849  0.0061 -1.7999 -0.2974
 8904SOL     OW38344   1.470   1.802   9.927 -0.0375  0.3879 -0.1550
 8904SOL    HW138345   1.455   1.830  10.018 -1.9736 -1.8279  0.2031
 8904SOL    HW238346   1.483   1.888   9.887  0.2183  0.7662  0.7325
 8905SOL     OW38347   3.875   1.321   2.448 -0.4927  0.1240  0.2963
 8905SOL    HW138348   3.814   1.291   2.381 -0.5811 -0.0549  0.4569
 8905SOL    HW238349   3.833   1.280   2.524 -2.4156  0.1704 -0.7381
 8906SOL     OW38350   2.402   4.381   6.631 -0.3557 -0.3550  0.6508
 8906SOL    HW138351   2.441   4.465   6.657  1.4016 -0.4727 -1.5985
 8906SOL    HW238352   2.314   4.393   6.667 -0.2058  1.3310  0.4483
 8907SOL     OW38353   0.744   4.013   2.507  0.5569 -0.3442  0.6609
 8907SOL    HW138354   0.674   3.986   2.447 -0.0169 -1.9639  2.0524
 8907SOL    HW238355   0.779   4.087   2.457  0.4852  0.0274  1.1623
 8908SOL     OW38356   2.170   1.453   3.841  0.1404 -0.4307 -0.1129
 8908SOL    HW138357   2.126   1.397   3.904  0.5974  0.9620  1.4396
 8908SOL    HW238358   2.188   1.529   3.897 -0.1317  1.8194 -3.0669
 8909SOL     OW38359   1.396   1.900   4.064  0.2842 -0.4777 -0.0570
 8909SOL    HW138360   1.486   1.893   4.095  0.9024 -0.4054 -1.8150
 8909SOL    HW238361   1.414   1.898   3.970  1.8450 -0.0619  0.2440
 8910SOL     OW38362   0.149   2.791   1.217 -0.1923  0.0930 -0.2616
 8910SOL    HW138363   0.143   2.835   1.302 -0.7334 -2.0072  0.8032
 8910SOL    HW238364   0.220   2.842   1.180  1.8103 -1.8055  0.9458
 8911SOL     OW38365   3.005   4.696   9.804  0.1108 -0.2048  0.2154
 8911SOL    HW138366   2.961   4.611   9.801  1.4070 -0.8794 -0.0200
 8911SOL    HW238367   3.043   4.692   9.716  2.1916 -0.0630  1.0899
 8912SOL     OW38368   2.493   2.032   2.410  0.4284 -0.3847 -0.0229
 8912SOL    HW138369   2.577   2.016   2.453  1.4123  0.8926 -1.5016
 8912SOL    HW238370   2.522   2.000   2.325 -2.3194  1.8731 -1.8142
 8913SOL     OW38371   2.666   1.344   2.191  0.3732  0.5439  0.1342
 8913SOL    HW138372   2.694   1.324   2.102 -2.4929  0.7065 -0.8154
 8913SOL    HW238373   2.746   1.324   2.239  0.3945  0.2286 -0.0285
 8914SOL     OW38374   3.092   3.240   9.531  0.4255  0.1155  0.1472
 8914SOL    HW138375   3.162   3.184   9.496 -1.9423 -1.5580 -1.8804
 8914SOL    HW238376   3.088   3.305   9.460 -0.3412  1.8240  1.7482
 8915SOL     OW38377   1.204   0.341   4.377 -1.0368  0.1323  0.4232
 8915SOL    HW138378   1.150   0.307   4.449 -0.8400 -1.1460 -0.0378
 8915SOL    HW238379   1.252   0.411   4.421  1.3593 -0.8022 -0.7290
 8916SOL     OW38380   3.999   0.647  10.054 -0.1694  0.3892 -0.1313
 8916SOL    HW138381   4.067   0.709  10.028 -1.7734  2.0293 -0.4150
 8916SOL    HW238382   3.939   0.656   9.980 -1.8525 -1.0837  1.0401
 8917SOL     OW38383   2.717   2.741  14.295  0.4210 -0.6204  0.1388
 8917SOL    HW138384   2.664   2.818  14.274  0.7939 -0.3818  0.0571
 8917SOL    HW238385   2.710   2.698  14.210 -1.4555 -2.0045  1.0095
 8918SOL     OW38386   0.540   2.709   7.170  0.5730 -0.2871  0.1775
 8918SOL    HW138387   0.490   2.790   7.158  0.0088 -0.6883 -0.1499
 8918SOL    HW238388   0.621   2.735   7.213  2.3482  1.9550 -4.5486
 8919SOL     OW38389   2.408   3.410   1.404 -0.0120  0.0881 -0.1878
 8919SOL    HW138390   2.406   3.499   1.368  2.3104 -0.1202 -0.8321
 8919SOL    HW238391   2.389   3.422   1.497 -0.2120  2.9293 -0.5851
 8920SOL     OW38392   1.275   2.686   9.092  0.1196 -0.6407  0.1184
 8920SOL    HW138393   1.223   2.606   9.083 -0.4977 -0.1309 -0.8693
 8920SOL    HW238394   1.212   2.751   9.123  0.5742  0.8714 -2.0963
 8921SOL     OW38395   2.440   2.868   8.894  0.3767 -0.4228  0.7036
 8921SOL    HW138396   2.415   2.921   8.819 -2.2491 -0.0884  1.8063
 8921SOL    HW238397   2.400   2.789   8.860 -1.3470  1.0573 -0.7061
 8922SOL     OW38398   0.946   4.444   0.421  0.5331  0.7591  0.0889
 8922SOL    HW138399   1.033   4.469   0.390 -0.3575  2.3565 -1.1528
 8922SOL    HW238400   0.922   4.377   0.357 -0.9778  2.9946 -1.6881
 8923SOL     OW38401   3.894   2.148  16.323  0.0423  0.5579 -0.1908
 8923SOL    HW138402   3.969   2.170  16.268 -1.4191  1.3675 -1.8477
 8923SOL    HW238403   3.865   2.231  16.362 -0.5010 -0.6846  2.0545
 8924SOL     OW38404   4.067   1.644  16.241  0.2438 -0.4441  0.4736
 8924SOL    HW138405   4.093   1.735  16.249  0.3112 -0.4358  0.1426
 8924SOL    HW238406   4.054   1.615  16.332 -1.5465  2.1900  1.0370
 8925SOL     OW38407   0.843   3.487   0.301  0.1022 -0.2315 -0.0531
 8925SOL    HW138408   0.835   3.408   0.247  0.5577 -0.2335 -0.1112
 8925SOL    HW238409   0.938   3.485   0.311 -0.2252 -0.7025  3.0412
 8926SOL     OW38410   0.676   2.341   9.791  0.5316 -0.3630 -0.4781
 8926SOL    HW138411   0.588   2.333   9.829  1.4307  0.6647  1.8767
 8926SOL    HW238412   0.656   2.378   9.705 -1.0579 -1.4812 -0.5832
 8927SOL     OW38413   3.490   1.314  13.649  0.1277 -0.4669 -0.1492
 8927SOL    HW138414   3.532   1.274  13.573 -0.1157 -1.5290  0.2816
 8927SOL    HW238415   3.555   1.385  13.653 -1.0741  0.6481 -0.3836
 8928SOL     OW38416   4.347   1.435  17.497 -1.0854  0.0586 -0.1612
 8928SOL    HW138417   4.272   1.435  17.556 -0.6969  0.3092  0.3277
 8928SOL    HW238418   4.295   1.435  17.416 -0.9199 -1.7129 -0.2611
 8929SOL     OW38419   1.724   3.667   3.716 -0.2163 -0.0741  0.5628
 8929SOL    HW138420   1.796   3.629   3.766  0.0957 -0.1995  0.0100
 8929SOL    HW238421   1.754   3.646   3.628 -0.7017  1.0380  0.1374
 8930SOL     OW38422   1.170   1.645   4.931  0.1139  0.2265 -0.6796
 8930SOL    HW138423   1.217   1.653   5.015 -1.0023  1.0217 -0.1354
 8930SOL    HW238424   1.145   1.554   4.939  0.1555  0.1924 -0.9411
 8931SOL     OW38425   0.177   0.595   3.475  0.1592 -0.3289 -0.1090
 8931SOL    HW138426   0.152   0.667   3.534 -0.5743  0.1928 -1.0546
 8931SOL    HW238427   0.262   0.565   3.508  0.0197 -0.0120  0.5453
 8932SOL     OW38428   3.956   1.430   7.031 -0.2105  0.0637 -0.0040
 8932SOL    HW138429   3.875   1.401   7.074  0.1029 -0.3172  0.3288
 8932SOL    HW238430   3.987   1.344   7.003  1.5231  0.7447 -0.1617
 8933SOL     OW38431   4.686   0.077   0.457 -0.0798 -0.2028  0.0467
 8933SOL    HW138432   4.734   0.125   0.525  0.5464 -1.5716  0.5499
 8933SOL    HW238433   4.636   0.143   0.408 -0.9225 -1.1705 -0.3936
 8934SOL     OW38434   2.262   0.707   6.952 -0.6126  0.3348  0.1208
 8934SOL    HW138435   2.247   0.661   7.034 -1.3646  1.4742  0.6249
 8934SOL    HW238436   2.193   0.662   6.903  0.6486 -1.1549 -0.2777
 8935SOL     OW38437   4.568   3.083   2.343  0.4087 -0.2761  0.7622
 8935SOL    HW138438   4.482   3.079   2.300  0.4973 -0.2954  0.5859
 8935SOL    HW238439   4.624   3.106   2.269 -1.1953 -0.3407 -0.4824
 8936SOL     OW38440   0.258   1.903  15.237  0.4747  0.3153 -0.4514
 8936SOL    HW138441   0.350   1.897  15.209  0.5913  0.6638 -0.1507
 8936SOL    HW238442   0.223   1.817  15.218  0.6797  0.3322 -0.8981
 8937SOL     OW38443   1.598   1.533   9.328 -0.5373  0.6530 -0.1788
 8937SOL    HW138444   1.660   1.460   9.330  0.2031  1.2652 -0.6866
 8937SOL    HW238445   1.540   1.508   9.256  0.0225 -1.6633  0.1729
 8938SOL     OW38446   1.682   2.637   1.279 -0.3872 -0.5757 -0.4978
 8938SOL    HW138447   1.608   2.594   1.237 -0.1642 -1.4326 -0.0022
 8938SOL    HW238448   1.726   2.579   1.341  0.6488  0.9618  0.2149
 8939SOL     OW38449   1.921   0.339   8.280  0.0242  0.4781 -0.2019
 8939SOL    HW138450   1.838   0.307   8.243 -0.2693 -0.2054  1.0360
 8939SOL    HW238451   1.944   0.259   8.327 -1.0937  0.5317  0.4501
 8940SOL     OW38452   0.023   0.803   5.884 -0.9212  0.1691 -0.3785
 8940SOL    HW138453   4.696   0.863   5.855 -1.3474  0.3452  0.9589
 8940SOL    HW238454   4.705   0.735   5.917 -2.5706  0.8955 -1.8788
 8941SOL     OW38455   0.703   1.343  11.615  0.0779  0.4246 -0.0572
 8941SOL    HW138456   0.670   1.300  11.694  0.1311  0.8804  0.2091
 8941SOL    HW238457   0.677   1.433  11.635  1.5529  0.9661 -0.5583
 8942SOL     OW38458   4.122   3.922   3.138 -0.4700  0.1705 -0.7419
 8942SOL    HW138459   4.050   3.877   3.092 -0.1622 -1.6940  0.6131
 8942SOL    HW238460   4.175   3.847   3.163 -2.0877 -1.2382 -1.5450
 8943SOL     OW38461   1.578   1.438   7.563 -0.5417 -0.5892  0.2914
 8943SOL    HW138462   1.520   1.500   7.519 -1.1564 -0.5134  1.2025
 8943SOL    HW238463   1.520   1.361   7.565 -0.1137 -0.9670 -2.2363
 8944SOL     OW38464   3.139   3.023  16.256  0.1058 -0.0401  0.2495
 8944SOL    HW138465   3.170   3.095  16.202  1.8120  0.8356  2.3691
 8944SOL    HW238466   3.214   2.965  16.243  0.3712 -0.1081  2.0583
 8945SOL     OW38467   4.227   1.159   4.429 -0.3231  0.4723 -0.2499
 8945SOL    HW138468   4.184   1.074   4.422  1.0679 -0.3743  1.4383
 8945SOL    HW238469   4.265   1.162   4.517 -2.1293 -0.1578  0.5563
 8946SOL     OW38470   1.691   4.691   9.602  0.2699  0.3216  0.3658
 8946SOL    HW138471   1.750   4.618   9.581 -1.4813 -1.2427  0.9111
 8946SOL    HW238472   1.709   4.691   9.696 -0.2277  0.8612  0.4593
 8947SOL     OW38473   2.812   2.343   4.911 -0.1487 -0.0015 -0.3468
 8947SOL    HW138474   2.746   2.322   4.976  1.1628  0.9754  1.3047
 8947SOL    HW238475   2.891   2.318   4.959 -1.6915 -1.8020  1.2373
 8948SOL     OW38476   1.912   0.437   6.189 -0.2193  0.3610  0.2271
 8948SOL    HW138477   1.940   0.369   6.128 -1.4273 -0.9254  1.0963
 8948SOL    HW238478   1.838   0.396   6.235 -0.8279  1.5715  0.3212
 8949SOL     OW38479   1.497   3.690   2.289 -0.0016 -0.5399 -0.0855
 8949SOL    HW138480   1.453   3.648   2.363 -0.7190 -3.3947 -2.1698
 8949SOL    HW238481   1.493   3.626   2.219 -1.7442  0.1614 -0.6274
 8950SOL     OW38482   0.803   2.365   1.811 -0.0841 -0.0135  0.2140
 8950SOL    HW138483   0.772   2.299   1.748  2.4518  2.8784 -4.0791
 8950SOL    HW238484   0.743   2.438   1.800 -1.2173 -1.1504 -1.2067
 8951SOL     OW38485   0.902   3.915   6.059  0.7047  0.0978 -0.1728
 8951SOL    HW138486   0.867   4.003   6.069  1.5879  0.3993  0.2650
 8951SOL    HW238487   0.980   3.911   6.114  0.0643 -1.6836  0.6212
 8952SOL     OW38488   0.614   2.600   4.576 -0.2765  0.1024  0.1839
 8952SOL    HW138489   0.675   2.673   4.562  0.3196 -0.0287  2.1213
 8952SOL    HW238490   0.672   2.527   4.557  0.9122  0.9217  0.6562
 8953SOL     OW38491   3.648   0.241  13.536  0.2907  0.2620 -0.1188
 8953SOL    HW138492   3.724   0.200  13.494  0.1914  1.5623 -1.5551
 8953SOL    HW238493   3.579   0.200  13.483  0.3671 -1.1659  0.8782
 8954SOL     OW38494   1.578   1.884   8.243  0.0160 -0.2997  0.2191
 8954SOL    HW138495   1.596   1.976   8.260 -0.6367  0.0105 -0.7331
 8954SOL    HW238496   1.668   1.853   8.253  0.3390  0.6425  0.1417
 8955SOL     OW38497   2.107   1.852  12.498  0.2176 -0.0665  0.0044
 8955SOL    HW138498   2.189   1.820  12.537  0.6568 -1.0922 -1.7405
 8955SOL    HW238499   2.043   1.811  12.556 -1.1779  1.4605 -0.4587
 8956SOL     OW38500   3.771   0.626   8.335  0.1226 -0.4064  0.1064
 8956SOL    HW138501   3.857   0.651   8.303 -0.1553  2.9592  1.9764
 8956SOL    HW238502   3.706   0.682   8.293  2.4428  1.4406 -1.0104
 8957SOL     OW38503   3.317   1.821   4.012 -0.0254 -0.0830 -0.3213
 8957SOL    HW138504   3.328   1.782   3.926 -0.2871  0.9619 -0.8318
 8957SOL    HW238505   3.337   1.911   3.989 -1.0414 -0.1395 -1.4082
 8958SOL     OW38506   1.392   1.820   6.786  0.2857 -0.1947 -0.1025
 8958SOL    HW138507   1.372   1.775   6.704  2.6658 -0.1387 -0.7075
 8958SOL    HW238508   1.429   1.902   6.751  0.1655 -0.6557 -1.2720
 8959SOL     OW38509   4.019   0.020   1.417  0.2116 -0.0639 -0.0397
 8959SOL    HW138510   3.994   0.003   1.326 -1.0606  2.0793 -0.0991
 8959SOL    HW238511   3.931   0.030   1.453  0.1871 -0.3206 -0.0310
 8960SOL     OW38512   1.356   0.790   7.552  0.7907 -0.9627  0.2080
 8960SOL    HW138513   1.302   0.714   7.571 -0.2236  0.6278  3.5847
 8960SOL    HW238514   1.443   0.751   7.548  2.0475  1.7540  0.7048
 8961SOL     OW38515   4.145   3.515   9.649  0.2642 -0.2067 -0.8175
 8961SOL    HW138516   4.095   3.437   9.624  0.7421 -0.1641 -1.9199
 8961SOL    HW238517   4.073   3.563   9.691  1.2304  0.2182  0.3467
 8962SOL     OW38518   0.052   4.635   6.326 -0.3069  0.4528  0.0078
 8962SOL    HW138519   0.142   4.611   6.305 -1.1947 -0.2257 -3.0326
 8962SOL    HW238520   0.031   4.692   6.252 -0.0918  1.0589  0.4116
 8963SOL     OW38521   2.771   4.202   4.258  0.0043  0.6987 -0.4025
 8963SOL    HW138522   2.715   4.129   4.233  0.1324 -0.1788  1.9011
 8963SOL    HW238523   2.708   4.256   4.306 -1.8263  0.9634 -3.1155
 8964SOL     OW38524   1.498   4.644   6.538 -0.1737 -0.2344  0.1225
 8964SOL    HW138525   1.530   4.732   6.558 -0.8526  0.5992 -2.4807
 8964SOL    HW238526   1.404   4.651   6.551 -0.2913 -0.7004 -0.4924
 8965SOL     OW38527   0.537   0.613  11.976 -0.3652 -0.0867  0.4760
 8965SOL    HW138528   0.485   0.593  12.053  0.0188  0.8435  0.9822
 8965SOL    HW238529   0.478   0.587  11.906  0.1691 -1.2912  0.4666
 8966SOL     OW38530   3.636   3.733  13.526 -0.1948  0.4906 -0.6519
 8966SOL    HW138531   3.719   3.699  13.492  0.2128  1.3543 -0.5293
 8966SOL    HW238532   3.651   3.827  13.514 -0.8176  0.4532 -1.6919
 8967SOL     OW38533   3.381   2.769   0.548 -0.1719  0.2827  0.9351
 8967SOL    HW138534   3.342   2.856   0.545  0.6228  0.5507 -1.5239
 8967SOL    HW238535   3.307   2.708   0.541 -1.8487  2.2904  1.3675
 8968SOL     OW38536   3.383   2.595  16.843  0.1305 -0.0303 -0.0300
 8968SOL    HW138537   3.438   2.606  16.920  0.5307 -0.6240 -0.2332
 8968SOL    HW238538   3.362   2.686  16.821 -0.8885 -0.6749 -1.7357
 8969SOL     OW38539   0.320   1.801   7.808  0.3517  0.2287  0.1102
 8969SOL    HW138540   0.244   1.780   7.863 -1.0942 -2.3051 -2.8388
 8969SOL    HW238541   0.278   1.879   7.772 -3.0171 -1.6120  0.0949
 8970SOL     OW38542   0.215   3.448   9.084  0.3709  0.3770  0.0376
 8970SOL    HW138543   0.299   3.493   9.075  0.2388  0.5044 -0.5290
 8970SOL    HW238544   0.163   3.518   9.125  0.2238  1.3333 -1.8119
 8971SOL     OW38545   4.374   1.597  16.360  0.2667  0.2537 -0.8700
 8971SOL    HW138546   4.449   1.557  16.316 -0.4714 -1.2940 -0.7212
 8971SOL    HW238547   4.300   1.536  16.363  0.2513  0.4084  2.8861
 8972SOL     OW38548   3.959   1.227   2.197  0.2821 -0.5556  0.0221
 8972SOL    HW138549   3.989   1.244   2.287 -1.6543  0.2675  0.5210
 8972SOL    HW238550   3.982   1.134   2.200  0.2188 -0.5534  0.7637
 8973SOL     OW38551   3.395   2.993   8.268  0.5710 -0.1887 -0.0449
 8973SOL    HW138552   3.349   2.965   8.347 -2.0684 -2.3898 -2.3912
 8973SOL    HW238553   3.478   3.031   8.297  0.4347  0.1152 -0.0505
 8974SOL     OW38554   0.798   2.103   4.825  0.4145  0.5049  0.2154
 8974SOL    HW138555   0.797   2.017   4.783 -0.7232  0.9837 -0.7520
 8974SOL    HW238556   0.876   2.140   4.783 -0.0609  2.7728  1.3397
 8975SOL     OW38557   3.223   1.537   3.437  0.0978 -0.5697  0.1519
 8975SOL    HW138558   3.302   1.528   3.491 -0.5234 -1.2717  0.9377
 8975SOL    HW238559   3.181   1.455   3.461 -0.4092 -0.4298 -0.2619
 8976SOL     OW38560   1.719   1.914  13.104 -0.3896  0.3593 -0.1380
 8976SOL    HW138561   1.726   1.966  13.024 -0.6873 -0.5963 -0.7838
 8976SOL    HW238562   1.810   1.891  13.122 -0.3951  1.4095  1.2491
 8977SOL     OW38563   3.863   1.080  10.429  0.3178 -0.3494  0.4518
 8977SOL    HW138564   3.916   1.034  10.494  1.1199 -0.6020 -0.3771
 8977SOL    HW238565   3.938   1.114  10.379 -0.5115  1.5360  0.5002
 8978SOL     OW38566   3.070   1.475   6.642 -0.1672 -0.4755  0.1551
 8978SOL    HW138567   3.089   1.551   6.588  0.7314  0.1076  1.2757
 8978SOL    HW238568   3.071   1.414   6.568 -1.5449 -0.7827  0.3984
 8979SOL     OW38569   1.660   1.456   4.971  0.2199  0.1995 -0.0115
 8979SOL    HW138570   1.705   1.533   5.007  0.1322 -1.0052  2.6178
 8979SOL    HW238571   1.730   1.391   4.965  1.9930  2.1867 -1.2062
 8980SOL     OW38572   1.549   0.529   8.558 -0.1749 -0.3128  0.8856
 8980SOL    HW138573   1.529   0.443   8.519 -3.1360  1.1094 -0.7441
 8980SOL    HW238574   1.620   0.561   8.502  0.1020  0.6462  1.8006
 8981SOL     OW38575   4.641   2.493   5.453  0.0195 -0.3741  0.3006
 8981SOL    HW138576   4.707   2.562   5.455  0.8946 -1.1994 -0.2765
 8981SOL    HW238577   4.571   2.542   5.496 -0.6034 -0.9227 -0.0765
 8982SOL     OW38578   1.694   2.516  17.711 -0.1150 -0.0681 -0.1672
 8982SOL    HW138579   1.612   2.557  17.685  1.5361  2.6042 -1.1833
 8982SOL    HW238580   1.730   2.576   0.015  2.1013 -0.9672 -0.5766
 8983SOL     OW38581   1.853   3.862   2.928 -0.0140 -0.3259  0.6706
 8983SOL    HW138582   1.897   3.838   2.846 -0.7921 -1.3428  0.5520
 8983SOL    HW238583   1.905   3.937   2.957 -1.0881  0.9004 -0.5384
 8984SOL     OW38584   2.236   4.467   4.346 -0.7276 -0.0831 -0.1122
 8984SOL    HW138585   2.296   4.496   4.414 -0.5539  1.3311 -0.8750
 8984SOL    HW238586   2.174   4.539   4.349  0.6292  1.0374  0.7891
 8985SOL     OW38587   4.459   2.183  15.401 -0.0813  0.0477  0.0995
 8985SOL    HW138588   4.514   2.121  15.353 -0.9217 -1.0339  0.5409
 8985SOL    HW238589   4.411   2.232  15.335 -1.8441 -0.8652  0.7160
 8986SOL     OW38590   0.309   3.450   6.389 -0.2487 -0.3955  0.3737
 8986SOL    HW138591   0.371   3.465   6.318 -0.9517  0.9718  0.0559
 8986SOL    HW238592   0.230   3.440   6.335  0.0926  0.4277 -0.2831
 8987SOL     OW38593   0.147   3.283  10.510 -0.4755  0.0607  0.0970
 8987SOL    HW138594   0.061   3.269  10.551 -0.3875 -1.5685 -0.2843
 8987SOL    HW238595   0.202   3.305  10.586  2.3342 -3.1123 -1.0224
 8988SOL     OW38596   2.424   3.729   4.623  0.1849 -0.4031  0.2362
 8988SOL    HW138597   2.504   3.676   4.621  0.6207  0.3247 -1.6281
 8988SOL    HW238598   2.442   3.795   4.556 -1.5038  1.1134  1.2748
 8989SOL     OW38599   3.796   4.279   0.369  0.3654 -0.4945  0.0637
 8989SOL    HW138600   3.793   4.226   0.448 -0.1779 -0.0567  0.3385
 8989SOL    HW238601   3.883   4.319   0.368 -0.4190  1.2399  0.7375
 8990SOL     OW38602   0.034   2.647   8.444  0.0052 -0.4933  0.2399
 8990SOL    HW138603   4.717   2.698   8.500 -0.9663  0.0878 -1.3009
 8990SOL    HW238604   0.107   2.709   8.439 -0.9017  0.5856  0.4104
 8991SOL     OW38605   2.713   4.445   9.407 -0.2873  0.0781 -0.2905
 8991SOL    HW138606   2.730   4.407   9.493 -0.2138 -0.8360 -0.7190
 8991SOL    HW238607   2.780   4.396   9.361 -0.7842 -2.5398  1.7593
 8992SOL     OW38608   1.368   0.832   7.092 -0.1789 -0.7807  0.0801
 8992SOL    HW138609   1.387   0.840   6.998 -0.0119  1.0147  0.2715
 8992SOL    HW238610   1.347   0.922   7.119  0.5487 -0.7260  0.4532
 8993SOL     OW38611   0.300   2.685  12.492 -0.0800 -0.1154 -0.4792
 8993SOL    HW138612   0.320   2.591  12.492 -0.4981 -0.2095  0.4704
 8993SOL    HW238613   0.347   2.721  12.567 -2.2768  3.3687 -0.7545
 8994SOL     OW38614   2.791   4.014  13.272 -0.1862  0.1892  0.0677
 8994SOL    HW138615   2.795   4.067  13.193 -0.7871 -1.1850 -0.8746
 8994SOL    HW238616   2.807   4.085  13.335 -2.5256  0.8767 -0.0966
 8995SOL     OW38617   1.458   0.200   4.825 -0.0864 -0.7191 -0.3664
 8995SOL    HW138618   1.433   0.281   4.871  1.0899 -2.1784  2.8352
 8995SOL    HW238619   1.513   0.154   4.888 -3.6944 -3.8615  0.4683
 8996SOL     OW38620   4.294   0.075  13.859  0.8222 -0.1310 -0.1200
 8996SOL    HW138621   4.325   4.726  13.862  0.7087 -0.2197 -1.4936
 8996SOL    HW238622   4.296   0.095  13.765  0.2797  0.3436 -0.0274
 8997SOL     OW38623   4.165   4.503   1.270  0.2980 -0.1607  0.1281
 8997SOL    HW138624   4.192   4.546   1.189  0.0868 -1.1347 -0.4623
 8997SOL    HW238625   4.072   4.522   1.263  0.6283  2.0873  1.9064
 8998SOL     OW38626   3.107   1.638  11.572 -0.0760 -0.4050  0.1696
 8998SOL    HW138627   3.054   1.577  11.623  1.6900 -1.3845  0.8305
 8998SOL    HW238628   3.057   1.719  11.564  0.3166 -0.2231 -0.5032
 8999SOL     OW38629   3.919   0.398   7.213 -0.2118 -0.1773  0.6007
 8999SOL    HW138630   3.983   0.470   7.212  1.3537 -1.5598  0.9590
 8999SOL    HW238631   3.923   0.364   7.302  0.4634 -0.1569  0.5796
 9000SOL     OW38632   0.408   0.217  17.630  0.0912 -0.7971 -0.4379
 9000SOL    HW138633   0.319   0.247  17.648  1.0140  1.3045  0.5181
 9000SOL    HW238634   0.438   0.292  17.578  0.6961  0.1832  1.3467
 9001SOL     OW38635   4.519   4.020   7.543 -0.7129  0.1936  0.8920
 9001SOL    HW138636   4.463   3.944   7.524  1.7347 -1.8091  1.6962
 9001SOL    HW238637   4.463   4.095   7.523  1.8157  1.9123  0.2120
 9002SOL     OW38638   4.279   3.852   7.480  0.1018 -0.3365  0.5409
 9002SOL    HW138639   4.331   3.772   7.481  1.0017  0.2702  2.4196
 9002SOL    HW238640   4.194   3.815   7.505 -0.2863 -0.3759 -0.8155
 9003SOL     OW38641   1.680   3.188  11.951  0.1618  0.2363 -0.6957
 9003SOL    HW138642   1.635   3.216  12.031  1.4476 -0.4948  0.2772
 9003SOL    HW238643   1.664   3.273  11.910 -1.1008 -0.1104 -0.9175
 9004SOL     OW38644   1.933   1.944   1.339 -0.3730  0.3572  0.2073
 9004SOL    HW138645   2.012   1.990   1.309 -0.3083 -0.5604 -1.0319
 9004SOL    HW238646   1.891   2.009   1.395 -1.0834  0.8140 -0.8599
 9005SOL     OW38647   0.506   1.688   4.310  0.3549 -0.0750  0.5015
 9005SOL    HW138648   0.552   1.763   4.346  0.4102 -0.2351  0.7594
 9005SOL    HW238649   0.577   1.624   4.307  0.8449  0.4857  0.1414
 9006SOL     OW38650   4.335   0.688   6.392 -0.4677  0.2071 -1.0915
 9006SOL    HW138651   4.417   0.692   6.343  0.4508 -1.0369  0.3701
 9006SOL    HW238652   4.316   0.594   6.393 -1.5830  0.4285 -1.2730
 9007SOL     OW38653   4.109   0.183   1.774 -0.2767 -0.0044  0.2729
 9007SOL    HW138654   4.139   0.262   1.819  1.8319 -1.7771  1.9795
 9007SOL    HW238655   4.117   0.123   1.848 -0.5779 -0.4832 -0.0806
 9008SOL     OW38656   0.388   2.104  10.563 -0.8087 -0.2737 -0.6655
 9008SOL    HW138657   0.427   2.121  10.648  0.8508 -2.4780 -0.9734
 9008SOL    HW238658   0.333   2.175  10.530  2.6319  3.2444  1.2212
 9009SOL     OW38659   2.037   2.841   6.028  0.6417  0.2264 -0.2752
 9009SOL    HW138660   2.022   2.933   6.046  1.1603  0.4483 -0.9975
 9009SOL    HW238661   1.994   2.816   5.946  1.9733 -1.3656 -0.5030
 9010SOL     OW38662   0.869   4.184   3.740  0.4162 -0.1250 -0.1342
 9010SOL    HW138663   0.856   4.091   3.759 -5.2387  0.0328 -3.4227
 9010SOL    HW238664   0.783   4.223   3.730  1.2731  1.5534 -1.0670
 9011SOL     OW38665   0.868   4.553  12.886  0.2022 -0.4013  0.3808
 9011SOL    HW138666   0.853   4.643  12.857 -3.9639 -1.1600  0.1550
 9011SOL    HW238667   0.957   4.558  12.922  0.2215 -0.8681  0.3941
 9012SOL     OW38668   0.958   1.682   3.421  0.4955 -0.1229  0.3323
 9012SOL    HW138669   0.903   1.760   3.424  1.4667  0.6789 -2.0616
 9012SOL    HW238670   1.041   1.718   3.389  1.3973 -0.9783  1.7289
 9013SOL     OW38671   0.773   3.819   6.361 -0.6388 -0.1086 -0.0602
 9013SOL    HW138672   0.783   3.889   6.296 -0.0641  0.8624  1.0790
 9013SOL    HW238673   0.713   3.863   6.420  0.4492 -0.2385  1.1463
 9014SOL     OW38674   3.976   3.379  13.085  0.7734  0.1843  0.1357
 9014SOL    HW138675   3.901   3.428  13.119  0.2888  0.0160 -0.6893
 9014SOL    HW238676   3.997   3.431  13.008 -1.9570  2.4773  0.9586
 9015SOL     OW38677   2.688   3.414   8.249 -0.8075 -0.1601 -0.2617
 9015SOL    HW138678   2.753   3.476   8.282  0.4685 -2.2511  1.1496
 9015SOL    HW238679   2.626   3.479   8.214 -1.3379 -0.5034  0.0348
 9016SOL     OW38680   2.556   1.124   8.796 -0.0314 -0.5270  0.2295
 9016SOL    HW138681   2.649   1.115   8.817 -0.2535  0.3473  1.5985
 9016SOL    HW238682   2.513   1.049   8.837 -2.0326  0.0775 -0.8048
 9017SOL     OW38683   1.321   2.783   4.881 -0.1370 -0.0137 -0.4781
 9017SOL    HW138684   1.269   2.728   4.940  0.4056  1.9490  1.8136
 9017SOL    HW238685   1.392   2.723   4.857 -0.1820  0.9500 -3.0035
 9018SOL     OW38686   4.705   3.269   8.165 -0.2719 -0.0793  0.2980
 9018SOL    HW138687   0.009   3.259   8.249  0.4345  2.5142  0.2455
 9018SOL    HW238688   4.638   3.334   8.186 -1.2455 -0.5385 -1.3687
 9019SOL     OW38689   2.022   2.292   2.372 -0.3913  0.0292  0.3596
 9019SOL    HW138690   2.091   2.230   2.395 -1.1482 -1.0650 -0.3376
 9019SOL    HW238691   2.024   2.364   2.435  3.0521  0.2839 -0.0567
 9020SOL     OW38692   1.602   4.308   7.095  0.0835 -0.2665 -0.2740
 9020SOL    HW138693   1.624   4.230   7.044 -1.5851  0.1933 -1.6704
 9020SOL    HW238694   1.598   4.384   7.038  2.2494 -0.3010 -0.4900
 9021SOL     OW38695   4.627   4.219   0.831 -0.3258 -0.0762  0.2951
 9021SOL    HW138696   4.687   4.223   0.906 -0.7869  0.2717  0.6483
 9021SOL    HW238697   4.541   4.221   0.873 -0.9867  1.8925 -1.1474
 9022SOL     OW38698   2.587   4.074  11.113 -0.3441  0.4578 -0.2259
 9022SOL    HW138699   2.537   4.069  11.195  0.8724  0.2301  0.5003
 9022SOL    HW238700   2.520   4.103  11.051  0.1197 -0.5566 -1.1931
 9023SOL     OW38701   0.886   4.677  11.635  0.1864 -0.3264  0.2393
 9023SOL    HW138702   0.931   0.009  11.678 -1.6800  0.1826  1.3140
 9023SOL    HW238703   0.923   4.687  11.547  0.1525  0.2288  0.2868
 9024SOL     OW38704   3.907   2.244   6.183  0.5459 -0.1689 -0.6045
 9024SOL    HW138705   3.975   2.184   6.215 -1.4251 -2.2979 -0.3695
 9024SOL    HW238706   3.972   2.297   6.138 -0.5387 -0.1750 -2.1638
 9025SOL     OW38707   1.111   3.266   7.058 -0.3727  0.2351 -0.2471
 9025SOL    HW138708   1.086   3.358   7.063 -0.5366  0.1516  0.4208
 9025SOL    HW238709   1.206   3.269   7.043 -0.2046  0.1098  0.8162
 9026SOL     OW38710   4.594   3.068   2.860  0.0369 -0.3686  0.2952
 9026SOL    HW138711   4.514   3.110   2.829  0.2312 -2.1159 -2.6516
 9026SOL    HW238712   4.596   2.984   2.814 -0.0611  0.0494 -0.4685
 9027SOL     OW38713   0.040   4.206  14.494  0.4494 -0.3525  0.1922
 9027SOL    HW138714   0.104   4.202  14.565 -1.0456  2.3279  1.7024
 9027SOL    HW238715   4.700   4.217  14.545  0.2431 -2.1360  0.2675
 9028SOL     OW38716   2.223   2.733   5.474  0.0933  0.6294  0.2185
 9028SOL    HW138717   2.170   2.657   5.451  1.3116 -0.0928 -0.2086
 9028SOL    HW238718   2.238   2.786   5.395  1.6910  0.2866  0.2909
 9029SOL     OW38719   2.022   0.454   2.867  0.1078  0.5151  0.0521
 9029SOL    HW138720   2.036   0.453   2.962 -0.5315 -2.1792  0.1373
 9029SOL    HW238721   1.936   0.414   2.855  1.0717 -0.8698 -2.1403
 9030SOL     OW38722   1.370   3.219  10.861  0.4390 -0.1059  0.3139
 9030SOL    HW138723   1.340   3.194  10.948 -1.4484  2.8404  0.4690
 9030SOL    HW238724   1.293   3.255  10.817 -0.3529 -0.7541  1.1858
 9031SOL     OW38725   2.331   1.226  13.491 -0.2068 -0.9788  0.5112
 9031SOL    HW138726   2.322   1.320  13.473 -1.4582 -1.0205  0.8864
 9031SOL    HW238727   2.262   1.219  13.557 -1.0691 -2.8497 -0.5755
 9032SOL     OW38728   2.399   4.717   4.777 -0.0674  0.7519  0.1971
 9032SOL    HW138729   2.392   0.067   4.805 -0.9457  0.8299 -0.2807
 9032SOL    HW238730   2.320   4.700   4.726 -0.6789 -0.6378  1.5994
 9033SOL     OW38731   2.916   1.379   4.530  0.1492  0.2434 -0.3490
 9033SOL    HW138732   2.827   1.343   4.525  1.3774 -2.8551 -0.1295
 9033SOL    HW238733   2.956   1.347   4.449 -1.2508 -3.0971  0.2591
 9034SOL     OW38734   2.811   0.530   9.379 -0.1304 -0.0576 -0.4049
 9034SOL    HW138735   2.724   0.491   9.368  0.6584 -1.8228 -0.4097
 9034SOL    HW238736   2.837   0.509   9.468 -0.2768  1.1864 -0.0743
 9035SOL     OW38737   4.402   4.235   0.970  0.3685 -0.3106 -0.3938
 9035SOL    HW138738   4.401   4.291   1.048 -0.3326 -1.0117  0.1053
 9035SOL    HW238739   4.330   4.269   0.916  0.7842  0.5704 -0.3957
 9036SOL     OW38740   1.198   1.689  17.376  0.2086  0.5070  0.1963
 9036SOL    HW138741   1.286   1.666  17.407 -0.1132  1.0825  1.4960
 9036SOL    HW238742   1.215   1.737  17.295 -1.1690  1.8991  0.7290
 9037SOL     OW38743   1.121   2.235  14.756 -0.3787 -0.0787  0.0375
 9037SOL    HW138744   1.067   2.187  14.819 -2.6563  0.0288 -1.8397
 9037SOL    HW238745   1.074   2.313  14.731 -0.1676  0.4748  1.3380
 9038SOL     OW38746   3.457   3.119  16.430  0.2570  0.2062  0.1236
 9038SOL    HW138747   3.405   3.066  16.370  0.5986  0.2768 -0.2303
 9038SOL    HW238748   3.543   3.078  16.433 -0.0823 -0.3247  2.8026
 9039SOL     OW38749   3.153   0.024  12.455 -0.3043 -0.1692  0.4915
 9039SOL    HW138750   3.162   4.696  12.521  1.3877 -1.4665 -1.1012
 9039SOL    HW238751   3.057   0.025  12.458 -0.2834  0.4986  0.9455
 9040SOL     OW38752   0.013   0.525   2.731 -0.0996 -0.4457  0.1651
 9040SOL    HW138753   0.015   0.600   2.672  2.0538 -1.6651 -1.3118
 9040SOL    HW238754   4.699   0.464   2.682 -0.6432  0.8868 -0.8695
 9041SOL     OW38755   2.410   4.211   4.967  0.0054  0.0317  0.9053
 9041SOL    HW138756   2.424   4.153   4.891  2.2790  1.0417  0.5362
 9041SOL    HW238757   2.317   4.188   4.969  0.2198 -1.0190 -0.5288
 9042SOL     OW38758   2.968   4.437   6.824  0.8793 -0.5998  0.3045
 9042SOL    HW138759   2.973   4.520   6.778  0.4869  0.3798  2.0413
 9042SOL    HW238760   2.989   4.457   6.915  0.7271  2.5407 -0.3725
 9043SOL     OW38761   0.791   2.207   7.668  0.1335  0.1514 -0.4359
 9043SOL    HW138762   0.825   2.125   7.705  0.1401  0.2393 -0.2469
 9043SOL    HW238763   0.859   2.220   7.603 -0.6953  0.8081 -1.1686
 9044SOL     OW38764   3.984   0.627   2.092  0.3508  0.1865  0.2150
 9044SOL    HW138765   4.011   0.541   2.059  0.1183  0.3749 -0.4871
 9044SOL    HW238766   3.945   0.667   2.014 -2.1825 -3.4172 -0.3774
 9045SOL     OW38767   3.376   3.138   2.637 -0.0241 -0.1097  0.4573
 9045SOL    HW138768   3.380   3.044   2.620  0.6009  0.3834 -2.0504
 9045SOL    HW238769   3.420   3.181   2.563 -2.4619  1.6253  0.0222
 9046SOL     OW38770   0.993   4.155  12.594 -0.1862  0.3817 -0.5375
 9046SOL    HW138771   0.992   4.062  12.619 -2.9823  0.0261 -1.9314
 9046SOL    HW238772   1.018   4.210  12.668  0.2630 -1.9831  1.0635
 9047SOL     OW38773   2.914   4.274   8.693  0.2956 -0.1818 -0.2843
 9047SOL    HW138774   2.972   4.201   8.714 -3.0248 -2.4220  1.1260
 9047SOL    HW238775   2.965   4.326   8.631  1.9922 -0.8745  0.5424
 9048SOL     OW38776   3.297   0.305  15.948 -0.3974 -0.6385  0.5448
 9048SOL    HW138777   3.320   0.386  15.903  0.8014 -0.4411  1.5291
 9048SOL    HW238778   3.307   0.327  16.041  2.0069  2.3493 -0.4606
 9049SOL     OW38779   0.369   0.494   3.893 -0.4873  0.3992  0.2207
 9049SOL    HW138780   0.372   0.399   3.904  1.4342  0.3095 -1.0872
 9049SOL    HW238781   0.415   0.495   3.809  0.5996 -1.7444  0.8055
 9050SOL     OW38782   4.295   4.015   5.225  0.1479 -0.1788 -0.0207
 9050SOL    HW138783   4.246   4.095   5.243  1.2464  1.1961 -3.1297
 9050SOL    HW238784   4.315   4.026   5.132  0.6375 -0.7100  0.0196
 9051SOL     OW38785   1.420   1.233   3.122  0.0475 -0.1864  0.2835
 9051SOL    HW138786   1.438   1.245   3.216  1.3470 -0.1662  0.0250
 9051SOL    HW238787   1.453   1.316   3.087  1.9403 -1.7193 -1.5610
 9052SOL     OW38788   3.056   0.249   6.689 -0.0891  0.0439 -0.0608
 9052SOL    HW138789   3.013   0.287   6.766  0.9476 -0.2235  0.6617
 9052SOL    HW238790   3.099   0.325   6.652  0.9414 -0.2494  0.5322
 9053SOL     OW38791   4.051   2.924   8.613  0.1897  0.2741 -0.6727
 9053SOL    HW138792   4.142   2.899   8.598 -0.1127 -0.4312 -1.3736
 9053SOL    HW238793   3.999   2.848   8.584  0.0403 -0.0452  0.4233
 9054SOL     OW38794   0.232   0.233   6.907  0.4600 -0.1737  0.0258
 9054SOL    HW138795   0.327   0.241   6.901  0.1941  3.4444  1.1270
 9054SOL    HW238796   0.227   0.149   6.953  1.3748 -0.8117 -1.0244
 9055SOL     OW38797   4.133   2.045   6.252  0.1057  0.6365 -0.6821
 9055SOL    HW138798   4.202   1.982   6.272 -1.4662 -0.4531  1.3409
 9055SOL    HW238799   4.150   2.123   6.305  0.2984 -0.7586  1.2734
 9056SOL     OW38800   0.694   2.535   8.773  0.4636 -0.5690 -0.3017
 9056SOL    HW138801   0.623   2.491   8.726  0.3970 -0.8225  0.0448
 9056SOL    HW238802   0.641   2.603   8.815  1.1910  1.2757 -2.3874
 9057SOL     OW38803   2.520   1.612   5.877 -0.2722 -0.1265  0.5596
 9057SOL    HW138804   2.524   1.640   5.968 -0.7289 -1.4700  0.9958
 9057SOL    HW238805   2.611   1.587   5.860  0.0469  0.6768  1.0984
 9058SOL     OW38806   2.713   2.546  14.074  0.1357 -0.0474 -0.2086
 9058SOL    HW138807   2.766   2.470  14.052 -1.2067 -0.6090 -1.4615
 9058SOL    HW238808   2.625   2.513  14.056  1.4204 -2.3827 -2.1105
 9059SOL     OW38809   3.002   2.492   8.858 -0.2342  0.4361 -0.0734
 9059SOL    HW138810   2.993   2.494   8.953 -0.0383  1.6246 -0.0689
 9059SOL    HW238811   2.941   2.562   8.834 -0.7709  0.1567  0.4567
 9060SOL     OW38812   1.880   0.969   1.707  0.5837 -0.2269  0.2085
 9060SOL    HW138813   1.955   0.909   1.704  1.1882  0.5088  0.6018
 9060SOL    HW238814   1.818   0.948   1.776  0.0667  0.4679 -0.0490
 9061SOL     OW38815   3.881   4.024   3.728 -0.2799  0.2828  0.1020
 9061SOL    HW138816   3.788   4.043   3.719 -1.1170 -3.7161  0.3857
 9061SOL    HW238817   3.913   4.031   3.638  0.9672 -0.2103  0.4945
 9062SOL     OW38818   1.994   1.583   5.080 -0.5382 -0.1029  0.4187
 9062SOL    HW138819   1.969   1.501   5.037 -1.0699  0.8635 -1.1346
 9062SOL    HW238820   2.062   1.610   5.018 -0.4537  0.3282  0.7013
 9063SOL     OW38821   1.920   2.743   5.813  0.2200 -0.8775  0.4994
 9063SOL    HW138822   1.876   2.674   5.862 -0.4605 -1.0322 -0.3169
 9063SOL    HW238823   1.849   2.781   5.761  0.9285  1.2618  1.1035
 9064SOL     OW38824   1.764   0.423   9.297  0.4086 -0.6401 -0.0393
 9064SOL    HW138825   1.807   0.365   9.234  0.5937  0.1366 -0.6181
 9064SOL    HW238826   1.838   0.451   9.350  0.1765  0.5753 -0.3559
 9065SOL     OW38827   3.459   1.678  10.444  0.3299 -0.1956  0.0125
 9065SOL    HW138828   3.383   1.717  10.402 -0.6090 -2.9527 -0.8576
 9065SOL    HW238829   3.460   1.593  10.400 -1.3734  0.1781 -0.7254
 9066SOL     OW38830   1.730   0.980   8.334 -0.9521 -0.0905 -0.2099
 9066SOL    HW138831   1.647   0.933   8.330 -1.1105 -0.0022  1.7531
 9066SOL    HW238832   1.795   0.921   8.296 -0.9778  0.5769 -1.3003
 9067SOL     OW38833   3.392   1.147   3.141 -0.1555  0.3552 -0.8498
 9067SOL    HW138834   3.371   1.163   3.233  1.1441  0.7984 -0.6449
 9067SOL    HW238835   3.342   1.066   3.129 -0.6995  0.6126 -0.3549
 9068SOL     OW38836   0.555   3.931   6.518 -0.3381  0.0334 -0.2416
 9068SOL    HW138837   0.504   3.895   6.590 -0.4209 -1.3324 -0.9708
 9068SOL    HW238838   0.511   3.906   6.437 -1.6553 -0.7689  0.7277
 9069SOL     OW38839   2.808   1.735  11.979  0.0138 -0.1140  0.1942
 9069SOL    HW138840   2.898   1.747  11.947  0.0088 -0.8390 -0.0933
 9069SOL    HW238841   2.812   1.640  11.992  0.8631 -0.0066  0.7237
 9070SOL     OW38842   4.557   4.438   1.910  0.5312 -0.0469 -0.2126
 9070SOL    HW138843   4.482   4.461   1.854 -0.0501  0.5420  0.8090
 9070SOL    HW238844   4.537   4.348   1.937 -0.6117 -0.4246 -2.2944
 9071SOL     OW38845   0.779   4.101   4.250 -0.1407  0.0135  0.3498
 9071SOL    HW138846   0.791   4.158   4.326 -0.8974  2.8297 -1.6661
 9071SOL    HW238847   0.684   4.107   4.236  0.2654  2.4117 -1.2213
 9072SOL     OW38848   2.708   2.968   8.269  0.0980  0.0838  0.0781
 9072SOL    HW138849   2.760   3.047   8.279  2.1810 -1.2710  0.0588
 9072SOL    HW238850   2.731   2.954   8.177  0.7301  1.2897  0.0562
 9073SOL     OW38851   0.720   0.748  14.559  0.5110  0.3164 -0.2604
 9073SOL    HW138852   0.655   0.792  14.503 -0.0650 -0.1997  0.0057
 9073SOL    HW238853   0.722   0.658  14.528 -1.6532  0.5079 -0.9784
 9074SOL     OW38854   0.204   1.744   9.204  0.8982  0.5185  1.0433
 9074SOL    HW138855   0.280   1.747   9.262  0.5867 -1.1565  1.5517
 9074SOL    HW238856   0.198   1.649   9.193 -4.9775  0.6828  2.9289
 9075SOL     OW38857   2.258   1.585   7.494  1.2841  0.0713 -0.1035
 9075SOL    HW138858   2.201   1.508   7.485  2.1763 -0.4479 -1.3201
 9075SOL    HW238859   2.329   1.532   7.529  0.2318 -0.3424  1.4165
 9076SOL     OW38860   4.408   3.217   7.426  0.3828  0.1702 -0.3918
 9076SOL    HW138861   4.423   3.123   7.418  0.5719 -0.0733  2.6378
 9076SOL    HW238862   4.487   3.242   7.379  0.4610 -0.0286 -0.3641
 9077SOL     OW38863   1.432   1.033  14.483  0.5248 -0.4700  0.7329
 9077SOL    HW138864   1.503   1.045  14.420 -1.3362 -0.0854 -1.2976
 9077SOL    HW238865   1.416   0.940  14.465 -0.1380 -0.2905  0.3850
 9078SOL     OW38866   1.515   2.271   9.665 -0.5424  0.7300  0.1143
 9078SOL    HW138867   1.589   2.327   9.687 -0.0934  0.3641 -0.4564
 9078SOL    HW238868   1.534   2.257   9.572 -2.0950  0.9513 -0.2367
 9079SOL     OW38869   1.873   2.069   9.381  0.4039  0.1668 -0.1156
 9079SOL    HW138870   1.921   2.144   9.346 -1.6428  2.2080  1.3726
 9079SOL    HW238871   1.882   1.991   9.326 -1.2052  1.1599 -1.8058
 9080SOL     OW38872   4.664   4.296   9.039 -0.1229 -0.2692  0.1941
 9080SOL    HW138873   4.740   4.244   9.063 -0.1135  0.2780  1.3514
 9080SOL    HW238874   4.593   4.233   9.051 -1.7949  1.0780 -2.6248
 9081SOL     OW38875   1.688   1.757   3.843 -0.3869  0.7822 -0.3027
 9081SOL    HW138876   1.615   1.781   3.785 -1.1641 -0.7260  0.0366
 9081SOL    HW238877   1.757   1.754   3.778  0.3683 -1.1958  0.5994
 9082SOL     OW38878   0.740   2.662   3.575 -0.0706 -0.2061 -0.3928
 9082SOL    HW138879   0.809   2.637   3.636  0.2417  1.9571  0.1686
 9082SOL    HW238880   0.737   2.581   3.524 -1.2129  0.6646 -1.7105
 9083SOL     OW38881   3.088   1.858   1.108  0.0184  0.3763  0.2914
 9083SOL    HW138882   3.099   1.869   1.013  0.3089 -1.0525  0.1551
 9083SOL    HW238883   3.181   1.850   1.130 -0.4528 -0.5992  1.8772
 9084SOL     OW38884   4.573   3.315   8.713 -0.2338 -0.1744  0.4822
 9084SOL    HW138885   4.479   3.298   8.722  0.0785 -1.7884  0.6550
 9084SOL    HW238886   4.580   3.409   8.697  2.0670 -0.4029  0.1240
 9085SOL     OW38887   2.391   1.899   5.001  0.2321  0.3118 -0.2523
 9085SOL    HW138888   2.442   1.823   4.973 -0.7056 -0.4891  0.1990
 9085SOL    HW238889   2.423   1.962   4.936 -2.2140  1.6516 -0.1491
 9086SOL     OW38890   3.617   3.068   5.866 -0.1258  0.3574  0.1684
 9086SOL    HW138891   3.702   3.112   5.876  0.2341  0.1277 -1.8168
 9086SOL    HW238892   3.608   3.082   5.771 -0.4044  0.1565  0.1653
 9087SOL     OW38893   4.122   0.670  13.547  0.4927  0.4847  0.2090
 9087SOL    HW138894   4.208   0.683  13.586  0.4711  0.0984  0.3876
 9087SOL    HW238895   4.103   0.742  13.487 -1.9056 -0.7865 -0.6015
 9088SOL     OW38896   0.877   1.110   9.683  0.2242  0.0374 -0.1013
 9088SOL    HW138897   0.791   1.102   9.643 -0.4600  0.3675  1.2944
 9088SOL    HW238898   0.842   1.125   9.771  0.6424 -0.3699  0.1373
 9089SOL     OW38899   4.402   1.845  13.186 -0.2197 -0.3314  0.0749
 9089SOL    HW138900   4.484   1.815  13.148  0.4764  0.5487  0.9085
 9089SOL    HW238901   4.339   1.779  13.155  0.1732 -0.6646 -0.0122
 9090SOL     OW38902   4.376   2.814   2.996  0.0382 -0.3216 -0.6477
 9090SOL    HW138903   4.466   2.807   3.028 -1.1244 -0.2356  2.5823
 9090SOL    HW238904   4.352   2.902   3.027 -2.2403 -0.8128 -1.0050
 9091SOL     OW38905   0.923   1.853   2.093 -0.3883  0.0387  0.4299
 9091SOL    HW138906   0.936   1.916   2.164 -1.0114 -0.3924  0.9279
 9091SOL    HW238907   0.829   1.838   2.103 -0.2813 -0.3157  0.8764
 9092SOL     OW38908   0.957   2.462   2.699 -0.1431 -0.5926 -0.2911
 9092SOL    HW138909   0.908   2.544   2.709  0.0634 -0.4241 -0.6729
 9092SOL    HW238910   0.963   2.456   2.604 -3.2757 -0.5631 -0.4860
 9093SOL     OW38911   0.628   3.231  16.165 -0.7101 -0.5594 -0.1327
 9093SOL    HW138912   0.719   3.252  16.183 -0.1225 -2.4196 -0.9560
 9093SOL    HW238913   0.635   3.176  16.087  3.2218  1.1740 -0.9872
 9094SOL     OW38914   0.407   4.340   4.434  0.0124  0.1665 -0.1359
 9094SOL    HW138915   0.444   4.389   4.508 -0.1686  1.4082 -0.8686
 9094SOL    HW238916   0.397   4.253   4.473  1.3289  0.8357  1.7075
 9095SOL     OW38917   0.660   0.245   5.333 -0.3847  0.1165 -0.2990
 9095SOL    HW138918   0.648   0.153   5.356 -1.4142  0.2707 -0.1939
 9095SOL    HW238919   0.613   0.291   5.402  1.1752 -1.0992  1.5393
 9096SOL     OW38920   3.162   4.131  11.617 -0.1646  0.5510  0.3953
 9096SOL    HW138921   3.156   4.054  11.560 -0.3297  2.7903 -2.6144
 9096SOL    HW238922   3.072   4.144  11.648  0.2583 -0.9002  2.2727
 9097SOL     OW38923   3.149   1.264   8.183 -0.5676 -0.5104 -0.2060
 9097SOL    HW138924   3.129   1.338   8.241  0.4132 -0.6260  0.2903
 9097SOL    HW238925   3.097   1.283   8.106 -1.1418  1.6194  0.6886
 9098SOL     OW38926   4.086   3.618   4.168  0.6243  0.2073 -0.3422
 9098SOL    HW138927   4.084   3.699   4.218  1.3680 -0.0471  0.0891
 9098SOL    HW238928   4.041   3.644   4.088  1.1277  0.1717 -0.6375
 9099SOL     OW38929   2.728   1.220   1.972 -0.0492 -0.1746 -0.1625
 9099SOL    HW138930   2.792   1.200   1.904 -0.1021 -0.0470 -0.2493
 9099SOL    HW238931   2.664   1.151   1.958  0.6911 -0.9936  0.4099
 9100SOL     OW38932   2.350   2.027   7.571  0.2968 -0.5312  0.3794
 9100SOL    HW138933   2.419   2.050   7.509 -1.0946  1.1491 -0.5316
 9100SOL    HW238934   2.307   1.959   7.519 -1.8691  0.7829  0.4879
 9101SOL     OW38935   0.559   2.561   2.681 -0.2503 -0.0407  0.3667
 9101SOL    HW138936   0.576   2.468   2.692  1.8721  0.1115 -1.6337
 9101SOL    HW238937   0.633   2.588   2.627 -1.7240 -1.0079 -2.1684
 9102SOL     OW38938   2.695   0.384   6.247 -0.0680 -1.0226 -0.1500
 9102SOL    HW138939   2.782   0.359   6.216  1.0411  2.5092  0.1172
 9102SOL    HW238940   2.704   0.470   6.289  1.2664 -0.8252 -0.8314
 9103SOL     OW38941   4.597   2.147   0.721  0.5709  0.1558  0.4412
 9103SOL    HW138942   4.607   2.208   0.648  4.1809 -0.8911  0.0735
 9103SOL    HW238943   4.655   2.071   0.717 -2.1082 -1.8819  0.2322
 9104SOL     OW38944   1.619   3.214   3.265 -0.4398  0.3373 -0.6913
 9104SOL    HW138945   1.623   3.268   3.187 -1.3552 -0.5256 -1.3276
 9104SOL    HW238946   1.532   3.174   3.256  0.9778 -3.1402  0.7493
 9105SOL     OW38947   3.472   3.287  13.843 -0.0976 -0.2932 -0.0635
 9105SOL    HW138948   3.396   3.231  13.825 -0.2437 -0.1613  0.1390
 9105SOL    HW238949   3.540   3.228  13.876  1.2170  0.6555 -1.0518
 9106SOL     OW38950   3.115   1.558  10.133  0.5124 -0.0882 -0.4415
 9106SOL    HW138951   3.044   1.495  10.150 -0.4566  0.6258 -1.8757
 9106SOL    HW238952   3.192   1.502  10.122  0.9651  0.7055 -1.2656
 9107SOL     OW38953   2.152   3.062   2.011  0.0452  0.0074 -0.2466
 9107SOL    HW138954   2.114   2.975   2.019 -1.0430  0.4198 -0.8601
 9107SOL    HW238955   2.084   3.118   1.973  0.2553  0.1294 -0.4465
 9108SOL     OW38956   4.122   2.251  17.165 -0.2558  0.1547 -0.3201
 9108SOL    HW138957   4.190   2.184  17.165 -1.3574 -0.9980 -4.3984
 9108SOL    HW238958   4.074   2.251  17.248 -1.9802 -2.9004 -1.3060
 9109SOL     OW38959   2.956   1.359  14.683  0.6530 -0.4026 -0.4980
 9109SOL    HW138960   2.995   1.291  14.627  0.2201 -1.5913  0.6510
 9109SOL    HW238961   2.955   1.301  14.759 -0.7840 -0.8681 -0.8721
 9110SOL     OW38962   3.867   2.695  16.852  0.0345 -0.1619  0.5194
 9110SOL    HW138963   3.772   2.684  16.855  0.1266 -0.2035  3.1243
 9110SOL    HW238964   3.872   2.751  16.774  0.2718  0.4780  0.9887
 9111SOL     OW38965   1.786   3.482   8.494  0.3122  0.3445  0.9900
 9111SOL    HW138966   1.865   3.458   8.542  1.8234 -0.4794 -1.9104
 9111SOL    HW238967   1.737   3.523   8.565 -1.1165  1.0590 -0.3928
 9112SOL     OW38968   2.009   0.852   2.133 -0.0981 -0.2846 -0.1177
 9112SOL    HW138969   1.992   0.913   2.061  0.3598  0.4551  0.3921
 9112SOL    HW238970   2.056   0.784   2.085  0.3668 -0.9637  1.2710
 9113SOL     OW38971   1.916   4.162  10.794  0.7600 -0.7712  0.1233
 9113SOL    HW138972   1.935   4.221  10.867 -3.3367  0.1762  0.3933
 9113SOL    HW238973   1.821   4.161  10.782  0.5232  1.6054  1.7734
 9114SOL     OW38974   0.880   4.236   6.390  0.7710  0.2057 -0.4063
 9114SOL    HW138975   0.953   4.289   6.356  0.2040  1.7664  0.7790
 9114SOL    HW238976   0.926   4.155   6.411 -2.9265 -1.5793  0.6139
 9115SOL     OW38977   1.341   0.528   4.515 -0.1550 -0.4772  0.7318
 9115SOL    HW138978   1.315   0.592   4.449 -1.0634 -0.1658  1.3845
 9115SOL    HW238979   1.403   0.583   4.563  3.4216 -4.0954  0.2224
 9116SOL     OW38980   0.517   4.070   2.746  0.0107 -0.5090 -0.1285
 9116SOL    HW138981   0.471   4.006   2.692  1.4843 -2.0034  0.4185
 9116SOL    HW238982   0.594   4.088   2.692 -1.0091 -1.4771 -1.9020
 9117SOL     OW38983   3.951   0.647   4.356  0.0414  0.4580  0.4318
 9117SOL    HW138984   3.944   0.553   4.341 -0.2049  0.3854  1.0188
 9117SOL    HW238985   4.042   0.664   4.381  0.6792 -0.8128 -1.0593
 9118SOL     OW38986   1.194   0.567  13.298 -0.3293  0.0469  0.3162
 9118SOL    HW138987   1.160   0.491  13.250  0.0520 -1.7734  2.9435
 9118SOL    HW238988   1.264   0.598  13.240 -0.4309 -2.2068 -1.0267
 9119SOL     OW38989   0.157   0.280   8.083 -0.0767 -0.7781  0.2239
 9119SOL    HW138990   0.122   0.252   8.168  0.0752  0.0803  0.5670
 9119SOL    HW238991   0.218   0.347   8.114 -1.7013  1.1879 -0.8955
 9120SOL     OW38992   1.647   3.348  16.499 -0.6851  0.5634  0.3880
 9120SOL    HW138993   1.715   3.394  16.451  1.0134 -3.8020 -1.4369
 9120SOL    HW238994   1.701   3.284  16.545 -1.5550  1.0545  2.0839
 9121SOL     OW38995   0.669   3.564   2.784  0.1427  0.2362  0.3032
 9121SOL    HW138996   0.598   3.622   2.811  0.0067 -0.2072  0.9017
 9121SOL    HW238997   0.719   3.633   2.740 -1.1097  0.8040 -0.2484
 9122SOL     OW38998   0.401   0.446   7.191 -0.0653 -0.7101 -0.3387
 9122SOL    HW138999   0.453   0.400   7.125 -0.1710 -1.5473  0.1645
 9122SOL    HW239000   0.375   0.517   7.132  0.1085 -0.5424 -0.2172
 9123SOL     OW39001   0.432   3.393   6.933 -0.3747 -0.2195  0.0737
 9123SOL    HW139002   0.438   3.369   6.840 -0.1280 -0.0335  0.0420
 9123SOL    HW239003   0.475   3.478   6.931 -0.6993 -0.0808 -1.6658
 9124SOL     OW39004   0.440   3.156   1.640 -0.5059  0.2608  0.0056
 9124SOL    HW139005   0.365   3.097   1.632 -0.9383  0.5413  2.1160
 9124SOL    HW239006   0.479   3.108   1.713 -0.7456  0.0260 -0.0221
 9125SOL     OW39007   1.640   3.458  10.103  0.8465  0.4602  0.3587
 9125SOL    HW139008   1.664   3.418  10.186  3.1000 -0.9489 -0.9701
 9125SOL    HW239009   1.712   3.521  10.097  0.4457  0.7733 -1.2806
 9126SOL     OW39010   2.331   1.616   6.789 -0.0139 -0.4742 -0.0710
 9126SOL    HW139011   2.389   1.629   6.864  1.4502  0.3473 -1.3331
 9126SOL    HW239012   2.314   1.708   6.767 -3.4859 -0.6736  1.8307
 9127SOL     OW39013   1.825   2.755   8.201  0.4308 -0.0062 -0.5652
 9127SOL    HW139014   1.905   2.773   8.249 -0.7565 -0.0120  1.4188
 9127SOL    HW239015   1.786   2.682   8.249  2.6689 -0.4891  0.4828
 9128SOL     OW39016   0.884   4.557   0.047  0.2281  0.2003 -0.3930
 9128SOL    HW139017   0.804   4.589   0.007 -1.0972  0.0928  2.1633
 9128SOL    HW239018   0.902   4.631   0.106  0.6995  0.4548 -0.8535
 9129SOL     OW39019   2.278   1.833   2.291  0.4733  0.3248  0.6180
 9129SOL    HW139020   2.239   1.883   2.220 -1.5192 -1.2856  0.5888
 9129SOL    HW239021   2.207   1.817   2.354  0.2580  4.5380  1.4465
 9130SOL     OW39022   1.512   2.253   5.694 -0.0175 -0.0555  0.4712
 9130SOL    HW139023   1.504   2.348   5.680  0.0772 -0.5196 -2.9407
 9130SOL    HW239024   1.458   2.241   5.772 -0.8807  1.8177  0.1722
 9131SOL     OW39025   4.099   4.586   6.306 -0.2691  0.1804 -0.5511
 9131SOL    HW139026   4.090   4.517   6.372  1.4932 -0.8615 -1.4069
 9131SOL    HW239027   4.014   4.628   6.314 -0.3740 -0.3938  1.2971
 9132SOL     OW39028   3.439   3.226   9.695 -0.2780 -0.2988 -0.7319
 9132SOL    HW139029   3.455   3.320   9.690 -1.0683 -0.1974 -1.3743
 9132SOL    HW239030   3.467   3.209   9.785  0.6557 -0.0359 -0.9693
 9133SOL     OW39031   0.894   3.951   2.971 -0.0922  0.1852  0.2435
 9133SOL    HW139032   0.828   3.893   3.007  0.1248 -0.0816  0.2171
 9133SOL    HW239033   0.915   3.999   3.051  2.6032 -0.4073 -0.1077
 9134SOL     OW39034   3.426   0.369   8.551  0.0473 -0.2947 -0.1202
 9134SOL    HW139035   3.476   0.328   8.621 -0.6977 -1.4224 -0.2556
 9134SOL    HW239036   3.453   0.461   8.558 -3.7070  0.7652  0.7296
 9135SOL     OW39037   1.549   0.225   7.564  0.7324 -0.1419  0.2369
 9135SOL    HW139038   1.584   0.184   7.485 -0.8205  2.4417 -1.8129
 9135SOL    HW239039   1.629   0.254   7.609  0.6834  0.1993  0.1099
 9136SOL     OW39040   0.939   4.399   4.539 -0.2313  0.2535  0.0041
 9136SOL    HW139041   0.949   4.446   4.622  0.2811  1.6839 -0.8614
 9136SOL    HW239042   1.030   4.370   4.530  0.3066  1.2871  2.1823
 9137SOL     OW39043   3.672   0.286   6.513  0.0775 -0.0710  0.0226
 9137SOL    HW139044   3.639   0.376   6.515 -0.1284 -0.1790  1.2435
 9137SOL    HW239045   3.766   0.291   6.496  0.0868 -0.9067 -0.1425
 9138SOL     OW39046   4.118   3.895  12.619  0.4405  0.1978 -0.0821
 9138SOL    HW139047   4.065   3.944  12.682 -2.2670 -1.1332 -1.3452
 9138SOL    HW239048   4.208   3.919  12.642  0.4268  0.2107 -0.0425
 9139SOL     OW39049   4.009   0.702  10.584  0.0605  0.1401 -0.5926
 9139SOL    HW139050   3.993   0.796  10.595 -1.0513 -0.2372  1.0830
 9139SOL    HW239051   3.980   0.699  10.493 -0.5523  1.5703 -0.4477
 9140SOL     OW39052   2.055   2.479   1.595 -0.1354 -0.3864 -0.2120
 9140SOL    HW139053   1.999   2.516   1.663 -0.4376  0.0213 -0.6904
 9140SOL    HW239054   2.133   2.467   1.650  0.1273  1.7511 -0.1225
 9141SOL     OW39055   1.020   1.748   8.603 -0.0035  0.1227 -0.1054
 9141SOL    HW139056   1.106   1.790   8.609  0.0358 -0.2571  1.8936
 9141SOL    HW239057   1.006   1.720   8.694 -1.0594 -0.3993 -0.4280
 9142SOL     OW39058   1.615   4.205   9.936  0.4722 -0.7528 -0.3334
 9142SOL    HW139059   1.554   4.278   9.929  2.3418  0.8354 -0.2147
 9142SOL    HW239060   1.696   4.235   9.893 -0.5651  0.4119 -1.4774
 9143SOL     OW39061   0.438   3.218  17.208  0.3486  0.1908  0.1169
 9143SOL    HW139062   0.393   3.135  17.192  1.4331 -0.7144  1.7572
 9143SOL    HW239063   0.423   3.273  17.131  2.3698  1.6277  0.7225
 9144SOL     OW39064   0.943   1.517  12.978  0.0540  0.4814 -0.3910
 9144SOL    HW139065   0.886   1.588  13.008 -1.5743 -0.5460 -1.0205
 9144SOL    HW239066   0.911   1.497  12.890  0.0678  0.5803 -0.4189
 9145SOL     OW39067   3.317   3.670   0.622  0.0752 -0.2569 -0.2196
 9145SOL    HW139068   3.333   3.581   0.652  1.6634  0.5189  1.2763
 9145SOL    HW239069   3.266   3.644   0.546 -2.2298  2.9740  0.2231
 9146SOL     OW39070   3.293   2.656   9.680  0.3801  0.2320  0.3234
 9146SOL    HW139071   3.322   2.744   9.657  0.0078  0.3496  0.3118
 9146SOL    HW239072   3.375   2.633   9.724  0.8286  0.9637 -0.1322
 9147SOL     OW39073   0.162   2.374   3.834 -0.4150 -0.6191 -0.2153
 9147SOL    HW139074   0.101   2.386   3.906  1.4262 -0.7927  1.3791
 9147SOL    HW239075   0.194   2.464   3.837  1.3326 -1.1775 -1.9544
 9148SOL     OW39076   4.220   2.429  14.694 -0.3978 -0.6553  0.0998
 9148SOL    HW139077   4.258   2.492  14.755 -0.7944  2.1994 -2.6423
 9148SOL    HW239078   4.137   2.472  14.675 -0.3077 -1.3131 -1.7896
 9149SOL     OW39079   0.685   0.075   2.956  0.4054 -0.0225  0.4613
 9149SOL    HW139080   0.700   4.727   2.990  2.7912 -0.0919 -0.7695
 9149SOL    HW239081   0.746   0.080   2.883  0.7711 -0.0079  0.7650
 9150SOL     OW39082   3.211   2.652  15.313  0.0706 -0.4773 -0.0946
 9150SOL    HW139083   3.151   2.610  15.374 -0.1943 -2.2432 -1.5886
 9150SOL    HW239084   3.240   2.727  15.365  2.1025 -1.0449 -0.3986
 9151SOL     OW39085   2.836   3.123  15.922  0.1547 -0.2472 -0.5203
 9151SOL    HW139086   2.829   3.049  15.982 -1.7043  1.2043  1.0868
 9151SOL    HW239087   2.771   3.105  15.854  1.5882 -0.9521 -1.6998
 9152SOL     OW39088   3.674   3.098  12.823 -0.8504  0.1134 -0.0678
 9152SOL    HW139089   3.702   3.110  12.732  2.3899  0.1511  0.9413
 9152SOL    HW239090   3.706   3.013  12.852  1.4835  1.1481  0.3876
 9153SOL     OW39091   4.399   4.082   2.288 -0.4771 -0.0673  0.1937
 9153SOL    HW139092   4.308   4.052   2.285  0.0266 -1.5338 -0.6854
 9153SOL    HW239093   4.388   4.126   2.372  0.0513 -1.5868  1.0425
 9154SOL     OW39094   1.385   4.616   4.847  0.1181  0.5941  0.4420
 9154SOL    HW139095   1.391   4.597   4.754 -2.6311  3.9035 -0.4283
 9154SOL    HW239096   1.383   4.530   4.888  3.9136  0.3853  0.1535
 9155SOL     OW39097   3.769   2.586   8.126  0.3152 -0.1119  0.1257
 9155SOL    HW139098   3.741   2.677   8.139  1.5522  0.2630  0.1479
 9155SOL    HW239099   3.696   2.531   8.155 -0.7821  1.7294  0.8971
 9156SOL     OW39100   0.764   2.135   8.628  0.2301 -0.1079  0.2641
 9156SOL    HW139101   0.757   2.047   8.591 -1.5393 -0.3198  1.0908
 9156SOL    HW239102   0.808   2.173   8.552 -0.2175  0.7337  0.4187
 9157SOL     OW39103   0.891   3.177   8.215 -0.6860  0.2460  0.7713
 9157SOL    HW139104   0.908   3.251   8.157 -0.3899 -1.1227 -0.8688
 9157SOL    HW239105   0.956   3.168   8.285  1.5451  1.0653 -1.2226
 9158SOL     OW39106   1.847   0.573   1.797 -0.1720 -0.2005  0.5868
 9158SOL    HW139107   1.912   0.633   1.762  1.0918 -1.2576  1.1258
 9158SOL    HW239108   1.768   0.598   1.749  0.6680 -0.4372 -0.8988
 9159SOL     OW39109   3.170   2.071   7.826  0.7125 -0.0526  0.9345
 9159SOL    HW139110   3.088   2.054   7.872  0.7593  0.3300  1.1558
 9159SOL    HW239111   3.157   2.166   7.819 -0.1244 -0.3331 -1.2472
 9160SOL     OW39112   2.000   3.168  16.521 -0.0520 -0.3603 -0.0567
 9160SOL    HW139113   1.921   3.135  16.564 -0.0614  0.8437  0.8654
 9160SOL    HW239114   2.023   3.245  16.574 -0.5708 -1.5392  1.8628
 9161SOL     OW39115   4.531   0.699   6.744 -1.0892 -0.0303  0.0605
 9161SOL    HW139116   4.510   0.792   6.745 -1.1467 -0.0355 -0.9299
 9161SOL    HW239117   4.564   0.695   6.655 -3.2102 -0.3876 -0.7110
 9162SOL     OW39118   1.932   4.567   1.033 -0.3056  0.4136 -0.6885
 9162SOL    HW139119   1.922   4.492   0.975  2.8996 -1.1741  0.7972
 9162SOL    HW239120   1.993   4.523   1.092  0.4085 -0.3626 -2.0070
 9163SOL     OW39121   4.393   4.583   3.204 -0.3374 -0.1374  0.7031
 9163SOL    HW139122   4.485   4.562   3.218 -0.2820 -0.8843 -0.8434
 9163SOL    HW239123   4.388   4.652   3.270  1.6204 -0.8769  1.6263
 9164SOL     OW39124   2.945   4.427   6.306 -0.3959  0.3519  0.5274
 9164SOL    HW139125   3.040   4.442   6.309 -0.1241 -1.6726  2.2975
 9164SOL    HW239126   2.947   4.332   6.317  1.3347  0.2666 -0.5040
 9165SOL     OW39127   2.927   1.135   5.126  0.4013 -0.4396  0.1221
 9165SOL    HW139128   2.931   1.155   5.032  1.1796  1.0224  0.4636
 9165SOL    HW239129   2.836   1.155   5.147  1.0043  4.5934 -2.0778
 9166SOL     OW39130   1.576   1.560  12.979 -0.5960  0.6037 -0.3838
 9166SOL    HW139131   1.537   1.616  13.047 -2.5160 -1.4336  0.1667
 9166SOL    HW239132   1.507   1.546  12.915 -1.5443 -2.5622  1.3588
 9167SOL     OW39133   4.469   3.356  15.069 -0.3435 -0.3562  0.1795
 9167SOL    HW139134   4.511   3.437  15.041 -0.3406  0.0536  1.3951
 9167SOL    HW239135   4.552   3.309  15.066 -1.2863 -2.1371  1.9743
 9168SOL     OW39136   1.515   3.779   3.855 -0.3533  0.3774 -0.2400
 9168SOL    HW139137   1.589   3.737   3.811 -0.0118  1.3911 -0.6294
 9168SOL    HW239138   1.443   3.752   3.798 -0.3027  0.1155 -0.1777
 9169SOL     OW39139   4.169   1.982   3.664 -0.1801  0.1658  0.0416
 9169SOL    HW139140   4.104   2.049   3.644 -1.1926 -0.6477  0.6181
 9169SOL    HW239141   4.247   2.015   3.620  1.3383 -1.8139  1.2692
 9170SOL     OW39142   1.987   1.891   6.560 -0.1908  0.1382  0.2067
 9170SOL    HW139143   1.999   1.812   6.612 -0.2608  0.6101  0.9439
 9170SOL    HW239144   1.992   1.843   6.478  1.6666 -0.6230  0.7679
 9171SOL     OW39145   1.426   0.753   1.265 -0.3738  0.2917  0.1833
 9171SOL    HW139146   1.436   0.785   1.175 -0.7587 -0.1101 -0.0027
 9171SOL    HW239147   1.332   0.770   1.269 -0.1452  2.3271 -3.0567
 9172SOL     OW39148   0.597   1.821   3.789 -0.0736  0.0715  0.0004
 9172SOL    HW139149   0.678   1.774   3.767  0.1833 -0.1729  1.4437
 9172SOL    HW239150   0.545   1.742   3.805  0.2758  0.5575  3.5161
 9173SOL     OW39151   1.233   1.186   5.368 -0.6500  0.8584 -0.3413
 9173SOL    HW139152   1.197   1.132   5.298  1.7189  0.4128 -1.2191
 9173SOL    HW239153   1.179   1.150   5.439 -0.4133  0.7849 -0.1998
 9174SOL     OW39154   2.873   4.022  12.986 -0.9013  0.8161 -0.2335
 9174SOL    HW139155   2.968   4.028  12.995 -0.7095 -1.7026 -0.5121
 9174SOL    HW239156   2.868   3.932  12.953 -0.0832  0.0486  1.7338
 9175SOL     OW39157   0.933   1.420  14.900 -0.0401  0.5966  0.5315
 9175SOL    HW139158   0.905   1.353  14.838  2.6437 -0.4867  0.4922
 9175SOL    HW239159   1.027   1.407  14.894 -0.1068 -0.5658  1.9812
 9176SOL     OW39160   0.606   1.649   2.042 -0.0850  0.0571  0.0053
 9176SOL    HW139161   0.680   1.596   2.073 -0.5782  0.0235  1.1210
 9176SOL    HW239162   0.591   1.702   2.120 -1.6921 -1.2559  0.6133
 9177SOL     OW39163   3.031   3.482   9.389 -0.1952  0.3121  0.0816
 9177SOL    HW139164   2.978   3.516   9.461  1.8874 -0.9421  2.2050
 9177SOL    HW239165   2.995   3.533   9.317 -0.5772 -1.8469 -1.2467
 9178SOL     OW39166   3.847   0.133   3.332  0.5210  0.3163  0.3160
 9178SOL    HW139167   3.922   0.084   3.300 -0.1191  0.0366 -0.7682
 9178SOL    HW239168   3.823   0.084   3.411  0.6926  1.8002  1.2985
 9179SOL     OW39169   1.461   2.529   5.348 -0.5226  0.1945  0.0384
 9179SOL    HW139170   1.468   2.555   5.256  1.7694 -0.2652  0.0815
 9179SOL    HW239171   1.542   2.481   5.360 -1.4218 -1.1905  0.5879
 9180SOL     OW39172   0.807   3.342   4.350 -0.0443  1.0143 -0.2148
 9180SOL    HW139173   0.815   3.365   4.443  2.0223 -0.9214  0.0734
 9180SOL    HW239174   0.869   3.404   4.314  0.5480  1.3977  1.4691
 9181SOL     OW39175   4.465   1.991   7.980 -0.3250  0.1341  0.0166
 9181SOL    HW139176   4.437   1.907   7.943 -0.6201  0.1131  0.2846
 9181SOL    HW239177   4.390   2.013   8.036  0.7089  1.8496  0.7108
 9182SOL     OW39178   0.664   3.895   8.277 -0.6374  0.2613  0.0169
 9182SOL    HW139179   0.626   3.898   8.364  2.0033  0.1883  1.1678
 9182SOL    HW239180   0.759   3.892   8.293 -0.6626 -0.0422  0.1072
 9183SOL     OW39181   0.198   1.942  12.888 -0.3068  0.4856 -0.3350
 9183SOL    HW139182   0.123   1.997  12.910 -0.4334  0.7241 -1.3539
 9183SOL    HW239183   0.241   1.938  12.973  2.0584  0.7300 -1.5410
 9184SOL     OW39184   0.985   1.410   5.268 -0.0364 -0.2257  0.5333
 9184SOL    HW139185   1.013   1.426   5.178 -1.0086  1.3330  0.5059
 9184SOL    HW239186   1.055   1.452   5.318  0.5647 -0.0474 -0.4512
 9185SOL     OW39187   1.059   2.403   8.085  0.5799 -0.2366  0.3315
 9185SOL    HW139188   1.063   2.388   8.179  1.1267  0.9791  0.4985
 9185SOL    HW239189   1.083   2.495   8.075  0.7377 -0.1872  1.1330
 9186SOL     OW39190   0.776   1.959  12.743 -0.2222  0.3250 -0.0157
 9186SOL    HW139191   0.843   2.028  12.737 -1.0805  1.1587  0.0862
 9186SOL    HW239192   0.700   1.999  12.703 -1.1935  0.7046  2.1911
 9187SOL     OW39193   0.931   1.735  13.848 -0.1654  0.1213  0.6643
 9187SOL    HW139194   0.871   1.686  13.792 -0.5384  0.6103  0.6405
 9187SOL    HW239195   1.015   1.742  13.803 -0.3747 -0.0475  0.2523
 9188SOL     OW39196   3.946   0.219   6.975  0.2668  0.1007  0.3797
 9188SOL    HW139197   3.953   0.261   6.889  0.3042  0.2202  0.4409
 9188SOL    HW239198   3.970   0.286   7.038  1.8370 -1.5446  1.5241
 9189SOL     OW39199   2.105   3.638   5.435  0.2673  0.6205  0.2095
 9189SOL    HW139200   2.018   3.603   5.456  0.1452 -0.0380 -1.3643
 9189SOL    HW239201   2.101   3.630   5.340 -1.3786 -2.1055  0.5018
 9190SOL     OW39202   3.696   0.413  15.061  0.5389 -0.6339 -0.0269
 9190SOL    HW139203   3.676   0.327  15.024 -1.7800  0.7828 -2.0560
 9190SOL    HW239204   3.791   0.401  15.065  0.8748  1.8602 -0.6062
 9191SOL     OW39205   2.714   3.830   2.574  0.1785  0.5059 -0.1852
 9191SOL    HW139206   2.790   3.780   2.601 -0.2935 -0.2828 -0.3303
 9191SOL    HW239207   2.641   3.769   2.585  1.2314 -1.1612 -2.7099
 9192SOL     OW39208   4.398   1.824   4.379 -0.0753  0.4668 -0.2028
 9192SOL    HW139209   4.406   1.732   4.404 -0.7547  1.3839  3.3722
 9192SOL    HW239210   4.473   1.853   4.432 -0.4006  3.7564 -1.5522
 9193SOL     OW39211   4.311   3.345   1.945  0.0112  0.0199  0.3507
 9193SOL    HW139212   4.339   3.433   1.967 -1.0072  0.6594 -0.9135
 9193SOL    HW239213   4.373   3.321   1.876  0.0989 -0.4379  0.5884
 9194SOL     OW39214   2.698   4.239   9.802  0.0188 -0.3719 -0.0067
 9194SOL    HW139215   2.666   4.191   9.726 -0.1160 -0.6857  0.2471
 9194SOL    HW239216   2.793   4.227   9.804 -0.1086 -1.4995 -1.1468
 9195SOL     OW39217   3.671   4.127   1.093 -0.0349 -0.3100 -0.3459
 9195SOL    HW139218   3.629   4.185   1.157 -1.8182 -0.6888 -1.1778
 9195SOL    HW239219   3.707   4.057   1.148 -1.7493 -0.6781  0.3013
 9196SOL     OW39220   3.630   2.068   5.629 -0.1658  0.0470 -0.3249
 9196SOL    HW139221   3.583   1.985   5.626  2.3564 -1.4131  1.0920
 9196SOL    HW239222   3.591   2.123   5.697 -0.2475  0.9296 -1.0909
 9197SOL     OW39223   3.908   3.905   2.379 -0.0744 -1.1894 -0.2004
 9197SOL    HW139224   3.823   3.928   2.417  1.0503  1.0737  0.9031
 9197SOL    HW239225   3.917   3.809   2.383 -2.0951 -1.4251 -1.3086
 9198SOL     OW39226   2.671   0.219  13.621 -0.0226 -0.1200  0.0981
 9198SOL    HW139227   2.760   0.232  13.655 -0.1604 -0.6264  0.6530
 9198SOL    HW239228   2.633   0.152  13.677 -0.7759 -0.2564 -0.5675
 9199SOL     OW39229   2.032   2.286  14.420 -0.2546 -0.0366 -0.3842
 9199SOL    HW139230   2.021   2.243  14.335  1.6021  1.1504 -1.2018
 9199SOL    HW239231   1.940   2.299  14.446  0.0411  1.6570 -0.1780
 9200SOL     OW39232   0.743   2.856   1.759 -0.7442  0.0830 -0.4859
 9200SOL    HW139233   0.775   2.818   1.677  0.0725 -1.5801  0.6042
 9200SOL    HW239234   0.796   2.811   1.825 -0.6109  0.9203 -0.0119
 9201SOL     OW39235   0.542   1.102   8.658 -0.0778  0.2426  0.2172
 9201SOL    HW139236   0.579   1.151   8.731  2.4844 -1.5635  0.1204
 9201SOL    HW239237   0.476   1.162   8.625  0.0574  0.2071 -0.1120
 9202SOL     OW39238   1.584   3.035   5.315  0.4917  0.1132 -0.2578
 9202SOL    HW139239   1.537   3.109   5.354 -2.0929 -0.7805 -1.7000
 9202SOL    HW239240   1.560   2.960   5.370  1.6790  0.5075  0.7963
 9203SOL     OW39241   0.381   2.921   2.039  0.2849 -0.5083 -0.2630
 9203SOL    HW139242   0.435   2.976   1.983 -0.4833 -0.0647 -0.5662
 9203SOL    HW239243   0.326   2.977   2.093 -2.1182 -0.6624 -2.5374
 9204SOL     OW39244   1.930   0.270   2.588 -0.4441 -0.6986  0.2076
 9204SOL    HW139245   2.012   0.307   2.556  0.5936 -2.1570  1.1987
 9204SOL    HW239246   1.932   0.184   2.546 -1.9721 -0.1646 -0.9313
 9205SOL     OW39247   0.090   4.399   9.889 -0.6055  0.1927 -0.2748
 9205SOL    HW139248   0.069   4.452   9.965  2.2244 -0.1955  0.7683
 9205SOL    HW239249   0.030   4.430   9.821  0.3699  2.7777  0.0657
 9206SOL     OW39250   3.608   4.710  15.177 -0.1552  0.0424  0.1402
 9206SOL    HW139251   3.656   4.629  15.162  0.1262  0.2692 -0.1776
 9206SOL    HW239252   3.564   4.682  15.258  1.7855 -0.0732  1.1384
 9207SOL     OW39253   2.210   4.233   3.520  0.0917 -0.3787  0.0481
 9207SOL    HW139254   2.243   4.220   3.432 -0.7681 -0.3515 -0.2779
 9207SOL    HW239255   2.290   4.263   3.564  1.1768  0.2721 -2.4014
 9208SOL     OW39256   3.922   2.748   4.115 -0.8326 -0.1217 -0.0210
 9208SOL    HW139257   3.872   2.699   4.180 -2.4890  0.1368 -1.0788
 9208SOL    HW239258   3.957   2.694   4.044  1.9048  1.5883  0.0424
 9209SOL     OW39259   4.633   0.238   3.107 -0.4040 -0.0794 -0.9043
 9209SOL    HW139260   4.671   0.203   3.027 -0.4900 -0.6364 -0.7014
 9209SOL    HW239261   4.591   0.317   3.074 -0.3608  1.2891  2.3035
 9210SOL     OW39262   0.458   2.078   6.713  0.7378  0.8185  0.3442
 9210SOL    HW139263   0.441   2.129   6.792 -1.6317 -1.1655  1.1004
 9210SOL    HW239264   0.372   2.055   6.678  0.1186 -2.4316  3.9334
 9211SOL     OW39265   4.009   4.678   0.841 -0.3515 -0.0338  0.1955
 9211SOL    HW139266   4.070   4.613   0.876 -0.3919 -1.4043 -2.3092
 9211SOL    HW239267   3.987   4.644   0.755  3.4432  1.4186 -1.3328
 9212SOL     OW39268   0.238   0.909   6.012  0.1881 -0.3511 -0.4417
 9212SOL    HW139269   0.195   0.982   6.058  1.3981 -0.5680  1.0179
 9212SOL    HW239270   0.158   0.868   5.980 -0.7079  0.4756  0.7269
 9213SOL     OW39271   2.457   1.676  12.063  0.6058 -0.0911 -0.1197
 9213SOL    HW139272   2.489   1.746  12.007 -0.8781 -0.6193 -1.6573
 9213SOL    HW239273   2.398   1.731  12.115  0.2294  0.0033 -0.6465
 9214SOL     OW39274   2.717   1.729   5.171 -0.4796  0.2653 -0.1229
 9214SOL    HW139275   2.646   1.666   5.168 -0.3381  0.1618 -1.6637
 9214SOL    HW239276   2.754   1.716   5.083 -0.0587  0.4902  0.0188
 9215SOL     OW39277   2.802   2.638   6.456  0.0089 -0.8185 -0.3198
 9215SOL    HW139278   2.723   2.634   6.509 -0.7421 -0.4375 -1.4195
 9215SOL    HW239279   2.772   2.685   6.378 -0.5084 -0.5047  0.0731
 9216SOL     OW39280   2.970   0.883   2.436 -0.1246  0.2711 -0.1913
 9216SOL    HW139281   2.875   0.875   2.424 -0.2196 -1.4426  1.7440
 9216SOL    HW239282   2.997   0.887   2.344  1.8119 -0.1765  0.3707
 9217SOL     OW39283   4.201   3.684   3.228  0.5035  0.3326  0.1549
 9217SOL    HW139284   4.180   3.641   3.311 -1.7974 -1.2943 -1.2730
 9217SOL    HW239285   4.193   3.614   3.163  0.6333  0.3233  0.1483
 9218SOL     OW39286   0.542   3.186  12.786  0.2237  0.1284 -0.3520
 9218SOL    HW139287   0.504   3.257  12.838 -0.6080  0.6077 -1.6086
 9218SOL    HW239288   0.552   3.116  12.851  3.2716 -1.1437 -2.2061
 9219SOL     OW39289   2.908   0.434  10.490 -0.3038  0.2870 -0.3265
 9219SOL    HW139290   2.912   0.502  10.422 -1.8722  2.6844  1.9614
 9219SOL    HW239291   2.816   0.424  10.468 -0.0432 -1.5974 -0.5269
 9220SOL     OW39292   0.775   0.570  12.120  0.3833  0.3550  0.5852
 9220SOL    HW139293   0.803   0.653  12.082 -0.4277 -0.9332 -2.8631
 9220SOL    HW239294   0.696   0.548  12.070 -0.1750 -0.6268  1.8851
 9221SOL     OW39295   4.052   1.552   6.020  0.0102 -0.1832 -0.1179
 9221SOL    HW139296   4.095   1.508   6.093 -1.9986 -0.3290  0.9860
 9221SOL    HW239297   4.131   1.579   5.974 -1.5718  1.8341 -1.7179
 9222SOL     OW39298   3.214   0.225   4.016 -0.2865  0.3618  0.6472
 9222SOL    HW139299   3.178   0.279   3.946 -3.2247 -0.9161  1.1472
 9222SOL    HW239300   3.304   0.256   4.009  0.7552 -2.3928  1.6704
 9223SOL     OW39301   2.900   1.209   4.880  0.8396 -0.1458  0.8026
 9223SOL    HW139302   2.812   1.246   4.871  0.5420 -0.8101  0.9331
 9223SOL    HW239303   2.921   1.192   4.788  1.2929  0.0788  0.8656
 9224SOL     OW39304   0.787   1.210   3.907 -0.1187 -0.3676 -0.4567
 9224SOL    HW139305   0.866   1.157   3.898 -0.6238 -1.1756 -0.1761
 9224SOL    HW239306   0.764   1.208   3.814  1.0289  2.3815 -0.7835
 9225SOL     OW39307   1.215   0.619  16.215 -0.1443  0.3155 -0.2711
 9225SOL    HW139308   1.257   0.703  16.229  2.5729 -0.9643 -0.7223
 9225SOL    HW239309   1.285   0.554  16.225  0.2914  0.8811  0.3178
 9226SOL     OW39310   1.424   3.997   3.046  0.0033  0.0929 -0.0396
 9226SOL    HW139311   1.484   3.939   3.094  1.6197  1.2351 -0.6813
 9226SOL    HW239312   1.372   3.928   3.004 -0.7200 -1.1294  2.8712
 9227SOL     OW39313   0.520   4.492   5.321  0.5382 -0.0664  0.1094
 9227SOL    HW139314   0.596   4.443   5.353 -1.4244 -1.5947  2.4735
 9227SOL    HW239315   0.489   4.531   5.403 -1.1073 -1.2869  0.0834
 9228SOL     OW39316   0.060   3.770  16.715  0.4629 -0.4700 -0.7539
 9228SOL    HW139317   0.127   3.775  16.646  2.5538  5.5201  1.6311
 9228SOL    HW239318   0.093   3.846  16.764 -0.9748 -1.0945  1.1647
 9229SOL     OW39319   4.451   2.928   4.343  0.2766  0.2472 -0.7354
 9229SOL    HW139320   4.401   2.993   4.392 -0.1731 -0.9370  0.3827
 9229SOL    HW239321   4.384   2.873   4.302 -0.5619  0.8886 -0.2273
 9230SOL     OW39322   2.958   3.380   1.999  0.3832  0.6305  0.2128
 9230SOL    HW139323   2.902   3.344   2.068  0.3433 -0.4893 -0.3937
 9230SOL    HW239324   3.025   3.415   2.058  0.6490  1.1763 -0.4151
 9231SOL     OW39325   3.469   3.307   2.110 -0.1509 -0.0317  0.5226
 9231SOL    HW139326   3.409   3.239   2.142 -0.5151  0.6424  1.2543
 9231SOL    HW239327   3.553   3.286   2.151  0.5768  1.6718 -0.0980
 9232SOL     OW39328   2.575   3.631   8.133  0.7483  0.3009 -0.0451
 9232SOL    HW139329   2.532   3.683   8.065 -2.4797 -1.0623  0.9531
 9232SOL    HW239330   2.495   3.625   8.186 -0.3690 -1.6341 -1.9434
 9233SOL     OW39331   0.939   3.351   1.893  0.3526 -0.0998 -0.0045
 9233SOL    HW139332   1.033   3.350   1.874  0.2497 -1.1316 -0.4423
 9233SOL    HW239333   0.935   3.268   1.941  1.0683  0.0682  0.3495
 9234SOL     OW39334   1.565   4.049   2.421  0.6657 -0.4113 -0.2901
 9234SOL    HW139335   1.474   4.021   2.430  0.4423  0.4186 -0.0365
 9234SOL    HW239336   1.566   4.098   2.503  0.5185 -0.6535 -0.1430
 9235SOL     OW39337   4.623   0.404   8.012  0.2613 -0.3122  0.0994
 9235SOL    HW139338   4.590   0.475   7.955 -1.1170 -0.5020  0.6546
 9235SOL    HW239339   4.711   0.406   7.975 -0.0266 -0.2228 -0.5834
 9236SOL     OW39340   0.651   0.005   3.952  0.0407  0.0559 -0.1418
 9236SOL    HW139341   0.622   4.732   4.042  1.1376  1.0951  0.3794
 9236SOL    HW239342   0.696   4.663   3.937 -0.6762 -0.5527  1.1229
 9237SOL     OW39343   1.447   0.287   2.316 -0.5055  0.4294 -0.2941
 9237SOL    HW139344   1.461   0.326   2.230 -0.3521  0.1144 -0.4088
 9237SOL    HW239345   1.519   0.227   2.336 -0.5921 -0.4263 -2.6645
 9238SOL     OW39346   1.037   0.156  15.863  0.1941  0.0246  0.3575
 9238SOL    HW139347   0.951   0.113  15.866  1.8806 -3.1580  2.6806
 9238SOL    HW239348   1.042   0.178  15.956  1.2548 -0.4023  0.3994
 9239SOL     OW39349   3.924   4.361   1.489  0.8330  0.7003 -0.0785
 9239SOL    HW139350   3.994   4.301   1.512  0.7605  0.3712 -0.7477
 9239SOL    HW239351   3.914   4.402   1.576 -0.7002  0.2325 -0.0368
 9240SOL     OW39352   2.073   2.936   2.816 -0.0841 -0.5693 -0.2873
 9240SOL    HW139353   2.028   2.987   2.883 -0.7435 -0.1668 -1.0419
 9240SOL    HW239354   2.034   2.987   2.746 -0.7553  0.8944  1.1434
 9241SOL     OW39355   2.038   4.633   3.629  0.6347 -0.3061 -0.2531
 9241SOL    HW139356   2.071   4.553   3.668  3.4102  0.9142 -0.1288
 9241SOL    HW239357   1.951   4.642   3.669  0.2793 -1.0085 -0.8803
 9242SOL     OW39358   3.868   1.861   0.788 -0.1425 -0.7592  0.4519
 9242SOL    HW139359   3.909   1.779   0.815  0.3693 -0.6013  0.1564
 9242SOL    HW239360   3.903   1.879   0.700  0.2678  1.6706  1.1256
 9243SOL     OW39361   1.631   4.376   4.158  0.5174  0.0484 -0.2545
 9243SOL    HW139362   1.711   4.334   4.127  1.7314  1.0918  1.4207
 9243SOL    HW239363   1.579   4.390   4.079 -0.8885 -3.7450  0.0119
 9244SOL     OW39364   3.197   2.695   7.875 -0.2417  0.6765  0.2852
 9244SOL    HW139365   3.124   2.757   7.871  0.2603  1.2341 -0.1425
 9244SOL    HW239366   3.262   2.734   7.934 -0.8073  1.4683  0.3920
 9245SOL     OW39367   0.144   1.032  10.553 -0.6620  0.2388  0.2645
 9245SOL    HW139368   0.189   0.950  10.571  1.0490  0.9912 -0.5958
 9245SOL    HW239369   0.054   1.018  10.584 -0.8710  0.1780 -0.3764
 9246SOL     OW39370   1.742   1.083   2.733 -0.3326 -0.4327  0.7200
 9246SOL    HW139371   1.763   1.061   2.824 -1.4440  1.2535  1.3724
 9246SOL    HW239372   1.826   1.071   2.690 -0.5744  0.5368 -0.0174
 9247SOL     OW39373   0.679   0.183   4.866  0.0754  0.2261 -0.5580
 9247SOL    HW139374   0.738   0.212   4.935 -0.9243  0.6057  0.1523
 9247SOL    HW239375   0.605   0.243   4.877 -0.1252 -0.0400 -0.4505
 9248SOL     OW39376   0.476   3.251  10.573 -0.0906 -0.1468 -0.1883
 9248SOL    HW139377   0.470   3.225  10.481 -0.4727 -1.5380  0.2312
 9248SOL    HW239378   0.497   3.344  10.562  0.1292 -0.1289  0.3827
 9249SOL     OW39379   0.938   0.579   5.865  0.7112  0.4336 -0.9177
 9249SOL    HW139380   0.974   0.625   5.941 -0.9920  1.7119 -0.8854
 9249SOL    HW239381   0.916   0.492   5.899 -1.0285  2.1850  2.4948
 9250SOL     OW39382   1.855   0.629   4.607 -0.0164 -0.0682  0.3701
 9250SOL    HW139383   1.834   0.554   4.663 -1.4576 -1.3859 -1.9769
 9250SOL    HW239384   1.782   0.630   4.545 -0.3197  1.8158  0.7527
 9251SOL     OW39385   0.420   0.281   3.403  0.1998 -0.3019  0.2147
 9251SOL    HW139386   0.343   0.322   3.363  0.7283  1.3774  0.8871
 9251SOL    HW239387   0.386   0.225   3.473  0.9539  1.0515  1.6813
 9252SOL     OW39388   3.257   0.035   1.048  0.6612 -0.1493 -0.1940
 9252SOL    HW139389   3.261   0.121   1.089 -2.2577  0.9328 -2.1475
 9252SOL    HW239390   3.235   0.052   0.956  3.0018 -0.2060 -0.7638
 9253SOL     OW39391   4.038   2.545  13.326  0.5078 -0.0518  0.6280
 9253SOL    HW139392   3.945   2.524  13.329  0.2035  1.1545 -0.1710
 9253SOL    HW239393   4.049   2.560  13.232  1.9650  1.1100  0.9810
 9254SOL     OW39394   3.931   4.468   3.006  0.1384 -0.6347 -0.0502
 9254SOL    HW139395   3.863   4.403   2.989  0.5553 -1.1134  0.1168
 9254SOL    HW239396   4.008   4.411   3.006  1.2700  0.8871 -0.1513
 9255SOL     OW39397   3.789   2.464   2.495  0.4647 -0.3198 -0.7591
 9255SOL    HW139398   3.699   2.494   2.502  0.2281 -1.2751  0.3056
 9255SOL    HW239399   3.778   2.374   2.527  2.4477 -1.0805 -2.1690
 9256SOL     OW39400   2.608   0.468   9.862  0.3618 -0.4247  0.7183
 9256SOL    HW139401   2.559   0.536   9.815 -0.0833 -0.9608  0.4066
 9256SOL    HW239402   2.655   0.528   9.920  0.1927 -2.4237  2.9194
 9257SOL     OW39403   0.225   4.738  16.831 -0.1805  0.0454 -0.1938
 9257SOL    HW139404   0.320   4.736  16.816 -0.2763 -1.1766 -0.6378
 9257SOL    HW239405   0.206   0.085  16.800 -2.5740 -0.0028  1.1917
 9258SOL     OW39406   4.264   2.033  11.976  0.5387 -0.2133 -0.2444
 9258SOL    HW139407   4.217   1.964  12.023  1.7168 -0.0938  1.1171
 9258SOL    HW239408   4.330   1.987  11.926  1.1016  0.0359  0.2722
 9259SOL     OW39409   2.308   0.754   6.359  0.3239 -0.0260 -0.1074
 9259SOL    HW139410   2.266   0.828   6.405  0.2383 -1.2339  1.7613
 9259SOL    HW239411   2.324   0.785   6.270 -1.5651  0.1043 -0.4035
 9260SOL     OW39412   0.248   4.352  14.923 -0.2975  0.0502  0.3538
 9260SOL    HW139413   0.228   4.264  14.890  2.1271  0.3578 -1.9554
 9260SOL    HW239414   0.327   4.361  14.870 -1.6158  2.0592 -1.3140
 9261SOL     OW39415   4.089   1.504   4.798 -0.2631 -0.5161 -0.6834
 9261SOL    HW139416   4.114   1.485   4.889 -2.1375  0.5561  0.0486
 9261SOL    HW239417   4.156   1.451   4.755  0.0071  0.2529 -1.1967
 9262SOL     OW39418   4.421   3.260  15.985  0.1006 -0.2160  0.0678
 9262SOL    HW139419   4.333   3.275  15.951 -0.0283  1.4328  1.0985
 9262SOL    HW239420   4.412   3.318  16.061 -1.8397 -1.7688  1.0181
 9263SOL     OW39421   0.385   3.962   4.792 -0.6279 -0.0589 -0.2786
 9263SOL    HW139422   0.331   4.007   4.857  1.9215 -0.7720  2.3614
 9263SOL    HW239423   0.342   3.878   4.811  0.8937 -0.7891 -0.0034
 9264SOL     OW39424   2.893   0.657   1.916  0.4600 -0.4338 -0.5135
 9264SOL    HW139425   2.959   0.607   1.964  0.2655  1.9680  2.2975
 9264SOL    HW239426   2.950   0.733   1.907  0.9229 -0.8443 -0.9804
 9265SOL     OW39427   2.246   1.698   2.019 -0.8039  0.6045  0.1728
 9265SOL    HW139428   2.241   1.603   2.010  0.7209  0.6182 -0.7460
 9265SOL    HW239429   2.316   1.722   2.080 -1.5299  0.6668  0.9799
 9266SOL     OW39430   0.327   4.249   8.715  0.8731  0.2379 -0.0944
 9266SOL    HW139431   0.325   4.154   8.724  2.2349  0.3153  1.1137
 9266SOL    HW239432   0.312   4.247   8.621  1.0583 -1.7556 -0.0774
 9267SOL     OW39433   4.007   3.346   2.229  0.4959  0.4806 -0.2453
 9267SOL    HW139434   4.094   3.385   2.238  1.3768 -1.3490 -0.8804
 9267SOL    HW239435   4.034   3.287   2.159  0.4158 -0.3302  0.4079
 9268SOL     OW39436   0.561   3.374   0.218 -0.1324  0.5096  0.1120
 9268SOL    HW139437   0.591   3.330   0.138 -2.1863  0.4533 -0.6204
 9268SOL    HW239438   0.591   3.318   0.290  1.8346  0.2430 -0.8994
 9269SOL     OW39439   0.633   1.837  17.380  0.2102 -0.2761  0.2017
 9269SOL    HW139440   0.566   1.857  17.446 -0.9381  1.2227 -1.3997
 9269SOL    HW239441   0.709   1.851  17.436  0.0795 -0.7606  0.4975
 9270SOL     OW39442   3.044   1.273   9.784  0.0790 -0.6241  0.1875
 9270SOL    HW139443   3.055   1.263   9.690  0.0916  1.1468 -0.0105
 9270SOL    HW239444   3.075   1.363   9.797 -0.9241 -0.1103 -0.9866
 9271SOL     OW39445   1.034   2.235   2.335 -0.6528  0.2036 -0.2152
 9271SOL    HW139446   0.944   2.238   2.300 -0.1470 -0.9373 -1.6517
 9271SOL    HW239447   1.057   2.326   2.348 -0.5145  0.4758 -2.3826
 9272SOL     OW39448   3.530   3.494   9.643  0.5910 -0.5099 -0.2194
 9272SOL    HW139449   3.476   3.567   9.673  0.0088 -0.8963 -0.3254
 9272SOL    HW239450   3.609   3.546   9.644 -1.0614  1.9846  0.0407
 9273SOL     OW39451   3.575   0.953   4.286  0.0808  1.3845  0.3426
 9273SOL    HW139452   3.668   0.930   4.290 -0.1912  0.1806 -0.2872
 9273SOL    HW239453   3.554   0.926   4.196 -1.0994  1.8544  0.4728
 9274SOL     OW39454   0.756   2.836   8.429 -0.3180  0.3156  0.0433
 9274SOL    HW139455   0.669   2.815   8.463  0.0488  0.0478  0.8307
 9274SOL    HW239456   0.793   2.749   8.417 -2.0057 -0.3090 -0.6292
 9275SOL     OW39457   2.212   2.744  13.695  0.1069  0.3082 -0.2938
 9275SOL    HW139458   2.127   2.769  13.660  0.5989  2.1387 -0.1853
 9275SOL    HW239459   2.266   2.768  13.620  0.4744 -0.0096 -0.1353
 9276SOL     OW39460   2.704   3.774   7.240  0.2893 -0.1613  0.4279
 9276SOL    HW139461   2.660   3.705   7.190 -1.2622  0.2828  1.1893
 9276SOL    HW239462   2.707   3.844   7.174 -1.9201 -1.0320 -0.5967
 9277SOL     OW39463   0.230   1.722   6.135 -0.2248 -0.4489  0.1449
 9277SOL    HW139464   0.256   1.799   6.085  2.9910 -1.6867 -0.1007
 9277SOL    HW239465   0.201   1.668   6.062 -1.9952  0.9728 -0.2033
 9278SOL     OW39466   3.647   3.213  10.717  0.0109 -0.2445  0.1338
 9278SOL    HW139467   3.732   3.244  10.748  0.1602 -0.1979 -0.3316
 9278SOL    HW239468   3.679   3.150  10.652  0.3222 -0.1302  0.1744
 9279SOL     OW39469   2.024   3.675   8.392 -0.2280 -0.1570  0.4726
 9279SOL    HW139470   1.945   3.651   8.344 -0.0677  1.6966 -0.6941
 9279SOL    HW239471   2.011   3.622   8.471  0.5534 -0.1380  0.6135
 9280SOL     OW39472   1.705   2.923   7.788 -0.4355  0.1262  0.3364
 9280SOL    HW139473   1.678   2.849   7.734  5.3176 -1.0238 -0.9895
 9280SOL    HW239474   1.655   2.908   7.868  0.9835 -2.3416  0.7646
 9281SOL     OW39475   2.309   3.368   4.798 -0.2217 -0.2419  0.7355
 9281SOL    HW139476   2.260   3.405   4.725 -0.6420  0.1732  1.2272
 9281SOL    HW239477   2.356   3.442   4.837 -0.8958  1.2873 -1.3340
 9282SOL     OW39478   1.447   1.409   5.181 -1.1926  0.5949 -0.7114
 9282SOL    HW139479   1.403   1.339   5.132  1.0697 -0.8772 -0.6392
 9282SOL    HW239480   1.524   1.417   5.125 -0.9956 -2.1879 -0.8408
 9283SOL     OW39481   0.479   0.288   6.918  0.1150 -0.6642 -0.4991
 9283SOL    HW139482   0.536   0.213   6.899 -1.2452 -1.7907 -0.1608
 9283SOL    HW239483   0.537   0.364   6.919 -0.3194 -0.3467  1.3182
 9284SOL     OW39484   2.043   0.418   3.988  0.0458  0.2051 -0.1895
 9284SOL    HW139485   1.972   0.466   3.945  0.6381  1.7020  0.5315
 9284SOL    HW239486   2.107   0.488   3.996  0.1336  0.1279 -0.2221
 9285SOL     OW39487   0.114   4.715   2.948 -0.0278  0.1153  0.5871
 9285SOL    HW139488   0.080   0.049   2.899 -0.5206  1.0879  2.4355
 9285SOL    HW239489   0.204   4.722   2.917  0.3551  0.7554  1.8401
 9286SOL     OW39490   1.798   2.389   3.006 -0.0942  0.6121 -0.1654
 9286SOL    HW139491   1.833   2.453   3.068  1.2319  0.3056 -0.6067
 9286SOL    HW239492   1.779   2.438   2.926  0.6812  0.7768 -0.2461
 9287SOL     OW39493   0.246   2.669   2.309  0.1232 -0.2636  0.0255
 9287SOL    HW139494   0.202   2.610   2.369 -0.2107 -1.6876 -1.6238
 9287SOL    HW239495   0.187   2.666   2.233  1.8882  2.1753 -1.4369
 9288SOL     OW39496   0.948   2.062   6.349 -0.8233 -0.3443  0.5417
 9288SOL    HW139497   0.922   2.145   6.309 -0.5920 -0.3823  0.3209
 9288SOL    HW239498   0.866   2.029   6.385 -1.3156 -0.6324 -0.8587
 9289SOL     OW39499   1.032   2.482   2.150  0.4036 -0.0953 -0.5519
 9289SOL    HW139500   0.952   2.527   2.179  0.5103 -0.8766  0.9094
 9289SOL    HW239501   1.092   2.490   2.224 -0.2556  0.0933 -0.0374
 9290SOL     OW39502   1.165   3.662  13.479  0.2304 -0.1200 -0.7411
 9290SOL    HW139503   1.141   3.625  13.395  0.3757 -1.5961 -0.1330
 9290SOL    HW239504   1.084   3.673  13.529  0.8509 -1.5890  0.5946
 9291SOL     OW39505   1.597   1.595  16.104  0.2216 -0.2047 -0.2603
 9291SOL    HW139506   1.610   1.647  16.183 -0.5901 -0.0317 -0.2405
 9291SOL    HW239507   1.501   1.599  16.113  0.3776 -0.5518  1.5292
 9292SOL     OW39508   1.714   0.809   9.105  0.4070 -0.3854 -0.2116
 9292SOL    HW139509   1.675   0.881   9.054 -1.3872 -1.9386 -1.0345
 9292SOL    HW239510   1.782   0.775   9.047 -0.1331 -2.1920  0.2250
 9293SOL     OW39511   3.047   4.320   4.282  0.1424  0.0572 -0.3333
 9293SOL    HW139512   3.053   4.414   4.300  0.3197  0.4824 -2.6406
 9293SOL    HW239513   2.954   4.298   4.276  0.5923 -1.5407 -1.4914
 9294SOL     OW39514   0.620   1.604   5.383  0.4236 -0.1993 -0.6843
 9294SOL    HW139515   0.688   1.665   5.409  0.3109 -0.4589  0.2086
 9294SOL    HW239516   0.561   1.595   5.458  1.0797 -1.0908 -0.2775
 9295SOL     OW39517   3.862   0.541   2.601  0.3231  0.1676  0.3062
 9295SOL    HW139518   3.884   0.575   2.513  0.6561  0.7077  0.5964
 9295SOL    HW239519   3.890   0.450   2.602 -0.6286 -0.1110  0.9859
 9296SOL     OW39520   1.174   2.704   6.197  0.5375  0.5703 -0.4632
 9296SOL    HW139521   1.191   2.720   6.104 -0.3381  2.2095 -0.3465
 9296SOL    HW239522   1.104   2.639   6.190 -0.7438  2.0610 -1.5145
 9297SOL     OW39523   2.677   1.574   3.134 -0.4128 -0.5168 -0.1788
 9297SOL    HW139524   2.652   1.657   3.093 -1.0862 -0.3548  0.5586
 9297SOL    HW239525   2.635   1.577   3.220 -0.1407  2.5595 -0.1441
 9298SOL     OW39526   3.565   0.581  12.238  0.1416  0.3174 -0.6659
 9298SOL    HW139527   3.475   0.606  12.216 -1.3031 -2.0624  2.5789
 9298SOL    HW239528   3.568   0.530  12.318  1.6374  1.7298  0.1905
 9299SOL     OW39529   1.426   4.033   9.511  0.0001  0.3271 -0.1850
 9299SOL    HW139530   1.429   3.940   9.488  1.3912  0.1849  0.5830
 9299SOL    HW239531   1.462   4.066   9.428  0.0593  1.0444  0.1310
 9300SOL     OW39532   4.304   2.399   2.633  0.0091  0.0143  0.2420
 9300SOL    HW139533   4.376   2.382   2.694  0.3443 -0.0451 -0.1691
 9300SOL    HW239534   4.224   2.375   2.680 -0.8775  2.2960 -0.0975
 9301SOL     OW39535   4.498   2.196  13.767 -0.6029 -0.3754  0.4452
 9301SOL    HW139536   4.482   2.214  13.674 -0.8611 -1.4761  0.2826
 9301SOL    HW239537   4.491   2.101  13.758  0.9842 -0.3765 -0.9287
 9302SOL     OW39538   1.699   0.932   7.064  0.3362  0.4317  0.3219
 9302SOL    HW139539   1.631   0.970   7.009 -0.2352 -0.5827  0.3266
 9302SOL    HW239540   1.688   0.841   7.038 -1.4943  0.3724  1.3307
 9303SOL     OW39541   4.280   1.930   7.097 -0.8686 -0.4313  0.6226
 9303SOL    HW139542   4.289   1.972   7.182  2.7483 -0.0343  0.0194
 9303SOL    HW239543   4.339   1.857   7.111  0.6329  0.9430  1.4637
 9304SOL     OW39544   4.515   3.315   6.249 -0.2666  0.1835 -0.5212
 9304SOL    HW139545   4.518   3.359   6.334 -0.2307 -4.4416  1.8609
 9304SOL    HW239546   4.427   3.278   6.248  0.4745 -1.6296  1.5976
 9305SOL     OW39547   4.595   0.988  11.639 -0.0345  0.3892  0.1541
 9305SOL    HW139548   4.544   1.028  11.569 -0.2234 -0.0115  0.0697
 9305SOL    HW239549   4.531   0.968  11.707 -0.7701 -0.4590 -0.8070
 9306SOL     OW39550   2.822   2.108  12.767 -0.0144  0.5146 -0.0961
 9306SOL    HW139551   2.799   2.194  12.801  0.7969  0.4549  0.6154
 9306SOL    HW239552   2.907   2.118  12.724  0.6504  0.6164  1.2544
 9307SOL     OW39553   4.511   1.193   5.983  0.0063 -0.1862 -0.3520
 9307SOL    HW139554   4.507   1.273   6.035  3.6119  0.4977 -1.1114
 9307SOL    HW239555   4.422   1.187   5.949 -0.4261 -0.3413  0.8176
 9308SOL     OW39556   1.787   2.283   1.251 -0.1605 -0.4911 -0.1215
 9308SOL    HW139557   1.770   2.229   1.328  1.2728 -0.3185  0.3135
 9308SOL    HW239558   1.875   2.316   1.269 -2.0392  3.5824  1.4392
 9309SOL     OW39559   3.199   2.489   5.689 -0.3189  0.2387 -0.5480
 9309SOL    HW139560   3.159   2.419   5.636  0.6107  1.3493 -2.7136
 9309SOL    HW239561   3.169   2.566   5.640  2.4111  0.6152 -1.6114
 9310SOL     OW39562   3.026   0.743   8.630  0.1243  0.7068 -0.1168
 9310SOL    HW139563   3.037   0.782   8.543 -0.5812 -0.1266 -0.5700
 9310SOL    HW239564   2.950   0.785   8.671  1.5961  1.5868  1.7427
 9311SOL     OW39565   1.907   3.394   5.781 -0.3652 -0.4106 -0.6672
 9311SOL    HW139566   1.906   3.478   5.826 -1.6002  0.1275 -1.6916
 9311SOL    HW239567   1.969   3.349   5.838 -1.1541 -0.4595  0.1547
 9312SOL     OW39568   1.829   4.614   5.864 -0.3273 -0.3034 -0.3033
 9312SOL    HW139569   1.769   4.675   5.908 -1.2324 -2.8281  1.9584
 9312SOL    HW239570   1.839   4.646   5.775 -3.1948  0.0386 -0.5319
 9313SOL     OW39571   1.370   4.561   8.682  0.3543 -1.1287 -0.3012
 9313SOL    HW139572   1.335   4.640   8.723  1.1662 -0.5096 -0.7940
 9313SOL    HW239573   1.459   4.575   8.714  0.0962  0.9585 -0.4879
 9314SOL     OW39574   2.293   0.863   2.648 -0.4673 -0.2710 -0.1932
 9314SOL    HW139575   2.345   0.944   2.654 -1.9720  0.6399  0.4926
 9314SOL    HW239576   2.237   0.881   2.572 -3.6575 -1.1768  1.9507
 9315SOL     OW39577   1.425   4.360   6.721  0.4292 -0.6022 -0.2081
 9315SOL    HW139578   1.416   4.270   6.753 -0.7719  0.5485  2.7741
 9315SOL    HW239579   1.518   4.367   6.703 -0.0734  1.3314 -1.9437
 9316SOL     OW39580   2.534   4.008   0.144 -0.1554 -0.3006  0.4364
 9316SOL    HW139581   2.610   4.063   0.128  0.4691 -0.5399  2.5517
 9316SOL    HW239582   2.569   3.920   0.130  2.5869  1.2333 -2.2222
 9317SOL     OW39583   3.668   3.020   9.141  0.0682 -0.0127  0.5809
 9317SOL    HW139584   3.576   3.002   9.122  1.0029 -1.3123 -2.6267
 9317SOL    HW239585   3.652   3.075   9.218 -2.4728 -1.1644  0.8836
 9318SOL     OW39586   1.497   2.499   6.745 -0.1399 -0.6175 -0.1417
 9318SOL    HW139587   1.477   2.592   6.751 -0.2422 -0.5858 -0.9782
 9318SOL    HW239588   1.477   2.461   6.831 -0.4176 -1.6971 -0.6821
 9319SOL     OW39589   1.358   0.906  11.983 -0.3032 -0.5430 -0.8046
 9319SOL    HW139590   1.284   0.917  11.923 -0.6641  0.8870 -0.0801
 9319SOL    HW239591   1.319   0.841  12.042  0.9587 -1.5467 -1.0862
 9320SOL     OW39592   3.691   3.602   9.906 -0.3907  0.2179 -0.2442
 9320SOL    HW139593   3.739   3.617   9.987  0.1507  0.6279 -0.6404
 9320SOL    HW239594   3.622   3.538   9.925 -0.6611  1.2660  2.2279
 9321SOL     OW39595   1.055   3.563  13.255  0.0580  0.0296  0.3984
 9321SOL    HW139596   0.961   3.574  13.265  0.2139  2.3662 -0.5505
 9321SOL    HW239597   1.069   3.551  13.161  0.2618  1.7315  0.2100
 9322SOL     OW39598   3.469   2.017   8.795  0.3685  1.1936  0.1525
 9322SOL    HW139599   3.520   1.953   8.745 -1.4764  0.8131 -1.2473
 9322SOL    HW239600   3.396   2.035   8.736 -0.1057 -0.4762  0.2087
 9323SOL     OW39601   0.617   2.610   5.164  0.3418 -0.1129  0.0057
 9323SOL    HW139602   0.648   2.644   5.080  1.8416  0.2619  0.7071
 9323SOL    HW239603   0.672   2.661   5.223  0.1586  1.0326 -0.7841
 9324SOL     OW39604   3.330   1.423  14.442 -0.2647 -0.4823 -0.1430
 9324SOL    HW139605   3.248   1.454  14.404  1.7007  0.5555 -3.4636
 9324SOL    HW239606   3.335   1.338  14.399 -0.0485 -0.9682  0.8497
 9325SOL     OW39607   3.739   2.856   7.367  0.0070 -0.7559  0.3046
 9325SOL    HW139608   3.722   2.874   7.460 -0.5099  2.7276 -0.4726
 9325SOL    HW239609   3.826   2.816   7.375  0.6916  0.7021  0.2129
 9326SOL     OW39610   3.503   3.711   4.699 -0.3145 -0.0189 -0.4740
 9326SOL    HW139611   3.542   3.798   4.713  2.0940 -1.3038  0.8079
 9326SOL    HW239612   3.411   3.730   4.712 -1.1253 -3.2128 -1.5702
 9327SOL     OW39613   4.073   0.664   4.980  0.9151  0.3869  0.5722
 9327SOL    HW139614   4.022   0.584   4.994  0.2711  0.5204 -0.9504
 9327SOL    HW239615   4.017   0.734   5.013  0.9144 -0.2379  1.8836
 9328SOL     OW39616   1.215   0.699  12.407  0.1249 -0.0923 -0.0289
 9328SOL    HW139617   1.307   0.689  12.431  0.4270  1.0377 -0.7183
 9328SOL    HW239618   1.186   0.761  12.474 -0.6327 -0.4855  0.0020
 9329SOL     OW39619   1.919   0.118   7.174  0.1107 -0.0052  0.1082
 9329SOL    HW139620   1.931   0.113   7.079 -0.7272  0.6514 -0.0314
 9329SOL    HW239621   1.973   0.196   7.189  2.1553 -1.4482  0.2742
 9330SOL     OW39622   1.105   1.858  12.849 -0.5627 -0.2185  0.0556
 9330SOL    HW139623   1.111   1.800  12.925 -1.2023  2.0952  1.8603
 9330SOL    HW239624   1.044   1.927  12.876 -2.0265 -0.6159 -2.2162
 9331SOL     OW39625   4.211   2.016  12.895 -0.0641 -0.2351  0.4108
 9331SOL    HW139626   4.249   2.103  12.908  0.0909 -0.4393  1.3080
 9331SOL    HW239627   4.250   1.992  12.811 -0.1914 -0.9254  0.5495
 9332SOL     OW39628   4.630   4.177   8.426 -0.2053 -0.8007  0.2761
 9332SOL    HW139629   4.646   4.258   8.378  2.2741 -1.1767  0.5064
 9332SOL    HW239630   4.665   4.198   8.512  2.8258  1.2803 -1.4493
 9333SOL     OW39631   0.546   0.311  12.233  0.3115  0.0586 -0.4322
 9333SOL    HW139632   0.467   0.351  12.195  1.7519  1.9449 -1.4240
 9333SOL    HW239633   0.526   0.271  12.318  3.4764  0.6562  0.5880
 9334SOL     OW39634   3.575   4.458   8.850 -0.2117  0.3020  0.2041
 9334SOL    HW139635   3.627   4.406   8.788  0.5411  0.4836  0.6774
 9334SOL    HW239636   3.604   4.416   8.931 -3.2036 -2.0270  0.0504
 9335SOL     OW39637   4.597   2.956   3.570 -0.6656 -0.4728  0.3453
 9335SOL    HW139638   4.651   2.944   3.648 -0.6431  1.1153  0.5791
 9335SOL    HW239639   4.576   3.049   3.574  1.8071  0.0713  0.4572
 9336SOL     OW39640   2.118   0.381   5.218 -0.0083  0.5244  0.4920
 9336SOL    HW139641   2.198   0.354   5.262 -0.6772  0.2543  1.5315
 9336SOL    HW239642   2.154   0.376   5.129  1.3913  0.4377  1.0641
 9337SOL     OW39643   2.896   3.404   0.900  0.4142  0.0318 -0.0859
 9337SOL    HW139644   2.910   3.496   0.923 -0.2574  0.0164  0.3743
 9337SOL    HW239645   2.802   3.394   0.910  0.5928  0.5554  2.2490
 9338SOL     OW39646   1.375   1.578   9.039 -0.2126  0.2665 -0.2705
 9338SOL    HW139647   1.440   1.522   8.997 -1.6243 -0.7848 -1.0459
 9338SOL    HW239648   1.311   1.510   9.057  0.9946 -0.7768  0.0571
 9339SOL     OW39649   0.885   3.828   5.690 -0.7143 -0.0229  0.0895
 9339SOL    HW139650   0.973   3.863   5.678 -0.8025 -0.2109 -1.1438
 9339SOL    HW239651   0.902   3.775   5.768 -0.4508 -1.0583 -0.6606
 9340SOL     OW39652   4.549   4.557   8.314 -0.5124 -0.2565  0.5149
 9340SOL    HW139653   4.637   4.522   8.330  0.0724  1.0689  0.2272
 9340SOL    HW239654   4.552   4.627   8.379  3.1103 -0.6737  0.7919
 9341SOL     OW39655   1.276   2.392   6.128  0.4069  0.1028  0.2138
 9341SOL    HW139656   1.223   2.317   6.100  0.6003  0.6259 -1.5215
 9341SOL    HW239657   1.224   2.456   6.177  1.4553  0.6679  0.6001
 9342SOL     OW39658   1.009   4.174   7.787 -0.1383  0.0638  0.1579
 9342SOL    HW139659   1.092   4.170   7.739  0.2093  3.6583  0.4495
 9342SOL    HW239660   1.027   4.089   7.828 -0.6589 -0.1660 -0.0988
 9343SOL     OW39661   4.440   2.602  17.073 -0.3582 -0.5130  0.1203
 9343SOL    HW139662   4.407   2.677  17.122  1.3470 -0.5105  1.2494
 9343SOL    HW239663   4.443   2.643  16.986 -1.1020 -1.6390 -0.4355
 9344SOL     OW39664   1.686   0.217  17.352 -0.0911  0.7982  0.4872
 9344SOL    HW139665   1.653   0.307  17.351 -0.4815  0.6323 -1.7041
 9344SOL    HW239666   1.663   0.176  17.435  1.2290  1.1737  1.0453
 9345SOL     OW39667   1.909   3.713  14.146  0.0019 -0.5846 -0.2957
 9345SOL    HW139668   1.846   3.709  14.075  0.6176  1.6286 -0.9568
 9345SOL    HW239669   1.931   3.806  14.146  0.6585 -0.7377  0.6600
 9346SOL     OW39670   2.376   4.301   5.838  0.2912 -0.0849  0.1057
 9346SOL    HW139671   2.448   4.241   5.822  1.0008  0.4298  1.3727
 9346SOL    HW239672   2.336   4.288   5.924  0.3248  1.0544  0.3004
 9347SOL     OW39673   4.111   1.236   8.325  0.3503  0.0516  0.1461
 9347SOL    HW139674   4.046   1.166   8.323 -1.5345  1.7676  2.4537
 9347SOL    HW239675   4.057   1.312   8.305  0.8613  1.3310  3.7774
 9348SOL     OW39676   2.611   2.235   9.742  0.0669 -0.2890 -0.1404
 9348SOL    HW139677   2.582   2.266   9.656 -0.5877 -2.4317 -0.6801
 9348SOL    HW239678   2.532   2.197   9.779 -1.6666  1.9386 -1.5871
 9349SOL     OW39679   0.954   2.526   5.844  0.5849  0.6889 -0.1578
 9349SOL    HW139680   0.927   2.588   5.912 -1.9355 -0.0697 -0.4702
 9349SOL    HW239681   1.014   2.572   5.785 -0.8955  0.3946 -1.8824
 9350SOL     OW39682   0.638   1.182   6.382  0.1820 -0.0504 -0.0011
 9350SOL    HW139683   0.612   1.268   6.416  1.9620 -0.1537  1.6066
 9350SOL    HW239684   0.650   1.126   6.459  2.9182 -0.8271 -0.9807
 9351SOL     OW39685   3.623   1.300  13.423  0.6108 -0.0984  0.0899
 9351SOL    HW139686   3.619   1.306  13.328  1.2390  0.5591  0.1118
 9351SOL    HW239687   3.716   1.296  13.444  0.6534 -0.7700 -0.2349
 9352SOL     OW39688   3.120   2.126   9.122  0.3103 -0.2491 -0.0606
 9352SOL    HW139689   3.182   2.194   9.097  0.0856  0.6382  1.8044
 9352SOL    HW239690   3.182   2.061   9.154  1.8772  1.1940 -0.1794
 9353SOL     OW39691   1.037   3.536  16.958  0.2849  0.0364 -0.4636
 9353SOL    HW139692   1.115   3.589  16.940 -1.3313  2.2788 -0.9484
 9353SOL    HW239693   0.971   3.582  16.905 -1.0483 -1.9804 -0.5558
 9354SOL     OW39694   0.742   1.529   9.903 -0.6805 -0.6429  0.1513
 9354SOL    HW139695   0.745   1.536   9.998  0.7641  0.7163 -0.0093
 9354SOL    HW239696   0.679   1.457   9.895 -0.0164 -1.0857 -1.2247
 9355SOL     OW39697   4.043   3.062   6.320 -0.0872  0.2319 -0.4102
 9355SOL    HW139698   4.114   3.049   6.384  0.8086 -1.0011 -1.6587
 9355SOL    HW239699   4.064   2.987   6.264  2.3669  1.9817 -1.8481
 9356SOL     OW39700   0.390   2.763   2.542  0.1095 -0.2604  0.0057
 9356SOL    HW139701   0.354   2.759   2.453  0.9495  0.7490 -0.3839
 9356SOL    HW239702   0.316   2.812   2.577  0.0624 -0.7392  0.5715
 9357SOL     OW39703   4.253   0.728   4.373 -0.5870  0.0273  0.0171
 9357SOL    HW139704   4.303   0.648   4.354  1.1427  1.3502 -1.0080
 9357SOL    HW239705   4.297   0.761   4.452  0.9539 -2.2043  0.0899
 9358SOL     OW39706   3.316   3.851   9.013 -0.2611  0.3675 -0.3243
 9358SOL    HW139707   3.286   3.916   8.950 -0.7866  0.0213 -0.4352
 9358SOL    HW239708   3.236   3.850   9.066  0.0083 -1.3440  0.0564
 9359SOL     OW39709   4.595   3.400  15.650 -0.9153  0.3074 -0.4761
 9359SOL    HW139710   4.546   3.318  15.650 -1.5947  0.7114  0.8216
 9359SOL    HW239711   4.660   3.374  15.715 -0.2061  0.2742 -1.2008
 9360SOL     OW39712   1.888   4.444  14.577 -0.0283  0.0572 -0.0113
 9360SOL    HW139713   1.927   4.392  14.646  1.0022  0.9844  0.1081
 9360SOL    HW239714   1.957   4.504  14.548  0.4589 -1.2411 -1.5958
 9361SOL     OW39715   2.336   4.456  10.449 -0.0883 -0.8211  0.3634
 9361SOL    HW139716   2.387   4.383  10.413 -1.6969 -0.4750 -2.5982
 9361SOL    HW239717   2.327   4.510  10.371 -2.0237  1.3216  2.0529
 9362SOL     OW39718   2.289   3.660   5.659 -0.5922  0.1103 -0.0988
 9362SOL    HW139719   2.255   3.676   5.747  1.2433  3.1041  0.0849
 9362SOL    HW239720   2.215   3.695   5.609 -0.9261  1.0492  1.0335
 9363SOL     OW39721   2.826   3.378   9.797  0.0295  0.5305 -0.4249
 9363SOL    HW139722   2.914   3.350   9.769  0.2078 -1.4038  2.0361
 9363SOL    HW239723   2.808   3.319   9.870  0.1760 -0.5109 -1.2193
 9364SOL     OW39724   0.369   3.111   7.009 -0.5291 -0.1619 -0.4741
 9364SOL    HW139725   0.455   3.142   7.037 -0.2711 -2.5842  1.3670
 9364SOL    HW239726   0.311   3.178   7.046 -1.4082 -0.6087 -1.0271
 9365SOL     OW39727   0.106   3.500   8.460  0.5716 -0.1955 -0.2232
 9365SOL    HW139728   0.034   3.439   8.475  1.7222 -1.6078 -0.3891
 9365SOL    HW239729   0.070   3.535   8.379 -0.5420 -1.0044 -0.0764
 9366SOL     OW39730   4.443   0.862  12.692  0.1234 -0.1752  0.2449
 9366SOL    HW139731   4.526   0.876  12.648 -0.2297  0.0467 -0.3434
 9366SOL    HW239732   4.369   0.867  12.632 -0.1781  1.6038  0.7534
 9367SOL     OW39733   0.326   0.631   8.492  0.9692  0.1636  0.1579
 9367SOL    HW139734   0.233   0.612   8.507  0.6520 -0.0078 -2.0832
 9367SOL    HW239735   0.335   0.698   8.560 -0.1894  1.5681 -1.0754
 9368SOL     OW39736   0.944   2.166  16.511 -0.0733 -0.2634  0.2918
 9368SOL    HW139737   0.928   2.249  16.465  1.4989  1.3443  2.6061
 9368SOL    HW239738   1.020   2.141  16.460 -0.8245  0.0063 -0.9725
 9369SOL     OW39739   2.416   4.102  16.649 -0.3836  0.0243  0.0962
 9369SOL    HW139740   2.418   4.157  16.570 -2.1306  2.2790  1.6306
 9369SOL    HW239741   2.321   4.109  16.663 -0.6250  0.2167 -1.5455
 9370SOL     OW39742   4.383   1.754   7.853  0.5012 -0.1297  1.3522
 9370SOL    HW139743   4.305   1.711   7.819  2.1595 -0.5440 -1.9883
 9370SOL    HW239744   4.437   1.772   7.776  1.2970 -0.4144  1.8443
 9371SOL     OW39745   1.931   4.414  16.754  0.5542 -0.3539 -0.1385
 9371SOL    HW139746   1.921   4.369  16.838  0.0017 -1.1223 -0.6132
 9371SOL    HW239747   2.010   4.467  16.765 -0.4935  1.0052  0.7564
 9372SOL     OW39748   3.260   1.550   7.948 -0.4159  0.2359 -0.1922
 9372SOL    HW139749   3.305   1.501   8.016 -1.2938 -2.1505 -1.3118
 9372SOL    HW239750   3.314   1.625   7.924  1.2091 -1.5573 -2.1125
 9373SOL     OW39751   0.434   4.521  13.110  0.0593  0.1022  0.1484
 9373SOL    HW139752   0.372   4.470  13.057 -0.2185  0.9765 -0.3805
 9373SOL    HW239753   0.515   4.474  13.091  0.1389  0.0777  0.5520
 9374SOL     OW39754   3.710   2.775   3.289 -0.3579  0.4108  0.3222
 9374SOL    HW139755   3.707   2.702   3.351 -0.5293 -1.3501 -1.7594
 9374SOL    HW239756   3.792   2.750   3.247 -0.6676  0.3214 -0.2420
 9375SOL     OW39757   2.440   2.422  10.729  0.0830  0.3321  0.1173
 9375SOL    HW139758   2.512   2.397  10.787 -0.2806  2.1408  1.3404
 9375SOL    HW239759   2.484   2.470  10.658 -0.4580  0.6683  0.0069
 9376SOL     OW39760   4.344   1.996   3.221  0.3999  0.4507  0.0789
 9376SOL    HW139761   4.260   2.018   3.260  0.1502 -0.4878  0.0765
 9376SOL    HW239762   4.385   1.946   3.293 -2.4238 -0.7898  0.8194
 9377SOL     OW39763   1.961   3.623   4.927  0.2783  0.4002  0.5262
 9377SOL    HW139764   2.025   3.649   4.861 -0.7388 -1.2957 -1.1027
 9377SOL    HW239765   1.942   3.703   4.976 -2.2636 -0.7650  1.4686
 9378SOL     OW39766   3.865   0.803   6.823 -0.1756 -0.0064 -0.1143
 9378SOL    HW139767   3.956   0.831   6.820 -0.6699  1.3401 -2.2947
 9378SOL    HW239768   3.860   0.805   6.919  0.6832  2.6817 -0.1389
 9379SOL     OW39769   1.279   3.284   1.908 -0.6156  0.1408  0.2181
 9379SOL    HW139770   1.310   3.359   1.959  2.4722  0.9011 -2.8094
 9379SOL    HW239771   1.321   3.316   1.828  0.5618  0.1668  0.8343
 9380SOL     OW39772   1.932   2.956   4.507  0.1030 -0.7974  0.2171
 9380SOL    HW139773   1.853   2.945   4.454  1.3084  0.2431 -1.7717
 9380SOL    HW239774   1.995   2.930   4.440 -0.0673 -0.0211 -0.2504
 9381SOL     OW39775   1.335   2.388   8.962  0.0802 -0.0522 -0.7276
 9381SOL    HW139776   1.244   2.369   8.985  0.1145 -0.8956 -1.3021
 9381SOL    HW239777   1.325   2.440   8.882  1.6391  0.2509 -0.7186
 9382SOL     OW39778   2.069   1.044   7.072 -0.2269  0.5532  0.0221
 9382SOL    HW139779   1.988   1.088   7.094 -1.8128 -1.7586 -1.2093
 9382SOL    HW239780   2.037   0.994   6.997 -1.6667  0.1022  0.9521
 9383SOL     OW39781   2.866   0.329  16.695 -0.0800 -0.4389 -0.0411
 9383SOL    HW139782   2.787   0.383  16.701  0.2871  0.0597  0.3223
 9383SOL    HW239783   2.856   0.290  16.608 -0.9218  2.3454 -1.2149
 9384SOL     OW39784   4.710   1.243   5.565  0.2818 -0.1365  0.6350
 9384SOL    HW139785   4.621   1.232   5.598  1.0851 -2.8256  1.9224
 9384SOL    HW239786   4.696   1.297   5.487 -2.5516  0.4266  1.5373
 9385SOL     OW39787   3.320   1.020   5.647  0.5886  0.1851  0.2249
 9385SOL    HW139788   3.231   0.987   5.660  0.8563 -0.4337  0.4632
 9385SOL    HW239789   3.364   1.011   5.731 -1.4437 -0.3150  1.2220
 9386SOL     OW39790   2.935   4.623   9.447  0.0324 -0.2075  0.0688
 9386SOL    HW139791   2.940   4.716   9.428 -2.0515 -0.3960 -1.4174
 9386SOL    HW239792   2.843   4.597   9.438 -0.4268  0.9682  1.3203
 9387SOL     OW39793   3.006   1.880   6.656 -0.6692  0.7241 -1.0878
 9387SOL    HW139794   2.998   1.975   6.662 -2.0849  0.4252  1.5542
 9387SOL    HW239795   2.925   1.852   6.613 -0.7293  0.8555 -1.0598
 9388SOL     OW39796   4.558   3.421   2.955 -0.1732  0.1590 -0.6526
 9388SOL    HW139797   4.521   3.456   3.036  2.4043 -2.5343  1.6954
 9388SOL    HW239798   4.506   3.344   2.932 -2.2745  1.3108  0.2604
 9389SOL     OW39799   0.632   1.292   6.128  0.7299 -0.9185 -0.0082
 9389SOL    HW139800   0.714   1.247   6.104  2.3789  1.0301  1.9183
 9389SOL    HW239801   0.627   1.271   6.221 -0.0083  2.0010  0.5948
 9390SOL     OW39802   2.176   1.102   8.793  0.3963 -0.2056  0.3508
 9390SOL    HW139803   2.242   1.067   8.853  1.7487  2.0938  0.2332
 9390SOL    HW239804   2.107   1.040   8.772  1.9596 -2.1937  1.0887
 9391SOL     OW39805   4.726   2.462  11.623 -0.5408 -0.2034  0.2555
 9391SOL    HW139806   4.729   2.506  11.708 -1.7921  2.1901 -0.9248
 9391SOL    HW239807   0.004   2.533  11.561 -2.1741  0.9203  1.0420
 9392SOL     OW39808   0.793   3.740   7.922  0.2091 -0.1329 -0.2630
 9392SOL    HW139809   0.707   3.764   7.889  0.3915  0.6797 -0.1741
 9392SOL    HW239810   0.821   3.673   7.860 -2.7128  0.6081 -2.3817
 9393SOL     OW39811   2.448   2.508   2.328  0.1195 -0.6702 -0.3729
 9393SOL    HW139812   2.489   2.443   2.385  1.6072  0.2669 -0.4009
 9393SOL    HW239813   2.459   2.587   2.381  0.3667 -0.5134 -0.6644
 9394SOL     OW39814   0.804   4.526  11.167 -0.5423  0.0582  0.2049
 9394SOL    HW139815   0.771   4.592  11.106 -0.5709  0.9283  1.1738
 9394SOL    HW239816   0.898   4.520  11.149 -0.7374 -1.5083 -0.3500
 9395SOL     OW39817   3.757   3.802   5.644  0.2379 -0.2622 -0.6619
 9395SOL    HW139818   3.836   3.839   5.603 -0.4038  0.5971 -1.1166
 9395SOL    HW239819   3.715   3.770   5.564 -0.4496 -1.4099  0.1589
 9396SOL     OW39820   1.267   0.917  13.396 -0.1517 -0.5131  0.2313
 9396SOL    HW139821   1.361   0.924  13.412 -0.2593  3.3263 -0.6839
 9396SOL    HW239822   1.245   1.009  13.385  0.6729 -0.0365  2.6855
 9397SOL     OW39823   2.128   1.946   0.933  0.0468  0.8785 -0.2231
 9397SOL    HW139824   2.195   1.898   0.982 -0.2124  0.4988 -0.2433
 9397SOL    HW239825   2.106   2.007   1.003 -1.6110  1.3911 -1.1852
 9398SOL     OW39826   3.115   0.529   1.725 -0.0912  0.8331  0.5246
 9398SOL    HW139827   3.021   0.519   1.742 -1.2454  1.3946 -5.3484
 9398SOL    HW239828   3.154   0.462   1.781 -1.4599 -0.2495  0.1779
 9399SOL     OW39829   4.661   2.668   1.683  0.4697 -0.0494  0.2132
 9399SOL    HW139830   4.648   2.688   1.590  0.3998 -1.0981 -0.0073
 9399SOL    HW239831   4.570   2.649   1.707 -0.1730  0.1906 -2.0064
 9400SOL     OW39832   1.704   4.368   7.339 -0.5585  0.5148  0.2501
 9400SOL    HW139833   1.671   4.346   7.252 -0.5949 -2.3392  0.9920
 9400SOL    HW239834   1.705   4.283   7.382 -0.2501  0.3088 -0.1603
 9401SOL     OW39835   0.407   4.716   7.842 -0.0955 -0.1710 -0.3542
 9401SOL    HW139836   0.334   4.662   7.812 -0.0857  0.7788 -2.1102
 9401SOL    HW239837   0.396   0.036   7.769 -2.3967  0.6254  0.6717
 9402SOL     OW39838   2.134   1.235   2.137  0.0607  0.5154 -0.6061
 9402SOL    HW139839   2.090   1.265   2.218  0.6075 -0.2426 -0.0304
 9402SOL    HW239840   2.076   1.172   2.096  0.8462  0.3020 -1.3666
 9403SOL     OW39841   4.346   3.626   1.889  0.0438  0.1339 -0.3251
 9403SOL    HW139842   4.304   3.666   1.965 -0.2704  1.4561 -1.1807
 9403SOL    HW239843   4.290   3.663   1.820  0.2134  2.0797  0.5857
 9404SOL     OW39844   4.451   2.820   3.394 -0.1041 -0.2632  0.0747
 9404SOL    HW139845   4.427   2.902   3.350  2.5805  0.5082  0.0882
 9404SOL    HW239846   4.522   2.844   3.452 -0.8404  0.8142  0.5341
 9405SOL     OW39847   1.222   3.803   9.071 -0.6282 -0.0697 -0.0943
 9405SOL    HW139848   1.180   3.778   9.154  0.9236  0.7877  0.9505
 9405SOL    HW239849   1.294   3.741   9.083  0.1443  0.6682 -0.9084
 9406SOL     OW39850   2.223   2.685   5.748  0.4984 -0.0189  0.3741
 9406SOL    HW139851   2.235   2.702   5.655  1.8303 -2.8019  0.0456
 9406SOL    HW239852   2.127   2.687   5.757  0.5514  2.6404  0.3709
 9407SOL     OW39853   3.373   3.574   1.763 -0.4023 -0.0654  0.2066
 9407SOL    HW139854   3.453   3.569   1.814 -1.8754  0.4644  2.5762
 9407SOL    HW239855   3.394   3.634   1.691 -2.4903 -0.4555 -0.7449
 9408SOL     OW39856   3.282   1.968   8.328  0.4516  0.3305 -0.0203
 9408SOL    HW139857   3.265   1.988   8.420  0.1462 -0.7776  0.1610
 9408SOL    HW239858   3.230   2.035   8.282  1.5365  3.2410  3.0065
 9409SOL     OW39859   4.274   0.402  14.077 -0.2792 -0.4866  0.7086
 9409SOL    HW139860   4.262   0.496  14.089 -0.5050 -0.6814  2.0200
 9409SOL    HW239861   4.326   0.386  14.156  0.5427  2.1564  0.6999
 9410SOL     OW39862   4.623   4.665  15.732 -0.2053  0.0449  0.3416
 9410SOL    HW139863   4.660   4.641  15.817 -0.4432 -5.2062 -1.0700
 9410SOL    HW239864   4.532   4.680  15.757 -0.3149  0.3203 -0.2292
 9411SOL     OW39865   3.866   2.622  16.521  0.2492 -0.4183 -0.1957
 9411SOL    HW139866   3.922   2.696  16.497  0.9109 -0.5514  0.9725
 9411SOL    HW239867   3.791   2.654  16.572 -1.1712  0.0918 -2.5883
 9412SOL     OW39868   3.520   1.227   4.820  0.4004  0.2380  0.6130
 9412SOL    HW139869   3.503   1.188   4.905 -0.3741  0.1440  0.4107
 9412SOL    HW239870   3.557   1.311   4.846  1.4157 -0.2920  0.8859
 9413SOL     OW39871   3.457   2.132   4.439 -0.0858 -0.3915 -0.1484
 9413SOL    HW139872   3.552   2.126   4.439  0.0015  0.8766 -1.5825
 9413SOL    HW239873   3.426   2.056   4.488  2.0337 -1.0217  0.1886
 9414SOL     OW39874   1.078   1.519   9.079 -0.3124  0.3725  0.3364
 9414SOL    HW139875   1.043   1.432   9.100 -1.2284  0.8577  0.8394
 9414SOL    HW239876   1.035   1.585   9.134  0.0538 -0.3405  1.4598
 9415SOL     OW39877   0.234   3.741   8.239 -0.8019  0.5819 -0.5441
 9415SOL    HW139878   0.186   3.793   8.303  0.3294  1.5622 -0.4998
 9415SOL    HW239879   0.296   3.808   8.210 -0.8548  0.3713 -1.1547
 9416SOL     OW39880   3.599   1.296   4.338  0.5326  0.5521  0.7324
 9416SOL    HW139881   3.647   1.233   4.284  0.7402  1.3559 -0.0101
 9416SOL    HW239882   3.517   1.291   4.289  1.4036 -2.9539 -0.3766
 9417SOL     OW39883   1.458   2.225  14.247 -0.8243 -0.0208  0.0637
 9417SOL    HW139884   1.373   2.247  14.207  0.2737  2.4775 -0.8564
 9417SOL    HW239885   1.508   2.203  14.169 -1.2870  0.8339 -0.4760
 9418SOL     OW39886   3.518   1.828  16.104 -0.8775  0.5097  0.1234
 9418SOL    HW139887   3.532   1.898  16.040 -0.1932  1.0837  0.9038
 9418SOL    HW239888   3.604   1.810  16.142  0.0479  0.8949 -1.7887
 9419SOL     OW39889   0.190   2.732   0.908  0.0211 -0.6415 -0.6916
 9419SOL    HW139890   0.238   2.798   0.959 -1.2524  1.2714 -1.9788
 9419SOL    HW239891   0.101   2.751   0.935  0.4884  0.6255 -0.0271
 9420SOL     OW39892   2.527   2.902  14.952  0.8914 -0.7277  0.2628
 9420SOL    HW139893   2.560   2.815  14.977 -1.2438 -1.5077  0.4009
 9420SOL    HW239894   2.582   2.916  14.875  0.6468 -1.2865 -0.0108
 9421SOL     OW39895   1.417   3.861   8.151 -0.1869  0.4138 -0.7555
 9421SOL    HW139896   1.391   3.946   8.186 -0.1399 -0.7125  2.0664
 9421SOL    HW239897   1.365   3.803   8.206  1.7243 -1.2458 -0.7016
 9422SOL     OW39898   3.362   2.771   7.393 -0.1421  0.2208 -0.6273
 9422SOL    HW139899   3.410   2.730   7.465  1.5630  1.1354 -1.2262
 9422SOL    HW239900   3.399   2.857   7.410 -0.5019  0.2336  0.0963
 9423SOL     OW39901   1.813   2.117   6.297 -0.4724 -0.6400 -0.0688
 9423SOL    HW139902   1.895   2.086   6.259  0.7567  2.0653  0.3312
 9423SOL    HW239903   1.847   2.165   6.373  0.6081 -2.5753  0.6631
 9424SOL     OW39904   4.669   1.088   3.937 -0.2730  0.5285  0.1205
 9424SOL    HW139905   4.694   1.087   3.844 -0.8728 -3.6566 -0.0216
 9424SOL    HW239906   4.591   1.143   3.931 -1.4651 -0.9996  1.5674
 9425SOL     OW39907   2.866   3.729   7.447  0.3820  0.6323 -0.2247
 9425SOL    HW139908   2.900   3.819   7.443 -0.3531  0.9006 -0.5402
 9425SOL    HW239909   2.828   3.733   7.359 -0.3877 -0.1384  0.0707
 9426SOL     OW39910   3.764   1.146   6.892  0.4535 -0.3341  0.7209
 9426SOL    HW139911   3.693   1.082   6.893  0.3598 -0.1898  2.7834
 9426SOL    HW239912   3.727   1.220   6.843 -0.9952 -1.2824  0.3875
 9427SOL     OW39913   1.916   2.126   7.396 -0.0528 -0.2028  0.3350
 9427SOL    HW139914   1.829   2.135   7.357  0.2946  1.2346 -0.0834
 9427SOL    HW239915   1.960   2.067   7.335 -0.3410  1.1926 -1.2291
 9428SOL     OW39916   1.730   2.628   8.764  0.1156  0.7254  0.1135
 9428SOL    HW139917   1.716   2.700   8.824  0.8313  1.4886 -0.6377
 9428SOL    HW239918   1.657   2.638   8.703 -0.1044  0.2110  0.2929
 9429SOL     OW39919   3.135   0.778   2.240 -0.0095 -0.1515 -0.4608
 9429SOL    HW139920   3.098   0.774   2.152  2.6665  0.1590 -1.6047
 9429SOL    HW239921   3.093   0.700   2.276  0.5084 -0.7392 -1.1319
 9430SOL     OW39922   3.591   3.339   6.154  0.7619  0.6303  0.1238
 9430SOL    HW139923   3.584   3.252   6.193  1.7638  0.7158  0.5056
 9430SOL    HW239924   3.548   3.319   6.071  0.1673  3.0188 -0.1532
 9431SOL     OW39925   2.558   1.773   2.781 -0.0008  0.2767 -0.7760
 9431SOL    HW139926   2.653   1.783   2.786  0.3057 -2.9551 -0.0804
 9431SOL    HW239927   2.529   1.863   2.797  1.6725  0.6898 -0.1082
 9432SOL     OW39928   3.915   0.984   8.734 -0.2548  0.6237 -0.5215
 9432SOL    HW139929   3.991   0.931   8.758  0.1459  1.4215  0.0188
 9432SOL    HW239930   3.851   0.958   8.800 -0.7071  1.1272 -0.7596
 9433SOL     OW39931   2.540   0.458   0.773  0.5858  0.1511  0.2834
 9433SOL    HW139932   2.612   0.470   0.711  1.2549 -1.3502  0.7661
 9433SOL    HW239933   2.498   0.543   0.761  1.7765  0.6632 -0.2639
 9434SOL     OW39934   3.588   1.496   8.337  0.1837 -0.0803 -0.0852
 9434SOL    HW139935   3.531   1.542   8.399 -1.2798 -0.9048 -0.8142
 9434SOL    HW239936   3.594   1.552   8.259 -0.9514  1.5359  0.9676
 9435SOL     OW39937   3.844   4.678   5.383 -0.2639 -0.0823  0.1752
 9435SOL    HW139938   3.898   4.729   5.443 -0.4332 -0.3385  0.5443
 9435SOL    HW239939   3.853   4.739   5.310 -0.9945 -0.7921 -0.5034
 9436SOL     OW39940   0.844   2.530  13.584  0.3400  0.1535  0.1680
 9436SOL    HW139941   0.922   2.581  13.605  1.1686 -0.3977 -1.6117
 9436SOL    HW239942   0.776   2.598  13.584 -0.5056 -0.6781 -1.1272
 9437SOL     OW39943   0.232   1.808   4.040 -0.4744  0.4473  0.8347
 9437SOL    HW139944   0.244   1.714   4.048  0.8015  0.5618  0.2699
 9437SOL    HW239945   0.136   1.812   4.032 -0.3200  0.3933 -1.0627
 9438SOL     OW39946   3.193   4.492   6.049  0.0755 -0.2110 -0.0848
 9438SOL    HW139947   3.102   4.519   6.036  0.3421  0.8390  0.2179
 9438SOL    HW239948   3.206   4.496   6.144 -0.2763 -0.2614 -0.0350
 9439SOL     OW39949   0.673   0.037  13.518 -0.4583 -0.3731  0.0199
 9439SOL    HW139950   0.652   0.026  13.611 -4.4525 -1.8773 -1.0595
 9439SOL    HW239951   0.677   4.688  13.488 -0.4209  0.3382 -2.1051
 9440SOL     OW39952   4.393   3.046   1.814  0.2367  0.0102 -0.1528
 9440SOL    HW139953   4.398   2.993   1.734  1.2337  1.3549 -0.9922
 9440SOL    HW239954   4.301   3.038   1.839  0.6643  0.2272  1.4880
 9441SOL     OW39955   2.506   0.488   8.960  0.0692 -0.1821  0.5371
 9441SOL    HW139956   2.560   0.415   8.989  1.4987  0.1438 -1.2812
 9441SOL    HW239957   2.469   0.513   9.044 -0.0216  0.0613  0.4256
 9442SOL     OW39958   4.423   1.995   7.351 -0.9183  0.5628  1.1219
 9442SOL    HW139959   4.358   2.045   7.401 -0.4771  0.4590  1.7989
 9442SOL    HW239960   4.495   2.058   7.343  0.4020 -0.7049  2.8897
 9443SOL     OW39961   2.188   1.940   1.807  0.4981  0.0935  0.2901
 9443SOL    HW139962   2.175   2.017   1.862 -1.7934 -0.6116  0.7413
 9443SOL    HW239963   2.224   1.885   1.877  1.6054 -0.3455 -0.6130
 9444SOL     OW39964   2.338   3.223   2.656 -0.0240 -0.2734 -0.0946
 9444SOL    HW139965   2.417   3.182   2.692  0.0592  0.4111  0.5174
 9444SOL    HW239966   2.329   3.177   2.573 -0.6205 -1.8971  0.8856
 9445SOL     OW39967   0.864   1.896   7.459  0.9222  0.3215 -0.4575
 9445SOL    HW139968   0.786   1.946   7.481  1.4195  1.1010 -0.4967
 9445SOL    HW239969   0.882   1.924   7.369 -2.7189 -0.5365 -1.4837
 9446SOL     OW39970   2.431   2.919   4.295 -0.0588 -0.1564  0.0237
 9446SOL    HW139971   2.499   2.859   4.262 -0.5370 -0.1557 -0.9632
 9446SOL    HW239972   2.409   2.869   4.374 -0.9790  0.6053  0.2504
 9447SOL     OW39973   3.427   1.615   8.531  0.7776  0.4716 -0.5063
 9447SOL    HW139974   3.435   1.630   8.626  0.6991 -1.2083 -0.2342
 9447SOL    HW239975   3.332   1.611   8.526  0.9277 -1.1076 -1.8574
 9448SOL     OW39976   2.304   2.962  15.131 -0.1809  0.9269 -0.3723
 9448SOL    HW139977   2.254   2.881  15.144 -3.1518  2.5862 -1.4073
 9448SOL    HW239978   2.389   2.930  15.103 -0.9614 -0.8260 -0.7262
 9449SOL     OW39979   0.550   2.982  13.580  0.4166  0.3304 -0.7033
 9449SOL    HW139980   0.639   3.018  13.579  1.0246 -1.1700 -0.0369
 9449SOL    HW239981   0.516   3.025  13.659  1.1031  1.6504 -1.1200
 9450SOL     OW39982   2.272   0.971   6.202  0.2176 -0.0627 -0.4885
 9450SOL    HW139983   2.264   1.045   6.262 -2.7955 -2.1517  1.7104
 9450SOL    HW239984   2.285   1.014   6.118  1.2462  2.6416  1.0855
 9451SOL     OW39985   3.138   1.908   1.693 -0.2444 -0.3269 -0.7868
 9451SOL    HW139986   3.160   1.981   1.750 -1.2998  1.3414 -2.5141
 9451SOL    HW239987   3.079   1.865   1.754  2.9398 -1.4541  1.4977
 9452SOL     OW39988   1.710   0.772   2.116  0.0087 -0.7945 -0.0384
 9452SOL    HW139989   1.799   0.802   2.131 -0.1857  0.4072 -1.3687
 9452SOL    HW239990   1.679   0.823   2.041 -0.4180 -2.0864 -0.7312
 9453SOL     OW39991   1.459   2.772   0.065 -0.2298  0.0245 -0.3096
 9453SOL    HW139992   1.470   2.743  17.737  3.0053  0.8403 -0.1745
 9453SOL    HW239993   1.490   2.706   0.127  0.9881 -0.7069 -1.7115
 9454SOL     OW39994   2.133   2.497   3.199 -0.3749  0.1491 -0.3785
 9454SOL    HW139995   2.110   2.587   3.221 -2.0413 -0.2013 -0.7193
 9454SOL    HW239996   2.075   2.448   3.257 -0.9350  0.4319 -0.6989
 9455SOL     OW39997   4.031   1.509   9.252 -0.5041  0.5675  0.2329
 9455SOL    HW139998   3.967   1.493   9.182  0.4051  2.1883 -0.9703
 9455SOL    HW239999   4.074   1.586   9.215 -0.0282 -0.1993 -0.7977
 9456SOL     OW40000   4.607   0.937   3.255 -0.2861 -0.4772 -0.3925
 9456SOL    HW140001   4.588   0.855   3.299  1.1636 -1.2613 -1.2253
 9456SOL    HW240002   4.549   0.936   3.180 -1.9492 -4.0518  0.9594
 9457SOL     OW40003   3.309   1.214   2.101  0.3383  0.3843  0.0170
 9457SOL    HW140004   3.307   1.241   2.193  0.8464 -0.6326  0.3366
 9457SOL    HW240005   3.385   1.265   2.075 -1.6118  2.5035 -1.4965
 9458SOL     OW40006   2.604   1.947  14.429 -0.1301 -0.0232  0.6249
 9458SOL    HW140007   2.571   1.900  14.505 -3.7677  2.5568  0.6246
 9458SOL    HW240008   2.580   2.037  14.454 -0.6011  0.1249 -0.3875
 9459SOL     OW40009   1.529   0.238   6.026  0.3272  0.5253 -0.4239
 9459SOL    HW140010   1.435   0.252   6.034  0.3094  0.4581 -0.5137
 9459SOL    HW240011   1.542   0.250   5.932  1.7432 -0.6685 -0.3954
 9460SOL     OW40012   3.266   4.278   3.801  0.1058  0.1785 -0.0884
 9460SOL    HW140013   3.254   4.201   3.746 -1.9241  1.2725 -1.1950
 9460SOL    HW240014   3.310   4.336   3.739  0.0858 -1.8682 -1.9830
 9461SOL     OW40015   4.257   4.740  11.739 -0.1155  0.3113 -0.2182
 9461SOL    HW140016   4.265   0.081  11.691  1.9998 -1.1608 -2.3672
 9461SOL    HW240017   4.346   4.732  11.775  0.5226 -0.9564 -2.0765
 9462SOL     OW40018   4.630   2.948   3.135  0.2755  0.2107  0.2674
 9462SOL    HW140019   4.637   2.994   3.051 -0.7348  1.2004  0.7227
 9462SOL    HW240020   4.722   2.937   3.156  1.2160  0.6638 -3.6192
 9463SOL     OW40021   4.208   1.964   4.705 -0.2612  0.2646 -0.0243
 9463SOL    HW140022   4.172   1.888   4.660 -1.8589  0.1709  1.4325
 9463SOL    HW240023   4.299   1.938   4.722 -0.2935  0.9269  1.1693
 9464SOL     OW40024   3.838   1.178  11.916 -0.2524 -0.2944 -0.2579
 9464SOL    HW140025   3.878   1.257  11.879 -2.0911  1.5660  1.7137
 9464SOL    HW240026   3.745   1.196  11.906 -0.4166 -1.5459 -0.9896
 9465SOL     OW40027   1.830   1.735   3.587 -0.5041 -0.2768 -0.8880
 9465SOL    HW140028   1.847   1.711   3.496 -2.0323 -1.5746 -0.8302
 9465SOL    HW240029   1.872   1.821   3.590  0.6637 -0.8711 -0.3294
 9466SOL     OW40030   1.058   1.543   8.419  0.2668  0.2040  0.2952
 9466SOL    HW140031   1.067   1.565   8.326  2.2871 -0.0457  0.4446
 9466SOL    HW240032   1.075   1.633   8.449  1.4883  1.1120 -3.1529
 9467SOL     OW40033   0.511   3.610   7.611 -0.1066  0.2079  0.0650
 9467SOL    HW140034   0.532   3.642   7.699 -0.4558 -0.1435  0.2794
 9467SOL    HW240035   0.535   3.681   7.551  2.0602 -2.7702 -2.5546
 9468SOL     OW40036   1.531   1.116  17.258 -0.4989 -0.3803  0.1232
 9468SOL    HW140037   1.618   1.119  17.218 -1.2616  2.0987 -1.3469
 9468SOL    HW240038   1.542   1.032  17.304 -0.1983  0.3034  1.3201
 9469SOL     OW40039   3.210   1.054  11.753  0.1333 -0.5095  0.6064
 9469SOL    HW140040   3.304   1.067  11.742  0.0144  1.0900  1.4794
 9469SOL    HW240041   3.191   1.001  11.676 -1.4187  0.7579  0.1064
 9470SOL     OW40042   1.670   1.941   0.557  0.5114  0.2203  0.1684
 9470SOL    HW140043   1.624   1.956   0.640  1.2617  1.1825  0.4087
 9470SOL    HW240044   1.733   1.881   0.597 -0.0416  0.7356  1.8223
 9471SOL     OW40045   0.374   3.052  13.776 -0.5919  0.3497  0.4391
 9471SOL    HW140046   0.384   3.032  13.868  0.0874 -0.7292  0.1257
 9471SOL    HW240047   0.281   3.034  13.765  0.2401 -1.3867 -3.6733
 9472SOL     OW40048   3.382   0.447   2.765  0.1397  0.4539 -0.2860
 9472SOL    HW140049   3.400   0.422   2.856  0.6202 -0.0263 -0.5150
 9472SOL    HW240050   3.471   0.463   2.736  0.0005 -1.0621 -1.5191
 9473SOL     OW40051   3.829   3.313   7.375 -0.0613 -0.7018  0.4479
 9473SOL    HW140052   3.870   3.368   7.308 -1.1170 -0.5053 -0.0270
 9473SOL    HW240053   3.790   3.244   7.322 -1.1461 -0.4669  0.9470
 9474SOL     OW40054   1.645   4.420   4.427  0.1145 -0.0217 -0.1564
 9474SOL    HW140055   1.656   4.422   4.332  0.3688 -1.2434 -0.1479
 9474SOL    HW240056   1.698   4.495   4.454 -0.2798 -0.0134  0.5745
 9475SOL     OW40057   1.652   1.205  11.508  0.0949 -0.0235 -0.2737
 9475SOL    HW140058   1.596   1.128  11.513  0.8841 -0.4797  1.6747
 9475SOL    HW240059   1.579   1.265  11.490 -0.1242  0.0673  0.8912
 9476SOL     OW40060   1.467   4.461   5.726  0.6834  0.5643  0.1373
 9476SOL    HW140061   1.504   4.416   5.651 -0.4400 -2.1860  1.2288
 9476SOL    HW240062   1.422   4.388   5.769  1.4650 -0.2189 -0.3737
 9477SOL     OW40063   4.552   3.681   4.586 -0.4701 -0.1847 -0.3772
 9477SOL    HW140064   4.525   3.668   4.495 -0.7628 -0.2031 -0.2885
 9477SOL    HW240065   4.578   3.774   4.584 -1.5202  0.0957 -1.2390
 9478SOL     OW40066   1.323   0.628   9.302  0.3201 -0.9931  0.4141
 9478SOL    HW140067   1.316   0.628   9.207  0.5433 -2.4345  0.3911
 9478SOL    HW240068   1.417   0.631   9.316  0.0196 -3.0769  2.8808
 9479SOL     OW40069   2.318   3.668   8.243 -0.8926 -0.6719 -0.2765
 9479SOL    HW140070   2.247   3.688   8.183  1.4635  1.3696 -2.4107
 9479SOL    HW240071   2.289   3.597   8.299  0.8520 -0.3919  0.9789
 9480SOL     OW40072   1.562   4.630   9.873 -0.3673  0.0177  0.4478
 9480SOL    HW140073   1.489   4.668   9.825 -1.4233 -2.0772  0.3837
 9480SOL    HW240074   1.547   4.682   9.952  1.9900 -0.7692  1.4226
 9481SOL     OW40075   1.503   1.254  16.406 -0.0356 -0.0014 -0.4785
 9481SOL    HW140076   1.565   1.185  16.430  0.9827  1.0378 -0.1476
 9481SOL    HW240077   1.442   1.208  16.349  1.5100 -0.5342 -1.6732
 9482SOL     OW40078   0.904   1.826  13.203 -0.0216  0.0935 -0.3133
 9482SOL    HW140079   0.931   1.847  13.113  1.1196  1.3570  0.3268
 9482SOL    HW240080   0.860   1.904  13.234  1.0627  0.4155  0.4156
 9483SOL     OW40081   1.034   2.674   7.278 -0.1885  0.5674 -0.1967
 9483SOL    HW140082   1.023   2.613   7.351 -1.7231  2.0326  0.7800
 9483SOL    HW240083   1.105   2.639   7.223 -0.8972 -1.1905 -0.0145
 9484SOL     OW40084   0.895   1.695  17.720  0.1799  0.1980  0.4387
 9484SOL    HW140085   0.911   1.664  17.631  0.9999  2.2078 -0.0978
 9484SOL    HW240086   0.898   1.790  17.709 -2.1189  0.2481  0.1815
 9485SOL     OW40087   2.860   0.221  16.432  0.6063  0.0160  0.2789
 9485SOL    HW140088   2.874   0.249  16.342  1.9021  1.4688  0.9349
 9485SOL    HW240089   2.912   0.142  16.444  1.3639  0.5612  0.5517
 9486SOL     OW40090   2.722   2.573   9.076  0.2264 -0.1693 -0.2618
 9486SOL    HW140091   2.684   2.533   8.997  0.2645  2.1562 -1.4569
 9486SOL    HW240092   2.659   2.549   9.143 -0.6103 -1.2399 -1.4221
 9487SOL     OW40093   1.100   4.592  14.249 -0.0831 -0.4234  0.5976
 9487SOL    HW140094   1.101   4.499  14.227 -0.2155 -0.9556  2.8249
 9487SOL    HW240095   1.013   4.605  14.287 -0.6409  1.1409 -1.2107
 9488SOL     OW40096   4.727   3.010   2.092  0.3212 -0.5949  0.4246
 9488SOL    HW140097   0.059   2.958   2.059 -0.6687 -1.5792 -0.1964
 9488SOL    HW240098   4.651   2.952   2.084 -1.0328  0.8997  2.3878
 9489SOL     OW40099   1.315   2.480   4.163 -0.2577  0.0984 -0.2351
 9489SOL    HW140100   1.382   2.467   4.096 -0.1407  0.8749 -0.2688
 9489SOL    HW240101   1.262   2.401   4.169 -0.1935  0.0079 -0.9442
 9490SOL     OW40102   0.146   0.717   5.027  0.0739 -0.0258 -0.1795
 9490SOL    HW140103   0.168   0.713   5.120 -0.5005 -0.0866 -0.0468
 9490SOL    HW240104   0.229   0.682   4.995 -0.0792  0.9581 -1.6361
 9491SOL     OW40105   1.455   2.804   5.510  0.6245  0.0122 -0.2115
 9491SOL    HW140106   1.374   2.825   5.557 -0.2317  0.6435 -1.9448
 9491SOL    HW240107   1.415   2.784   5.425 -0.5189  1.5116 -0.0314
 9492SOL     OW40108   3.032   1.313   5.646  0.0962  0.1006 -0.2373
 9492SOL    HW140109   2.942   1.334   5.623  0.4115 -1.2012 -2.7340
 9492SOL    HW240110   3.032   1.224   5.680  0.3339 -0.4131 -1.5865
 9493SOL     OW40111   0.348   2.613  13.627 -0.3201  0.2233 -0.1465
 9493SOL    HW140112   0.262   2.624  13.666 -0.6766  0.0652 -0.8730
 9493SOL    HW240113   0.352   2.521  13.600 -0.5144  1.1588 -3.4395
 9494SOL     OW40114   2.128   0.026   0.416  0.3960  0.3046 -0.2343
 9494SOL    HW140115   2.181   0.048   0.492 -1.6372 -1.6920  1.7865
 9494SOL    HW240116   2.189   0.041   0.345 -0.2725 -2.1138 -1.3191
 9495SOL     OW40117   0.045   3.573   4.431 -0.3280 -0.3858 -0.1347
 9495SOL    HW140118   0.062   3.480   4.449 -0.6936 -0.5261 -0.5035
 9495SOL    HW240119   0.015   3.563   4.340  0.0020  0.5580 -0.3414
 9496SOL     OW40120   1.268   2.560  10.838  0.5282 -0.2556 -0.0107
 9496SOL    HW140121   1.334   2.529  10.899 -0.1443  0.9987  1.3470
 9496SOL    HW240122   1.188   2.513  10.862 -0.8737  0.5603 -3.0975
 9497SOL     OW40123   2.257   4.533  10.698  0.4860 -0.1985  0.3636
 9497SOL    HW140124   2.163   4.513  10.696  0.1780  1.4546 -2.9374
 9497SOL    HW240125   2.282   4.497  10.613  1.3555 -1.3441  1.1183
 9498SOL     OW40126   3.978   4.454   5.976 -0.1059 -0.5879 -0.3399
 9498SOL    HW140127   4.000   4.428   5.886  0.3564 -1.0513 -0.0979
 9498SOL    HW240128   4.020   4.540   5.980  1.7578 -1.5530  0.7718
 9499SOL     OW40129   4.741   1.626   4.241  0.5845 -0.4131 -0.7793
 9499SOL    HW140130   4.735   1.534   4.217  1.6565 -0.3866 -1.1164
 9499SOL    HW240131   4.710   1.664   4.158 -0.4264  3.5430  1.3667
 9500SOL     OW40132   3.345   0.483  13.522 -0.0458  0.2770  0.1081
 9500SOL    HW140133   3.419   0.502  13.578 -0.0943  0.7534  0.0105
 9500SOL    HW240134   3.342   0.562  13.467  0.0686 -1.2921 -2.1821
 9501SOL     OW40135   3.222   0.222   9.705  0.2851  0.3114  0.2264
 9501SOL    HW140136   3.244   0.128   9.704 -0.9019  0.0422 -0.1259
 9501SOL    HW240137   3.302   0.263   9.670  2.0664  0.2168  4.1979
 9502SOL     OW40138   1.001   0.556   7.904  0.4473  0.2490 -0.0203
 9502SOL    HW140139   0.948   0.478   7.890  1.0872  0.0685 -1.4576
 9502SOL    HW240140   1.084   0.513   7.926 -0.4841 -1.5535  0.0121
 9503SOL     OW40141   2.662   4.105   5.158  0.2170  0.4111 -0.0838
 9503SOL    HW140142   2.672   4.021   5.202 -0.5312  0.4861  0.2228
 9503SOL    HW240143   2.570   4.107   5.133  0.7075  0.4373 -1.9215
 9504SOL     OW40144   1.183   1.790   4.686 -0.3331  0.3316 -0.1835
 9504SOL    HW140145   1.165   1.716   4.627  1.3513 -1.1080  1.1158
 9504SOL    HW240146   1.181   1.750   4.773 -1.9398  0.2448 -0.2551
 9505SOL     OW40147   2.990   2.835   4.721  0.4310  0.0514 -0.4218
 9505SOL    HW140148   3.047   2.767   4.756  0.1997 -0.6394 -1.4021
 9505SOL    HW240149   3.044   2.864   4.647  1.0473 -1.0062 -0.3787
 9506SOL     OW40150   1.183   4.094   8.677 -0.4865 -0.5315  0.2407
 9506SOL    HW140151   1.246   4.162   8.701 -0.2232 -0.9233  0.6455
 9506SOL    HW240152   1.123   4.152   8.629  0.6227 -0.3389 -0.9179
 9507SOL     OW40153   3.839   3.128   0.165  0.4111  0.0394  0.4319
 9507SOL    HW140154   3.821   3.205   0.111  3.5377  0.8521  0.5259
 9507SOL    HW240155   3.750   3.097   0.186 -0.7639  2.7465 -0.6106
 9508SOL     OW40156   2.606   4.309   5.370  0.4417 -0.2561  0.3486
 9508SOL    HW140157   2.618   4.309   5.465 -0.8670 -1.0819  0.5167
 9508SOL    HW240158   2.636   4.220   5.351 -3.0564 -1.8386  2.3360
 9509SOL     OW40159   1.541   2.629   5.093 -0.3190  0.2676  0.1377
 9509SOL    HW140160   1.635   2.614   5.101  0.0794  2.7528  0.3791
 9509SOL    HW240161   1.529   2.631   4.998 -2.8539 -3.6130  0.4021
 9510SOL     OW40162   1.658   3.947   8.476 -0.0950  0.0032  0.2656
 9510SOL    HW140163   1.636   3.856   8.459 -1.6819  0.2451  1.0347
 9510SOL    HW240164   1.570   3.985   8.480 -1.2172 -2.6800  0.6685
 9511SOL     OW40165   1.315   0.550  11.588  0.3226  0.0865 -0.5061
 9511SOL    HW140166   1.283   0.506  11.509  0.8829 -1.7282  0.2906
 9511SOL    HW240167   1.252   0.622  11.595  1.3007  1.1682 -2.5493
 9512SOL     OW40168   0.775   4.695  14.618  0.6654 -0.5160 -0.3630
 9512SOL    HW140169   0.697   4.687  14.564  1.9851 -0.9263 -2.2356
 9512SOL    HW240170   0.833   4.650  14.556 -1.6568 -0.0656 -2.8322
 9513SOL     OW40171   3.590   1.938   2.049 -0.1806  0.0663 -0.0225
 9513SOL    HW140172   3.643   1.927   2.127  1.1299  0.7148 -0.8267
 9513SOL    HW240173   3.583   2.033   2.059 -1.0027 -0.2122  2.0336
 9514SOL     OW40174   1.168   2.466  17.051  0.0403  0.0953  0.0336
 9514SOL    HW140175   1.158   2.545  16.999 -2.2904  0.7596  1.4952
 9514SOL    HW240176   1.253   2.475  17.094 -0.1021  0.1219  0.3114
 9515SOL     OW40177   3.098   4.731   7.916  0.4563  0.0429 -0.0667
 9515SOL    HW140178   3.029   0.037   7.963  0.9184  1.5382 -0.8821
 9515SOL    HW240179   3.179   0.004   7.966  0.5859  5.1219 -1.6525
 9516SOL     OW40180   0.440   0.371   6.570 -0.5305 -0.0992 -0.6549
 9516SOL    HW140181   0.352   0.354   6.604 -1.1492  1.5907 -1.4036
 9516SOL    HW240182   0.472   0.281   6.567  0.4129  0.1736  1.3553
 9517SOL     OW40183   1.349   2.359  11.313  0.2705  0.0277  0.5484
 9517SOL    HW140184   1.371   2.288  11.253  2.5509  0.3234  1.0365
 9517SOL    HW240185   1.292   2.315  11.376  1.4633 -2.8871 -0.3964
 9518SOL     OW40186   1.688   3.843   7.402 -0.2465 -0.1570 -0.0531
 9518SOL    HW140187   1.634   3.765   7.415 -1.1831  0.5726  0.3738
 9518SOL    HW240188   1.738   3.817   7.324 -0.5955  1.6902 -0.9044
 9519SOL     OW40189   4.338   3.584   7.477 -0.5674 -0.5633  0.4214
 9519SOL    HW140190   4.404   3.560   7.542  0.2711 -0.6956 -0.4793
 9519SOL    HW240191   4.261   3.540   7.513 -2.1231  1.7570 -0.0330
 9520SOL     OW40192   1.341   1.556   7.025 -0.2674  0.0653  0.4484
 9520SOL    HW140193   1.383   1.486   7.075 -1.1828 -0.8813 -0.0956
 9520SOL    HW240194   1.281   1.586   7.093 -0.2522 -0.4821  0.7025
 9521SOL     OW40195   2.275   2.798   1.811 -0.4195  0.4036 -0.0467
 9521SOL    HW140196   2.344   2.849   1.854 -0.0038 -0.8615  0.7764
 9521SOL    HW240197   2.207   2.785   1.877 -1.2975 -1.3644 -1.3047
 9522SOL     OW40198   3.543   3.133   6.554 -0.5062 -0.2425 -0.1925
 9522SOL    HW140199   3.554   3.043   6.522  0.6567 -0.5407  1.0328
 9522SOL    HW240200   3.494   3.169   6.481 -0.0070  1.9935  0.5807
 9523SOL     OW40201   4.439   2.823  12.264 -0.4251 -0.1021 -0.0278
 9523SOL    HW140202   4.368   2.761  12.249  0.5604 -1.2239 -0.0015
 9523SOL    HW240203   4.408   2.897  12.211  0.8608 -0.4685 -1.2775
 9524SOL     OW40204   4.627   3.705  15.599  0.4674  0.4743  0.1497
 9524SOL    HW140205   4.565   3.632  15.596 -0.2941  1.1027  0.8570
 9524SOL    HW240206   4.692   3.656  15.548  1.3078  1.4006  0.3296
 9525SOL     OW40207   1.875   2.210   7.665  0.5039  0.5936  0.1496
 9525SOL    HW140208   1.795   2.259   7.648  0.9597  0.7767 -1.4040
 9525SOL    HW240209   1.875   2.163   7.582 -1.1823  0.1442  0.4129
 9526SOL     OW40210   4.475   4.698   1.246  0.6912 -0.0778 -0.5250
 9526SOL    HW140211   4.489   4.690   1.340 -0.1587 -0.5720 -0.4347
 9526SOL    HW240212   4.562   4.729   1.220  1.7785 -0.3766  2.8158
 9527SOL     OW40213   2.046   0.902   9.875 -0.0436 -0.0360  0.9242
 9527SOL    HW140214   2.076   0.947   9.795 -2.2636  1.5861  0.9992
 9527SOL    HW240215   2.063   0.972   9.938 -2.1757  0.1369  1.3081
 9528SOL     OW40216   0.667   2.060   8.097  0.1902  0.3438 -1.0867
 9528SOL    HW140217   0.582   2.029   8.064 -0.0548  0.1670 -0.2802
 9528SOL    HW240218   0.675   2.132   8.035  0.2666 -1.5434 -3.2661
 9529SOL     OW40219   2.336   2.827   3.945  0.7011 -0.0416  0.3258
 9529SOL    HW140220   2.360   2.916   3.969 -0.8968  0.2857  0.7330
 9529SOL    HW240221   2.420   2.786   3.964 -0.9832 -3.1185  1.0389
 9530SOL     OW40222   1.816   1.689   5.446 -0.3738 -0.1535  0.8997
 9530SOL    HW140223   1.877   1.748   5.490 -1.7633  1.1080  1.1223
 9530SOL    HW240224   1.749   1.666   5.511 -0.4679 -0.0974  0.8216
 9531SOL     OW40225   4.343   4.699  11.223  0.5671 -0.2286 -0.3010
 9531SOL    HW140226   4.386   4.636  11.166 -1.6367 -0.1713 -2.0320
 9531SOL    HW240227   4.409   0.027  11.220  0.4185  0.0033  1.5510
 9532SOL     OW40228   3.907   3.172   3.650  1.1785  0.3183  0.4319
 9532SOL    HW140229   3.835   3.193   3.591  0.8512 -1.3840  0.2218
 9532SOL    HW240230   3.908   3.076   3.644  1.7297  0.4106 -0.8268
 9533SOL     OW40231   4.203   3.988  15.616 -0.2408 -0.1700 -0.5126
 9533SOL    HW140232   4.188   4.029  15.531 -1.4523 -1.6614 -1.0198
 9533SOL    HW240233   4.241   3.903  15.594  0.9136 -0.5919  3.0736
 9534SOL     OW40234   0.782   0.130  16.396 -0.5968  0.0701 -0.6337
 9534SOL    HW140235   0.857   0.163  16.347 -0.6756  0.8542 -0.2314
 9534SOL    HW240236   0.714   0.183  16.354 -0.0727 -0.6543 -2.4071
 9535SOL     OW40237   1.831   1.469   9.086  0.1530 -0.6380 -0.0349
 9535SOL    HW140238   1.897   1.434   9.146  0.8461  0.6260 -0.0528
 9535SOL    HW240239   1.835   1.564   9.086  0.2527 -0.6441  0.4059
 9536SOL     OW40240   1.687   1.372   3.235 -0.0784 -0.6318  0.2108
 9536SOL    HW140241   1.748   1.306   3.267  0.5831  1.1317  2.5287
 9536SOL    HW240242   1.694   1.373   3.139 -2.3455 -0.8629  0.0419
 9537SOL     OW40243   0.533   1.270  12.383  0.4231 -0.4250 -0.6845
 9537SOL    HW140244   0.544   1.189  12.332 -3.2809 -2.0755  1.1133
 9537SOL    HW240245   0.487   1.231  12.458  0.6377  2.6158  0.9958
 9538SOL     OW40246   0.228   3.874   3.065  0.0159  0.5033 -0.8468
 9538SOL    HW140247   0.286   3.818   3.115 -0.7022  1.4574  1.0338
 9538SOL    HW240248   0.163   3.881   3.134  2.2068  0.4184  1.2222
 9539SOL     OW40249   1.786   0.403  11.422 -0.1291 -0.2984  0.2261
 9539SOL    HW140250   1.801   0.488  11.380 -1.2890 -0.0194  0.3831
 9539SOL    HW240251   1.714   0.422  11.482  0.2398  0.7545  0.3374
 9540SOL     OW40252   1.318   3.584  17.004 -0.1937  0.0787 -0.5469
 9540SOL    HW140253   1.400   3.624  16.976  1.3939 -2.3510  0.7049
 9540SOL    HW240254   1.349   3.502  17.042 -0.2706  0.4112  0.2313
 9541SOL     OW40255   0.862   1.278   3.104  0.2637  0.2831 -0.0005
 9541SOL    HW140256   0.856   1.363   3.147  1.7156  1.4119 -2.0373
 9541SOL    HW240257   0.955   1.259   3.114  0.2893  0.5379  0.2431
 9542SOL     OW40258   1.338   1.056   2.717  0.5343 -0.4128 -0.3415
 9542SOL    HW140259   1.384   1.094   2.642 -0.7007  0.5878 -0.5964
 9542SOL    HW240260   1.328   0.965   2.688 -3.6892  0.0192 -0.2328
 9543SOL     OW40261   1.783   0.629   2.632  0.1580 -0.0470  1.4070
 9543SOL    HW140262   1.724   0.688   2.679 -0.2319 -0.3075  1.2424
 9543SOL    HW240263   1.738   0.620   2.548 -0.4537  1.7738  1.5314
 9544SOL     OW40264   1.413   2.895   2.304  0.0465 -0.7245 -0.2874
 9544SOL    HW140265   1.434   2.967   2.245 -0.2295  0.0244  0.5394
 9544SOL    HW240266   1.500   2.865   2.332 -1.5421 -3.7652  1.4103
 9545SOL     OW40267   0.647   1.539  12.410 -0.3636  0.1924 -0.2175
 9545SOL    HW140268   0.558   1.518  12.438 -0.9127  3.3229  0.3070
 9545SOL    HW240269   0.676   1.453  12.443  1.5160  0.6204 -0.7084
 9546SOL     OW40270   0.832   2.998   2.617  0.2223  0.6349 -0.3175
 9546SOL    HW140271   0.843   3.031   2.706  1.6138 -2.6096  0.7306
 9546SOL    HW240272   0.737   2.985   2.619  0.4569 -1.5989 -3.6479
 9547SOL     OW40273   4.615   3.913   4.130  0.1725  0.2117 -0.0270
 9547SOL    HW140274   4.590   3.985   4.072 -0.6078  1.9651  2.5055
 9547SOL    HW240275   4.673   3.859   4.076  0.6593 -0.4309  1.1404
 9548SOL     OW40276   0.943   3.917   0.603 -0.7027 -0.3049 -0.0924
 9548SOL    HW140277   0.933   3.890   0.694 -1.1106 -1.1270 -0.3827
 9548SOL    HW240278   0.916   3.835   0.562  0.7464 -1.4317  1.2453
 9549SOL     OW40279   0.217   4.464   2.555 -0.4736  0.8301 -0.2214
 9549SOL    HW140280   0.260   4.379   2.561  0.5454  1.2751 -1.2093
 9549SOL    HW240281   0.275   4.519   2.606  1.2319  0.0559 -1.3312
 9550SOL     OW40282   2.753   4.023  10.110  0.1122 -0.2527  0.4712
 9550SOL    HW140283   2.824   3.959  10.101 -0.1520 -0.9675  3.6006
 9550SOL    HW240284   2.715   3.981  10.188  0.7019 -1.3251  0.1883
 9551SOL     OW40285   2.869   0.029  12.390  0.2880  0.3466 -0.8274
 9551SOL    HW140286   2.853   0.105  12.334  1.4744  1.8112  0.8341
 9551SOL    HW240287   2.810   4.699  12.364 -0.1844  1.1747 -2.0442
 9552SOL     OW40288   3.444   2.485   5.827  0.6729 -0.0757  0.5445
 9552SOL    HW140289   3.362   2.533   5.812  0.1198 -1.4099 -0.7264
 9552SOL    HW240290   3.458   2.456   5.737 -1.9545 -0.1027  0.1338
 9553SOL     OW40291   4.659   3.552   8.216 -0.5165 -0.4151  0.6168
 9553SOL    HW140292   4.708   3.627   8.181  0.7506 -0.2620  2.6997
 9553SOL    HW240293   4.578   3.602   8.230 -0.9270 -0.4211 -1.8555
 9554SOL     OW40294   2.403   0.579  16.487 -0.3405  0.0016  0.2123
 9554SOL    HW140295   2.445   0.666  16.489 -0.5805  0.1435 -1.2113
 9554SOL    HW240296   2.315   0.603  16.458 -1.5466 -4.3701  0.3888
 9555SOL     OW40297   2.597   1.203   6.744  0.7175 -0.1414  0.3183
 9555SOL    HW140298   2.574   1.277   6.801  1.3905 -1.3246  2.1190
 9555SOL    HW240299   2.640   1.151   6.812  0.0227 -0.7126  0.3156
 9556SOL     OW40300   0.926   2.051   5.716  0.1616 -0.0594  0.1240
 9556SOL    HW140301   0.917   2.127   5.658 -0.2637  0.5518  0.9812
 9556SOL    HW240302   0.842   2.007   5.701 -1.6690  2.8933  1.7174
 9557SOL     OW40303   3.588   1.557  14.381  0.1848 -0.4309  0.0353
 9557SOL    HW140304   3.617   1.538  14.292 -2.3165  2.2306 -1.3620
 9557SOL    HW240305   3.500   1.519  14.379  0.2659 -0.6449  0.4684
 9558SOL     OW40306   1.230   3.785   1.583  0.4234  0.0331 -0.3470
 9558SOL    HW140307   1.200   3.695   1.570  0.4681  0.1401 -1.1888
 9558SOL    HW240308   1.284   3.782   1.662 -0.0414 -0.7426 -0.0539
 9559SOL     OW40309   3.329   4.345   3.387  0.1578  0.3438 -0.0612
 9559SOL    HW140310   3.347   4.274   3.327  0.4849 -0.2701  0.7607
 9559SOL    HW240311   3.347   4.306   3.473  0.4940  1.2536  0.2939
 9560SOL     OW40312   0.580   2.899   3.662 -0.2211 -0.3945  0.4460
 9560SOL    HW140313   0.643   2.832   3.637  0.4407  0.4548 -0.1589
 9560SOL    HW240314   0.622   2.931   3.742 -1.0752  0.2750  0.6345
 9561SOL     OW40315   0.557   1.757  10.393  0.5668 -0.0053  0.0757
 9561SOL    HW140316   0.643   1.736  10.430  0.9659 -2.5287 -2.3298
 9561SOL    HW240317   0.499   1.706  10.450  1.3616 -0.1327  0.7767
 9562SOL     OW40318   3.723   0.319   5.433  0.4576  0.0593 -0.3562
 9562SOL    HW140319   3.749   0.357   5.517 -0.9978 -0.2878  0.2478
 9562SOL    HW240320   3.669   0.245   5.460  1.1562  0.0534  1.0453
 9563SOL     OW40321   1.457   2.471   6.440  0.1057  0.4354 -0.4865
 9563SOL    HW140322   1.379   2.422   6.413  0.3381  0.2661 -0.8434
 9563SOL    HW240323   1.438   2.471   6.534  0.8788  3.6879 -0.3343
 9564SOL     OW40324   2.234   2.918  17.595  0.5152 -0.1602 -0.0817
 9564SOL    HW140325   2.143   2.948  17.599  0.9997  0.9836  2.0343
 9564SOL    HW240326   2.231   2.823  17.607 -2.2423 -0.2797 -1.5660
 9565SOL     OW40327   0.900   0.644   2.584 -0.3738 -0.8577 -0.1830
 9565SOL    HW140328   0.942   0.711   2.639  0.8619 -1.7496 -0.0265
 9565SOL    HW240329   0.867   0.703   2.516  2.7422 -0.9358 -1.7621
 9566SOL     OW40330   3.384   3.583   0.237  0.3286 -0.2896 -0.1333
 9566SOL    HW140331   3.322   3.560   0.168 -1.7026  1.5720  1.0571
 9566SOL    HW240332   3.456   3.535   0.197  1.1142  1.5823 -0.9721
 9567SOL     OW40333   0.698   0.887   5.742  1.0993  0.5114 -0.1802
 9567SOL    HW140334   0.659   0.932   5.816  1.5311  0.6302 -0.0228
 9567SOL    HW240335   0.645   0.930   5.675  0.3643  0.6380  0.4875
 9568SOL     OW40336   2.952   0.342   7.913  0.0894 -0.0308  0.3992
 9568SOL    HW140337   2.986   0.265   7.959 -0.7195 -0.4229  0.3378
 9568SOL    HW240338   2.862   0.313   7.926 -0.6680  2.0164 -0.3219
 9569SOL     OW40339   1.072   1.691   4.442 -0.7491 -0.1079  0.4885
 9569SOL    HW140340   1.018   1.768   4.422 -1.6423 -0.5975  1.0101
 9569SOL    HW240341   1.142   1.705   4.378 -1.1369  1.3716  0.3924
 9570SOL     OW40342   1.813   2.268  14.169  0.4681  0.1186  0.1710
 9570SOL    HW140343   1.867   2.202  14.125  0.3752  1.2347 -1.6409
 9570SOL    HW240344   1.739   2.264  14.108 -1.2205 -0.3357  2.2762
 9571SOL     OW40345   0.845   3.497   6.325  0.2212  0.0375  0.7439
 9571SOL    HW140346   0.838   3.582   6.281  0.3961  0.3495  1.3128
 9571SOL    HW240347   0.939   3.479   6.334  0.6535  1.8175 -0.1271
   4.74110   4.74110  17.76171
