Membrane in water
40347
    1TMC1    C1    1   0.839   0.334  11.492 -0.2279 -0.0273  0.3896
    1TMC1    C2    2   0.805   0.328  11.358  0.6203 -0.4514 -0.4730
    1TMC1    C3    3   0.877   0.395  11.263  0.2145  0.3267  0.2798
    1TMC1    C4    4   0.944   0.415  11.535 -0.8413 -1.0299 -0.4756
    1TMC1    C5    5   1.012   0.485  11.436  0.2877  0.3101  0.2152
    1TMC1    C6    6   0.980   0.480  11.306  0.3769 -0.6484 -1.2754
    1TMC1     C    7   0.767   0.258  11.588  0.6844  0.1726  0.1887
    1TMC1     O    8   0.660   0.209  11.558 -0.4598  0.0699  0.3245
    1TMC1     H    9   0.717   0.273  11.325  0.9487 -2.4112  1.9472
    1TMC1    H1   10   0.958   0.444  11.638 -1.2506  0.0112 -0.7132
    1TMC1    H2   11   1.032   0.537  11.231 -0.2735 -1.0250 -2.0109
    1TMC1    C7   12   1.086   0.598  11.491  0.6530 -0.0664  0.4801
    1TMC1    C8   13   0.855   0.376  11.115 -0.6148  0.2343 -0.2094
    1TMC1    O1   14   1.114   0.597  11.607 -0.0658  0.1320  0.0668
    1TMC1    O2   15   0.892   0.458  11.033 -0.0849 -0.2432 -0.0531
    1TMC1    O3   16   1.060   0.704  11.421  0.3246 -0.2552 -0.1634
    1TMC1    H3   17   1.011   0.686  11.337 -0.1875  0.7439 -0.0711
    1TMC1    O5   18   0.883   0.247  11.100  0.6203 -0.2255 -0.3361
    1TMC1    H5   19   0.884   0.196  11.184  1.4203  0.2174 -0.0797
    2MPD2     C   20   0.709   0.045  12.058 -0.0952 -0.2190 -0.0919
    2MPD2    C1   21   0.608   0.057  11.965 -0.2186 -0.3309  0.4690
    2MPD2    C2   22   0.648   0.120  11.848 -0.2908  0.1586 -0.0245
    2MPD2    C3   23   0.778   0.166  11.821 -0.4975 -0.0726  0.4104
    2MPD2    C4   24   0.869   0.150  11.918 -0.4014 -0.0981  0.5956
    2MPD2    C5   25   0.837   0.090  12.033 -0.1554 -0.8170  0.5342
    2MPD2     H   26   0.574   0.111  11.769  0.1774 -0.4031 -0.3885
    2MPD2    H1   27   0.974   0.172  11.906 -0.3914  0.7636  2.1838
    2MPD2    H2   28   0.685   0.010  12.158  1.1079  0.2770  0.3766
    2MPD2    H3   29   0.901   0.083  12.120 -0.8592  2.2910  1.3091
    2MPD2     N   30   0.830   0.233  11.706 -0.5261  0.0906  0.2827
    2MPD2    H5   31   0.931   0.244  11.703 -0.5585  0.1512 -0.5114
    2MPD2    N1   32   0.474   0.021  11.989 -0.0010  0.2373  0.3305
    2MPD2    H7   33   0.407   0.044  11.916 -1.1110  1.9942  1.9067
    3TMC1    C1   34   4.602   1.003  10.794  0.2325  0.0444 -0.6610
    3TMC1    C2   35   4.592   1.054  10.671  0.5069 -0.8366  0.2055
    3TMC1    C3   36   4.709   1.080  10.604 -0.1933  0.7898  0.3397
    3TMC1    C4   37   4.722   0.970  10.850  0.1726 -0.2686  0.3345
    3TMC1    C5   38   0.106   1.000  10.781 -0.6689  0.3979 -0.7323
    3TMC1    C6   39   0.103   1.059  10.652 -0.2731 -0.0062  0.6156
    3TMC1     C   40   4.487   1.017  10.884 -0.1800 -0.1234 -0.1784
    3TMC1     O   41   4.481   0.931  10.970 -0.5150 -0.0320  0.1353
    3TMC1     H   42   4.494   1.067  10.627 -0.1099  0.4874  1.9377
    3TMC1    H1   43   4.717   0.934  10.952 -0.6078 -2.0297 -0.3218
    3TMC1    H2   44   0.191   1.079  10.592 -0.0455  2.9129  1.9245
    3TMC1    C7   45   0.206   0.901  10.811 -0.0195  0.3530  0.1269
    3TMC1    C8   46   4.717   1.144  10.476 -0.5637 -0.4941  0.2856
    3TMC1    O1   47   0.174   0.799  10.868  0.4085 -0.4375  0.6357
    3TMC1    O2   48   0.052   1.240  10.440  0.2498 -0.2700  0.0868
    3TMC1    O3   49   0.305   0.920  10.721 -0.4135 -0.4153  0.7482
    3TMC1    H3   50   0.319   1.012  10.691  3.3737 -1.5341 -0.9537
    3TMC1    O5   51   4.657   1.052  10.397 -0.1564 -0.2801 -0.6861
    3TMC1    H5   52   4.631   0.974  10.449 -1.3435  1.4286  1.3025
    4MPD2     C   53   4.084   1.253  11.097 -0.6914 -0.1486 -1.2273
    4MPD2    C1   54   4.139   1.341  11.001  0.3535  0.5986  0.2937
    4MPD2    C2   55   4.247   1.294  10.921  0.6945 -0.9180 -0.4030
    4MPD2    C3   56   4.292   1.166  10.932 -0.5135  0.4330  1.1709
    4MPD2    C4   57   4.234   1.081  11.021 -0.3638  0.0688  0.1178
    4MPD2    C5   58   4.130   1.119  11.099  0.0898 -0.2240 -0.3849
    4MPD2     H   59   4.296   1.355  10.845  0.6287  0.7775  0.9276
    4MPD2    H1   60   4.260   0.977  11.033  3.7348  0.9277 -1.3835
    4MPD2    H2   61   3.996   1.293  11.145 -0.5541  1.3041 -2.1547
    4MPD2    H3   62   4.083   1.050  11.169  0.9283  0.9974  1.4062
    4MPD2     N   63   4.412   1.132  10.860  0.1844 -0.2246  0.0782
    4MPD2    H5   64   4.458   1.195  10.795 -1.0457  0.7224  0.1296
    4MPD2    N1   65   4.110   1.478  10.979  0.6673 -0.4881  0.1252
    4MPD2    H7   66   4.163   1.520  10.903 -1.9634  1.6106 -0.5153
    5TCq1    O1   67   0.359   2.635  12.047 -0.1554  0.0799  0.1190
    5TCq1    C1   68   0.326   2.758  11.991 -0.4795 -0.3469 -0.7427
    5TCq1    O2   69   0.399   2.829  11.914  0.5461 -0.0302  0.0442
    5TCq1    C2   70   0.182   2.761  11.983 -0.1655  0.5812 -0.4501
    5TCq1    C3   71   0.103   2.729  12.089  0.0501 -0.1645  0.7964
    5TCq1    C4   72   4.696   2.740  12.074  0.2228  0.0212  0.2587
    5TCq1    C5   73   4.632   2.776  11.963  0.1623 -0.3775 -0.2300
    5TCq1    C6   74   4.718   2.800  11.867  0.3187 -0.9097  0.1480
    5TCq1    C7   75   0.118   2.797  11.870 -0.0191 -0.1019  0.9375
    5TCq1    C8   76   4.668   2.860  11.739 -0.2741  0.1316  0.2188
    5TCq1    O4   77   0.006   2.859  11.640 -0.2671 -0.1602  0.5247
    5TCq1    C9   78   4.610   2.709  12.187 -0.6047 -0.4805 -0.6536
    5TCq1    O5   79   4.659   2.656  12.291 -0.2247  0.2714 -0.2572
    5TCq1    O6   80   4.501   2.768  12.179  0.2326  0.8617 -0.4634
    5TCq1    H1   81   0.286   2.571  12.066  0.1678  0.0389  1.2218
    5TCq1    H2   82   0.139   2.700  12.188 -0.0314  1.2557  1.2377
    5TCq1    H3   83   4.523   2.769  11.963  0.1373  0.0170 -0.4224
    5TCq1    H4   84   0.177   2.836  11.789 -0.0765  1.9064  1.8619
    6MPD2     C   85   4.342   3.033  11.681 -0.9492  0.7082 -0.0418
    6MPD2    C1   86   4.457   2.965  11.644 -0.6693  0.1708  0.1534
    6MPD2    C2   87   4.490   2.954  11.513 -0.0995 -0.0298  0.2011
    6MPD2    C3   88   4.404   2.991  11.414 -0.0269  1.1502  0.2130
    6MPD2    C4   89   4.289   3.061  11.454 -0.2981 -0.4055  0.2294
    6MPD2    C5   90   4.258   3.080  11.586  0.2609 -0.2145 -0.1371
    6MPD2     H   91   4.575   2.894  11.483 -1.9215 -1.1477 -2.6743
    6MPD2    H1   92   4.231   3.111  11.378  0.8072 -0.5679 -0.7098
    6MPD2    H2   93   4.320   3.064  11.783  2.0784 -1.5369  1.3156
    6MPD2    H3   94   4.175   3.137  11.626 -0.1321 -0.0566 -1.1656
    6MPD2     N   95   4.440   2.965  11.279 -0.6195  0.0426  0.2615
    6MPD2    H5   96   4.525   2.916  11.254  1.3136  3.1510  0.7630
    6MPD2    N1   97   4.540   2.913  11.751  0.1720  0.4232 -0.1464
    6MPD2    H7   98   4.504   2.919  11.846  0.0801  0.7621 -0.2037
    7TCq1    O1   99   1.894   1.661  12.624  0.0385  0.6233  0.0287
    7TCq1    C1  100   2.009   1.705  12.669  0.6489 -0.1601  0.0074
    7TCq1    O2  101   2.017   1.800  12.744 -0.3416 -0.5096  0.2111
    7TCq1    C2  102   2.091   1.587  12.690  0.0408 -0.0822 -0.3911
    7TCq1    C3  103   2.115   1.492  12.590 -0.2139  0.4674 -0.0300
    7TCq1    C4  104   2.159   1.370  12.624  0.1035 -0.0770  0.3534
    7TCq1    C5  105   2.188   1.345  12.755  0.1070  0.5830 -0.1394
    7TCq1    C6  106   2.181   1.445  12.850 -0.0366 -0.6000 -0.2793
    7TCq1    C7  107   2.131   1.564  12.819 -0.5381 -0.0504  0.0292
    7TCq1    C8  108   2.235   1.418  12.982 -0.0878  0.0244  0.2167
    7TCq1    O4  109   2.225   1.303  13.027  0.2863 -0.3060 -0.5783
    7TCq1    C9  110   2.196   1.275  12.527  0.1878 -0.1453  0.3184
    7TCq1    O5  111   2.160   1.295  12.409  0.2250 -0.3982 -0.0470
    7TCq1    O6  112   2.264   1.175  12.565 -0.1435 -0.0767 -0.0061
    7TCq1    H1  113   1.895   1.578  12.572  0.5598 -0.4456  1.7400
    7TCq1    H2  114   2.106   1.523  12.486  0.5018 -1.0917 -0.5557
    7TCq1    H3  115   2.222   1.245  12.779 -1.0120  0.5604  1.3461
    7TCq1    H4  116   2.113   1.645  12.889 -2.0153  0.2753 -0.7168
    8MPD2     C  117   2.503   1.555  13.397  0.1733  0.4525 -0.3159
    8MPD2    C1  118   2.463   1.430  13.349  0.2950  1.2094  0.4083
    8MPD2    C2  119   2.394   1.424  13.236  0.3006 -0.2533 -0.0668
    8MPD2    C3  120   2.349   1.533  13.166 -0.5630 -0.5958 -0.2903
    8MPD2    C4  121   2.386   1.652  13.221 -0.0067 -0.2547 -0.1915
    8MPD2    C5  122   2.457   1.664  13.335  0.4469  0.3549 -0.5083
    8MPD2     H  123   2.369   1.324  13.203  0.7006  0.0950 -1.4375
    8MPD2    H1  124   2.346   1.745  13.180 -0.8209 -0.0571  1.0528
    8MPD2    H2  125   2.574   1.575  13.476 -0.3336  0.9202  0.0201
    8MPD2    H3  126   2.484   1.761  13.373 -2.5331  1.8747 -2.2101
    8MPD2     N  127   2.282   1.532  13.043 -0.7046 -0.6164  0.0941
    8MPD2    H5  128   2.278   1.623  12.998  0.3763  0.1639  1.5676
    8MPD2    N1  129   2.507   1.309  13.407 -0.0427  0.2292 -0.0970
    8MPD2    H7  130   2.472   1.219  13.373  0.5047 -0.3053  0.7466
    9TMC1    C1  131   4.717   1.864  11.308 -0.1966  0.7190 -0.7711
    9TMC1    C2  132   0.119   1.845  11.343 -0.0823 -0.1943 -0.1859
    9TMC1    C3  133   0.217   1.908  11.271  0.7405  0.2655  0.6500
    9TMC1    C4  134   4.675   1.944  11.207  0.0985 -0.0625  0.4378
    9TMC1    C5  135   0.048   2.007  11.145  0.5905 -0.6692 -0.6163
    9TMC1    C6  136   0.180   1.993  11.169 -0.0224 -0.4235 -0.0842
    9TMC1     C  137   4.618   1.802  11.396 -0.1931  0.0384  0.3298
    9TMC1     O  138   4.511   1.865  11.420 -0.2065 -0.3513  0.2998
    9TMC1     H  139   0.142   1.781  11.428 -1.3755  0.3934  0.6043
    9TMC1    H1  140   4.572   1.941  11.173  0.6604  0.6599 -1.3292
    9TMC1    H2  141   0.256   2.057  11.126  0.0583 -1.3109 -1.2464
    9TMC1    C7  142   0.007   2.103  11.043  0.3591  0.2484  0.6532
    9TMC1    C8  143   0.356   1.864  11.274  0.2005  0.0963  0.1792
    9TMC1    O1  144   4.642   2.175  11.053 -0.2719  0.1589  0.2495
    9TMC1    O2  145   0.397   1.794  11.364 -0.0731  0.1287 -0.0020
    9TMC1    O3  146   0.115   2.110  10.959  0.0258  0.3964 -0.0409
    9TMC1    H3  147   0.168   2.028  10.953  0.6150  0.8888 -1.5712
    9TMC1    O5  148   0.385   1.843  11.148  0.3640  0.1631 -0.1569
    9TMC1    H5  149   0.324   1.884  11.082 -0.2626 -0.7068 -0.1193
   10MPD2     C  150   4.469   1.618  11.574 -0.6361  0.3416 -0.1506
   10MPD2    C1  151   4.594   1.592  11.528 -0.2229 -0.1428 -0.5473
   10MPD2    C2  152   4.648   1.466  11.549  0.3280 -0.3641  0.0482
   10MPD2    C3  153   4.576   1.371  11.621  0.1011  0.4558 -0.3842
   10MPD2    C4  154   4.449   1.397  11.670 -0.6617  0.2263 -0.1509
   10MPD2    C5  155   4.393   1.523  11.639  0.4780  0.7925 -0.0263
   10MPD2     H  156   0.016   1.453  11.510  0.8914 -1.2884  1.7670
   10MPD2    H1  157   4.393   1.327  11.730  1.4077 -0.6757  0.7391
   10MPD2    H2  158   4.414   1.707  11.547  0.8989  0.5034 -2.7872
   10MPD2    H3  159   4.291   1.541  11.672  0.1406 -0.2249 -0.5146
   10MPD2     N  160   4.632   1.246  11.658  0.1539 -0.1805  0.0330
   10MPD2    H5  161   4.582   1.193  11.728 -0.3755 -1.5020 -1.3408
   10MPD2    N1  162   4.665   1.680  11.443  0.1696  0.1597  0.1714
   10MPD2    H7  163   0.014   1.641  11.396  0.6156 -0.2571  1.2955
   11TCq1    O1  164   0.978   0.578  14.179  0.5151 -0.1376 -0.0281
   11TCq1    C1  165   0.930   0.583  14.304  0.0244  0.4211  0.4034
   11TCq1    O2  166   0.841   0.659  14.337  0.6351 -0.5041 -0.8986
   11TCq1    C2  167   0.978   0.473  14.378 -0.2784 -0.3533 -0.3357
   11TCq1    C3  168   0.989   0.492  14.515  0.2205  0.0789 -0.2304
   11TCq1    C4  169   1.019   0.392  14.597 -0.4626  0.0562 -0.7994
   11TCq1    C5  170   1.029   0.262  14.553  0.4381  0.7181 -0.1954
   11TCq1    C6  171   1.019   0.246  14.417  0.1991 -0.5872  0.1396
   11TCq1    C7  172   0.994   0.346  14.322 -0.8027  0.8566  0.4185
   11TCq1    C8  173   1.019   0.104  14.382  0.6709 -0.4269  0.3013
   11TCq1    O4  174   1.016   0.022  14.470 -0.2798  0.1697  0.1150
   11TCq1    C9  175   1.016   0.417  14.736  0.3517  0.4539  0.0845
   11TCq1    O5  176   0.967   0.525  14.782 -0.1448  0.3484 -0.1326
   11TCq1    O6  177   1.051   0.318  14.810 -0.4880  0.0603  0.1454
   11TCq1    H1  178   1.065   0.535  14.168  0.0203 -1.8303  2.6251
   11TCq1    H2  179   0.976   0.590  14.561 -0.9217  0.3499 -1.1444
   11TCq1    H3  180   1.053   0.182  14.621 -0.4608  1.5215  1.0635
   11TCq1    H4  181   0.966   0.331  14.218 -3.2286  0.3587  1.1292
   12MPD2     C  182   1.026   4.581  14.230 -0.5179 -0.3189  0.0535
   12MPD2    C1  183   1.033   4.704  14.168  0.4058  0.4404 -0.3755
   12MPD2    C2  184   1.041   4.706  14.031  0.0665  0.4995  0.6325
   12MPD2    C3  185   1.023   4.588  13.952  0.4192  0.0461 -0.1428
   12MPD2    C4  186   1.017   4.467  14.018 -0.3461  0.3553  0.8377
   12MPD2    C5  187   1.020   4.459  14.159 -0.4868  0.5936  0.5712
   12MPD2     H  188   1.060   0.072  13.987  0.1171 -0.0032 -0.4706
   12MPD2    H1  189   1.010   4.373  13.964 -0.8816  1.7033 -1.4049
   12MPD2    H2  190   1.029   4.556  14.336 -0.6335 -0.5959 -0.0067
   12MPD2    H3  191   1.028   4.368  14.217 -0.3744  0.6748  0.6817
   12MPD2     N  192   1.008   4.587  13.810 -0.3385  0.5392 -0.5446
   12MPD2    H5  193   0.997   4.500  13.760  1.2217  0.5772 -0.9294
   12MPD2    N1  194   1.035   0.092  14.242 -0.0955 -0.2194  0.2271
   12MPD2    H7  195   1.040   0.181  14.194  0.2567  0.0625  0.7830
   13TCq1    O1  196   0.768   1.670  10.682  0.7664  0.2965 -0.0432
   13TCq1    C1  197   0.684   1.563  10.673 -0.5343  0.1626 -0.2568
   13TCq1    O2  198   0.718   1.450  10.637  0.3740  0.1709  0.5958
   13TCq1    C2  199   0.554   1.603  10.727 -0.2102 -0.3134 -0.8706
   13TCq1    C3  200   0.522   1.734  10.745  0.0863 -1.3203 -0.0680
   13TCq1    C4  201   0.410   1.765  10.815 -0.8675  0.1643  0.3141
   13TCq1    C5  202   0.331   1.656  10.862  0.3882  0.0899 -0.8291
   13TCq1    C6  203   0.377   1.527  10.853 -0.4299  0.2945 -0.5398
   13TCq1    C7  204   0.487   1.495  10.780  0.3815  0.1089 -0.1953
   13TCq1    C8  205   0.312   1.425  10.932  0.1885 -0.0298 -0.4600
   13TCq1    O4  206   0.212   1.463  10.993 -0.0389  0.0816 -0.2054
   13TCq1    C9  207   0.366   1.902  10.835 -0.3008  0.4989  0.8770
   13TCq1    O5  208   0.430   1.995  10.780  0.3020  0.6508  0.3157
   13TCq1    O6  209   0.275   1.919  10.919  0.2386  0.0348  0.7135
   13TCq1    H1  210   0.745   1.761  10.714 -0.1419  0.4012 -0.9948
   13TCq1    H2  211   0.581   1.814  10.701 -0.7085 -1.1462 -0.8168
   13TCq1    H3  212   0.236   1.675  10.910  1.4204  3.2240 -0.0580
   13TCq1    H4  213   0.524   1.394  10.768  2.6998  1.0280 -0.7841
   14MPD2     C  214   0.437   1.111  11.068  0.2224 -0.1233 -0.5915
   14MPD2    C1  215   0.341   1.203  11.038  0.2865 -0.4287 -0.4282
   14MPD2    C2  216   0.207   1.188  11.074 -0.2124  0.2931  0.3793
   14MPD2    C3  217   0.169   1.076  11.142 -0.5011 -0.3808  0.3055
   14MPD2    C4  218   0.260   0.975  11.166  0.9910 -0.4466  0.2137
   14MPD2    C5  219   0.393   1.003  11.143  0.1185 -1.0775  0.6578
   14MPD2     H  220   0.126   1.258  11.058  0.5706  0.8956 -0.9254
   14MPD2    H1  221   0.229   0.882  11.213 -1.1120  0.4564  0.6207
   14MPD2    H2  222   0.537   1.124  11.030  0.7038 -1.3433  0.2540
   14MPD2    H3  223   0.459   0.927  11.184  0.8833 -0.3458  0.7633
   14MPD2     N  224   0.031   1.058  11.171 -0.0974  0.1302 -0.3420
   14MPD2    H5  225   4.697   1.126  11.136 -0.3468  0.2273  0.3262
   14MPD2    N1  226   0.388   1.308  10.958 -0.3859 -0.3637 -0.3887
   14MPD2    H7  227   0.479   1.301  10.913  0.9146  0.5430  2.1287
   15TCq1    O1  228   1.662   4.254   1.356  0.1743  0.1291 -0.3691
   15TCq1    C1  229   1.750   4.193   1.280  0.2408 -0.2187 -0.1372
   15TCq1    O2  230   1.740   4.157   1.162  0.0782  0.2357 -0.3619
   15TCq1    C2  231   1.850   4.138   1.361  0.6508 -0.5637 -0.1249
   15TCq1    C3  232   1.916   4.217   1.447  0.1516 -0.0859  0.3444
   15TCq1    C4  233   2.038   4.178   1.488  0.1906 -0.1464  1.1958
   15TCq1    C5  234   2.105   4.076   1.426  0.5213  0.1068  0.0337
   15TCq1    C6  235   2.040   4.004   1.326 -0.7871  0.0573  0.4329
   15TCq1    C7  236   1.905   4.025   1.307 -0.2063  0.0171 -0.6839
   15TCq1    C8  237   2.097   3.882   1.276 -0.4384 -0.4893  0.6035
   15TCq1    O4  238   2.186   3.839   1.342 -0.4196 -0.0723  0.7724
   15TCq1    C9  239   2.089   4.229   1.614  0.6711  0.3502  0.3088
   15TCq1    O5  240   2.188   4.179   1.672 -0.2768 -0.4465 -0.3732
   15TCq1    O6  241   2.024   4.322   1.659  0.6602  0.1291 -0.1543
   15TCq1    H1  242   1.696   4.272   1.446 -3.4962  1.3081  0.7917
   15TCq1    H2  243   1.873   4.308   1.489  0.4193  0.3858 -0.4058
   15TCq1    H3  244   2.201   4.056   1.472  0.4940 -1.4687 -0.6071
   15TCq1    H4  245   1.851   3.966   1.234  1.6956 -2.6811  0.0653
   16MPD2     C  246   1.990   3.660   0.999  0.3181 -0.1065  0.1773
   16MPD2    C1  247   2.066   3.703   1.107  0.7415  0.4358 -0.1211
   16MPD2    C2  248   2.163   3.619   1.157 -0.8082 -0.1566 -0.4490
   16MPD2    C3  249   2.196   3.497   1.100 -0.5481  0.1990  0.1288
   16MPD2    C4  250   2.117   3.456   0.992  0.9333 -0.0834 -0.1567
   16MPD2    C5  251   2.026   3.541   0.947 -0.2009  0.6635  0.3394
   16MPD2     H  252   2.222   3.641   1.245 -2.7998  1.3075  0.5044
   16MPD2    H1  253   2.134   3.362   0.940  4.4761 -0.3997  1.5398
   16MPD2    H2  254   1.910   3.716   0.953 -0.7334 -0.9176  1.0231
   16MPD2    H3  255   1.966   3.506   0.863 -1.3317  0.1858  1.3399
   16MPD2     N  256   2.291   3.419   1.164  0.5498 -0.2302 -0.0043
   16MPD2    H5  257   2.335   3.457   1.247 -0.2885 -2.4660  1.4639
   16MPD2    N1  258   2.032   3.825   1.169  0.4326  0.4609 -0.0747
   16MPD2    H7  259   1.965   3.884   1.121  0.9265  0.2663 -1.0161
   17TMC1    C1  260   4.336   3.982  11.066 -0.0245  0.0859 -0.1900
   17TMC1    C2  261   4.290   4.081  11.142  0.0150  0.0320 -0.2200
   17TMC1    C3  262   4.155   4.102  11.135 -0.7515  0.7688  0.1328
   17TMC1    C4  263   4.262   3.883  10.997 -0.5875  0.3502 -0.2032
   17TMC1    C5  264   4.131   3.916  10.993 -0.5331 -0.2953 -0.0103
   17TMC1    C6  265   4.074   4.019  11.060  0.0284  0.2103  0.3846
   17TMC1     C  266   4.480   3.966  11.057  0.0620  0.4030  0.0474
   17TMC1     O  267   4.512   3.858  11.009 -0.0379  0.1216  0.4662
   17TMC1     H  268   4.347   4.158  11.194 -0.9620  0.2760  0.4836
   17TMC1    H1  269   4.296   3.799  10.938  2.2608 -0.1571  2.1636
   17TMC1    H2  270   3.966   4.028  11.055  0.3384  2.8711 -1.3923
   17TMC1    C7  271   4.042   3.810  10.952 -0.2914 -0.3870 -0.7252
   17TMC1    C8  272   4.107   4.184  11.243  1.0686  0.1677 -0.3794
   17TMC1    O1  273   4.083   3.693  10.944 -0.4897  0.2848  0.6901
   17TMC1    O2  274   4.151   4.295  11.281  0.3787  0.0216  0.1848
   17TMC1    O3  275   3.939   3.863  10.893  0.1114  0.0614 -0.4489
   17TMC1    H3  276   3.924   3.959  10.882  2.1096  0.3557 -0.6656
   17TMC1    O5  277   3.977   4.152  11.241 -0.0868 -0.4143  0.1972
   17TMC1    H5  278   3.942   4.064  11.216 -0.7833  0.1276 -0.7726
   18MPD2     C  279   0.010   3.947  11.182  0.0301 -0.1710 -0.7582
   18MPD2    C1  280   4.682   4.068  11.155  0.5182  0.5036  0.1270
   18MPD2    C2  281   0.002   4.187  11.207 -0.1919  0.4190 -0.6092
   18MPD2    C3  282   0.114   4.182  11.282  0.2022 -0.1981 -0.7363
   18MPD2    C4  283   0.175   4.062  11.312 -0.0160 -0.0834 -0.6334
   18MPD2    C5  284   0.123   3.951  11.255  0.1857 -0.3236  0.3710
   18MPD2     H  285   4.674   4.275  11.187  0.0803  1.1350  1.7587
   18MPD2    H1  286   0.256   4.055  11.383  0.1813 -2.5553 -1.0786
   18MPD2    H2  287   4.714   3.852  11.138 -0.1200 -0.8219  0.7574
   18MPD2    H3  288   0.160   3.852  11.279  1.0158 -0.0558  0.1988
   18MPD2     N  289   0.173   4.301  11.338 -0.1032  0.1077  0.9156
   18MPD2    H5  290   0.250   4.295  11.404  1.0423  1.8584 -0.2795
   18MPD2    N1  291   4.549   4.074  11.103  1.0336  0.1414 -0.0851
   18MPD2    H7  292   4.490   4.154  11.124  1.9617  0.1212  2.5731
   19TMC2    C1  293   2.010   0.244  14.056  0.4295 -0.4782 -0.2162
   19TMC2    C2  294   1.925   0.330  13.995  0.3779 -0.4587  0.4854
   19TMC2    C3  295   1.791   0.302  14.007 -0.2958 -0.1649  1.2151
   19TMC2    C4  296   1.967   0.140  14.126 -0.5831 -1.4843 -0.7260
   19TMC2    C5  297   1.834   0.108  14.125  0.8628 -0.1355 -0.3060
   19TMC2    C6  298   1.744   0.191  14.066  0.5147  0.8868  0.0995
   19TMC2     C  299   2.129   0.321  14.085 -0.7932  0.5876 -0.0542
   19TMC2     O  300   2.121   0.440  14.088  0.5072 -0.2581  0.2176
   19TMC2     H  301   1.968   0.412  13.940  0.7974 -2.2240 -1.8104
   19TMC2    H1  302   2.036   0.070  14.173 -0.4885 -0.5053  0.6152
   19TMC2    H2  303   1.637   0.170  14.062  1.1938 -2.2711 -1.2118
   19TMC2    C7  304   1.784   4.704  14.142  0.5165 -0.6014 -0.6640
   19TMC2    C8  305   1.706   0.381  13.917 -0.2614  0.3324  0.1893
   19TMC2    O1  306   1.850   4.613  14.097 -0.0420 -0.7134  0.0713
   19TMC2    O2  307   1.588   0.361  13.928 -0.1224  0.0018 -0.0337
   19TMC2    O5  308   1.770   0.364  13.795  0.0823  0.2296 -0.0709
   19TMC2    H5  309   1.855   0.317  13.800  0.0988  0.4435  1.7235
   20MPD2     C  310   2.382   0.437  14.205 -0.0571 -0.9855 -0.2447
   20MPD2    C1  311   2.359   0.296  14.183  0.1468 -0.2486  0.2895
   20MPD2    C2  312   2.449   0.202  14.227 -0.2130 -0.8868  0.6114
   20MPD2    C3  313   2.569   0.239  14.292 -0.3644  0.3680  0.3547
   20MPD2    C4  314   2.592   0.373  14.301  0.4207 -0.2556 -0.5561
   20MPD2    C5  315   2.502   0.469  14.261 -0.9108 -0.1527 -0.0011
   20MPD2     H  316   2.428   0.096  14.216  1.3776 -1.1474 -0.0369
   20MPD2    H1  317   2.685   0.416  14.338 -0.3514  0.3695  0.6217
   20MPD2    H2  318   2.301   0.508  14.190  1.2314  0.5397  0.1353
   20MPD2    H3  319   2.538   0.570  14.277  1.2629 -1.1423  1.3483
   20MPD2     N  320   2.654   0.152  14.354  0.3088 -0.0160  1.4816
   20MPD2    H5  321   2.735   0.196  14.397  1.3226 -1.0578  0.6272
   20MPD2    N1  322   2.242   0.247  14.126  0.1531  0.0510  0.2186
   20MPD2    H7  323   2.246   0.150  14.098  1.5433  0.4670 -1.0650
   21TMC2    C1  324   4.357   0.503  14.496 -0.2643  0.7531 -0.2578
   21TMC2    C2  325   4.347   0.434  14.616  0.4891  0.3081 -0.1613
   21TMC2    C3  326   4.323   0.506  14.730  0.4321  0.4357 -0.4905
   21TMC2    C4  327   4.353   0.638  14.489  0.0078  0.2665 -0.0285
   21TMC2    C5  328   4.344   0.708  14.608  0.3334 -0.1391  0.0168
   21TMC2    C6  329   4.331   0.641  14.730  0.7529 -0.0150 -0.7672
   21TMC2     C  330   4.404   0.425  14.382  0.4949 -0.3083 -0.8064
   21TMC2     O  331   4.436   0.312  14.412  0.1173 -0.8638  0.3134
   21TMC2     H  332   4.345   0.326  14.615  1.1588  0.3000 -0.6116
   21TMC2    H1  333   4.364   0.702  14.402  1.0821 -2.5946 -2.0191
   21TMC2    H2  334   4.331   0.700  14.821  0.5598 -2.4172  0.7776
   21TMC2    C7  335   4.336   0.856  14.599  0.2001  0.5926  0.5703
   21TMC2    C8  336   4.319   0.448  14.855  0.4684 -0.0211 -1.2199
   21TMC2    O1  337   4.388   0.918  14.687  0.6652 -0.3080  0.3535
   21TMC2    O2  338   4.285   0.509  14.953  0.9398 -0.3586 -0.9239
   21TMC2    O5  339   4.433   0.373  14.842 -0.1487  0.5201 -0.2543
   21TMC2    H5  340   4.438   0.314  14.764 -1.3023 -0.4492  0.3957
   22MPD2     C  341   4.713   0.406  13.968 -0.3549 -0.5740  0.4819
   22MPD2    C1  342   4.698   0.324  14.076  0.6744 -0.5213 -0.2989
   22MPD2    C2  343   4.599   0.353  14.172 -0.3244  0.6074  0.0558
   22MPD2    C3  344   4.517   0.462  14.168  0.4548  0.0241  0.1919
   22MPD2    C4  345   4.528   0.542  14.056 -0.2146 -0.4451 -0.5842
   22MPD2    C5  346   4.627   0.514  13.958  0.4976  0.3842  1.4544
   22MPD2     H  347   4.591   0.284  14.256 -1.6129  0.2380 -0.3695
   22MPD2    H1  348   4.461   0.626  14.050  0.7086  0.5263  2.7002
   22MPD2    H2  349   0.059   0.393  13.894 -0.1384 -1.3957  0.8640
   22MPD2    H3  350   4.633   0.582  13.873  0.0252 -1.3501  0.0356
   22MPD2     N  351   4.423   0.500  14.272  0.6706  0.0999  0.8929
   22MPD2    H5  352   4.368   0.583  14.256 -0.2079  0.1411  4.1608
   22MPD2    N1  353   0.048   0.209  14.091  0.1616 -0.1025  0.1250
   22MPD2    H7  354   0.037   0.145  14.169  2.3268 -1.1290 -0.3997
   23TMC2    C1  355   1.088   1.232  14.310  0.8276  0.2667 -0.4052
   23TMC2    C2  356   1.112   1.310  14.203  0.1924 -0.2356  0.0118
   23TMC2    C3  357   1.011   1.329  14.113  0.0399 -0.0080  0.3506
   23TMC2    C4  358   0.974   1.161  14.321  0.6849 -0.9855  0.2054
   23TMC2    C5  359   0.873   1.190  14.229 -0.0905 -0.2834 -0.6381
   23TMC2    C6  360   0.889   1.283  14.135 -0.5157 -0.5313 -0.5313
   23TMC2     C  361   1.154   1.253  14.438 -0.4989  0.4535 -0.4697
   23TMC2     O  362   1.105   1.201  14.539 -0.3770  0.0224  0.0338
   23TMC2     H  363   1.217   1.328  14.184 -0.1511  2.8376  1.0173
   23TMC2    H1  364   0.950   1.094  14.403 -1.4848  0.6345  0.8892
   23TMC2    H2  365   0.808   1.310  14.068 -1.0245  1.1612  0.7360
   23TMC2    C7  366   0.740   1.132  14.252  0.2230 -0.3566  0.2165
   23TMC2    C8  367   1.066   1.322  13.980  0.2986  0.6363  0.0743
   23TMC2    O1  368   0.746   1.027  14.316 -0.0140 -0.2796  0.2083
   23TMC2    O2  369   1.153   1.241  13.964 -0.0983 -0.3207  0.2687
   23TMC2    O5  370   0.975   1.369  13.886  0.0801  0.3085 -0.1930
   23TMC2    H5  371   0.900   1.417  13.927 -0.3633 -0.4433 -0.1154
   24MPD2     C  372   1.531   1.457  14.716  0.2835 -0.3333  0.3936
   24MPD2    C1  373   1.436   1.358  14.749  0.3112 -0.4109  0.2237
   24MPD2    C2  374   1.353   1.318  14.646  0.1744 -0.1120  0.2551
   24MPD2    C3  375   1.350   1.383  14.526  0.3455  0.0741 -0.8645
   24MPD2    C4  376   1.440   1.484  14.500 -0.0090 -0.2567  0.0998
   24MPD2    C5  377   1.527   1.524  14.598  0.2627 -0.0152  0.3048
   24MPD2     H  378   1.300   1.226  14.668  1.6080 -0.9651  0.0876
   24MPD2    H1  379   1.439   1.538  14.406 -2.8269  1.4049  1.0600
   24MPD2    H2  380   1.607   1.487  14.788  1.6277 -0.7561 -0.8616
   24MPD2    H3  381   1.598   1.602  14.569  1.9700 -2.1096 -1.1498
   24MPD2     N  382   1.253   1.346  14.426  0.3313 -0.3721  0.0262
   24MPD2    H5  383   1.253   1.389  14.335 -2.4781 -0.3323  0.0595
   24MPD2    N1  384   1.446   1.277  14.870 -0.1906  0.6871  0.7529
   24MPD2    H7  385   1.383   1.197  14.869  0.8582 -0.1598  1.8157
   25TMC2    C1  386   4.234   4.462  11.632  0.1379 -0.5386 -0.2283
   25TMC2    C2  387   4.234   4.589  11.575  0.4927  0.2415 -0.0685
   25TMC2    C3  388   4.128   4.668  11.607  0.2761  0.2145  0.8461
   25TMC2    C4  389   4.142   4.422  11.718  0.3143 -0.4156 -0.2456
   25TMC2    C5  390   4.037   4.501  11.742  0.1121 -0.2510 -0.3932
   25TMC2    C6  391   4.024   4.625  11.686 -0.2390  0.3293 -0.0716
   25TMC2     C  392   4.336   4.366  11.588 -0.3000  0.4740  0.2697
   25TMC2     O  393   4.437   4.420  11.544 -0.3278  0.2533  0.3987
   25TMC2     H  394   4.315   4.626  11.514  1.0804  1.1867  1.2734
   25TMC2    H1  395   4.146   4.323  11.761  0.4416 -0.5790 -0.6281
   25TMC2    H2  396   3.949   4.697  11.718  0.7947  0.6488  1.6135
   25TMC2    C7  397   3.962   4.467  11.860 -0.5339  0.4790 -0.1475
   25TMC2    C8  398   4.118   0.063  11.544 -0.2997 -0.7541  0.1518
   25TMC2    O1  399   4.017   4.390  11.944  0.1317 -0.1551 -0.5662
   25TMC2    O2  400   4.041   0.148  11.581 -0.3007 -0.2151 -0.0087
   25TMC2    O5  401   4.167   0.048  11.416  0.2762 -0.0377 -0.0143
   25TMC2    H5  402   4.198   4.689  11.394 -1.3893 -0.5782 -0.0734
   26MPD2     C  403   4.526   3.922  11.430 -0.2085 -0.0947  0.5052
   26MPD2    C1  404   4.388   3.911  11.428 -0.5728  0.1511 -0.0809
   26MPD2    C2  405   4.318   4.015  11.479  0.1050  0.2648  0.5147
   26MPD2    C3  406   4.375   4.137  11.525 -0.0045  0.2992  0.0102
   26MPD2    C4  407   4.513   4.141  11.517 -0.0599 -0.0251  0.6244
   26MPD2    C5  408   4.587   4.034  11.470  0.3158  0.0655  0.0780
   26MPD2     H  409   4.211   3.999  11.486  0.4059 -2.7796 -1.4185
   26MPD2    H1  410   4.580   4.219  11.552  1.2360 -0.0458 -1.8135
   26MPD2    H2  411   4.594   3.840  11.410  0.8047  0.6856  0.7030
   26MPD2    H3  412   4.695   4.025  11.469  0.0761 -2.6146 -0.0687
   26MPD2     N  413   4.297   4.233  11.589  0.6577 -0.3078  0.4440
   26MPD2    H5  414   4.199   4.208  11.603  1.2660 -2.6536  0.5587
   26MPD2    N1  415   4.339   3.797  11.371 -0.5994 -0.2591  0.1081
   26MPD2    H7  416   4.408   3.726  11.344  1.2833  1.4753  0.3465
   27TMC2    C1  417   3.330   1.344  11.869  0.2231 -1.0085  0.0664
   27TMC2    C2  418   3.260   1.425  11.784 -0.7269  0.8952 -1.2731
   27TMC2    C3  419   3.257   1.558  11.812 -0.4240 -0.2498 -0.0361
   27TMC2    C4  420   3.386   1.393  11.983  0.2591  0.9715 -0.1442
   27TMC2    C5  421   3.385   1.522  12.010 -0.7853 -0.1439 -0.2628
   27TMC2    C6  422   3.325   1.612  11.923  0.6513 -0.1675 -0.3208
   27TMC2     C  423   3.294   1.199  11.891 -0.0531  0.9154 -0.6676
   27TMC2     O  424   3.281   1.128  11.788 -0.1187 -0.4145  0.4081
   27TMC2     H  425   3.204   1.390  11.698 -0.7016 -0.6809 -0.6552
   27TMC2    H1  426   3.446   1.330  12.047 -2.1484 -1.0695  0.1131
   27TMC2    H2  427   3.299   1.712  11.953 -0.8673 -0.5208 -0.4933
   27TMC2    C7  428   3.387   1.548  12.152 -0.2239  0.1905  0.2061
   27TMC2    C8  429   3.214   1.646  11.708 -0.3554 -0.8476 -0.7566
   27TMC2    O1  430   3.414   1.452  12.224 -0.0624 -0.2699 -0.0582
   27TMC2    O2  431   3.151   1.605  11.612  0.4430 -0.0994  0.1101
   27TMC2    O5  432   3.317   1.723  11.685  0.3675 -0.2714 -0.6461
   27TMC2    H5  433   3.377   1.742  11.761 -1.1466  1.1011  0.1973
   28MPD2     C  434   3.057   0.861  12.210 -0.6611  0.4021  0.1159
   28MPD2    C1  435   3.076   0.983  12.274 -0.1739 -0.0842 -0.0687
   28MPD2    C2  436   3.149   1.087  12.212 -0.6767  0.0963  0.5029
   28MPD2    C3  437   3.200   1.065  12.087 -0.3814 -0.6023  0.0914
   28MPD2    C4  438   3.202   0.940  12.028  0.5868 -0.3964  0.3586
   28MPD2    C5  439   3.124   0.846  12.092 -0.1930 -1.3655  0.0987
   28MPD2     H  440   3.163   1.183  12.261 -0.0517  0.5839 -0.6289
   28MPD2    H1  441   3.239   0.914  11.929 -1.3164 -0.5632 -0.3073
   28MPD2    H2  442   2.987   0.793  12.257 -0.2460 -1.7405 -2.3792
   28MPD2    H3  443   3.096   0.751  12.049  1.9724 -0.6524 -2.8093
   28MPD2     N  444   3.259   1.179  12.026  0.0992  0.3345 -0.0696
   28MPD2    H5  445   3.251   1.260  12.087 -1.9458  0.7753 -0.9048
   28MPD2    N1  446   3.006   1.008  12.399  0.1268 -0.3033 -0.6579
   28MPD2    H7  447   2.939   0.940  12.433 -0.8024  0.8509 -0.1749
   29TMC2    C1  448   2.990   3.608  14.769  0.6294  0.4864 -0.1992
   29TMC2    C2  449   2.959   3.538  14.878 -0.5104 -0.0068 -0.6151
   29TMC2    C3  450   2.955   3.605  14.994  0.2858 -0.5133 -0.2322
   29TMC2    C4  451   3.015   3.740  14.772 -0.0044 -0.1013  0.6404
   29TMC2    C5  452   3.011   3.802  14.892  0.2122 -0.4834 -0.1109
   29TMC2    C6  453   2.985   3.735  15.007 -0.5571  0.3678  0.5261
   29TMC2     C  454   3.030   3.527  14.650  0.2417  0.0575  0.6519
   29TMC2     O  455   3.049   3.409  14.675 -0.5204 -0.8036 -0.0229
   29TMC2     H  456   2.951   3.430  14.874 -1.4156  0.1062 -2.2479
   29TMC2    H1  457   3.041   3.801  14.686  1.3695 -2.3750 -0.5491
   29TMC2    H2  458   2.983   3.781  15.106 -1.1631 -1.6103  1.4339
   29TMC2    C7  459   2.992   3.950  14.896  0.0392  0.3773 -0.2022
   29TMC2    C8  460   2.901   3.536  15.106  0.0469  0.1021  0.0260
   29TMC2    O1  461   2.886   3.997  14.931  1.0683  1.0328 -0.3292
   29TMC2    O2  462   2.828   3.578  15.193 -0.3812  0.1061 -0.1713
   29TMC2    O5  463   2.974   3.423  15.106  0.7742 -0.3672  0.2398
   29TMC2    H5  464   3.063   3.435  15.066  0.3262 -0.7461 -0.8598
   30MPD2     C  465   3.085   3.410  14.156  0.5864  0.0206  0.4113
   30MPD2    C1  466   3.119   3.346  14.274  0.0982  0.7501 -0.5239
   30MPD2    C2  467   3.109   3.405  14.398  0.2065 -0.4356 -0.5265
   30MPD2    C3  468   3.041   3.522  14.407  0.5381  0.9246  0.7872
   30MPD2    C4  469   2.995   3.583  14.294  0.2516 -0.6958 -0.1210
   30MPD2    C5  470   3.016   3.524  14.172  0.3211  0.0526 -0.8605
   30MPD2     H  471   3.145   3.351  14.484  0.3623  1.7973  0.7899
   30MPD2    H1  472   2.924   3.665  14.308  2.2127  1.2259 -1.5159
   30MPD2    H2  473   3.087   3.374  14.054  1.4706 -0.1247  0.4853
   30MPD2    H3  474   2.969   3.567  14.084 -0.5147 -2.3211 -1.5977
   30MPD2     N  475   3.022   3.590  14.526 -0.2457 -0.0795  0.3977
   30MPD2    H5  476   2.985   3.683  14.515  0.7770  0.2280 -0.4914
   30MPD2    N1  477   3.169   3.219  14.274  0.2816 -0.1829 -0.0867
   30MPD2    H7  478   3.190   3.179  14.365 -2.7680  0.1175  0.7258
   31TMC2    C1  479   0.592   2.118  15.507  0.2728 -0.2902 -0.0760
   31TMC2    C2  480   0.449   2.111  15.510  0.5129  0.1077  0.5676
   31TMC2    C3  481   0.393   2.100  15.633 -0.4338  0.1705 -0.1855
   31TMC2    C4  482   0.669   2.104  15.617 -0.6097 -0.6343 -0.4108
   31TMC2    C5  483   0.604   2.073  15.731  0.2204  0.0271  0.2307
   31TMC2    C6  484   0.470   2.067  15.741 -0.4773 -0.6553  0.4970
   31TMC2     C  485   0.653   2.134  15.374  0.0145  0.2655  0.3196
   31TMC2     O  486   0.575   2.181  15.291 -0.3878  0.1783 -0.4801
   31TMC2     H  487   0.383   2.120  15.425 -0.4398 -2.1406  1.0789
   31TMC2    H1  488   0.778   2.107  15.613 -0.7333  2.2052 -1.6115
   31TMC2    H2  489   0.419   2.031  15.830 -1.4300 -1.7432 -0.4754
   31TMC2    C7  490   0.676   2.006  15.840 -0.1125  0.2325  0.3131
   31TMC2    C8  491   0.249   2.075  15.644 -1.2898  0.1059 -0.8150
   31TMC2    O1  492   0.609   1.942  15.919  0.7022 -0.3639  0.0579
   31TMC2    O2  493   0.199   1.990  15.720  0.0577  0.2170  0.0043
   31TMC2    O5  494   0.184   2.138  15.540  0.2722 -0.1362 -0.1132
   31TMC2    H5  495   0.230   2.212  15.493 -0.5697  1.3467  1.4108
   32MPD2     C  496   1.026   2.062  15.043 -0.3391 -0.3297  0.1724
   32MPD2    C1  497   0.913   2.144  15.029  0.1427  0.0582 -0.4744
   32MPD2    C2  498   0.825   2.151  15.137  0.0118 -0.5473  0.6930
   32MPD2    C3  499   0.842   2.058  15.243  0.5636 -0.0796  0.0036
   32MPD2    C4  500   0.947   1.975  15.242 -0.3097  0.2861 -0.5696
   32MPD2    C5  501   1.047   1.991  15.155  0.6982  0.1218  0.1984
   32MPD2     H  502   0.740   2.219  15.142  2.4260  2.4455  1.3579
   32MPD2    H1  503   0.962   1.904  15.322 -2.0166 -0.0014 -0.5161
   32MPD2    H2  504   1.100   2.055  14.964 -0.0874  0.4078  0.3425
   32MPD2    H3  505   1.131   1.923  15.168 -0.0401 -0.7422  0.4438
   32MPD2     N  506   0.756   2.051  15.355  0.1724 -0.0715 -0.6135
   32MPD2    H5  507   0.793   1.993  15.430 -2.3531 -0.6038  0.2471
   32MPD2    N1  508   0.905   2.229  14.912  0.3812 -0.5400  0.0136
   32MPD2    H7  509   0.986   2.232  14.851 -0.4985  1.7157 -1.0550
   33TMC2    C1  510   0.489   0.462  10.726 -0.8003 -1.0627  0.1508
   33TMC2    C2  511   0.440   0.389  10.624 -0.4832  0.1384  0.1835
   33TMC2    C3  512   0.414   0.449  10.504  0.2207 -0.2822  0.0167
   33TMC2    C4  513   0.524   0.594  10.704  1.1983  0.0609 -0.8045
   33TMC2    C5  514   0.494   0.649  10.578  0.0397 -0.5793 -0.3722
   33TMC2    C6  515   0.429   0.581  10.484  0.3332 -1.0762 -0.2366
   33TMC2     C  516   0.482   0.406  10.853  0.3332 -0.3013 -0.0606
   33TMC2     O  517   0.426   0.298  10.867  0.3827 -0.4428  0.4693
   33TMC2     H  518   0.419   0.285  10.647 -0.7880  0.2191  0.2676
   33TMC2    H1  519   0.564   0.662  10.777 -0.9323  1.6289 -1.1067
   33TMC2    H2  520   0.422   0.612  10.381 -3.1648 -0.8562  0.0699
   33TMC2    C7  521   0.533   0.786  10.542  0.1288  0.3645  0.0323
   33TMC2    C8  522   0.353   0.380  10.396  0.7869  0.0158 -0.1517
   33TMC2    O1  523   0.622   0.833  10.615 -0.2147 -0.4852  0.0588
   33TMC2    O2  524   0.368   0.409  10.281  0.3270 -0.0066 -0.2336
   33TMC2    O5  525   0.285   0.264  10.431 -0.4488 -0.1274 -0.0066
   33TMC2    H5  526   0.284   0.239  10.526 -0.0839  1.8049  0.5120
   34MPD2     C  527   0.477   0.458  11.364  0.0081 -0.8943 -0.1032
   34MPD2    C1  528   0.425   0.353  11.287  0.1644  0.7622 -0.0460
   34MPD2    C2  529   0.453   0.358  11.150  0.0227  0.2619  0.6827
   34MPD2    C3  530   0.513   0.470  11.088 -0.4773 -0.0498  0.3911
   34MPD2    C4  531   0.556   0.572  11.169  0.0609  0.3500 -0.1037
   34MPD2    C5  532   0.538   0.566  11.307  0.1489 -0.1533  0.5088
   34MPD2     H  533   0.410   0.281  11.086 -0.1906  1.3327 -0.4562
   34MPD2    H1  534   0.615   0.656  11.132 -0.0724  1.0785  1.3432
   34MPD2    H2  535   0.468   0.465  11.472  0.3351  1.2958 -0.2060
   34MPD2    H3  536   0.566   0.651  11.369  1.3960 -0.0821 -0.1386
   34MPD2     N  537   0.529   0.490  10.946  0.2994 -0.0090  1.1453
   34MPD2    H5  538   0.588   0.563  10.908 -0.3668  0.3344  0.7620
   34MPD2    N1  539   0.368   0.237  11.350  0.2407 -0.1414 -0.1258
   34MPD2    H7  540   0.373   0.232  11.451  2.6396 -1.1325 -0.2857
   35TMC2    C1  541   2.882   1.455  11.554 -0.6643 -0.1634 -0.2678
   35TMC2    C2  542   2.948   1.390  11.457  0.2686 -0.4851  0.7915
   35TMC2    C3  543   2.957   1.254  11.464  0.3297 -0.0514  0.2277
   35TMC2    C4  544   2.813   1.387  11.656  0.6705 -0.1128 -0.0116
   35TMC2    C5  545   2.815   1.248  11.651  0.9917 -0.1248 -0.2910
   35TMC2    C6  546   2.894   1.182  11.563 -0.1474  0.3741  0.6501
   35TMC2     C  547   2.839   1.589  11.527  0.6193 -0.1899 -0.5563
   35TMC2     O  548   2.814   1.619  11.413 -0.5154  0.4466 -0.1268
   35TMC2     H  549   2.975   1.434  11.362  0.9339 -2.0267  0.2599
   35TMC2    H1  550   2.735   1.430  11.718  1.0226  0.4524  0.0423
   35TMC2    H2  551   2.896   1.074  11.571  2.6373  0.3183 -0.9063
   35TMC2    C7  552   2.709   1.179  11.727 -0.8413 -0.0184  0.8186
   35TMC2    C8  553   3.034   1.191  11.358 -0.2781 -0.0472 -0.6362
   35TMC2    O1  554   2.596   1.229  11.725  0.0748  0.2606 -0.0436
   35TMC2    O2  555   3.063   1.251  11.254 -0.0458  0.1960  0.0819
   35TMC2    O5  556   3.009   1.058  11.357 -0.1811  0.1031 -1.0476
   35TMC2    H5  557   3.015   1.031  11.451 -2.9315  3.5546  0.1289
   36MPD2     C  558   2.613   1.981  11.748  0.0070 -0.1633  1.1069
   36MPD2    C1  559   2.638   1.885  11.849  0.6344 -0.2581  0.6542
   36MPD2    C2  560   2.703   1.775  11.805  0.0879  0.0082 -0.1860
   36MPD2    C3  561   2.742   1.755  11.674 -0.3119  0.0459  0.9413
   36MPD2    C4  562   2.718   1.846  11.578 -0.5248 -0.6531  0.3201
   36MPD2    C5  563   2.657   1.964  11.620  0.2130  0.1885  0.6464
   36MPD2     H  564   2.730   1.698  11.876 -0.2892 -1.0167 -1.1562
   36MPD2    H1  565   2.763   1.841  11.480  1.0833 -3.3422  1.1825
   36MPD2    H2  566   2.559   2.071  11.774  1.6374  0.6046  1.8885
   36MPD2    H3  567   2.641   2.039  11.543 -5.2564 -0.8213  0.7847
   36MPD2     N  568   2.806   1.638  11.644  0.2574 -0.8104 -0.3472
   36MPD2    H5  569   2.845   1.594  11.726  1.2267  0.9629  0.1532
   36MPD2    N1  570   2.591   1.903  11.978  0.0628 -0.4262 -0.5069
   36MPD2    H7  571   2.520   1.975  11.985  1.8778  1.3188 -0.0540
   37TMC2    C1  572   4.143   2.149  11.390 -0.2975  0.0272 -0.6134
   37TMC2    C2  573   4.130   2.134  11.254  0.5382  0.6470  0.1939
   37TMC2    C3  574   4.241   2.175  11.181  0.3255  0.3673  0.2643
   37TMC2    C4  575   4.253   2.195  11.448  0.3242  0.6715 -0.1736
   37TMC2    C5  576   4.360   2.232  11.369  0.7443  0.2740 -0.2695
   37TMC2    C6  577   4.354   2.224  11.235 -0.5902 -0.1946 -0.0460
   37TMC2     C  578   4.054   2.061  11.466  0.1412  0.0493  0.1776
   37TMC2     O  579   3.942   2.026  11.420  0.3428 -0.2580 -0.2905
   37TMC2     H  580   4.044   2.081  11.215  1.1878  1.1050 -1.8984
   37TMC2    H1  581   4.256   2.219  11.554  1.0757 -1.3801  0.2675
   37TMC2    H2  582   4.435   2.248  11.167  1.3320 -2.4797  1.4037
   37TMC2    C7  583   4.494   2.236  11.430 -0.4420  0.8239  0.4275
   37TMC2    C8  584   4.269   2.122  11.046  0.1662  0.4116 -0.2401
   37TMC2    O1  585   4.503   2.183  11.541 -0.2521 -0.4166  0.2764
   37TMC2    O2  586   4.368   2.047  11.031 -0.1040  0.1551  0.3568
   37TMC2    O5  587   4.153   2.118  10.974  0.2350 -0.3124  0.5387
   37TMC2    H5  588   4.098   2.194  11.004 -1.2905 -0.9859 -0.5315
   38MPD2     C  589   3.963   1.754  11.866  0.0110 -0.1391  0.0338
   38MPD2    C1  590   4.101   1.768  11.848 -0.0305 -0.5228 -0.6266
   38MPD2    C2  591   4.147   1.855  11.752 -0.3721 -0.3456  0.0734
   38MPD2    C3  592   4.064   1.923  11.670 -0.4588 -0.0940  0.2799
   38MPD2    C4  593   3.923   1.901  11.676 -0.3347  0.7198  0.5511
   38MPD2    C5  594   3.877   1.815  11.773  0.2911 -0.6163  0.2760
   38MPD2     H  595   4.250   1.889  11.760 -0.0048 -1.8251  1.7678
   38MPD2    H1  596   3.852   1.947  11.608  0.2757  0.6266 -0.1473
   38MPD2    H2  597   3.920   1.688  11.940  1.1880 -2.2425 -1.1478
   38MPD2    H3  598   3.771   1.806  11.793  0.6326  0.5439  2.5943
   38MPD2     N  599   4.117   2.016  11.579  0.0189 -0.7135 -0.2069
   38MPD2    H5  600   4.210   2.048  11.605 -0.3117  0.9822 -1.1838
   38MPD2    N1  601   4.194   1.698  11.932 -0.0475  0.6072 -0.3038
   38MPD2    H7  602   4.292   1.719  11.916  0.2950 -1.4697 -0.9404
   39TMC2    C1  603   2.977   3.056   1.725 -1.0580  0.0097 -0.4297
   39TMC2    C2  604   3.089   2.978   1.709 -0.3186  0.3788  0.3039
   39TMC2    C3  605   3.212   3.041   1.736 -0.1885  0.3727 -0.3713
   39TMC2    C4  606   2.986   3.189   1.756  0.8713 -0.4586  0.7833
   39TMC2    C5  607   3.113   3.243   1.792 -0.1295 -0.4727 -0.4321
   39TMC2    C6  608   3.228   3.166   1.780 -0.6612  0.1061  0.4066
   39TMC2     C  609   2.848   3.001   1.684  0.5740 -0.8784 -0.4068
   39TMC2     O  610   2.749   3.072   1.680  0.2686 -0.3894 -0.3003
   39TMC2     H  611   3.094   2.874   1.678 -0.7475 -0.2588  2.3368
   39TMC2    H1  612   2.900   3.254   1.746  0.8871  0.0777  4.3935
   39TMC2    H2  613   3.327   3.206   1.801 -0.4209 -0.3296  0.0997
   39TMC2    C7  614   3.117   3.370   1.846 -0.2740  0.0359 -0.0474
   39TMC2    C8  615   3.323   2.951   1.750  0.7424 -0.4476  0.6953
   39TMC2    O1  616   3.010   3.411   1.896 -0.5900  0.3088 -0.8514
   39TMC2    O2  617   3.435   2.969   1.708  0.4947  0.8206  1.2462
   39TMC2    O5  618   3.280   2.849   1.826 -0.1250 -0.0521 -0.1319
   39TMC2    H5  619   3.189   2.856   1.863  0.2525  0.3597  0.7002
   40MPD2     C  620   2.786   2.660   1.589  0.0665  0.3153 -0.3201
   40MPD2    C1  621   2.755   2.793   1.608 -0.1087  0.0258  0.2319
   40MPD2    C2  622   2.628   2.833   1.576  0.4942  0.2273 -0.2432
   40MPD2    C3  623   2.535   2.740   1.526  0.2865  0.0676 -0.5433
   40MPD2    C4  624   2.570   2.612   1.505 -0.2543  0.1963 -0.7409
   40MPD2    C5  625   2.695   2.574   1.535 -0.2041 -0.4276  0.3052
   40MPD2     H  626   2.599   2.937   1.579  0.7418  0.3071 -0.6461
   40MPD2    H1  627   2.515   2.543   1.442  1.7314 -0.9955 -1.1735
   40MPD2    H2  628   2.888   2.624   1.584 -0.2916 -0.8029  0.4111
   40MPD2    H3  629   2.730   2.477   1.503  0.6830 -0.0485  0.1392
   40MPD2     N  630   2.405   2.778   1.480 -0.4136 -0.4070  0.1668
   40MPD2    H5  631   2.359   2.710   1.421  0.9502 -0.7884 -0.4596
   40MPD2    N1  632   2.858   2.868   1.668  0.4972  0.0821 -0.2241
   40MPD2    H7  633   2.938   2.811   1.697  0.6683  0.4759  0.0743
   41TMC2    C1  634   1.597   1.533  13.214  0.0250  0.7026 -0.2250
   41TMC2    C2  635   1.586   1.651  13.282  0.0238 -0.2605 -0.1622
   41TMC2    C3  636   1.533   1.753  13.203 -0.3541  0.1218  0.2959
   41TMC2    C4  637   1.556   1.519  13.085 -0.3803 -1.0998 -0.0125
   41TMC2    C5  638   1.499   1.615  13.017  0.6064  0.3810  0.2620
   41TMC2    C6  639   1.479   1.739  13.071 -0.1658 -0.2774  0.3582
   41TMC2     C  640   1.652   1.424  13.281  0.2122  0.3961 -0.9253
   41TMC2     O  641   1.684   1.323  13.218  0.2719 -0.5030  0.3107
   41TMC2     H  642   1.636   1.682  13.373 -0.8742  0.5710  0.0582
   41TMC2    H1  643   1.542   1.421  13.041  1.3642 -2.6167  2.7461
   41TMC2    H2  644   1.428   1.820  13.020  0.8089 -0.3959 -0.8118
   41TMC2    C7  645   1.426   1.596  12.890 -0.0712  0.4429  0.4475
   41TMC2    C8  646   1.551   1.888  13.256  0.1096  0.0250 -0.6802
   41TMC2    O1  647   1.326   1.662  12.878  0.3010  0.0704 -0.3408
   41TMC2    O2  648   1.634   1.908  13.345 -0.7152 -1.0075 -0.0374
   41TMC2    O5  649   1.453   1.970  13.227 -0.0157  1.0837 -0.1167
   41TMC2    H5  650   1.389   1.944  13.157 -0.1062  1.6463 -0.2447
   42MPD2     C  651   1.807   1.260  13.482 -0.6058 -0.2238  0.2565
   42MPD2    C1  652   1.725   1.366  13.511  0.1136 -0.5730 -0.1313
   42MPD2    C2  653   1.704   1.393  13.648 -0.7096 -0.4252  0.5408
   42MPD2    C3  654   1.775   1.314  13.743 -0.0488 -0.0238 -0.8850
   42MPD2    C4  655   1.861   1.219  13.708  0.0030 -0.3027  0.1536
   42MPD2    C5  656   1.873   1.185  13.576 -0.0339 -0.3457 -0.8610
   42MPD2     H  657   1.640   1.476  13.675 -1.2631 -0.8093  0.4246
   42MPD2    H1  658   1.919   1.161  13.779  1.6163  1.4528  0.2734
   42MPD2    H2  659   1.819   1.235  13.378  0.3720  0.3514  0.2306
   42MPD2    H3  660   1.952   1.119  13.544  2.1824 -0.1120  4.1418
   42MPD2     N  661   1.768   1.339  13.881  0.0000 -0.8591 -0.0155
   42MPD2    H5  662   1.808   1.263  13.936  0.8901 -0.6793 -0.4146
   42MPD2    N1  663   1.663   1.448  13.413 -0.6048  0.7071  0.6165
   42MPD2    H7  664   1.622   1.533  13.453  0.3100  1.4903 -0.1089
   43TMC2    C1  665   2.914   3.886   0.957  0.5069 -0.0816 -0.0874
   43TMC2    C2  666   2.821   3.987   0.942  0.5996  0.4418 -0.9535
   43TMC2    C3  667   2.775   4.054   1.052 -0.0828 -0.1138 -0.2222
   43TMC2    C4  668   2.951   3.847   1.076 -0.0195  0.9117  0.5283
   43TMC2    C5  669   2.922   3.933   1.183 -0.3406  0.2828  0.2923
   43TMC2    C6  670   2.825   4.030   1.172 -0.1338  0.4634  0.8144
   43TMC2     C  671   2.978   3.827   0.845 -0.4500 -0.3734  0.0150
   43TMC2     O  672   3.029   3.717   0.863  0.6919  0.7272  0.1280
   43TMC2     H  673   2.786   4.017   0.844 -0.4334  0.2182 -0.6527
   43TMC2    H1  674   3.015   3.760   1.085 -0.2005  0.6635 -0.5337
   43TMC2    H2  675   2.790   4.099   1.248 -1.1883  1.4758 -0.5808
   43TMC2    C7  676   2.973   3.891   1.315  0.4671  0.1769 -0.4247
   43TMC2    C8  677   2.701   4.178   1.027 -0.5749  0.4737 -0.0559
   43TMC2    O1  678   3.017   3.774   1.315  0.2720  0.2377 -0.1468
   43TMC2    O2  679   2.709   4.268   1.107 -0.8828  0.1181  0.1887
   43TMC2    O5  680   2.598   4.158   0.940  0.0329 -1.1254 -0.1744
   43TMC2    H5  681   2.591   4.071   0.895 -0.6503 -0.5548 -1.1786
   44MPD2     C  682   3.154   3.811   0.358  0.5538 -0.5479 -0.0734
   44MPD2    C1  683   3.214   3.751   0.473  0.7298 -0.0814 -0.3220
   44MPD2    C2  684   3.150   3.784   0.594  0.3369  0.0114  0.4200
   44MPD2    C3  685   3.030   3.861   0.606 -0.0637  0.5086 -0.3145
   44MPD2    C4  686   2.980   3.916   0.490  0.1863  0.6172  0.3885
   44MPD2    C5  687   3.039   3.888   0.374 -0.0784 -0.0621 -0.5461
   44MPD2     H  688   3.191   3.755   0.690  1.7851 -2.6002 -0.9921
   44MPD2    H1  689   2.894   3.982   0.500  0.1406  0.6155  0.0242
   44MPD2    H2  690   3.195   3.799   0.259  0.2847  1.2294 -0.3970
   44MPD2    H3  691   2.988   3.932   0.288  1.2049  0.2000 -1.1723
   44MPD2     N  692   2.965   3.900   0.727  0.1564  0.5315  1.2949
   44MPD2    H5  693   2.901   3.979   0.728  0.2180  0.5821  1.2561
   44MPD2    N1  694   3.324   3.659   0.475 -0.6225 -0.2377  0.2972
   44MPD2    H7  695   3.355   3.626   0.566  0.9235  0.6053  0.0705
   45TMC2    C1  696   3.575   2.025   9.688  0.0822  0.1831 -0.4127
   45TMC2    C2  697   3.545   2.094   9.569  0.1189 -0.1468  0.2423
   45TMC2    C3  698   3.586   2.229   9.565 -0.1721 -0.2317  0.2970
   45TMC2    C4  699   3.651   2.079   9.792 -0.1481 -0.0647 -0.6711
   45TMC2    C5  700   3.706   2.202   9.768 -0.0382 -0.3756 -0.5677
   45TMC2    C6  701   3.671   2.286   9.658 -0.1940  0.3243  0.3822
   45TMC2     C  702   3.516   1.902   9.721  0.3498  0.0493  0.0543
   45TMC2     O  703   3.573   1.824   9.796 -0.3567 -0.0953  0.3527
   45TMC2     H  704   3.490   2.050   9.486  1.6188  1.0146 -1.3674
   45TMC2    H1  705   3.677   2.023   9.881  0.5762  0.8734 -0.2838
   45TMC2    H2  706   3.707   2.388   9.651 -1.3443  0.6729 -0.4341
   45TMC2    C7  707   3.793   2.269   9.856 -0.3525 -0.1712 -0.3037
   45TMC2    C8  708   3.552   2.305   9.447  0.0767 -0.3438  0.1758
   45TMC2    O1  709   3.815   2.388   9.844 -0.3335 -0.1475  0.8493
   45TMC2    O2  710   3.449   2.282   9.383  0.4879  0.3708 -0.2295
   45TMC2    O5  711   3.659   2.364   9.404  0.1063  0.2453 -0.6150
   45TMC2    H5  712   3.743   2.343   9.451 -0.1905  0.1036 -0.1450
   46MPD2     C  713   3.315   1.664   9.724 -0.8757  0.4780  0.8368
   46MPD2    C1  714   3.291   1.787   9.671  0.3793 -0.0568 -0.7870
   46MPD2    C2  715   3.175   1.812   9.589 -0.0198 -0.0211 -0.6746
   46MPD2    C3  716   3.079   1.716   9.577  0.0005 -0.1429  0.6178
   46MPD2    C4  717   3.105   1.591   9.630  1.0343  0.5672 -0.0632
   46MPD2    C5  718   3.228   1.564   9.692  0.3704  0.1744  0.1176
   46MPD2     H  719   3.159   1.915   9.560  1.1921  0.0705 -0.9936
   46MPD2    H1  720   3.032   1.512   9.611 -0.5727  2.4801 -1.8561
   46MPD2    H2  721   3.402   1.661   9.789 -0.0190 -0.1206 -0.3402
   46MPD2    H3  722   3.246   1.470   9.741  0.2543 -0.2363 -0.6204
   46MPD2     N  723   2.954   1.756   9.526  0.0147  0.3713  0.0871
   46MPD2    H5  724   2.940   1.855   9.509 -0.1226  0.2804 -0.3203
   46MPD2    N1  725   3.385   1.896   9.671 -0.2269 -0.0966  0.0076
   46MPD2    H7  726   3.354   1.990   9.649 -0.8378 -0.5346 -1.0073
   47TMC2    C1  727   1.070   2.726   9.135 -0.0071 -0.4208 -0.4176
   47TMC2    C2  728   0.998   2.637   9.201  0.4616  0.2480  0.2946
   47TMC2    C3  729   0.875   2.615   9.140 -0.4420 -0.0946  0.7517
   47TMC2    C4  730   1.037   2.785   9.021  0.1805  0.2353 -0.4277
   47TMC2    C5  731   0.911   2.765   8.967 -0.7638  0.7182 -0.4103
   47TMC2    C6  732   0.831   2.678   9.030 -0.3764  0.1183 -0.2280
   47TMC2     C  733   1.212   2.725   9.175  0.0137  0.1947  0.2407
   47TMC2     O  734   1.272   2.827   9.143  0.4107 -0.4325  0.5513
   47TMC2     H  735   1.034   2.582   9.288 -1.2747 -1.4218 -0.0402
   47TMC2    H1  736   1.115   2.828   8.959 -2.5680  2.1851 -2.5384
   47TMC2    H2  737   0.735   2.648   8.990  0.2743  0.8853 -2.3883
   47TMC2    C7  738   0.859   2.844   8.854 -0.0014  0.2710  0.2148
   47TMC2    C8  739   0.789   2.523   9.210  0.1728  0.5243  0.1079
   47TMC2    O1  740   0.761   2.805   8.796 -0.4704  0.2018  0.2457
   47TMC2    O2  741   0.667   2.539   9.209 -0.0903  0.0480  0.4118
   47TMC2    O5  742   0.851   2.412   9.240  0.4707 -0.3540  0.2350
   47TMC2    H5  743   0.949   2.410   9.238  0.4798  0.1296  0.1968
   48MPD2     C  744   1.488   2.677   9.277  0.2918 -0.2034  0.1316
   48MPD2    C1  745   1.392   2.581   9.265 -0.7657  0.0674 -0.2770
   48MPD2    C2  746   1.438   2.458   9.312 -0.6006  0.5464  0.0699
   48MPD2    C3  747   1.558   2.423   9.370 -0.5690  0.7015  0.0269
   48MPD2    C4  748   1.650   2.524   9.376 -0.6621  0.0624  0.4409
   48MPD2    C5  749   1.611   2.645   9.330  0.3026 -0.9096  0.8404
   48MPD2     H  750   1.369   2.374   9.317 -0.4636  0.4461  0.2714
   48MPD2    H1  751   1.744   2.520   9.430 -0.5482  0.0821  0.2407
   48MPD2    H2  752   1.477   2.782   9.251 -0.1520  0.1267  1.6592
   48MPD2    H3  753   1.680   2.725   9.352  1.6126 -1.5374 -1.0149
   48MPD2     N  754   1.566   2.297   9.433  0.1989 -0.0832 -0.3169
   48MPD2    H5  755   1.480   2.243   9.430  1.2344 -1.7306  0.1152
   48MPD2    N1  756   1.260   2.601   9.225 -0.8956  0.1688 -0.0880
   48MPD2    H7  757   1.202   2.517   9.220 -2.6236  1.5298 -2.4822
   49TMC2    C1  758   4.578   0.394   9.670 -0.2006 -0.0146  0.6097
   49TMC2    C2  759   4.490   0.313   9.597 -0.1451 -0.0867 -0.6347
   49TMC2    C3  760   4.452   0.354   9.476 -0.2125 -0.2046  1.2996
   49TMC2    C4  761   4.643   0.498   9.611  0.1219 -0.3390  0.5514
   49TMC2    C5  762   4.614   0.518   9.477  0.1184  0.2628  0.2913
   49TMC2    C6  763   4.516   0.450   9.411 -0.4402 -0.0655  0.8324
   49TMC2     C  764   4.586   0.394   9.821 -0.4420  0.3604 -0.4273
   49TMC2     O  765   4.675   0.453   9.878  0.3432  0.1910  0.1232
   49TMC2     H  766   4.461   0.217   9.638 -0.8492 -0.0362 -1.0152
   49TMC2    H1  767   4.720   0.553   9.665 -0.2011  1.4186 -0.7689
   49TMC2    H2  768   4.481   0.482   9.314 -0.9552  0.8938  1.3236
   49TMC2    C7  769   4.635   0.647   9.410 -0.0974 -0.9956 -1.0398
   49TMC2    C8  770   4.331   0.294   9.406  0.2558 -0.1462 -0.2305
   49TMC2    O1  771   4.588   0.667   9.299 -0.1746  0.2235 -0.0196
   49TMC2    O2  772   4.304   0.311   9.288  0.2700 -0.2561 -0.1126
   49TMC2    O5  773   4.291   0.187   9.480  0.6909 -0.3482 -0.0195
   49TMC2    H5  774   4.285   0.216   9.574  1.4246 -3.1146  0.8761
   50MPD2     C  775   4.603   0.260  10.080 -0.3140  0.2351  0.3001
   50MPD2    C1  776   4.489   0.266  10.004  0.5282 -0.6467 -0.0116
   50MPD2    C2  777   4.372   0.213  10.058 -0.2831 -0.3742  0.4511
   50MPD2    C3  778   4.363   0.155  10.183  0.9923 -0.5813  0.5418
   50MPD2    C4  779   4.473   0.160  10.258 -0.0266 -0.1000 -0.1049
   50MPD2    C5  780   4.596   0.199  10.205 -0.1225  0.3425  0.3767
   50MPD2     H  781   4.283   0.222   9.996  0.2711  2.2277  0.0228
   50MPD2    H1  782   4.471   0.117  10.357 -0.8203 -0.1542 -0.1429
   50MPD2    H2  783   4.702   0.285  10.045 -0.1572 -2.7570 -1.4120
   50MPD2    H3  784   4.681   0.189  10.272  1.7294  1.4657 -1.7895
   50MPD2     N  785   4.241   0.116  10.241 -0.0218 -0.0955 -0.1797
   50MPD2    H5  786   4.246   0.080  10.335 -1.2206  0.4014  0.0672
   50MPD2    N1  787   4.491   0.317   9.877  0.0525  0.3724 -0.2278
   50MPD2    H7  788   4.405   0.300   9.825  0.5774  2.9375 -1.9418
   51TMC2    C1  789   4.381   3.324   0.268  0.1971  0.7560  0.5550
   51TMC2    C2  790   4.335   3.416   0.170  0.2495  0.0926 -0.3640
   51TMC2    C3  791   4.428   3.494   0.105  0.0281  0.1459  0.5227
   51TMC2    C4  792   4.514   3.328   0.293 -0.7962 -0.8363 -0.0604
   51TMC2    C5  793   4.600   3.407   0.230 -0.1982 -0.4475 -0.3413
   51TMC2    C6  794   4.560   3.495   0.136 -0.0808  0.0023  0.4315
   51TMC2     C  795   4.296   3.279   0.370 -0.6892 -0.0809 -0.0490
   51TMC2     O  796   4.333   3.173   0.420  0.1334 -0.1962  0.0875
   51TMC2     H  797   4.229   3.429   0.148 -0.0271  0.0170  0.9538
   51TMC2    H1  798   4.547   3.272   0.379  1.0238 -0.7885 -0.7315
   51TMC2    H2  799   4.629   3.549   0.073  1.5218 -0.9500  1.3597
   51TMC2    C7  800   4.723   3.425   0.310 -0.2940  0.2143  0.1869
   51TMC2    C8  801   4.373   3.574  17.724  0.0639  0.0145  0.3120
   51TMC2    O1  802   0.030   3.329   0.381  0.1652 -0.0880  0.1868
   51TMC2    O2  803   4.258   3.560  17.690  0.2223 -0.2616  0.4639
   51TMC2    O5  804   4.441   3.691  17.714 -0.4566  0.0165 -0.5080
   51TMC2    H5  805   4.505   3.693   0.060  0.1195  0.0363 -1.0078
   52MPD2     C  806   4.047   3.433   0.801 -0.4930 -0.4765 -0.2877
   52MPD2    C1  807   4.127   3.322   0.780 -0.3211  0.8648 -0.4935
   52MPD2    C2  808   4.183   3.298   0.658  0.5769  1.0950  0.0882
   52MPD2    C3  809   4.162   3.386   0.547 -0.9404 -0.3556  0.0530
   52MPD2    C4  810   4.091   3.498   0.574  0.5035  0.4642 -0.4599
   52MPD2    C5  811   4.039   3.522   0.701  0.5364 -0.4789 -0.4988
   52MPD2     H  812   4.252   3.215   0.641 -0.7633 -0.1778  0.8079
   52MPD2    H1  813   4.078   3.574   0.497 -3.9287 -2.6355 -2.7357
   52MPD2    H2  814   4.012   3.457   0.901  0.1996  0.8626 -0.3663
   52MPD2    H3  815   3.986   3.615   0.717 -0.1465 -0.5686 -2.2563
   52MPD2     N  816   4.215   3.381   0.419 -0.5352  0.3577  0.1770
   52MPD2    H5  817   4.208   3.468   0.368  2.2688  0.4965  0.0521
   52MPD2    N1  818   4.165   3.231   0.888  0.0833 -0.3877 -0.3951
   52MPD2    H7  819   4.207   3.143   0.860 -1.2204 -1.1165 -0.0569
   53TMC2    C1  820   0.381   2.006  11.742 -0.0905  0.1825  0.3750
   53TMC2    C2  821   0.511   2.006  11.779  0.4906 -0.5492  0.7648
   53TMC2    C3  822   0.536   1.966  11.908 -0.4486  0.0715  0.0752
   53TMC2    C4  823   0.279   1.959  11.827  0.3134 -0.1398 -0.7317
   53TMC2    C5  824   0.317   1.911  11.949  0.5663 -0.0251 -0.3406
   53TMC2    C6  825   0.439   1.925  11.995 -0.1597  0.4255  0.7091
   53TMC2     C  826   0.359   2.048  11.603 -0.4039 -0.8610  0.0749
   53TMC2     O  827   0.457   2.047  11.529 -0.3048  0.1039  0.0585
   53TMC2     H  828   0.593   2.037  11.716 -2.1144 -0.3484 -2.5252
   53TMC2    H1  829   0.175   1.947  11.798 -0.2173 -1.5402  1.7319
   53TMC2    H2  830   0.468   1.892  12.094  2.9597  0.7519 -0.0906
   53TMC2    C7  831   0.220   1.827  12.016  0.6043  0.2413  0.5606
   53TMC2    C8  832   0.675   1.973  11.956 -0.1609  0.5047  0.1277
   53TMC2    O1  833   0.103   1.852  11.986 -0.6995 -0.0964  0.1414
   53TMC2    O2  834   0.707   1.937  12.066 -0.5783  0.3275 -0.3064
   53TMC2    O5  835   0.737   2.075  11.894  0.0277 -0.3491 -0.6517
   53TMC2    H5  836   0.672   2.119  11.836 -0.1152  1.1376  0.6294
   54MPD2     C  837   0.272   2.232  11.387  0.1716 -0.4276 -0.0488
   54MPD2    C1  838   0.185   2.172  11.472  0.9071 -0.9842 -0.1567
   54MPD2    C2  839   0.048   2.196  11.468  0.0694  0.1624 -0.7039
   54MPD2    C3  840   4.730   2.278  11.364  0.8157 -0.1059  0.2973
   54MPD2    C4  841   0.085   2.329  11.268 -0.3413 -0.5003  0.7804
   54MPD2    C5  842   0.217   2.292  11.276  0.7329 -0.7608  0.2420
   54MPD2     H  843   4.722   2.138  11.539  0.3872 -0.3955 -0.9020
   54MPD2    H1  844   0.053   2.396  11.190 -2.0935 -0.5533  1.4557
   54MPD2    H2  845   0.379   2.218  11.388  0.2284 -0.0261 -0.9563
   54MPD2    H3  846   0.282   2.333  11.200  1.1951 -0.6185  0.7117
   54MPD2     N  847   4.590   2.285  11.342 -0.2685 -0.4816 -0.0757
   54MPD2    H5  848   4.554   2.338  11.263  0.3130 -0.6729 -0.4690
   54MPD2    N1  849   0.233   2.086  11.578 -0.4261 -0.0287  0.1736
   54MPD2    H7  850   0.164   2.062  11.649  0.4190  0.1261  1.0535
   55TMC2    C1  851   1.523   3.766  17.442  0.1086  0.8665 -0.5859
   55TMC2    C2  852   1.641   3.811  17.382  1.0377 -0.8697  0.9466
   55TMC2    C3  853   1.755   3.731  17.383 -0.0359  0.4872  0.3460
   55TMC2    C4  854   1.508   3.640  17.493  0.1273 -0.4410 -0.0434
   55TMC2    C5  855   1.622   3.563  17.486  0.4366  0.1520 -0.1283
   55TMC2    C6  856   1.740   3.602  17.430 -0.2981  0.9857  0.7356
   55TMC2     C  857   1.407   3.858  17.461  0.2308 -0.1297  0.6053
   55TMC2     O  858   1.313   3.826  17.538 -0.3661  0.0849 -0.2701
   55TMC2     H  859   1.661   3.911  17.345 -0.5555  0.1015  2.6918
   55TMC2    H1  860   1.412   3.611  17.534  0.1845 -1.8706 -0.9376
   55TMC2    H2  861   1.824   3.535  17.435 -0.8247  0.5807  3.9173
   55TMC2    C7  862   1.627   3.425  17.533  0.0223 -0.5785 -0.2108
   55TMC2    C8  863   1.891   3.790  17.383 -0.4558  0.2514  0.1046
   55TMC2    O1  864   1.700   3.343  17.475  0.0240 -0.2601 -0.1441
   55TMC2    O2  865   1.913   3.888  17.456 -0.4321  0.2580  0.3179
   55TMC2    O5  866   1.931   3.776  17.257 -0.8141 -0.4494 -0.6089
   55TMC2    H5  867   1.892   3.697  17.215 -1.6409  0.9858 -2.5521
   56MPD2     C  868   1.355   4.203  17.330 -0.1751 -0.4872  0.2582
   56MPD2    C1  869   1.334   4.090  17.408  0.0753 -0.1526  0.0595
   56MPD2    C2  870   1.252   4.108  17.518 -0.9103  0.2559  0.3269
   56MPD2    C3  871   1.187   4.239  17.541 -0.7094  0.2007  0.7647
   56MPD2    C4  872   1.213   4.343  17.457 -0.1345 -0.3195 -0.4357
   56MPD2    C5  873   1.292   4.325  17.343 -0.3667 -0.0581  0.6380
   56MPD2     H  874   1.236   4.030  17.591 -0.7028  0.0402  0.1410
   56MPD2    H1  875   1.162   4.438  17.466  2.1918  1.0789 -1.8014
   56MPD2    H2  876   1.419   4.194  17.243 -1.6049  0.9526 -0.9548
   56MPD2    H3  877   1.304   4.393  17.260 -1.2532  0.0713  0.6156
   56MPD2     N  878   1.098   4.250  17.649  0.0055  1.0504 -0.2637
   56MPD2    H5  879   1.102   4.172  17.713 -2.8325  2.0687  1.1397
   56MPD2    N1  880   1.416   3.974  17.389  0.0626 -0.2215 -0.2566
   56MPD2    H7  881   1.469   3.971  17.303 -0.9027 -0.3787 -0.8458
   57TMC2    C1  882   0.252   0.357  13.571  0.0323 -0.3002  0.0604
   57TMC2    C2  883   0.313   0.265  13.656  0.0525 -0.0240 -0.2897
   57TMC2    C3  884   0.437   0.227  13.630  0.3129  0.1048 -0.0457
   57TMC2    C4  885   0.324   0.411  13.464 -0.2826 -0.4817  0.6044
   57TMC2    C5  886   0.453   0.371  13.446 -0.2256  0.4557 -0.1913
   57TMC2    C6  887   0.508   0.276  13.527 -0.2091  0.4684 -0.7331
   57TMC2     C  888   0.106   0.347  13.556  0.3256 -0.1396  0.0604
   57TMC2     O  889   0.061   0.427  13.477  0.7174  0.6245  0.5833
   57TMC2     H  890   0.264   0.203  13.731  1.9452  0.5967  1.4449
   57TMC2    H1  891   0.274   0.468  13.387 -1.5173  1.0931  2.5659
   57TMC2    H2  892   0.610   0.241  13.517 -0.2351  0.1257  0.2051
   57TMC2    C7  893   0.530   0.434  13.341 -0.9832  0.2996 -0.2281
   57TMC2    C8  894   0.509   0.155  13.735  0.0165  0.4074  0.0625
   57TMC2    O1  895   0.474   0.526  13.287 -0.0636  0.3173  0.0510
   57TMC2    O2  896   0.608   0.086  13.723 -0.2276  0.0203 -0.1054
   57TMC2    O5  897   0.474   0.221  13.849 -0.0737  0.3957  0.4509
   57TMC2    H5  898   0.391   0.272  13.839  0.2029  0.7542 -0.0457
   58MPD2     C  899   4.385   0.104  13.615  0.2775  0.0768  0.1238
   58MPD2    C1  900   4.414   0.235  13.583  0.3989 -0.8259  0.4431
   58MPD2    C2  901   4.545   0.281  13.580  0.1015 -0.2001  0.2442
   58MPD2    C3  902   4.645   0.197  13.609 -0.6659  0.2215  0.4831
   58MPD2    C4  903   4.618   0.066  13.638  0.4400 -0.0869  0.6101
   58MPD2    C5  904   4.489   0.021  13.636 -0.0640  0.1131  0.1200
   58MPD2     H  905   4.579   0.383  13.581 -0.8663  0.1310 -0.2913
   58MPD2    H1  906   4.693   4.720  13.637  2.1232  1.5380 -3.3347
   58MPD2    H2  907   4.287   0.058  13.612  1.5620 -2.6750  0.0208
   58MPD2    H3  908   4.460   4.654  13.669 -0.2746  0.3352  0.5966
   58MPD2     N  909   0.051   0.232  13.609  0.0114  0.1862  0.2518
   58MPD2    H5  910   0.123   0.165  13.636  0.0664  0.2217  0.1921
   58MPD2    N1  911   4.313   0.331  13.577 -0.3243 -0.1628  1.1915
   58MPD2    H7  912   4.346   0.426  13.563 -1.2869  0.0990  0.7471
   59TMC2    C1  913   2.555   0.674  12.654 -0.3324  0.1486 -0.1286
   59TMC2    C2  914   2.417   0.688  12.679  0.7952  0.4232  0.0089
   59TMC2    C3  915   2.361   0.802  12.623  0.9729 -0.6306 -0.6380
   59TMC2    C4  916   2.629   0.772  12.582 -0.6803 -0.6601  0.3977
   59TMC2    C5  917   2.561   0.884  12.544 -0.1914  0.2869  0.3991
   59TMC2    C6  918   2.423   0.903  12.563 -0.1562  0.3932 -0.0276
   59TMC2     C  919   2.630   0.561  12.701  0.6238  0.6857  0.4424
   59TMC2     O  920   2.572   0.454  12.709 -0.5949  0.3793 -0.1066
   59TMC2     H  921   2.364   0.606  12.726 -0.7610  1.7892  0.6278
   59TMC2    H1  922   2.735   0.772  12.560 -0.7008  0.6754  0.2863
   59TMC2    H2  923   2.371   0.987  12.518 -3.7218 -1.0725  1.4096
   59TMC2    C7  924   2.626   0.960  12.442  0.2419  0.4723  0.1950
   59TMC2    C8  925   2.211   0.796  12.628  0.3449  0.3518  0.0019
   59TMC2    O1  926   2.720   0.917  12.383  0.2843  0.5880  0.4828
   59TMC2    O2  927   2.147   0.696  12.650  0.3224 -0.3365 -0.3073
   59TMC2    O5  928   2.169   0.926  12.645 -0.3230 -0.1156 -0.6309
   59TMC2    H5  929   2.244   0.988  12.642 -1.1131  0.8543 -0.1713
   60MPD2     C  930   2.867   0.378  12.737 -0.4920  0.6404  0.5197
   60MPD2    C1  931   2.866   0.513  12.765  0.6833 -0.2152 -0.1184
   60MPD2    C2  932   2.980   0.567  12.823  0.2807 -0.3375  0.4257
   60MPD2    C3  933   3.087   0.485  12.862  0.1078  0.6480  0.4871
   60MPD2    C4  934   3.085   0.350  12.830 -0.3969  0.1511 -0.0561
   60MPD2    C5  935   2.980   0.300  12.758  0.8180 -0.3492  0.1727
   60MPD2     H  936   2.982   0.667  12.864  0.0832 -0.0847 -0.1926
   60MPD2    H1  937   3.171   0.287  12.849  0.9187  2.3157  1.3141
   60MPD2    H2  938   2.779   0.332  12.693 -0.6670 -0.0533  1.5955
   60MPD2    H3  939   2.986   0.193  12.737 -2.9012 -0.0101 -2.6141
   60MPD2     N  940   3.205   0.536  12.926  0.4518 -0.1871 -0.5004
   60MPD2    H5  941   3.290   0.482  12.921 -0.2165 -1.2765 -0.0530
   60MPD2    N1  942   2.755   0.597  12.742 -0.1199 -0.0898  0.0863
   60MPD2    H7  943   2.766   0.695  12.767 -0.0035  0.0856 -0.6522
   61TMC2    C1  944   2.031   2.036  15.639  0.3130 -1.1733  0.3173
   61TMC2    C2  945   2.019   2.049  15.777  0.4056 -0.8489  0.2807
   61TMC2    C3  946   1.988   2.172  15.826 -0.4205 -0.0962  0.3270
   61TMC2    C4  947   1.982   2.135  15.561  0.7604  0.3553 -0.2711
   61TMC2    C5  948   1.955   2.257  15.614  0.2381 -0.6290 -0.0235
   61TMC2    C6  949   1.980   2.279  15.745 -0.0257  0.5121 -0.3281
   61TMC2     C  950   2.124   1.928  15.599 -0.0122 -0.0092  0.0467
   61TMC2     O  951   2.157   1.844  15.682  0.1073 -0.4110 -0.6332
   61TMC2     H  952   2.043   1.975  15.853 -3.8474 -0.2249  2.2230
   61TMC2    H1  953   1.972   2.125  15.454  2.3176 -2.8413 -0.1302
   61TMC2    H2  954   1.988   2.383  15.776  0.0044  1.0965 -2.3000
   61TMC2    C7  955   1.943   2.369  15.525  0.2426 -0.1782 -0.3689
   61TMC2    C8  956   1.984   2.183  15.962  0.0136  0.0645  0.1879
   61TMC2    O1  957   2.002   2.470  15.554  0.0045 -0.8782 -0.1768
   61TMC2    O2  958   2.018   2.090  16.035 -0.7279 -0.2410  0.2890
   61TMC2    O5  959   1.903   2.278  15.997 -0.3216  0.2787 -0.1656
   61TMC2    H5  960   1.849   2.306  15.920 -0.2825  1.0822  0.1007
   62MPD2     C  961   2.341   1.761  15.481  0.2459 -0.3448 -0.8037
   62MPD2    C1  962   2.274   1.860  15.419  1.0184 -0.7512  0.9225
   62MPD2    C2  963   2.298   1.893  15.291 -0.5414 -0.0942 -0.0581
   62MPD2    C3  964   2.401   1.832  15.216 -0.3009  0.3090 -0.0289
   62MPD2    C4  965   2.476   1.736  15.278  0.0389 -0.0652 -0.4819
   62MPD2    C5  966   2.440   1.700  15.406 -0.4501  0.3283 -0.0801
   62MPD2     H  967   2.244   1.977  15.249  1.7727  0.9648 -0.9338
   62MPD2    H1  968   2.554   1.682  15.227 -0.6072 -0.9728 -0.5097
   62MPD2    H2  969   2.315   1.736  15.583  0.2500 -1.4540 -1.0757
   62MPD2    H3  970   2.487   1.616  15.456 -2.1854  0.7365  2.2554
   62MPD2     N  971   2.421   1.878  15.082  0.0608  0.2164 -0.3030
   62MPD2    H5  972   2.350   1.947  15.059 -0.4449  0.0141  0.6405
   62MPD2    N1  973   2.172   1.946  15.475 -0.9839 -0.5454 -0.1554
   62MPD2    H7  974   2.128   2.017  15.418 -1.3348 -0.2166  0.5347
   63TMC2    C1  975   1.306   2.891   9.867 -0.8788 -0.0494  0.4900
   63TMC2    C2  976   1.409   2.823   9.931  1.0233  0.4881  0.1225
   63TMC2    C3  977   1.535   2.885   9.933  0.2475 -0.3608  0.2808
   63TMC2    C4  978   1.326   3.021   9.827  0.4428 -0.3760  0.0330
   63TMC2    C5  979   1.447   3.078   9.842  0.2065 -1.1256  0.6440
   63TMC2    C6  980   1.558   3.016   9.895  0.3739 -0.0224 -0.3545
   63TMC2     C  981   1.170   2.835   9.871  0.5736  0.2538  0.4705
   63TMC2     O  982   1.082   2.897   9.811  0.2484 -0.2985 -0.1896
   63TMC2     H  983   1.406   2.716   9.946  1.5017  0.4793  0.1612
   63TMC2    H1  984   1.237   3.076   9.798 -0.5729 -2.0110  0.0466
   63TMC2    H2  985   1.652   3.068   9.908 -0.3882  1.1733  0.3795
   63TMC2    C7  986   1.461   3.203   9.772 -0.6545 -0.0722  0.5830
   63TMC2    C8  987   1.639   2.824  10.017 -0.2587  0.3386 -0.5754
   63TMC2    O1  988   1.351   3.252   9.738  0.3719  0.0691  0.2895
   63TMC2    O2  989   1.761   2.839   9.996  0.0555  0.5321 -0.1087
   63TMC2    O5  990   1.586   2.721  10.084 -0.0500 -0.0909  0.0793
   63TMC2    H5  991   1.489   2.724  10.100  0.1289 -0.6791  1.2573
   64MPD2     C  992   0.832   2.478  10.038 -0.3226  0.0035 -0.6763
   64MPD2    C1  993   0.955   2.454  10.098  0.1316  0.4055 -0.2606
   64MPD2    C2  994   1.061   2.541  10.070  0.4594 -1.6550  0.5338
   64MPD2    C3  995   1.048   2.647   9.981 -1.0161 -0.1458 -0.3161
   64MPD2    C4  996   0.921   2.675   9.928  0.1475 -0.1119 -0.2851
   64MPD2    C5  997   0.811   2.595   9.960 -0.2757 -0.0353  1.1659
   64MPD2     H  998   1.157   2.532  10.120  0.7815 -0.5577  0.1005
   64MPD2    H1  999   0.901   2.750   9.852 -0.1892  1.6754  1.5691
   64MPD2    H2 1000   0.742   2.420  10.053 -0.0994 -0.3198 -0.6007
   64MPD2    H3 1001   0.719   2.621   9.910  1.2055 -0.9882 -2.0761
   64MPD2     N 1002   1.159   2.719   9.944 -0.0152  0.1819  0.9314
   64MPD2    H5 1003   1.243   2.690   9.993  0.0249  0.3202  0.9457
   64MPD2    N1 1004   0.974   2.354  10.197 -0.1121 -0.4035  0.0961
   64MPD2    H7 1005   1.068   2.356  10.235 -0.5208 -0.0877  1.0852
   65TMC2    C1 1006   2.811   1.768  15.434  0.0547  0.3462  0.1371
   65TMC2    C2 1007   2.906   1.740  15.333  0.0401 -0.2192  0.4687
   65TMC2    C3 1008   2.924   1.834  15.235 -0.2090  0.2408 -0.2160
   65TMC2    C4 1009   2.746   1.890  15.438 -0.3574 -0.1486  0.0144
   65TMC2    C5 1010   2.758   1.973  15.329  0.2897  0.5332  0.6785
   65TMC2    C6 1011   2.839   1.943  15.228  0.5698  0.6198 -0.5491
   65TMC2     C 1012   2.800   1.685  15.552  0.5630  0.1074 -0.0033
   65TMC2     O 1013   2.793   1.736  15.664 -0.1748  0.2188  0.4030
   65TMC2     H 1014   2.960   1.646  15.331  0.7966  0.2460 -1.0127
   65TMC2    H1 1015   2.696   1.914  15.531 -0.2124 -0.5156  0.1889
   65TMC2    H2 1016   2.838   2.006  15.140 -2.7623  1.0737 -0.1719
   65TMC2    C7 1017   2.657   2.071  15.303 -0.8848  0.6601  0.1919
   65TMC2    C8 1018   2.984   1.794  15.111 -0.3208  0.0166 -0.6871
   65TMC2    O1 1019   2.651   2.135  15.195  1.3950 -0.4540  0.5142
   65TMC2    O2 1020   3.021   1.678  15.102  0.5093 -0.0694  0.3079
   65TMC2    O5 1021   3.027   1.901  15.043  0.1976 -0.2135 -0.4724
   65TMC2    H5 1022   3.016   1.984  15.093  2.6609  0.6751 -1.4132
   66MPD2     C 1023   2.792   1.460  15.750 -0.0738  0.0612 -0.0091
   66MPD2    C1 1024   2.802   1.447  15.610 -0.2688 -0.2451  0.1779
   66MPD2    C2 1025   2.803   1.322  15.552 -0.3213 -0.0889 -0.1278
   66MPD2    C3 1026   2.800   1.207  15.633 -0.0852  0.2649 -0.6338
   66MPD2    C4 1027   2.775   1.219  15.761 -0.3111  0.5171 -0.5192
   66MPD2    C5 1028   2.774   1.343  15.824 -0.4011  0.0630 -0.2961
   66MPD2     H 1029   2.820   1.306  15.446 -1.9550 -1.1438 -0.2286
   66MPD2    H1 1030   2.778   1.134  15.828 -2.6987 -2.0790 -3.6800
   66MPD2    H2 1031   2.809   1.558  15.790 -0.6930  0.4570 -0.7095
   66MPD2    H3 1032   2.773   1.346  15.932  0.2087  2.2051 -0.3546
   66MPD2     N 1033   2.826   1.075  15.584 -0.3053 -0.0785  0.0490
   66MPD2    H5 1034   2.824   0.995  15.646  1.3876  0.6121  0.9908
   66MPD2    N1 1035   2.810   1.554  15.518 -0.1387 -0.1766  0.4255
   66MPD2    H7 1036   2.807   1.533  15.419  0.7756  2.1447 -0.0931
   67TMC2    C1 1037   2.924   1.265  14.290  0.0778 -0.7864  0.1795
   67TMC2    C2 1038   2.940   1.398  14.303  0.3321 -0.0343 -0.3045
   67TMC2    C3 1039   3.023   1.452  14.397 -0.7917 -0.6596 -0.3073
   67TMC2    C4 1040   3.007   1.170  14.346  0.0367 -0.1160  1.0439
   67TMC2    C5 1041   3.090   1.226  14.446  0.2043 -0.5375 -0.0049
   67TMC2    C6 1042   3.101   1.362  14.467 -0.0905  0.4645  0.6530
   67TMC2     C 1043   2.817   1.209  14.215 -0.1340 -0.1440  0.6044
   67TMC2     O 1044   2.782   1.093  14.246 -0.8933  0.2977 -0.3126
   67TMC2     H 1045   2.867   1.468  14.263  0.2921  1.1090  1.7242
   67TMC2    H1 1046   3.011   1.063  14.329  1.5287  0.2349 -0.8603
   67TMC2    H2 1047   3.170   1.398  14.542  2.4566 -1.3809 -0.8520
   67TMC2    C7 1048   3.184   1.148  14.515 -0.4496 -0.0461 -0.5486
   67TMC2    C8 1049   3.065   1.584  14.372  0.3785  0.2712 -0.0858
   67TMC2    O1 1050   3.225   1.049  14.454 -0.1400 -0.5300 -0.3679
   67TMC2    O2 1051   3.054   1.623  14.256  0.1157  0.2624 -1.1678
   67TMC2    O5 1052   3.140   1.631  14.478  0.5187  0.5390  0.2015
   67TMC2    H5 1053   3.113   1.601  14.568  0.1362 -0.0974 -0.1232
   68MPD2     C 1054   2.570   1.174  14.065  0.4821  0.5912 -0.7727
   68MPD2    C1 1055   2.629   1.291  14.067  0.4546 -0.2848  0.1756
   68MPD2    C2 1056   2.580   1.388  13.976 -0.9251 -0.1006  0.0291
   68MPD2    C3 1057   2.473   1.360  13.893 -0.8687 -0.3152  0.1616
   68MPD2    C4 1058   2.408   1.237  13.889  0.5197  0.0422  0.7808
   68MPD2    C5 1059   2.459   1.148  13.982  0.9486  0.2925  0.0480
   68MPD2     H 1060   2.637   1.480  13.970  0.8659 -1.2440 -0.3945
   68MPD2    H1 1061   2.330   1.199  13.824 -1.4541  1.7293  2.1655
   68MPD2    H2 1062   2.597   1.086  14.123  0.3734  0.6096 -0.6920
   68MPD2    H3 1063   2.426   1.045  13.978  0.1049  0.5904 -0.9125
   68MPD2     N 1064   2.432   1.449  13.792 -0.3900  0.3870 -0.0105
   68MPD2    H5 1065   2.350   1.420  13.740 -0.1661  0.9713 -0.6852
   68MPD2    N1 1066   2.753   1.306  14.138  0.1125  0.3308 -0.4612
   68MPD2    H7 1067   2.810   1.388  14.120  1.1858 -0.4987 -0.7856
   69TMC2    C1 1068   4.376   2.363  12.373 -0.7887  0.2524 -0.3144
   69TMC2    C2 1069   4.298   2.468  12.414 -0.5075 -0.2481 -0.4750
   69TMC2    C3 1070   4.258   2.558  12.316  0.5156  1.0612  0.9572
   69TMC2    C4 1071   4.406   2.329  12.245 -0.2666  0.5195 -0.6006
   69TMC2    C5 1072   4.365   2.420  12.152  0.5519  0.0408 -0.1501
   69TMC2    C6 1073   4.292   2.535  12.184  0.1971 -0.1461 -0.4935
   69TMC2     C 1074   4.440   2.280  12.477 -0.1974 -0.2779 -0.2278
   69TMC2     O 1075   4.378   2.262  12.578 -0.1536  0.1154 -0.4208
   69TMC2     H 1076   4.276   2.476  12.520  2.2945  0.9397  0.0201
   69TMC2    H1 1077   4.455   2.238  12.212  2.0638  1.1390  1.1177
   69TMC2    H2 1078   4.285   2.617  12.113 -2.0029 -0.6422 -0.8541
   69TMC2    C7 1079   4.439   2.407  12.028  0.1450 -0.1164  0.5395
   69TMC2    C8 1080   4.200   2.681  12.359 -1.1928 -0.1227 -0.0440
   69TMC2    O1 1081   4.549   2.354  12.027  0.1020 -0.1121 -0.9194
   69TMC2    O2 1082   4.136   2.695  12.461 -0.3559  0.1967  0.0372
   69TMC2    O5 1083   4.260   2.789  12.289  0.2612  0.4451 -0.3875
   69TMC2    H5 1084   4.336   2.772  12.230 -0.5498  0.9986 -1.6040
   70MPD2     C 1085   0.030   2.092  12.443 -0.2007  0.0235  0.1208
   70MPD2    C1 1086   4.637   2.130  12.497 -0.3214 -0.3099 -0.1256
   70MPD2    C2 1087   4.596   2.060  12.612 -0.7464 -0.2305 -0.2028
   70MPD2    C3 1088   4.680   1.966  12.675 -0.1078  0.7520  0.5729
   70MPD2    C4 1089   0.069   1.936  12.620 -0.3014 -0.9018 -0.4963
   70MPD2    C5 1090   0.108   1.991  12.501 -0.6735  0.0447  0.3294
   70MPD2     H 1091   4.498   2.082  12.653  0.9207  2.4989  2.3187
   70MPD2    H1 1092   0.135   1.861  12.662  0.6150  0.8712  1.2343
   70MPD2    H2 1093   0.082   2.143  12.363 -1.6298  3.6558  1.5063
   70MPD2    H3 1094   0.200   1.964  12.450 -0.7006 -0.5123  0.5760
   70MPD2     N 1095   4.647   1.898  12.793 -0.2340  0.4162  0.0883
   70MPD2    H5 1096   4.711   1.828  12.830  1.4014  1.0225 -1.5293
   70MPD2    N1 1097   4.565   2.234  12.435 -0.0576 -0.0760  0.8725
   70MPD2    H7 1098   4.623   2.286  12.370 -1.1526 -2.6867 -2.2158
   71TMC2    C1 1099   1.972   2.599   1.985  0.1744  0.1987  0.1941
   71TMC2    C2 1100   2.072   2.640   2.071 -0.5502 -0.3531  0.3164
   71TMC2    C3 1101   2.060   2.756   2.138 -0.0991 -0.2434  0.0011
   71TMC2    C4 1102   1.868   2.677   1.943 -0.0114  0.4127 -0.1871
   71TMC2    C5 1103   1.865   2.799   2.013 -0.1707  0.1260  0.1346
   71TMC2    C6 1104   1.952   2.834   2.114 -0.0529 -0.0306 -0.0026
   71TMC2     C 1105   1.983   2.479   1.909 -0.0886  0.4513 -0.3482
   71TMC2     O 1106   2.100   2.439   1.881  0.7121  0.0098 -0.5289
   71TMC2     H 1107   2.161   2.579   2.085  1.6484  3.5534  3.6071
   71TMC2    H1 1108   1.816   2.657   1.850 -0.3631 -0.8100  0.2767
   71TMC2    H2 1109   1.946   2.927   2.170  1.0804  0.3417 -0.5047
   71TMC2    C7 1110   1.779   2.909   1.966 -0.6332  0.4419  0.2278
   71TMC2    C8 1111   2.176   2.806   2.206  0.3697  0.0451  1.1610
   71TMC2    O1 1112   1.782   2.999   2.046 -0.3560  0.2808  0.3297
   71TMC2    O2 1113   2.290   2.771   2.178 -0.3103  0.0934 -1.0584
   71TMC2    O5 1114   2.131   2.830   2.329 -0.7076 -0.4189 -0.0918
   71TMC2    H5 1115   2.035   2.824   2.349 -1.1661  1.3917 -1.7874
   72MPD2     C 1116   1.767   2.207   1.532  0.1189 -0.4459  0.4280
   72MPD2    C1 1117   1.895   2.269   1.541 -0.5005  0.0064  0.3348
   72MPD2    C2 1118   1.930   2.341   1.659  0.1779 -0.4488 -0.5423
   72MPD2    C3 1119   1.849   2.329   1.773  0.2707 -0.4492  0.3033
   72MPD2    C4 1120   1.727   2.268   1.759  0.4887 -0.1657 -0.1718
   72MPD2    C5 1121   1.688   2.212   1.638  0.0819 -0.1915 -0.3640
   72MPD2     H 1122   2.019   2.403   1.664  0.2755 -0.8261  2.3617
   72MPD2    H1 1123   1.655   2.269   1.840  0.8167  0.4151  0.1147
   72MPD2    H2 1124   1.731   2.161   1.441  0.2707 -1.1035  0.7036
   72MPD2    H3 1125   1.588   2.173   1.623  0.4826 -1.5226  0.4452
   72MPD2     N 1126   1.866   2.412   1.889  0.9681 -0.0540  0.5844
   72MPD2    H5 1127   1.780   2.440   1.935  0.7310 -0.3392  0.3149
   72MPD2    N1 1128   1.987   2.264   1.437 -0.0115  0.6102 -0.3311
   72MPD2    H7 1129   2.074   2.314   1.453  1.9501 -2.8284 -0.2795
   73TMC2    C1 1130   1.812   4.595  13.655 -0.1081  0.5824 -0.1003
   73TMC2    C2 1131   1.817   4.511  13.545  0.6252  0.0337  0.7817
   73TMC2    C3 1132   1.908   4.409  13.561 -0.3501  0.5542  0.0477
   73TMC2    C4 1133   1.883   4.571  13.768 -0.7994  0.7957  0.2818
   73TMC2    C5 1134   1.959   4.456  13.776 -0.1108 -0.0846 -0.2062
   73TMC2    C6 1135   1.968   4.371  13.676  0.1692  0.1404  0.1436
   73TMC2     C 1136   1.828   0.002  13.631 -0.0753  0.2797  0.4925
   73TMC2     O 1137   1.896   0.070  13.704  0.3183 -0.0439  0.1314
   73TMC2     H 1138   1.777   4.524  13.445  1.0541 -0.0887  0.5948
   73TMC2    H1 1139   1.881   4.631  13.858 -1.3707  1.5839 -0.2624
   73TMC2    H2 1140   2.036   4.286  13.673 -0.7862 -0.5898 -0.9769
   73TMC2    C7 1141   2.091   4.494  13.822 -0.4472  0.0888  0.1071
   73TMC2    C8 1142   1.937   4.331  13.449 -0.2039  0.7249  0.3708
   73TMC2    O1 1143   2.172   4.406  13.840  0.2090  0.0568 -0.8418
   73TMC2    O2 1144   1.920   4.211  13.460  0.2714 -0.0776 -0.0256
   73TMC2    O5 1145   2.049   4.385  13.390 -0.4650 -0.2210 -0.0036
   73TMC2    H5 1146   2.055   4.482  13.403 -0.6624 -0.1436 -0.4552
   74MPD2     C 1147   1.798   0.434  13.363  0.2445 -0.4152 -0.5502
   74MPD2    C1 1148   1.885   0.395  13.459 -0.1910  0.2054  0.0223
   74MPD2    C2 1149   1.885   0.264  13.501  0.1661 -0.6834 -0.1595
   74MPD2    C3 1150   1.773   0.183  13.473 -0.1820  0.6745  0.0456
   74MPD2    C4 1151   1.697   0.217  13.366 -0.3493  0.0693  0.2576
   74MPD2    C5 1152   1.706   0.345  13.315  0.1489  0.6813 -0.5132
   74MPD2     H 1153   1.963   0.226  13.565  1.0701  2.0032  0.3642
   74MPD2    H1 1154   1.622   0.151  13.323  2.3515 -2.5387 -0.4864
   74MPD2    H2 1155   1.784   0.532  13.319  1.3919  0.7003  1.6341
   74MPD2    H3 1156   1.650   0.372  13.227 -0.7834  0.8461  0.1375
   74MPD2     N 1157   1.753   0.056  13.529 -0.0521  0.5201 -0.1613
   74MPD2    H5 1158   1.688   4.726  13.480  2.4950 -2.7393  0.5681
   74MPD2    N1 1159   1.980   0.492  13.505  0.5034 -0.0560  0.0520
   74MPD2    H7 1160   1.974   0.584  13.462 -0.6891 -0.5807 -0.9235
   75TMC2    C1 1161   2.376   1.665  13.700  0.3211  0.2768 -0.2319
   75TMC2    C2 1162   2.368   1.798  13.738 -0.5508 -0.5314  0.2624
   75TMC2    C3 1163   2.262   1.866  13.695  0.2424  0.1317 -0.6813
   75TMC2    C4 1164   2.283   1.612  13.617 -0.8791 -0.2657 -0.9635
   75TMC2    C5 1165   2.186   1.694  13.560 -0.1255  0.2143  0.3693
   75TMC2    C6 1166   2.169   1.823  13.608  0.4079 -0.0389 -0.2496
   75TMC2     C 1167   2.467   1.582  13.779  1.0949  0.4795  0.1925
   75TMC2     O 1168   2.547   1.651  13.846 -0.1380  0.3460  0.7301
   75TMC2     H 1169   2.424   1.834  13.824  0.5503 -1.4385 -0.0726
   75TMC2    H1 1170   2.293   1.512  13.578 -2.2188 -1.1820  1.0807
   75TMC2    H2 1171   2.085   1.887  13.584  0.1053  0.0343  0.9831
   75TMC2    C7 1172   2.104   1.636  13.460  0.4959 -0.5008 -0.9100
   75TMC2    C8 1173   2.249   2.008  13.721  0.1272 -0.0397 -0.2640
   75TMC2    O1 1174   2.097   1.515  13.456 -0.0915  0.1498  0.1781
   75TMC2    O2 1175   2.149   2.081  13.712 -0.2314 -0.1964  0.6768
   75TMC2    O5 1176   2.362   2.054  13.773 -0.1165  0.2253  0.0995
   75TMC2    H5 1177   2.429   1.995  13.732 -0.5727  0.1357 -0.5277
   76TMC2    C1 1178   1.003   1.818  11.625 -0.1114 -0.0450 -0.0487
   76TMC2    C2 1179   0.937   1.707  11.654 -0.0994 -0.1554  0.2215
   76TMC2    C3 1180   0.981   1.579  11.625  0.5958  0.5446  0.0498
   76TMC2    C4 1181   1.127   1.804  11.563  0.1543 -0.1171  0.4961
   76TMC2    C5 1182   1.174   1.677  11.540  0.5755  0.6273 -0.0861
   76TMC2    C6 1183   1.109   1.564  11.580  0.1429  0.3368 -0.4094
   76TMC2     C 1184   0.933   1.949  11.618  0.4465  0.2307 -0.0188
   76TMC2     O 1185   0.812   1.949  11.615  0.2309 -0.2397 -0.1803
   76TMC2     H 1186   0.833   1.728  11.676 -0.5634 -1.3288 -0.8915
   76TMC2    H1 1187   1.185   1.880  11.513  0.1159 -1.6114 -1.8245
   76TMC2    H2 1188   1.154   1.466  11.566 -1.5330 -0.2053 -1.9619
   76TMC2    C7 1189   1.311   1.675  11.485 -0.6809  0.3107  0.9623
   76TMC2    C8 1190   0.886   1.466  11.616  0.4559  0.2541  0.2785
   76TMC2    O1 1191   1.335   1.735  11.383 -0.2879  0.6682  0.1632
   76TMC2    O2 1192   0.800   1.439  11.703  0.3531 -0.2455  0.1920
   76TMC2    O5 1193   0.868   1.429  11.488 -0.3474  0.2569  0.1712
   76TMC2    H5 1194   0.929   1.472  11.424  1.0508 -3.1072 -0.7058
   77MPD2     C 1195   0.934   2.463  11.549 -0.3079  0.5477  0.0420
   77MPD2    C1 1196   0.835   2.381  11.587  0.8492 -0.8958  0.1702
   77MPD2    C2 1197   0.863   2.243  11.612  0.0298 -0.3373 -0.5412
   77MPD2    C3 1198   0.992   2.188  11.592  0.0552 -0.1054  0.5330
   77MPD2    C4 1199   1.088   2.276  11.560 -0.4170 -0.4593 -0.0078
   77MPD2    C5 1200   1.059   2.408  11.539 -0.2587 -0.1222 -0.0327
   77MPD2     H 1201   0.781   2.177  11.636  0.0553  0.3179  1.3596
   77MPD2    H1 1202   1.195   2.263  11.549 -0.6958 -1.6323 -1.2917
   77MPD2    H2 1203   0.917   2.570  11.543  1.7522  0.9390  1.5162
   77MPD2    H3 1204   1.146   2.466  11.510  1.3719 -2.4432  0.2638
   77MPD2     N 1205   1.016   2.053  11.610 -0.4494  0.2624  0.2813
   77MPD2    H5 1206   1.116   2.038  11.609 -0.6356 -1.0370  0.9487
   77MPD2    N1 1207   0.705   2.436  11.595  0.1806 -0.3911  0.5494
   77MPD2    H7 1208   0.694   2.526  11.549  2.9356 -0.4412 -0.2721
   78TMC2    C1 1209   1.974   1.993   1.854  0.6869  0.1743  0.5498
   78TMC2    C2 1210   1.843   1.947   1.842  0.3247  0.0447  0.4689
   78TMC2    C3 1211   1.810   1.903   1.722  0.2179 -0.3800  0.4767
   78TMC2    C4 1212   2.068   1.965   1.755 -0.1414  0.1754 -0.1872
   78TMC2    C5 1213   2.019   1.910   1.632  0.1580  1.6197  0.2359
   78TMC2    C6 1214   1.888   1.883   1.614 -0.7588  0.8455 -0.1917
   78TMC2     C 1215   2.029   2.043   1.982 -0.9328 -0.6862 -0.5489
   78TMC2     O 1216   2.152   2.037   1.989 -0.3234 -0.2793  0.1929
   78TMC2     H 1217   1.767   1.953   1.919  0.3610  1.8161  0.3542
   78TMC2    H1 1218   2.171   1.997   1.759 -0.4967  1.2377  0.3035
   78TMC2    H2 1219   1.848   1.862   1.515 -2.4009 -2.7660  1.2208
   78TMC2    C7 1220   2.120   1.855   1.547 -0.1177  0.5212 -0.0345
   78TMC2    C8 1221   1.673   1.866   1.719  0.6001 -0.0276  0.3553
   78TMC2    O1 1222   2.228   1.917   1.558  0.4921 -0.1093  0.0133
   78TMC2    O2 1223   1.584   1.912   1.795 -0.0330  0.5422  0.4950
   78TMC2    O5 1224   1.645   1.765   1.629  0.6223 -0.3960 -0.0042
   78TMC2    H5 1225   1.728   1.718   1.606  0.2954 -1.4223  0.9272
   79MPD1     C 1226   1.974   2.223   2.463  0.2717 -0.4287 -0.5292
   79MPD1    C1 1227   2.072   2.143   2.410 -0.3410 -0.0212  0.3585
   79MPD1    C2 1228   2.062   2.122   2.268  0.1706  0.8740  0.2963
   79MPD1    C3 1229   1.950   2.156   2.196  0.9416 -0.7708  0.1484
   79MPD1    C4 1230   1.855   2.241   2.253  0.3728 -0.3496  0.2964
   79MPD1    C5 1231   1.870   2.272   2.388 -0.3746  0.1461 -0.2082
   79MPD1     H 1232   2.146   2.075   2.219  0.4196  1.4156  0.2047
   79MPD1    H1 1233   1.783   2.296   2.193  1.9498 -1.1973 -2.3587
   79MPD1    H2 1234   1.974   2.254   2.567 -0.4890 -1.8892 -0.0830
   79MPD1    H3 1235   1.800   2.344   2.429  0.2971  0.1315  0.9690
   79MPD1     N 1236   1.939   2.121   2.054 -0.1577  0.0791  0.0623
   79MPD1    H5 1237   1.848   2.134   2.011  0.2573 -0.1786 -0.8815
   79MPD1    N1 1238   2.193   2.124   2.477  0.2074  0.4612 -0.6158
   79MPD1    H6 1239   2.247   2.041   2.454 -0.6992 -0.3775  0.2406
   79MPD1    H7 1240   2.181   2.115   2.577 -0.4162  1.6169 -0.5784
   80TMC2    C1 1241   0.429   1.028  11.920 -0.6768 -0.1363  0.8586
   80TMC2    C2 1242   0.545   1.000  11.980  0.4058  0.5976 -0.3939
   80TMC2    C3 1243   0.543   0.881  12.051  0.1119 -0.2828 -0.3651
   80TMC2    C4 1244   0.316   0.953  11.928 -0.0174 -0.2378 -0.0610
   80TMC2    C5 1245   0.323   0.845  12.004  0.5328 -0.2059 -0.0907
   80TMC2    C6 1246   0.430   0.805  12.067 -0.0232 -0.1023 -0.7420
   80TMC2     C 1247   0.421   1.149  11.848 -0.2482  0.6173  0.3373
   80TMC2     O 1248   0.525   1.211  11.834 -0.0865 -0.2810  0.7092
   80TMC2     H 1249   0.635   1.058  11.960  0.3001  2.4230  4.6144
   80TMC2    H1 1250   0.232   0.967  11.861  0.8582  1.9342 -0.7396
   80TMC2    H2 1251   0.442   0.718  12.130 -2.1340  0.8482  0.9480
   80TMC2    C7 1252   0.203   0.764  12.033  0.7019  0.3706 -0.2186
   80TMC2    C8 1253   0.670   0.850  12.118 -0.1218  0.2571  0.2848
   80TMC2    O1 1254   0.117   0.774  11.945 -0.1583 -0.0451  0.3197
   80TMC2    O2 1255   0.774   0.913  12.097 -0.2268  0.1222 -0.1829
   80TMC2    O5 1256   0.636   0.810  12.246 -0.1866  0.1417 -0.0262
   80TMC2    H5 1257   0.540   0.802  12.267 -0.4321 -0.6265 -1.4545
   81MPD2     C 1258   0.331   1.412  11.726  0.8784 -0.5502 -0.0795
   81MPD2    C1 1259   0.255   1.333  11.813  0.1642  0.5874  0.2055
   81MPD2    C2 1260   0.143   1.378  11.872  0.3115  0.1106 -0.4954
   81MPD2    C3 1261   0.093   1.497  11.832 -0.2024  0.2331 -0.4463
   81MPD2    C4 1262   0.160   1.577  11.747  0.1451  0.0480  0.2862
   81MPD2    C5 1263   0.273   1.530  11.690 -0.5766 -0.5120  0.0752
   81MPD2     H 1264   0.107   1.315  11.952  1.6516 -2.4664 -1.9381
   81MPD2    H1 1265   0.122   1.678  11.731  0.8693 -0.0400 -1.9554
   81MPD2    H2 1266   0.427   1.396  11.679  0.9075 -2.4995  0.6467
   81MPD2    H3 1267   0.327   1.592  11.620 -0.5731  0.6260  1.0921
   81MPD2     N 1268   4.707   1.541  11.903 -0.3301  0.5205  0.3569
   81MPD2    H5 1269   4.671   1.635  11.891  0.0358  0.7355  0.9675
   81MPD2    N1 1270   0.293   1.207  11.858  0.1406 -1.2883 -0.9280
   81MPD2    H7 1271   0.226   1.154  11.913  0.7327 -0.8547  0.2125
   82TMC2    C1 1272   3.043   0.940  10.966  0.0912 -0.4028 -0.1304
   82TMC2    C2 1273   3.140   1.001  11.033  0.2509  0.1288 -0.0485
   82TMC2    C3 1274   3.227   0.926  11.108  0.0126  0.3492  0.7809
   82TMC2    C4 1275   3.041   0.803  10.956 -0.6624 -0.1090  0.2976
   82TMC2    C5 1276   3.122   0.738  11.033  0.0079 -0.0712  0.2044
   82TMC2    C6 1277   3.216   0.790  11.114 -0.1834 -0.2772  0.2079
   82TMC2     C 1278   2.904   1.005  10.966  0.2940  0.8826  0.5837
   82TMC2     O 1279   2.807   0.937  10.932  0.1920 -0.0041  0.0796
   82TMC2     H 1280   3.159   1.108  11.034  1.5054 -0.0950  0.4141
   82TMC2    H1 1281   2.948   0.754  10.927 -0.2621 -2.6990  3.3743
   82TMC2    H2 1282   3.293   0.739  11.172 -1.1356 -1.6911  0.2396
   82TMC2    C7 1283   3.072   0.618  11.085  0.4852 -0.0683  0.5318
   82TMC2    C8 1284   3.342   0.992  11.157  0.4990 -0.5427 -0.2388
   82TMC2    O1 1285   3.084   0.597  11.203  0.7582 -0.1846 -0.5186
   82TMC2    O2 1286   3.391   1.090  11.105  0.3729 -0.1234 -0.9037
   82TMC2    O5 1287   3.362   0.943  11.277 -0.0510  0.4552 -0.2330
   82TMC2    H5 1288   3.288   0.883  11.299  0.5368 -0.1677  0.0400
   83MPD2     C 1289   2.565   1.384  11.078 -0.1793 -0.6113 -0.2391
   83MPD2    C1 1290   2.554   1.246  11.042  0.4389 -0.1771  0.3230
   83MPD2    C2 1291   2.661   1.166  11.029  0.1017 -0.2507 -0.8050
   83MPD2    C3 1292   2.788   1.215  11.032 -1.0718 -0.0615 -0.1678
   83MPD2    C4 1293   2.808   1.343  11.079  0.3027  0.0361  0.0771
   83MPD2    C5 1294   2.698   1.425  11.102 -0.1576 -0.2164  0.7064
   83MPD2     H 1295   2.647   1.061  11.009 -0.8684  0.3057 -3.0716
   83MPD2    H1 1296   2.909   1.381  11.091 -0.3296  1.4408  1.0339
   83MPD2    H2 1297   2.484   1.456  11.084  2.6278  2.5525 -0.2384
   83MPD2    H3 1298   2.702   1.528  11.134  0.1862 -0.3225  1.0055
   83MPD2     N 1299   2.904   1.130  11.021 -0.5116 -1.0681  0.2173
   83MPD2    H5 1300   2.987   1.167  11.065  0.5929 -3.1939 -0.0820
   83MPD2    N1 1301   2.423   1.214  11.003 -0.0880  0.0589 -0.3628
   83MPD2    H7 1302   2.358   1.292  10.994  0.4315  0.7347  1.9131
   84TMC2    C1 1303   3.932   0.036  10.481 -0.1293  0.3429 -0.4394
   84TMC2    C2 1304   3.824   4.704  10.429  0.4899  1.1390  0.1384
   84TMC2    C3 1305   3.819   4.684  10.294  0.6402 -0.0158  0.9388
   84TMC2    C4 1306   4.021   0.100  10.402  0.0914  1.1095 -0.0022
   84TMC2    C5 1307   4.011   0.086  10.264 -0.4454  0.8520  0.2939
   84TMC2    C6 1308   3.911   0.009  10.207  0.8061  0.6568  0.5914
   84TMC2     C 1309   3.955   0.024  10.623 -0.0678 -0.0124  0.5985
   84TMC2     O 1310   3.993   0.121  10.683 -0.2672  0.2554 -0.2894
   84TMC2     H 1311   3.755   4.649  10.491  0.2918 -0.4394 -1.4691
   84TMC2    H1 1312   4.111   0.142  10.445 -0.6802  0.2738  2.4217
   84TMC2    H2 1313   3.906   4.731  10.099 -0.7226  0.4363  0.6846
   84TMC2    C7 1314   4.118   0.128  10.179  0.2005  0.6662 -0.9385
   84TMC2    C8 1315   3.725   4.583  10.239  0.1637 -0.2796  0.1624
   84TMC2    O1 1316   4.092   0.150  10.063  0.2330  0.0568  0.2709
   84TMC2    O2 1317   3.749   4.502  10.150 -0.4404  0.5991 -0.0393
   84TMC2    O5 1318   3.606   4.602  10.293 -0.1162  0.6529 -0.1499
   84TMC2    H5 1319   3.606   4.683  10.348  2.6086  0.5350  0.0319
   85TMC2    C1 1320   0.184   2.621  15.714  0.2156 -0.0615  0.3908
   85TMC2    C2 1321   0.056   2.661  15.731 -0.3252 -0.3698 -0.2371
   85TMC2    C3 1322   0.021   2.774  15.659  0.4450 -0.2982 -0.1126
   85TMC2    C4 1323   0.277   2.693  15.645  0.5176  0.2444 -0.2059
   85TMC2    C5 1324   0.238   2.803  15.578  0.1430  0.0502  0.4307
   85TMC2    C6 1325   0.105   2.849  15.580 -0.3559  0.3230 -0.7187
   85TMC2     C 1326   0.243   2.505  15.789  0.0006  0.3564 -0.5642
   85TMC2     O 1327   0.363   2.502  15.807  0.0856  0.1457 -0.3810
   85TMC2     H 1328   4.722   2.632  15.812 -0.1435  0.0103  0.0505
   85TMC2    H1 1329   0.382   2.665  15.646  0.0395 -1.5507  0.7740
   85TMC2    H2 1330   0.065   2.936  15.530  1.7464  2.7124  1.7447
   85TMC2    C7 1331   0.328   2.841  15.466 -0.2344  0.1345 -0.1284
   85TMC2    C8 1332   4.637   2.842  15.713 -0.0712  0.2182  0.2381
   85TMC2    O1 1333   0.436   2.788  15.463 -0.0307  0.1286  0.6129
   85TMC2    O2 1334   4.533   2.820  15.653 -0.1909 -0.2523 -0.3926
   85TMC2    O5 1335   4.682   2.961  15.750 -0.6191  0.6302  0.3874
   85TMC2    H5 1336   0.047   2.963  15.761 -0.5586 -0.8529  0.0918
   86MPD2     C 1337   0.210   2.068  16.046  0.4911  0.6473 -0.7786
   86MPD2    C1 1338   0.093   2.095  15.986 -0.4145 -0.2656  0.4541
   86MPD2    C2 1339   0.075   2.212  15.909 -0.1402  0.3108 -0.5045
   86MPD2    C3 1340   0.173   2.304  15.908  1.0105 -0.4233 -0.9945
   86MPD2    C4 1341   0.285   2.283  15.976 -0.3361  0.3544  0.6180
   86MPD2    C5 1342   0.306   2.165  16.045  0.3665  0.1443  0.2710
   86MPD2     H 1343   4.710   2.223  15.862 -0.3438 -2.8324 -0.8269
   86MPD2    H1 1344   0.371   2.348  15.982  1.1080 -1.2644 -2.7896
   86MPD2    H2 1345   0.231   1.978  16.103  1.8986 -0.0766 -2.4342
   86MPD2    H3 1346   0.401   2.146  16.094  0.6655 -1.7176 -1.0166
   86MPD2     N 1347   0.149   2.415  15.823 -0.0658 -0.6453  0.8842
   86MPD2    H5 1348   0.053   2.414  15.789  0.8741 -1.3531 -1.7219
   86MPD2    N1 1349   4.716   2.012  15.979 -0.7813  0.3598 -0.0955
   86MPD2    H7 1350   4.651   2.026  15.902 -2.6218  1.7455  1.6959
   87TMC2    C1 1351   2.069   0.611   1.254  0.2178  0.0427 -0.1642
   87TMC2    C2 1352   2.004   0.529   1.340  0.2619  0.5083 -0.6481
   87TMC2    C3 1353   1.875   0.563   1.372  0.3387 -0.0485  0.2803
   87TMC2    C4 1354   2.013   0.725   1.212  0.4616  0.7169 -0.0226
   87TMC2    C5 1355   1.892   0.760   1.257  0.5360  0.4738  0.0878
   87TMC2    C6 1356   1.811   0.684   1.340  0.9076 -0.1265 -0.3157
   87TMC2     C 1357   2.170   0.556   1.156 -0.2112  0.5718 -0.0296
   87TMC2     O 1358   2.169   0.597   1.041  0.0485 -0.2998  1.0183
   87TMC2     H 1359   2.059   0.441   1.371  1.0986  1.4647  0.5953
   87TMC2    H1 1360   2.070   0.793   1.150 -0.1576 -0.5192 -1.9450
   87TMC2    H2 1361   1.720   0.724   1.384  0.4315 -0.4388 -1.0247
   87TMC2    C7 1362   1.840   0.888   1.223  0.4200 -0.5617  0.2884
   87TMC2    C8 1363   1.810   0.492   1.485 -0.0678 -0.1946  0.1301
   87TMC2    O1 1364   1.914   0.975   1.181 -0.5959 -0.1585 -0.2398
   87TMC2    O2 1365   1.742   0.552   1.569 -0.2499 -0.0447 -0.1962
   87TMC2    O5 1366   1.850   0.364   1.488  0.0577 -0.3458 -0.2217
   87TMC2    H5 1367   1.887   0.338   1.401 -0.4311  1.3789 -0.9485
   88MPD2     C 1368   1.503   0.979   1.139 -0.6245 -0.0044  0.1530
   88MPD2    C1 1369   1.633   1.008   1.146 -0.0494  0.1498 -0.3098
   88MPD2    C2 1370   1.686   1.134   1.115  0.2433 -0.0663 -0.7090
   88MPD2    C3 1371   1.601   1.223   1.061  0.0417 -0.5434  0.3555
   88MPD2    C4 1372   1.469   1.192   1.043 -0.1731  0.5723 -0.5882
   88MPD2    C5 1373   1.414   1.073   1.085  0.0360 -0.2614  0.2671
   88MPD2     H 1374   1.790   1.159   1.127  0.7091 -2.5536  0.3325
   88MPD2    H1 1375   1.405   1.267   0.999 -0.1824  0.6939 -0.3665
   88MPD2    H2 1376   1.472   0.878   1.167  0.0594 -0.8380 -2.0968
   88MPD2    H3 1377   1.306   1.061   1.075 -0.2173  1.7445  0.5771
   88MPD2     N 1378   1.655   1.337   0.993 -0.3491 -0.3522  0.1371
   88MPD2    H5 1379   1.596   1.392   0.931  0.9425 -0.1732 -0.9297
   88MPD2    N1 1380   1.708   0.895   1.199 -0.0406  0.5624  1.0342
   88MPD2    H7 1381   1.648   0.816   1.221  1.7731 -0.4724  2.2212
   89TMC2    C1 1382   3.657   4.006   1.790 -0.1669  0.7727 -0.0716
   89TMC2    C2 1383   3.642   4.146   1.793  0.0097  0.3555  0.2261
   89TMC2    C3 1384   3.710   4.211   1.694  0.2417  0.4476  0.5951
   89TMC2    C4 1385   3.729   3.933   1.697  0.3480 -0.2446  0.6091
   89TMC2    C5 1386   3.807   4.012   1.615 -0.1157  0.0060 -0.7978
   89TMC2    C6 1387   3.793   4.149   1.606 -0.3098 -0.0817 -0.3227
   89TMC2     C 1388   3.576   3.934   1.887  0.0245  0.3599  0.1975
   89TMC2     O 1389   3.560   3.996   1.990  0.0362 -0.0103 -0.8163
   89TMC2     H 1390   3.575   4.195   1.862  0.8116 -0.0930  1.3083
   89TMC2    H1 1391   3.758   3.832   1.723  2.0101  0.4132  1.3316
   89TMC2    H2 1392   3.828   4.214   1.526 -1.6997  0.2944 -0.6142
   89TMC2    C7 1393   3.935   3.956   1.573  0.4155  0.4338  0.5972
   89TMC2    C8 1394   3.663   4.339   1.647  0.9760  0.7848 -0.4517
   89TMC2    O1 1395   3.950   3.841   1.596 -0.1781  0.3734  0.4215
   89TMC2    O2 1396   3.743   4.415   1.595 -0.0870  0.5390  0.3138
   89TMC2    O5 1397   3.536   4.322   1.609  0.3406 -0.0630 -0.5447
   89TMC2    H5 1398   3.500   4.234   1.635  0.7322  0.3842  1.5074
   90MPD2     C 1399   3.208   3.604   1.993 -0.4230  0.9272  0.2000
   90MPD2    C1 1400   3.275   3.556   1.884  0.2967 -0.6992 -0.2646
   90MPD2    C2 1401   3.379   3.626   1.832  0.3226 -0.8330  0.2349
   90MPD2    C3 1402   3.423   3.741   1.894 -0.5977 -0.0883  0.4845
   90MPD2    C4 1403   3.360   3.787   2.007  0.4380  0.3570 -0.5509
   90MPD2    C5 1404   3.247   3.723   2.056  0.6741  0.1490 -0.6691
   90MPD2     H 1405   3.426   3.585   1.743  0.2728 -3.2184  1.3109
   90MPD2    H1 1406   3.394   3.874   2.062 -0.7640  0.7486 -0.4393
   90MPD2    H2 1407   3.133   3.542   2.040  0.0208  0.5989  0.4721
   90MPD2    H3 1408   3.205   3.756   2.150  1.3830  0.6127 -0.5150
   90MPD2     N 1409   3.525   3.817   1.835  0.0881 -0.5415  0.5801
   90MPD2    H5 1410   3.560   3.787   1.744  2.5898 -0.5230  1.5513
   90MPD2    N1 1411   3.245   3.428   1.833 -0.3186 -0.0363 -0.2928
   90MPD2    H7 1412   3.306   3.392   1.761 -0.0082 -0.8411  0.3823
   91TMC2    C1 1413   0.725   2.603  16.857 -0.3934  0.8097  0.1356
   91TMC2    C2 1414   0.813   2.601  16.961  0.1343 -1.0824  1.0990
   91TMC2    C3 1415   0.781   2.667  17.073 -0.2026 -0.1894 -0.7418
   91TMC2    C4 1416   0.619   2.686  16.855  0.4200  0.0435 -0.8204
   91TMC2    C5 1417   0.593   2.748  16.970  0.3231 -0.6336  0.7876
   91TMC2    C6 1418   0.666   2.737  17.085  0.0939  0.0153  0.5073
   91TMC2     C 1419   0.778   2.576  16.720 -0.8442 -0.5666 -0.2870
   91TMC2     O 1420   0.839   2.469  16.708 -0.4111 -0.3753 -0.2134
   91TMC2     H 1421   0.891   2.525  16.962  0.1412 -1.0861 -0.1895
   91TMC2    H1 1422   0.547   2.684  16.774 -0.1368 -2.2537 -0.2491
   91TMC2    H2 1423   0.628   2.787  17.173 -0.7468 -1.0881  0.7740
   91TMC2    C7 1424   0.459   2.797  16.994  0.4487  1.2258  0.3062
   91TMC2    C8 1425   0.865   2.665  17.195 -0.4140  0.8462  0.6051
   91TMC2    O1 1426   0.406   2.775  17.101  0.0286 -0.5282 -0.0650
   91TMC2    O2 1427   0.823   2.700  17.305 -0.0501  0.0169  0.0132
   91TMC2    O5 1428   0.982   2.688  17.142 -0.2353 -0.4140  0.6205
   91TMC2    H5 1429   0.983   2.687  17.044  0.6764 -0.1445  0.6204
   92MPD2     C 1430   0.862   2.620  16.430 -0.0186 -0.0158 -0.3818
   92MPD2    C1 1431   0.847   2.716  16.526 -0.1635 -0.3044 -0.1612
   92MPD2    C2 1432   0.888   2.845  16.508 -0.7355 -0.2713 -0.1096
   92MPD2    C3 1433   0.960   2.876  16.392 -0.1388 -0.0444 -0.3278
   92MPD2    C4 1434   0.985   2.777  16.302 -0.4397  0.0950  0.6095
   92MPD2    C5 1435   0.937   2.656  16.321 -0.4720  0.6986 -1.0115
   92MPD2     H 1436   0.875   2.910  16.594 -1.8062  0.1609 -0.5965
   92MPD2    H1 1437   1.053   2.797  16.219  0.4268  1.1792  1.5783
   92MPD2    H2 1438   0.823   2.520  16.444 -1.7616  0.6687 -0.4242
   92MPD2    H3 1439   0.957   2.577  16.249 -0.1108 -0.5363  0.4349
   92MPD2     N 1440   1.035   2.996  16.379 -0.0138 -0.5030  0.2976
   92MPD2    H5 1441   1.111   2.979  16.315 -0.7725  0.7774 -0.9447
   92MPD2    N1 1442   0.777   2.690  16.643  0.4979  0.0524  0.7193
   92MPD2    H7 1443   0.744   2.774  16.690  0.3167  0.7208 -0.5986
   93TMC2    C1 1444   2.134   3.432  13.601  0.9988 -0.2318 -0.6513
   93TMC2    C2 1445   2.137   3.298  13.643 -0.2276  0.5872  0.3481
   93TMC2    C3 1446   2.251   3.261  13.709 -0.0659 -0.0281 -0.2748
   93TMC2    C4 1447   2.231   3.524  13.632  0.1032 -0.7079  0.0627
   93TMC2    C5 1448   2.344   3.485  13.708  0.7349  0.6047 -0.6650
   93TMC2    C6 1449   2.343   3.352  13.752 -0.2401 -0.5867 -0.0060
   93TMC2     C 1450   2.015   3.474  13.526 -0.1263  0.0085  0.6390
   93TMC2     O 1451   2.010   3.588  13.481 -0.0629 -0.4426 -0.6465
   93TMC2     H 1452   2.055   3.228  13.641 -1.6278  2.1751  3.1336
   93TMC2    H1 1453   2.226   3.621  13.585  1.4957 -0.2561  0.8291
   93TMC2    H2 1454   2.429   3.316  13.808  0.4117 -0.3974 -0.8847
   93TMC2    C7 1455   2.470   3.562  13.712 -0.3722 -0.2359 -0.4894
   93TMC2    C8 1456   2.235   3.133  13.777 -0.5109  0.4380 -0.3559
   93TMC2    O1 1457   2.574   3.511  13.748 -0.1871 -0.0256  0.5091
   93TMC2    O2 1458   2.183   3.031  13.731 -0.7976  0.3048 -0.3265
   93TMC2    O5 1459   2.260   3.161  13.908 -0.4040 -0.2801  0.4527
   93TMC2    H5 1460   2.308   3.247  13.912 -0.6233 -0.1121 -0.4471
   94MPD2     C 1461   1.818   3.470  13.318  0.2486 -0.0421  0.2265
   94MPD2    C1 1462   1.800   3.403  13.441  0.5461 -0.1664 -0.2128
   94MPD2    C2 1463   1.674   3.352  13.475 -1.2033  0.1222 -0.4328
   94MPD2    C3 1464   1.557   3.380  13.401  0.7762 -0.6333 -0.6638
   94MPD2    C4 1465   1.575   3.460  13.295 -0.2962 -0.0365 -0.3531
   94MPD2    C5 1466   1.700   3.501  13.257  1.0443  0.1910 -0.2397
   94MPD2     H 1467   1.672   3.289  13.564 -1.5933 -0.2914 -0.7329
   94MPD2    H1 1468   1.487   3.494  13.240 -0.9392  0.4354  0.9727
   94MPD2    H2 1469   1.906   3.518  13.278  0.7626 -0.9489  0.2769
   94MPD2    H3 1470   1.711   3.557  13.165  1.2303 -1.6415 -1.3343
   94MPD2     N 1471   1.426   3.326  13.438  0.2217 -0.4773  0.2674
   94MPD2    H5 1472   1.346   3.360  13.388  0.0820 -0.5040  0.4721
   94MPD2    N1 1473   1.911   3.380  13.525 -0.0842 -0.1938 -0.3701
   94MPD2    H7 1474   1.907   3.301  13.588 -0.1702 -0.2624 -0.4601
   95TMC2    C1 1475   2.302   0.274  15.933 -0.3729  0.3973 -0.0833
   95TMC2    C2 1476   2.254   0.141  15.942  0.3791  0.3578 -0.3016
   95TMC2    C3 1477   2.212   0.094  16.067 -0.1712  0.8085  0.2716
   95TMC2    C4 1478   2.314   0.354  16.051 -0.0142 -0.4456 -0.1606
   95TMC2    C5 1479   2.272   0.298  16.171  0.3055  0.6105 -0.0280
   95TMC2    C6 1480   2.223   0.174  16.177 -0.0796  0.3994 -0.1238
   95TMC2     C 1481   2.366   0.307  15.805 -0.5514 -0.8021  0.2470
   95TMC2     O 1482   2.461   0.382  15.831  0.5389 -0.1537  0.0322
   95TMC2     H 1483   2.258   0.075  15.856  1.0875 -1.0948  0.8273
   95TMC2    H1 1484   2.343   0.458  16.037 -1.5047 -0.3119 -2.3463
   95TMC2    H2 1485   2.187   0.145  16.276 -0.2282  0.6660 -0.1015
   95TMC2    C7 1486   2.296   0.376  16.294 -0.1017  0.2961 -0.4312
   95TMC2    C8 1487   2.147   4.694  16.087  0.2899  0.9272 -0.5452
   95TMC2    O1 1488   2.319   0.494  16.279 -0.0242 -0.0161 -0.1012
   95TMC2    O2 1489   2.050   4.673  16.158  0.5946  0.1355  0.6944
   95TMC2    O5 1490   2.232   4.601  16.043  0.4730 -0.2705  0.0980
   95TMC2    H5 1491   2.305   4.631  15.985  2.0895 -1.9875  1.2568
   96MPD2     C 1492   2.347   0.451  15.325 -1.0738  0.0003  0.5571
   96MPD2    C1 1493   2.436   0.477  15.424  0.5004  0.2572  0.0323
   96MPD2    C2 1494   2.432   0.414  15.543  0.1573 -0.5661  0.2868
   96MPD2    C3 1495   2.336   0.314  15.558 -0.1764  0.2582 -0.3141
   96MPD2    C4 1496   2.257   0.281  15.457 -0.0072 -1.1728 -0.1435
   96MPD2    C5 1497   2.261   0.353  15.337  0.7008 -0.4605  0.2653
   96MPD2     H 1498   2.495   0.449  15.624  1.0854  0.1658 -0.7515
   96MPD2    H1 1499   2.176   0.209  15.465 -1.5349  0.9748  3.6168
   96MPD2    H2 1500   2.351   0.498  15.228  1.7839  0.1474  0.7492
   96MPD2    H3 1501   2.182   0.330  15.266 -0.4340 -0.3982  1.5107
   96MPD2     N 1502   2.301   0.267  15.692 -0.0912 -0.4314  0.5286
   96MPD2    H5 1503   2.214   0.215  15.695 -1.3969  1.6414 -0.9690
   96MPD2    N1 1504   2.528   0.583  15.398  0.0278  0.4971 -0.2886
   96MPD2    H7 1505   2.529   0.611  15.300  0.1375  0.5203 -0.2817
   97TMC2    C1 1506   4.460   2.885   0.357 -0.3261 -0.0881 -0.3141
   97TMC2    C2 1507   4.544   2.896   0.461  0.1446 -0.1942  0.1829
   97TMC2    C3 1508   4.649   2.982   0.448  0.0305  0.6528 -0.1325
   97TMC2    C4 1509   4.482   2.929   0.234 -0.7132  0.5276 -0.1574
   97TMC2    C5 1510   4.597   3.001   0.221  0.7628 -0.4508 -0.4165
   97TMC2    C6 1511   4.678   3.030   0.323  0.0296 -0.1380  0.3459
   97TMC2     C 1512   4.341   2.813   0.400 -0.4158 -0.3371  0.1888
   97TMC2     O 1513   4.312   2.805   0.517  0.4426 -0.7213 -0.7320
   97TMC2     H 1514   4.523   2.850   0.557  2.3152 -0.4336  0.5313
   97TMC2    H1 1515   4.416   2.907   0.151 -0.2467  1.0080 -0.6557
   97TMC2    H2 1516   0.038   3.086   0.313 -0.1074 -0.3800 -2.1132
   97TMC2    C7 1517   4.637   3.067   0.100 -0.2649 -0.5950 -0.0562
   97TMC2    C8 1518   0.005   2.994   0.564 -1.0872  0.1949 -0.6802
   97TMC2    O1 1519   0.024   3.102   0.091 -0.1006  0.4821  0.1860
   97TMC2    O2 1520   4.706   2.944   0.672 -0.2145  0.3771  0.0151
   97TMC2    O5 1521   0.133   3.031   0.526 -0.0053 -0.0944 -0.0221
   97TMC2    H5 1522   0.135   3.087   0.446  2.0173  0.1793  0.2058
   98MPD2     C 1523   4.078   2.371   0.348  0.1276  0.0817  0.3828
   98MPD2    C1 1524   4.081   2.461   0.455  0.1868 -0.0819 -1.2154
   98MPD2    C2 1525   4.155   2.580   0.441 -0.4726  0.0253 -0.0601
   98MPD2    C3 1526   4.224   2.604   0.320  1.0951 -0.4974 -0.4117
   98MPD2    C4 1527   4.215   2.512   0.220 -0.1026  0.0539  0.2947
   98MPD2    C5 1528   4.143   2.396   0.237 -0.1979 -0.2501 -0.0310
   98MPD2     H 1529   4.154   2.654   0.520 -0.8197 -0.6121  0.5351
   98MPD2    H1 1530   4.265   2.529   0.126  0.4753  0.1403  0.6178
   98MPD2    H2 1531   4.017   2.282   0.360  0.7475 -0.6502 -1.8117
   98MPD2    H3 1532   4.137   2.319   0.161 -1.8098 -2.5876  2.4250
   98MPD2     N 1533   4.307   2.718   0.297 -0.2906 -0.5025 -0.0556
   98MPD2    H5 1534   4.349   2.734   0.206 -1.1758 -0.5764 -0.4743
   98MPD2    N1 1535   3.998   2.444   0.560  0.0948 -0.2919 -0.2620
   98MPD2    H7 1536   3.972   2.350   0.587 -0.1200  0.1885  1.2120
   99TMC2    C1 1537   2.921   4.258   2.079  0.6861 -0.2328  0.1748
   99TMC2    C2 1538   2.993   4.291   2.189  0.0347  0.8856 -0.1789
   99TMC2    C3 1539   2.957   4.402   2.266  0.1613  0.5417 -0.3249
   99TMC2    C4 1540   2.808   4.331   2.045 -0.8494 -0.0713 -0.2862
   99TMC2    C5 1541   2.772   4.436   2.124 -0.0986  0.1378  0.2530
   99TMC2    C6 1542   2.847   4.470   2.232  0.4341  0.2375  0.3393
   99TMC2     C 1543   2.942   4.132   2.012 -0.2355 -0.3547 -0.3498
   99TMC2     O 1544   2.974   4.037   2.091  0.0228 -0.3180 -0.1366
   99TMC2     H 1545   3.089   4.241   2.190  0.1602  1.0969 -1.7730
   99TMC2    H1 1546   2.747   4.292   1.964  1.3744 -0.5975 -1.6850
   99TMC2    H2 1547   2.813   4.553   2.294  1.4948  0.8944  0.0364
   99TMC2    C7 1548   2.657   4.517   2.088 -0.6468  0.2997 -0.7027
   99TMC2    C8 1549   3.031   4.444   2.369 -0.8458  0.4090 -0.7886
   99TMC2    O1 1550   2.628   4.616   2.150 -0.9019 -0.1655  0.2431
   99TMC2    O2 1551   3.041   4.561   2.403  0.5680 -0.2825 -0.1004
   99TMC2    O5 1552   3.104   4.337   2.410 -0.1954  0.4450 -0.2639
   99TMC2    H5 1553   3.062   4.253   2.381 -0.4325  0.3682  0.2861
  100MPD2     C 1554   3.079   3.941   1.819 -0.1406  0.1342 -0.1390
  100MPD2    C1 1555   2.999   4.045   1.783  0.4277  0.2197 -0.0203
  100MPD2    C2 1556   2.973   4.053   1.648  0.1432 -0.0793  0.5722
  100MPD2    C3 1557   3.021   3.969   1.551  0.6041  0.3868  0.1159
  100MPD2    C4 1558   3.103   3.869   1.591  0.4637  1.2316 -0.4603
  100MPD2    C5 1559   3.130   3.856   1.723 -0.3313 -0.0928 -0.2827
  100MPD2     H 1560   2.907   4.135   1.618  0.6694  0.0798 -0.1407
  100MPD2    H1 1561   3.132   3.790   1.522 -0.3549  2.1678 -1.8657
  100MPD2    H2 1562   3.121   3.925   1.917 -0.9113 -0.0903  0.1542
  100MPD2    H3 1563   3.189   3.773   1.761 -2.3709 -1.4949 -0.1411
  100MPD2     N 1564   2.953   3.978   1.423  1.1501  0.2105 -0.1200
  100MPD2    H5 1565   2.913   4.067   1.394  0.8337 -0.3782 -1.4972
  100MPD2    N1 1566   2.943   4.134   1.878 -0.6141  0.8367  0.7874
  100MPD2    H7 1567   2.915   4.224   1.840 -0.1064  0.2174 -1.0464
  101TMC2    C1 1568   3.598   1.190  13.010  0.2869  0.7690 -0.0431
  101TMC2    C2 1569   3.517   1.239  13.108  0.0352 -0.2045 -0.1235
  101TMC2    C3 1570   3.491   1.371  13.115 -0.1133  0.7850  0.1339
  101TMC2    C4 1571   3.645   1.273  12.908  0.6595 -0.2156  0.2335
  101TMC2    C5 1572   3.616   1.411  12.920 -0.7051 -0.2706  0.1248
  101TMC2    C6 1573   3.530   1.455  13.015  0.3688 -0.3164 -0.2640
  101TMC2     C 1574   3.618   1.051  12.988  0.2400 -0.2276  0.9449
  101TMC2     O 1575   3.594   0.981  13.087 -0.2182  0.0854  0.1511
  101TMC2     H 1576   3.483   1.170  13.184 -0.6686  1.8362  1.4298
  101TMC2    H1 1577   3.727   1.234  12.848 -0.3745 -0.9831 -0.6672
  101TMC2    H2 1578   3.502   1.559  13.027 -0.5426 -0.4945 -0.8512
  101TMC2    C7 1579   3.700   1.497  12.833 -0.3308  0.0981  0.7074
  101TMC2    C8 1580   3.373   1.401  13.195  0.7326  0.0229  0.0036
  101TMC2    O1 1581   3.795   1.443  12.781 -0.5950  0.2103  0.3729
  101TMC2    O2 1582   3.295   1.470  13.139 -0.2768  0.2044 -0.6446
  101TMC2    O5 1583   3.433   1.425  13.313  0.3117 -0.5670  0.0604
  101TMC2    H5 1584   3.512   1.372  13.335 -0.4053 -1.4693  0.4569
  102MPD2     C 1585   3.683   0.870  12.687  0.0151 -0.6503 -0.1837
  102MPD2    C1 1586   3.672   0.889  12.822 -0.1956 -0.0950 -0.1285
  102MPD2    C2 1587   3.695   0.781  12.909  0.3884  0.6749 -0.0108
  102MPD2    C3 1588   3.702   0.648  12.863 -0.4000 -0.3481  0.0522
  102MPD2    C4 1589   3.699   0.634  12.722 -0.2824  0.4838  1.0739
  102MPD2    C5 1590   3.697   0.742  12.637 -0.1218  0.8219  0.2692
  102MPD2     H 1591   3.710   0.793  13.015  1.6905 -0.0134 -0.1123
  102MPD2    H1 1592   3.694   0.534  12.680 -1.4594  0.8496  0.3466
  102MPD2    H2 1593   3.665   0.951  12.617  0.6125  1.4667  2.0980
  102MPD2    H3 1594   3.676   0.727  12.532  1.2896 -1.0400  0.2532
  102MPD2     N 1595   3.705   0.542  12.955  0.0771 -0.1183 -0.4152
  102MPD2    H5 1596   3.762   0.464  12.924  0.2561 -0.2947  0.3721
  102MPD2    N1 1597   3.642   1.019  12.857 -0.2413  0.0927 -0.5728
  102MPD2    H7 1598   3.631   1.083  12.779 -0.3391 -0.6142 -1.1358
  103TMC2    C1 1599   1.848   1.414  11.973 -0.2679 -0.6411 -0.9162
  103TMC2    C2 1600   1.981   1.434  11.973 -0.7858  1.4837  0.8976
  103TMC2    C3 1601   2.045   1.441  12.095  0.1301  0.1222 -0.4375
  103TMC2    C4 1602   1.778   1.412  12.089  1.1200 -0.5724  0.1184
  103TMC2    C5 1603   1.848   1.425  12.209  0.7052 -0.2250  0.9424
  103TMC2    C6 1604   1.983   1.448  12.212  0.2864 -0.8733 -0.5419
  103TMC2     C 1605   1.772   1.424  11.848  1.0473 -0.4630  0.4503
  103TMC2     O 1606   1.668   1.361  11.843 -0.9771 -0.8109  0.0031
  103TMC2     H 1607   2.031   1.452  11.879  0.8553 -2.2893  1.0385
  103TMC2    H1 1608   1.673   1.384  12.086  0.9512 -0.0889  1.1882
  103TMC2    H2 1609   2.033   1.474  12.305  1.2880 -0.9456 -1.0642
  103TMC2    C7 1610   1.771   1.455  12.331 -0.6892  0.5573 -0.0270
  103TMC2    C8 1611   2.188   1.473  12.095 -1.0733 -0.6999  0.1406
  103TMC2    O1 1612   1.841   1.481  12.431 -0.5408  0.9547 -0.7945
  103TMC2    O2 1613   2.254   1.519  12.000  0.3301  0.1381 -0.1762
  103TMC2    O5 1614   2.240   1.431  12.212  0.3352 -0.1676  0.5435
  103TMC2    H5 1615   2.184   1.378  12.273  0.2980  2.1179  2.4980
  104MPD2     C 1616   1.816   1.601  11.529  0.0115  0.2610 -0.6337
  104MPD2    C1 1617   1.754   1.553  11.646 -0.0129 -0.3841 -0.0537
  104MPD2    C2 1618   1.614   1.553  11.646  0.6714  1.2972  0.1871
  104MPD2    C3 1619   1.540   1.602  11.543 -0.2009  0.6430 -0.5580
  104MPD2    C4 1620   1.604   1.648  11.431  0.2245  0.1054 -0.0275
  104MPD2    C5 1621   1.741   1.645  11.423  0.0978  0.2715  0.5806
  104MPD2     H 1622   1.561   1.517  11.733  2.7658  0.8510  1.2835
  104MPD2    H1 1623   1.547   1.682  11.346  0.4448  0.3625 -0.0708
  104MPD2    H2 1624   1.923   1.599  11.513  0.1457  0.7452  0.1791
  104MPD2    H3 1625   1.793   1.681  11.334 -1.2946 -1.0468 -0.7491
  104MPD2     N 1626   1.397   1.595  11.561 -0.2260 -0.1498 -0.0589
  104MPD2    H5 1627   1.358   1.543  11.639  2.3616 -0.1565  1.2140
  104MPD2    N1 1628   1.827   1.488  11.749  0.3355 -0.0832 -0.4551
  104MPD2    H7 1629   1.924   1.515  11.760  0.2874 -1.0336  2.3766
  105TMC2    C1 1630   2.767   0.373   0.398  0.3082  0.1245  0.7288
  105TMC2    C2 1631   2.688   0.460   0.338  0.0772 -0.3546 -0.3255
  105TMC2    C3 1632   2.597   0.521   0.418 -0.1693 -0.2007 -0.2677
  105TMC2    C4 1633   2.766   0.349   0.534 -1.0066 -0.2605 -0.5075
  105TMC2    C5 1634   2.670   0.407   0.608  0.4199  0.7952  0.1209
  105TMC2    C6 1635   2.582   0.492   0.550 -0.0249 -0.1414 -0.0227
  105TMC2     C 1636   2.862   0.301   0.323  0.3724  0.1562  0.0901
  105TMC2     O 1637   2.880   0.184   0.361  0.2919  0.4747  0.3416
  105TMC2     H 1638   2.679   0.463   0.230 -0.1796 -0.3518 -0.3045
  105TMC2    H1 1639   2.836   0.278   0.577 -1.5955 -0.8012 -0.4564
  105TMC2    H2 1640   2.514   0.548   0.614 -1.7329  0.4056 -2.3141
  105TMC2    C7 1641   2.674   0.377   0.750  0.7310  0.4116  0.1771
  105TMC2    C8 1642   2.510   0.627   0.365  0.0928 -0.2663  0.3626
  105TMC2    O1 1643   2.772   0.314   0.781  0.2990 -0.0590 -0.2130
  105TMC2    O2 1644   2.549   0.704   0.277  0.4251  0.1978 -0.2121
  105TMC2    O5 1645   2.378   0.596   0.390  0.4237 -0.2585 -0.1355
  105TMC2    H5 1646   2.375   0.529   0.461  1.1805 -1.1240 -0.9333
  106MPD2     C 1647   3.139   0.213  17.641 -0.8552 -0.2719 -0.4669
  106MPD2    C1 1648   3.113   0.344  17.659 -0.2903  0.2106  0.4998
  106MPD2    C2 1649   3.043   0.397   0.027 -0.4280  0.3640 -0.2989
  106MPD2    C3 1650   2.987   0.309   0.121 -0.1237  0.3801  0.9241
  106MPD2    C4 1651   3.025   0.175   0.117  1.1260  0.1447 -0.7102
  106MPD2    C5 1652   3.111   0.132   0.020 -0.0563  0.0287  0.2927
  106MPD2     H 1653   3.008   0.498   0.016 -1.3978  0.0711  0.0684
  106MPD2    H1 1654   3.003   0.103   0.194  0.8152 -1.6935 -2.4972
  106MPD2    H2 1655   3.212   0.167  17.576 -0.0503 -1.4606  1.2638
  106MPD2    H3 1656   3.132   0.026   0.006 -1.6619 -0.1396 -0.7674
  106MPD2     N 1657   2.896   0.370   0.209  0.7958  0.2934  0.1849
  106MPD2    H5 1658   2.867   0.468   0.212 -0.1629  0.0233 -0.1470
  106MPD2    N1 1659   3.164   0.438  17.562  0.5055  0.2367  0.4230
  106MPD2    H7 1660   3.135   0.534  17.576  0.7296  0.4646 -0.6388
  107TMC2    C1 1661   3.738   0.298  11.496 -0.1844  0.0813 -0.8667
  107TMC2    C2 1662   3.803   0.405  11.444  0.5102  0.0586  0.4458
  107TMC2    C3 1663   3.903   0.387  11.355 -0.5050 -0.4594  0.6071
  107TMC2    C4 1664   3.783   0.176  11.450  0.6992 -0.6256  0.3479
  107TMC2    C5 1665   3.854   0.168  11.337 -0.4393 -0.6008  0.1094
  107TMC2    C6 1666   3.918   0.273  11.291  0.0061 -0.2714 -0.1563
  107TMC2     C 1667   3.720   0.302  11.643 -0.4201 -0.0884  0.1086
  107TMC2     O 1668   3.625   0.366  11.687  0.2252 -0.5399  0.2434
  107TMC2     H 1669   3.789   0.502  11.492 -2.5584  0.1599 -0.6111
  107TMC2    H1 1670   3.740   0.086  11.494 -0.9910 -0.5561 -1.1582
  107TMC2    H2 1671   3.974   0.262  11.199 -0.8905 -0.8902 -0.6262
  107TMC2    C7 1672   3.873   0.043  11.278  0.4282  0.7044  0.5696
  107TMC2    C8 1673   3.948   0.509  11.282 -0.7889  0.3953 -0.1416
  107TMC2    O1 1674   3.847   4.672  11.334 -0.2573 -0.1451 -0.5438
  107TMC2    O2 1675   3.884   0.610  11.269  0.3995 -0.3357  0.2839
  107TMC2    O5 1676   4.072   0.490  11.233  0.3270  0.5767 -0.3141
  107TMC2    H5 1677   4.113   0.406  11.260  0.0994  0.4152 -0.4759
  108MPD2     C 1678   3.969   0.199  11.892 -0.0717  0.3706  0.0493
  108MPD2    C1 1679   3.838   0.230  11.849  0.1629  0.5591  0.1505
  108MPD2    C2 1680   3.742   0.254  11.942 -0.5078 -0.9210 -0.2413
  108MPD2    C3 1681   3.771   0.280  12.071  0.0746  0.1390 -0.2444
  108MPD2    C4 1682   3.901   0.255  12.118  0.1484 -0.1277 -0.5927
  108MPD2    C5 1683   3.996   0.211  12.026  0.2067 -0.6189 -0.2035
  108MPD2     H 1684   3.645   0.280  11.904 -0.8058 -1.3639  0.2087
  108MPD2    H1 1685   3.924   0.258  12.223 -0.7952  0.5433 -0.4103
  108MPD2    H2 1686   4.043   0.154  11.827  0.9514 -1.0612  2.2185
  108MPD2    H3 1687   4.090   0.185  12.072  0.9368  0.5737 -1.0063
  108MPD2     N 1688   3.676   0.312  12.174  0.4000  0.4824 -0.2565
  108MPD2    H5 1689   3.704   0.304  12.272 -0.1915  1.1087 -0.0375
  108MPD2    N1 1690   3.815   0.231  11.708  0.0203  0.1936  0.3346
  108MPD2    H7 1691   3.880   0.187  11.644 -1.3585 -1.3540 -0.0066
  109TMC2    C1 1692   3.073   1.646   0.242  0.3718 -0.4046  0.2161
  109TMC2    C2 1693   3.139   1.576   0.143 -0.1269  0.2762  0.2336
  109TMC2    C3 1694   3.270   1.610   0.123 -0.2002 -0.6880  0.4815
  109TMC2    C4 1695   3.132   1.744   0.319  0.0744  0.3014  0.1906
  109TMC2    C5 1696   3.261   1.778   0.283  0.4183 -0.3747  0.6581
  109TMC2    C6 1697   3.341   1.701   0.198 -0.8584  0.4642 -0.3060
  109TMC2     C 1698   2.936   1.607   0.275  0.8113 -0.6316  0.7634
  109TMC2     O 1699   2.862   1.574   0.183 -0.6455  0.2833  0.0676
  109TMC2     H 1700   3.085   1.504   0.082 -0.1764  0.6608 -0.1831
  109TMC2    H1 1701   3.076   1.810   0.385  0.4538 -0.2054  1.0213
  109TMC2    H2 1702   3.443   1.727   0.175 -0.3135 -2.5845 -1.2943
  109TMC2    C7 1703   3.326   1.858   0.386 -0.4469 -1.0104 -0.6109
  109TMC2    C8 1704   3.346   1.565   0.008 -0.2334  0.3317  0.2793
  109TMC2    O1 1705   3.427   1.917   0.353 -1.2951  0.0990  0.2882
  109TMC2    O2 1706   3.371   1.447  17.705  0.2611  0.3076 -0.2393
  109TMC2    O5 1707   3.346   1.673  17.652 -0.2535 -0.8415 -0.3601
  109TMC2    H5 1708   3.293   1.749  17.686  0.9487 -0.2432  0.1808
  110MPD2     C 1709   2.584   1.595   0.651 -0.9712  0.1253 -0.7617
  110MPD2    C1 1710   2.696   1.657   0.696  0.5867 -0.2890 -0.2231
  110MPD2    C2 1711   2.803   1.667   0.609  0.7128  0.2356  0.2310
  110MPD2    C3 1712   2.794   1.618   0.484  0.6057 -0.0092 -0.6425
  110MPD2    C4 1713   2.681   1.554   0.441  0.3842 -0.0194 -0.6072
  110MPD2    C5 1714   2.587   1.536   0.533 -0.0734 -0.2482  0.4895
  110MPD2     H 1715   2.897   1.705   0.647  1.3158 -1.0374  0.0089
  110MPD2    H1 1716   2.672   1.513   0.341 -0.1538 -0.0444 -0.5491
  110MPD2    H2 1717   2.496   1.580   0.711 -0.9182 -1.9510 -1.1857
  110MPD2    H3 1718   2.509   1.464   0.510 -0.6321  0.4502  0.2115
  110MPD2     N 1719   2.911   1.628   0.409 -0.2206  0.1394  0.0051
  110MPD2    H5 1720   2.995   1.667   0.452 -0.3552 -1.0219  1.3166
  110MPD2    N1 1721   2.696   1.691   0.833 -0.9535 -0.2195  0.1863
  110MPD2    H7 1722   2.611   1.669   0.885 -2.2575  1.7883 -1.0704
  111TMC2    C1 1723   3.561   2.360  11.936 -0.1613 -0.0153 -0.1346
  111TMC2    C2 1724   3.459   2.329  12.031  0.3915 -0.3370 -0.2606
  111TMC2    C3 1725   3.468   2.214  12.098 -0.3562  0.2421  0.5999
  111TMC2    C4 1726   3.672   2.281  11.922  0.0062 -0.2387 -0.6436
  111TMC2    C5 1727   3.676   2.165  11.992 -0.5619 -0.3658 -0.3351
  111TMC2    C6 1728   3.578   2.134  12.077  0.4196 -0.4720 -0.4147
  111TMC2     C 1729   3.560   2.488  11.864 -0.0797  0.0670  0.1927
  111TMC2     O 1730   3.612   2.480  11.756 -0.0010 -0.1434  0.3387
  111TMC2     H 1731   3.379   2.401  12.047  1.0698  0.3563  0.0177
  111TMC2    H1 1732   3.751   2.315  11.855 -0.7156 -0.0579 -1.4035
  111TMC2    H2 1733   3.579   2.034  12.119  1.1667 -0.3659 -0.1697
  111TMC2    C7 1734   3.802   2.102  12.011  0.0213 -0.3114 -0.2024
  111TMC2    C8 1735   3.391   2.203  12.229 -0.2366  0.4491  0.0782
  111TMC2    O1 1736   3.803   2.023  12.103  0.2999  0.7266 -0.6607
  111TMC2    O2 1737   3.294   2.278  12.254 -0.6730  0.0805  0.2676
  111TMC2    O5 1738   3.484   2.159  12.314 -0.1945 -0.4043  0.7551
  111TMC2    H5 1739   3.563   2.120  12.272  0.0269  2.5768 -1.6114
  112MPD2     C 1740   3.423   2.977  11.818  0.3375  0.0311 -0.5096
  112MPD2    C1 1741   3.451   2.885  11.717  0.2193 -0.0727 -0.6346
  112MPD2    C2 1742   3.484   2.753  11.761 -0.3265  0.8748  0.6938
  112MPD2    C3 1743   3.475   2.723  11.896 -0.0542 -0.1128 -0.5400
  112MPD2    C4 1744   3.436   2.811  11.990  0.3471  0.1638  0.6697
  112MPD2    C5 1745   3.406   2.934  11.944  0.6056 -0.1182  0.8004
  112MPD2     H 1746   3.500   2.678  11.684 -1.2512 -0.1010  1.4610
  112MPD2    H1 1747   3.432   2.787  12.096 -1.1367 -1.4020  0.2584
  112MPD2    H2 1748   3.399   3.081  11.794 -0.1950  0.5645  2.2790
  112MPD2    H3 1749   3.385   3.015  12.012 -2.1962 -1.4424  1.5114
  112MPD2     N 1750   3.509   2.593  11.945  0.4243  0.3971 -0.6739
  112MPD2    H5 1751   3.500   2.577  12.045  1.3057  3.0980 -0.1834
  112MPD2    N1 1752   3.451   2.912  11.581  0.2114  0.2236  0.2970
  112MPD2    H7 1753   3.488   2.840  11.520  0.4568 -0.1905  0.9363
  113TMC2    C1 1754   1.986   4.375   0.368  0.4079 -0.7449 -0.1638
  113TMC2    C2 1755   1.861   4.430   0.351 -0.5294  0.0315  0.2651
  113TMC2    C3 1756   1.754   4.347   0.326 -0.2875  0.3623  0.3752
  113TMC2    C4 1757   2.008   4.247   0.336 -0.4371  0.3874  0.3755
  113TMC2    C5 1758   1.900   4.174   0.304  0.0061 -0.2727 -0.2031
  113TMC2    C6 1759   1.773   4.213   0.301 -0.0936  0.1974  0.3734
  113TMC2     C 1760   2.053   4.433   0.486 -0.9172  0.6712  0.7997
  113TMC2     O 1761   2.015   4.546   0.517 -0.4957  0.2177  0.0098
  113TMC2     H 1762   1.851   4.535   0.374  0.0562  0.9628 -3.7831
  113TMC2    H1 1763   2.106   4.200   0.337 -1.0234 -0.8326 -0.2004
  113TMC2    H2 1764   1.683   4.160   0.268 -0.5039  0.3950  1.1777
  113TMC2    C7 1765   1.912   4.037   0.345 -0.0211 -0.5573 -0.3749
  113TMC2    C8 1766   1.646   4.426   0.271  0.8339 -0.3625  0.4574
  113TMC2    O1 1767   2.014   3.976   0.314  0.0023  0.4372  0.4922
  113TMC2    O2 1768   1.667   4.525   0.194 -0.4364 -0.6379  0.6890
  113TMC2    O5 1769   1.539   4.344   0.279  0.8972 -0.1361 -0.4941
  113TMC2    H5 1770   1.550   4.286   0.357  0.1940  2.7955  1.7836
  114MPD2     C 1771   2.425   4.410   0.836 -0.0652  0.8372 -0.1164
  114MPD2    C1 1772   2.320   4.508   0.827  0.4577  0.2180 -0.5062
  114MPD2    C2 1773   2.234   4.505   0.719  0.5430 -0.0330  0.1834
  114MPD2    C3 1774   2.248   4.399   0.624 -0.9620  0.6096  0.3207
  114MPD2    C4 1775   2.353   4.310   0.639  0.4941  0.0177  0.4310
  114MPD2    C5 1776   2.446   4.322   0.732  0.4573 -0.6230  0.2669
  114MPD2     H 1777   2.158   4.581   0.703 -0.2701 -0.6982  0.8820
  114MPD2    H1 1778   2.357   4.226   0.572 -0.3443  0.1713  0.1814
  114MPD2    H2 1779   2.490   4.403   0.922 -0.0396 -0.7393 -0.2651
  114MPD2    H3 1780   2.514   4.240   0.752  0.9652 -0.5024 -0.9981
  114MPD2     N 1781   2.168   4.364   0.519  0.2250 -0.5210 -0.0604
  114MPD2    H5 1782   2.202   4.287   0.463  0.8725  2.5804 -3.9603
  114MPD2    N1 1783   2.302   4.609   0.929 -0.3493  0.3127  0.4880
  114MPD2    H7 1784   2.229   4.679   0.917  0.5075  1.0383 -0.4173
  115TMC2    C1 1785   3.009   2.662   0.400  0.4212 -0.3260 -0.3319
  115TMC2    C2 1786   3.045   2.672   0.528  0.6420 -0.1131 -0.1461
  115TMC2    C3 1787   3.044   2.803   0.573  0.1838 -0.2770  1.0486
  115TMC2    C4 1788   2.981   2.763   0.317  0.3699  0.0345 -0.0721
  115TMC2    C5 1789   2.981   2.888   0.365  0.2154 -0.2301 -0.2080
  115TMC2    C6 1790   3.011   2.914   0.500  0.7046  0.4619  0.0173
  115TMC2     C 1791   2.940   2.540   0.367 -0.4626 -0.1572 -1.0023
  115TMC2     O 1792   2.955   2.502   0.252  0.1123  0.8679  0.0726
  115TMC2     H 1793   3.076   2.588   0.589 -0.3328  1.0786  2.0092
  115TMC2    H1 1794   2.936   2.758   0.218  1.0511 -0.5422 -0.3541
  115TMC2    H2 1795   3.039   3.014   0.531 -0.4304  0.3818  1.2842
  115TMC2    C7 1796   2.900   2.995   0.309 -0.7654  0.5769 -0.1062
  115TMC2    C8 1797   3.158   2.827   0.659  0.2493  1.2483  0.5830
  115TMC2    O1 1798   2.830   3.056   0.390 -0.6784 -0.4968 -0.4181
  115TMC2    O2 1799   3.240   2.913   0.634 -0.3057 -0.5075 -0.2775
  115TMC2    O5 1800   3.142   2.754   0.774  0.2832 -0.2319 -0.4785
  115TMC2    H5 1801   3.064   2.696   0.757  0.8931 -0.9985 -0.6608
  116MPD2     C 1802   2.548   2.227   0.452 -0.0716 -0.0942  0.1879
  116MPD2    C1 1803   2.611   2.253   0.335  0.0932 -0.0476 -0.1248
  116MPD2    C2 1804   2.726   2.325   0.345  0.2063 -0.1303 -0.2137
  116MPD2    C3 1805   2.775   2.379   0.464  0.1916 -0.6317 -0.2043
  116MPD2    C4 1806   2.708   2.364   0.580 -0.0492  0.4686  0.0107
  116MPD2    C5 1807   2.600   2.274   0.573  0.1481  0.2437  0.4715
  116MPD2     H 1808   2.779   2.364   0.259  1.1507 -0.5974  0.1571
  116MPD2    H1 1809   2.735   2.423   0.667 -0.2361 -0.0724  0.4354
  116MPD2    H2 1810   2.457   2.168   0.451 -0.8296  0.9777  4.1030
  116MPD2    H3 1811   2.533   2.264   0.657 -0.8593  0.2957 -0.3187
  116MPD2     N 1812   2.869   2.485   0.474 -0.0485 -0.0381 -0.8050
  116MPD2    H5 1813   2.872   2.524   0.567  1.2404 -0.9588 -0.4631
  116MPD2    N1 1814   2.560   2.184   0.226 -0.7281 -0.2171 -0.2526
  116MPD2    H7 1815   2.460   2.168   0.232 -0.7805  0.5504  0.7669
  117TMC2    C1 1816   1.469   3.919  13.834  0.7232  0.3190 -1.4570
  117TMC2    C2 1817   1.554   3.817  13.866 -0.1522 -0.6883 -0.2784
  117TMC2    C3 1818   1.672   3.859  13.928  0.4112  0.5983 -0.5396
  117TMC2    C4 1819   1.478   4.048  13.878  0.3721 -0.2413 -0.2177
  117TMC2    C5 1820   1.598   4.078  13.940 -0.0259  0.2414 -0.1319
  117TMC2    C6 1821   1.703   3.988  13.967  0.3472  0.3102  1.1952
  117TMC2     C 1822   1.363   3.868  13.752 -0.3475  0.1736 -0.1174
  117TMC2     O 1823   1.323   3.755  13.767  0.3453 -0.2006 -0.1987
  117TMC2     H 1824   1.547   3.711  13.845 -1.3632 -0.0516 -3.1871
  117TMC2    H1 1825   1.407   4.126  13.853  1.0754  0.9591  1.5042
  117TMC2    H2 1826   1.800   4.022  14.002 -0.2035  1.2096  1.8430
  117TMC2    C7 1827   1.611   4.217  13.981 -0.2644 -0.0398 -0.2460
  117TMC2    C8 1828   1.777   3.756  13.941  0.1254  0.0522 -0.1766
  117TMC2    O1 1829   1.726   4.263  13.988 -0.2045 -0.5313 -0.3309
  117TMC2    O2 1830   1.805   3.735  14.060  0.2158  0.0382  0.1237
  117TMC2    O5 1831   1.776   3.674  13.839  0.5139  0.0101 -0.3098
  117TMC2    H5 1832   1.748   3.722  13.758 -2.1405  0.8440  1.0934
  118MPD2     C 1833   1.370   4.404  14.188  0.4748  0.4702 -0.2299
  118MPD2    C1 1834   1.487   4.385  14.107  0.5157 -0.2094  0.4989
  118MPD2    C2 1835   1.588   4.482  14.112  0.2974 -0.5080 -0.3117
  118MPD2    C3 1836   1.565   4.594  14.193 -0.1778 -0.2930 -0.0777
  118MPD2    C4 1837   1.451   4.616  14.269  0.1241  0.3906  0.9357
  118MPD2    C5 1838   1.354   4.518  14.263 -0.7909  0.6265  0.3914
  118MPD2     H 1839   1.672   4.477  14.045  0.4406 -0.1778 -0.1586
  118MPD2    H1 1840   1.433   4.714  14.312 -1.5939  0.4652  0.0607
  118MPD2    H2 1841   1.298   4.324  14.201  0.8089 -0.1058 -1.8544
  118MPD2    H3 1842   1.263   4.516  14.322 -1.7875 -0.0904 -1.1734
  118MPD2     N 1843   1.659   4.704  14.195 -0.2439  0.1343 -0.3371
  118MPD2    H5 1844   1.626   0.063  14.223 -1.4802 -0.4599  0.1401
  118MPD2    N1 1845   1.495   4.266  14.035  0.1222 -0.0154 -0.0819
  118MPD2    H7 1846   1.418   4.200  14.032 -0.0640  0.1950  0.1114
  119TMC2    C1 1847   4.541   0.153  13.219  0.0412  0.1830 -0.3929
  119TMC2    C2 1848   4.676   0.159  13.248  0.3163  0.8785  0.4781
  119TMC2    C3 1849   0.003   0.037  13.278 -0.1767  0.3479  0.5869
  119TMC2    C4 1850   4.476   0.036  13.212  0.0948 -0.5499  0.1923
  119TMC2    C5 1851   4.535   4.648  13.253  0.2043  0.6799  0.0597
  119TMC2    C6 1852   4.667   4.647  13.290 -0.0143 -0.5001  0.2319
  119TMC2     C 1853   4.463   0.269  13.228  0.2495  0.5462 -0.4158
  119TMC2     O 1854   4.344   0.250  13.256 -0.1290  0.4358 -0.3509
  119TMC2     H 1855   4.728   0.254  13.258  1.3766  0.4778 -1.2441
  119TMC2    H1 1856   4.372   0.037  13.182  0.5786  3.8593 -1.3514
  119TMC2    H2 1857   4.709   4.556  13.331 -2.2499 -0.6243  2.2932
  119TMC2    C7 1858   4.453   4.534  13.283 -0.4546 -0.3656 -0.2646
  119TMC2    C8 1859   0.136   0.020  13.345 -0.1953 -0.1367 -0.4727
  119TMC2    O1 1860   4.513   4.426  13.292 -0.5188 -1.0546 -0.0743
  119TMC2    O2 1861   0.152   4.675  13.435  0.0204  0.3369  0.1493
  119TMC2    O5 1862   0.191   0.148  13.331  0.3793 -0.3964  0.3035
  119TMC2    H5 1863   0.176   0.186  13.242  0.1366 -0.7075  0.2096
  120MPD2     C 1864   4.425   0.771  13.253 -0.4046 -0.7469  0.1894
  120MPD2    C1 1865   4.325   0.671  13.248  0.1903 -0.7279  0.7882
  120MPD2    C2 1866   4.360   0.542  13.229  0.1717  0.3172 -0.0551
  120MPD2    C3 1867   4.495   0.516  13.219 -0.3795  0.5669  0.4582
  120MPD2    C4 1868   4.593   0.614  13.214  0.9990 -0.2530  0.4752
  120MPD2    C5 1869   4.558   0.739  13.240  0.5710  0.0932 -1.0391
  120MPD2     H 1870   4.292   0.461  13.249  0.6568 -0.3110 -0.9131
  120MPD2    H1 1871   4.699   0.592  13.200  0.8519  0.1399 -1.2184
  120MPD2    H2 1872   4.401   0.875  13.272 -1.2684 -0.9158  0.0334
  120MPD2    H3 1873   4.629   0.819  13.257 -2.0775  1.9399  1.1682
  120MPD2     N 1874   4.539   0.385  13.207  0.0010  0.5557  0.2752
  120MPD2    H5 1875   4.638   0.392  13.183 -0.2161  2.1253 -0.1189
  120MPD2    N1 1876   4.190   0.703  13.281  0.0539 -0.5483 -0.5120
  120MPD2    H7 1877   4.176   0.790  13.332  0.3842 -1.4435  1.1218
  121TMC2    C1 1878   1.154   2.592  14.096  0.0615  0.1501  0.2638
  121TMC2    C2 1879   1.285   2.598  14.090 -0.0086  0.0824 -0.7924
  121TMC2    C3 1880   1.355   2.522  14.186  0.3496 -0.2052  1.2370
  121TMC2    C4 1881   1.089   2.515  14.190  0.0801 -0.2001 -0.2188
  121TMC2    C5 1882   1.166   2.444  14.280 -0.2470  0.3712  0.3375
  121TMC2    C6 1883   1.304   2.432  14.271  0.1579 -0.1895  0.2897
  121TMC2     C 1884   1.065   2.676  14.019 -0.5216 -0.2915 -0.2888
  121TMC2     O 1885   0.945   2.686  14.045  0.0175 -0.2215 -0.0911
  121TMC2     H 1886   1.347   2.664  14.030 -1.1262  2.8068  1.0762
  121TMC2    H1 1887   0.982   2.525  14.200  0.4499  0.7929  2.8584
  121TMC2    H2 1888   1.361   2.376  14.344 -1.1309 -2.3893 -0.3903
  121TMC2    C7 1889   1.100   2.328  14.341  0.3922 -0.4725  0.7641
  121TMC2    C8 1890   1.499   2.541  14.180 -0.2777  0.1063 -0.5019
  121TMC2    O1 1891   1.158   2.271  14.432  0.8063  0.7233 -0.4568
  121TMC2    O2 1892   1.556   2.643  14.151 -0.0018 -0.3152  0.1741
  121TMC2    O5 1893   1.557   2.423  14.196 -0.4051 -1.1013  0.1522
  121TMC2    H5 1894   1.485   2.356  14.199 -0.9855 -0.5120 -1.0110
  122MPD2     C 1895   0.954   2.864  13.818  0.5209  0.3113  0.2562
  122MPD2    C1 1896   1.078   2.803  13.812 -0.4967 -0.2299 -0.3790
  122MPD2    C2 1897   1.163   2.815  13.700 -0.4849 -0.1361  0.4635
  122MPD2    C3 1898   1.120   2.883  13.588 -0.1817  0.3369 -0.1758
  122MPD2    C4 1899   0.992   2.939  13.591  0.0166 -0.0703  0.0348
  122MPD2    C5 1900   0.919   2.934  13.706 -0.3180 -0.4760  0.1017
  122MPD2     H 1901   1.264   2.777  13.705 -0.5108 -0.0358  1.7543
  122MPD2    H1 1902   0.954   2.992  13.505  1.2457  1.4433  0.4164
  122MPD2    H2 1903   0.881   2.848  13.896  2.7662 -3.3038  1.5942
  122MPD2    H3 1904   0.819   2.977  13.703 -0.1907 -0.1295  0.7297
  122MPD2     N 1905   1.197   2.908  13.473  0.5751 -0.4932 -0.1273
  122MPD2    H5 1906   1.148   2.951  13.395 -0.8040 -1.5894  0.1420
  122MPD2    N1 1907   1.137   2.726  13.916 -0.1885  0.2356  0.0993
  122MPD2    H7 1908   1.231   2.689  13.905  0.0369  0.9295 -0.3058
  123TMC2    C1 1909   4.536   1.447  10.321  0.3067  1.1558 -0.1950
  123TMC2    C2 1910   4.557   1.576  10.355  0.2691 -0.0525 -0.2848
  123TMC2    C3 1911   4.579   1.671  10.257  0.1723  0.4134  1.0190
  123TMC2    C4 1912   4.542   1.413  10.185 -0.2662 -0.1878 -0.0363
  123TMC2    C5 1913   4.564   1.505  10.092  0.3241 -0.6122  0.1139
  123TMC2    C6 1914   4.585   1.642  10.121 -0.1077 -0.2086 -0.1367
  123TMC2     C 1915   4.445   1.383  10.410  0.7824 -0.1150 -0.4616
  123TMC2     O 1916   4.454   1.400  10.530  0.2748  0.0011 -0.0714
  123TMC2     H 1917   4.544   1.600  10.459  0.0238  0.1212 -0.3570
  123TMC2    H1 1918   4.525   1.309  10.160 -1.1544 -0.2412  0.7915
  123TMC2    H2 1919   4.588   1.719  10.045 -2.3010  0.8598  0.8354
  123TMC2    C7 1920   4.545   1.464   9.957 -0.5759 -0.0077  0.7883
  123TMC2    C8 1921   4.616   1.803  10.294  0.1556  0.3311 -0.6015
  123TMC2    O1 1922   4.527   1.344   9.947  0.2227  0.5070 -0.6426
  123TMC2    O2 1923   4.572   1.861  10.390 -0.3329 -0.2308 -0.2632
  123TMC2    O5 1924   4.715   1.847  10.215 -0.0685 -0.0920  0.1702
  123TMC2    H5 1925   0.012   1.788  10.142  1.6539  2.0456 -0.8799
  124MPD2     C 1926   4.087   1.016  10.475 -0.0183 -0.5065 -0.1821
  124MPD2    C1 1927   4.130   1.012  10.344 -0.0617  0.3519 -0.4648
  124MPD2    C2 1928   4.226   1.110  10.305 -0.0667 -0.7061 -0.4575
  124MPD2    C3 1929   4.281   1.196  10.395 -0.4836  0.7495  0.0551
  124MPD2    C4 1930   4.248   1.195  10.527 -0.4798  0.0707  0.3683
  124MPD2    C5 1931   4.154   1.095  10.564  0.3443 -0.4835 -0.3035
  124MPD2     H 1932   4.258   1.114  10.202 -0.1157 -1.3883 -0.4990
  124MPD2    H1 1933   4.280   1.263  10.605  0.3195  1.2367 -0.9895
  124MPD2    H2 1934   4.005   0.956  10.511  1.0111 -1.5752  0.3778
  124MPD2    H3 1935   4.121   1.088  10.667  2.0082 -1.7281  0.1452
  124MPD2     N 1936   4.372   1.291  10.348  0.5517 -0.1727 -0.3812
  124MPD2    H5 1937   4.372   1.288  10.247  0.1653 -1.6846 -0.3443
  124MPD2    N1 1938   4.067   0.931  10.257 -0.2272  0.3817  0.3569
  124MPD2    H7 1939   3.990   0.873  10.288  0.4540 -0.5581  0.2777
  125TMC2    C1 1940   0.280   3.118   8.312 -0.6863  0.3102 -0.0305
  125TMC2    C2 1941   0.252   3.153   8.184  0.3761 -0.4370 -0.0888
  125TMC2    C3 1942   0.359   3.198   8.109  0.0937 -0.1604 -0.1924
  125TMC2    C4 1943   0.405   3.122   8.363 -0.7790 -0.0674 -0.0635
  125TMC2    C5 1944   0.509   3.158   8.280  0.3250 -0.2502 -0.6490
  125TMC2    C6 1945   0.485   3.199   8.157  0.2837  0.2148 -0.2802
  125TMC2     C 1946   0.174   3.062   8.398  0.1944  0.2890  0.0430
  125TMC2     O 1947   0.215   2.994   8.488 -0.2253  0.3317  0.0577
  125TMC2     H 1948   0.151   3.161   8.146  1.3527 -0.5428 -2.7685
  125TMC2    H1 1949   0.430   3.097   8.465 -0.2432  1.2379  0.1374
  125TMC2    H2 1950   0.570   3.230   8.099  0.5965 -0.2134 -0.0517
  125TMC2    C7 1951   0.648   3.170   8.324 -0.2523 -0.1112 -0.4157
  125TMC2    C8 1952   0.344   3.226   7.967  0.5454 -0.2993 -0.0467
  125TMC2    O1 1953   0.722   3.239   8.255 -0.3531 -0.2979  0.4726
  125TMC2    O2 1954   0.435   3.273   7.904 -0.1319  0.2779 -0.4161
  125TMC2    O5 1955   0.255   3.139   7.918  0.2845 -0.7015 -0.4206
  125TMC2    H5 1956   0.233   3.079   7.992 -0.1490  0.9461  0.7953
  126MPD1     C 1957   4.426   2.939   8.538  1.1547 -0.1849 -0.3186
  126MPD1    C1 1958   4.423   2.998   8.415 -0.0986  0.3699  0.3668
  126MPD1    C2 1959   4.540   3.046   8.362  0.1413  0.5091 -0.4408
  126MPD1    C3 1960   4.666   3.025   8.411  0.6622 -1.1900  0.2219
  126MPD1    C4 1961   4.674   2.971   8.540  0.2821  0.4073  0.6044
  126MPD1    C5 1962   4.552   2.943   8.603  0.3291  0.1345 -0.4855
  126MPD1     H 1963   4.528   3.103   8.271 -0.5787 -1.8306 -1.7932
  126MPD1    H1 1964   0.029   2.966   8.603  1.9080  0.2091 -1.6533
  126MPD1    H2 1965   4.335   2.906   8.588  0.6405  0.4622 -0.8209
  126MPD1    H3 1966   4.563   2.913   8.706 -0.2383 -0.5836 -0.6291
  126MPD1     N 1967   0.046   3.067   8.347  0.1363  0.1687 -0.3721
  126MPD1    H5 1968   0.027   3.109   8.256 -1.6430  1.5505  0.6306
  126MPD1    N1 1969   4.297   3.041   8.361  0.4364  0.1882  0.5904
  126MPD1    H6 1970   4.289   3.051   8.260 -0.0144 -2.3310  0.3859
  126MPD1    H7 1971   4.217   2.989   8.397 -0.4120  1.1608  0.1215
  127TMC2    C1 1972   1.086   1.515  10.283  0.0705 -0.4952  0.4422
  127TMC2    C2 1973   1.163   1.483  10.394  0.0431  0.2999 -0.4677
  127TMC2    C3 1974   1.098   1.416  10.496 -0.4810  0.2634  0.1347
  127TMC2    C4 1975   0.959   1.478  10.270 -1.0656  0.1786 -0.3535
  127TMC2    C5 1976   0.903   1.402  10.370 -0.5784  0.8923 -0.2229
  127TMC2    C6 1977   0.972   1.363  10.476 -0.6255 -0.3982  1.0183
  127TMC2     C 1978   1.139   1.625  10.202 -0.1986 -0.5475  0.1548
  127TMC2     O 1979   1.260   1.628  10.183  0.7658 -0.7362 -0.1805
  127TMC2     H 1980   1.257   1.533  10.411  0.1590 -0.2910  0.5973
  127TMC2    H1 1981   0.898   1.497  10.183 -3.6736 -0.8894  1.2510
  127TMC2    H2 1982   0.925   1.319  10.564  0.4820 -1.9292  0.8596
  127TMC2    C7 1983   0.766   1.359  10.343 -0.3090 -0.8481 -0.3444
  127TMC2    C8 1984   1.197   1.322  10.556 -0.0929 -0.6276  0.5081
  127TMC2    O1 1985   0.700   1.433  10.271 -0.2276 -0.6257 -0.5850
  127TMC2    O2 1986   1.302   1.304  10.493 -0.4789 -0.7990 -0.2039
  127TMC2    O5 1987   1.181   1.305  10.691  0.2933  0.0658  0.2792
  127TMC2    H5 1988   1.093   1.342  10.717 -0.9469 -1.7685 -1.3023
  128MPD2     C 1989   0.974   1.920  10.075 -0.2664  0.0871 -0.3626
  128MPD2    C1 1990   1.075   1.827  10.087 -0.1945  0.3990 -0.0077
  128MPD2    C2 1991   1.194   1.857  10.026  0.1645 -0.6570 -0.0856
  128MPD2    C3 1992   1.220   1.972   9.952  0.1283 -0.5277  0.0841
  128MPD2    C4 1993   1.118   2.067   9.944 -0.8261 -0.1190 -0.1675
  128MPD2    C5 1994   0.997   2.037  10.006 -0.0582 -0.6574 -0.2954
  128MPD2     H 1995   1.279   1.789  10.031 -0.3587 -1.4382 -1.5723
  128MPD2    H1 1996   1.121   2.165   9.897 -0.6096  0.5274  1.1919
  128MPD2    H2 1997   0.875   1.908  10.117  0.4590  0.1100  1.3720
  128MPD2    H3 1998   0.913   2.106  10.004  0.6969  0.2247 -1.6555
  128MPD2     N 1999   1.351   1.995   9.902 -0.1392 -0.0153  0.7185
  128MPD2    H5 2000   1.424   1.932   9.933  0.7278  0.6123 -0.0706
  128MPD2    N1 2001   1.047   1.712  10.161  0.5391 -0.5093  0.2583
  128MPD2    H7 2002   0.954   1.707  10.201  1.6313 -0.1583  2.8966
  129TMC2    C1 2003   3.558   2.576   1.852  0.6496  0.1225  0.1719
  129TMC2    C2 2004   3.436   2.568   1.912  0.1837  0.4941 -0.3624
  129TMC2    C3 2005   3.358   2.456   1.896 -0.2166 -0.0554  0.9892
  129TMC2    C4 2006   3.602   2.470   1.780 -0.4148  0.3383 -0.5729
  129TMC2    C5 2007   3.524   2.367   1.763 -0.1785 -0.0157 -0.1369
  129TMC2    C6 2008   3.404   2.346   1.829  0.1519  0.0728 -0.1595
  129TMC2     C 2009   3.644   2.689   1.880 -0.5235 -0.5531  0.5624
  129TMC2     O 2010   3.634   2.745   1.989  0.4047 -0.2584  0.6331
  129TMC2     H 2011   3.396   2.653   1.966 -0.3251 -0.5564  0.9210
  129TMC2    H1 2012   3.704   2.475   1.741 -0.2995 -2.5062 -0.6125
  129TMC2    H2 2013   3.347   2.253   1.822  1.2907 -0.5796 -0.7960
  129TMC2    C7 2014   3.572   2.252   1.688 -0.1338  0.0636 -0.8743
  129TMC2    C8 2015   3.236   2.452   1.972 -0.2724  0.4330  0.1721
  129TMC2    O1 2016   3.509   2.152   1.704  0.5585 -0.0617  0.1791
  129TMC2    O2 2017   3.163   2.550   1.967  0.0688 -0.4336 -0.1112
  129TMC2    O5 2018   3.294   2.420   2.092 -0.1742 -0.0503  0.4915
  129TMC2    H5 2019   3.386   2.394   2.072  0.4971  1.9471  0.9694
  130MPD2     C 2020   3.853   2.904   1.871  0.5303  0.4774 -0.2742
  130MPD2    C1 2021   3.823   2.821   1.764 -0.3342  0.1310  0.4239
  130MPD2    C2 2022   3.893   2.843   1.643 -0.0458  0.1835  0.1103
  130MPD2    C3 2023   3.964   2.954   1.616 -0.1076 -0.6110 -0.5384
  130MPD2    C4 2024   3.964   3.051   1.717  0.6828 -0.2891  0.0280
  130MPD2    C5 2025   3.919   3.022   1.844  0.4835 -0.0172  0.6738
  130MPD2     H 2026   3.898   2.768   1.565  0.7560  0.7539 -0.3969
  130MPD2    H1 2027   4.020   3.144   1.716  2.0125 -1.1049 -1.1289
  130MPD2    H2 2028   3.808   2.885   1.968 -1.3715  2.8347 -0.6984
  130MPD2    H3 2029   3.938   3.094   1.923  1.5084  0.8027 -0.3204
  130MPD2     N 2030   4.031   2.961   1.492  0.6530  0.5419  0.9602
  130MPD2    H5 2031   4.018   2.881   1.431 -0.4188  0.5657  1.1478
  130MPD2    N1 2032   3.732   2.711   1.774  0.1586  0.4713 -0.3172
  130MPD2    H7 2033   3.727   2.650   1.693 -3.4003  2.7760 -1.8625
  131TMC2    C1 2034   4.193   1.625   9.593 -0.0190 -0.0190  0.1456
  131TMC2    C2 2035   4.205   1.697   9.474 -0.7923  0.0505  0.2846
  131TMC2    C3 2036   4.260   1.820   9.485 -0.0207 -0.2224  0.5976
  131TMC2    C4 2037   4.216   1.691   9.713  0.1861 -0.4308 -0.1450
  131TMC2    C5 2038   4.261   1.823   9.718 -0.0470  0.0554 -0.1706
  131TMC2    C6 2039   4.288   1.891   9.599  0.2512  0.0371 -0.3536
  131TMC2     C 2040   4.122   1.499   9.604 -0.8227 -0.7486  1.0490
  131TMC2     O 2041   4.121   1.451   9.719  0.4894  0.0703  0.2005
  131TMC2     H 2042   4.208   1.642   9.381 -0.1406 -1.2765  1.1031
  131TMC2    H1 2043   4.208   1.647   9.812 -2.1276  3.0402  1.2108
  131TMC2    H2 2044   4.347   1.982   9.596 -3.5195  2.4518 -0.8414
  131TMC2    C7 2045   4.310   1.876   9.844 -0.4237 -0.0037  0.3649
  131TMC2    C8 2046   4.327   1.867   9.361 -0.3000  0.1444  0.1357
  131TMC2    O1 2047   4.358   1.798   9.923  0.1525 -0.0823 -0.1907
  131TMC2    O2 2048   4.382   1.779   9.293 -1.0275  0.4161  0.0405
  131TMC2    O5 2049   4.360   1.999   9.356 -0.0489 -0.5509  0.9129
  131TMC2    H5 2050   4.288   2.053   9.396  1.1552 -1.0324  3.7042
  132MPD2     C 2051   4.052   1.243   9.347  0.4155  0.1124 -0.3211
  132MPD2    C1 2052   4.053   1.298   9.470 -0.1445 -0.2313  0.5374
  132MPD2    C2 2053   4.024   1.208   9.572 -0.5882 -0.2170  0.2949
  132MPD2    C3 2054   4.001   1.073   9.558  0.2696  0.3384  0.2829
  132MPD2    C4 2055   4.004   1.018   9.432  0.0066  0.2954 -0.1420
  132MPD2    C5 2056   4.022   1.110   9.331 -0.0563  0.1009 -0.1866
  132MPD2     H 2057   4.013   1.248   9.672 -0.7912  0.4760 -0.0022
  132MPD2    H1 2058   3.972   0.916   9.414 -1.7833  0.8366 -0.0177
  132MPD2    H2 2059   4.074   1.305   9.261  0.2991 -1.2908 -1.3514
  132MPD2    H3 2060   4.013   1.072   9.230  1.6302  2.2458 -1.1451
  132MPD2     N 2061   3.976   0.997   9.677 -0.3529 -0.5722 -0.6142
  132MPD2    H5 2062   3.980   1.057   9.759 -0.4123 -1.6711  0.2073
  132MPD2    N1 2063   4.091   1.438   9.484 -0.1829 -0.1186 -0.4974
  132MPD2    H7 2064   4.113   1.489   9.400  3.4794 -1.2016 -0.1906
  133TMC2    C1 2065   3.118   2.646   9.390 -0.1834 -0.0025 -0.0746
  133TMC2    C2 2066   3.202   2.617   9.489  0.6901 -0.3032  0.6902
  133TMC2    C3 2067   3.296   2.708   9.524  0.2100  0.1645 -0.6223
  133TMC2    C4 2068   3.120   2.761   9.309 -0.1089 -0.3098  0.0872
  133TMC2    C5 2069   3.215   2.851   9.351 -0.0315 -0.3227 -0.5529
  133TMC2    C6 2070   3.297   2.823   9.461 -0.2934  0.5851  0.2707
  133TMC2     C 2071   3.009   2.545   9.377 -0.3652  1.0283 -0.3224
  133TMC2     O 2072   3.042   2.425   9.404 -0.0212 -0.3379  0.5312
  133TMC2     H 2073   3.201   2.518   9.534  2.1809 -0.2723  0.8145
  133TMC2    H1 2074   3.062   2.778   9.220 -0.4740 -1.5811  0.0782
  133TMC2    H2 2075   3.387   2.881   9.476 -0.4466  1.3838 -1.9596
  133TMC2    C7 2076   3.249   2.966   9.269  0.1395 -0.1267  0.2282
  133TMC2    C8 2077   3.399   2.666   9.622  0.5123  0.9764 -0.5815
  133TMC2    O1 2078   3.348   3.026   9.305  0.0120  0.1108  0.1167
  133TMC2    O2 2079   3.406   2.548   9.652 -0.3252 -0.0592 -0.5214
  133TMC2    O5 2080   3.443   2.773   9.701 -0.0695 -0.2819  0.6887
  133TMC2    H5 2081   3.404   2.857   9.669  0.9787  1.2029  3.3838
  134MPD2     C 2082   2.663   2.593   9.285  0.1829  0.4194  0.8817
  134MPD2    C1 2083   2.770   2.521   9.323 -0.7570  0.6325 -0.2287
  134MPD2    C2 2084   2.756   2.380   9.332  0.0972  0.4989  0.6788
  134MPD2    C3 2085   2.633   2.321   9.301 -0.2781  0.0767 -0.1571
  134MPD2    C4 2086   2.526   2.400   9.258  0.4466  0.0446  0.0490
  134MPD2    C5 2087   2.542   2.535   9.252 -0.7522  0.5374 -0.4432
  134MPD2     H 2088   2.837   2.320   9.371  0.0155 -0.2379 -0.2765
  134MPD2    H1 2089   2.433   2.349   9.233 -0.7767  1.7097  1.2186
  134MPD2    H2 2090   2.664   2.701   9.278 -0.5030  0.2653 -1.5593
  134MPD2    H3 2091   2.456   2.587   9.210  0.7151 -0.0212 -4.1030
  134MPD2     N 2092   2.604   2.183   9.310 -0.1671  0.3187  0.1679
  134MPD2    H5 2093   2.507   2.154   9.309  0.2175 -0.9499 -0.1887
  134MPD2    N1 2094   2.889   2.591   9.336 -0.0342  0.8398  0.2890
  134MPD2    H7 2095   2.879   2.690   9.314  0.2037  0.6083 -0.8794
  135TMC2    C1 2096   1.011   4.361   9.300 -0.1126 -0.3937 -0.2528
  135TMC2    C2 2097   1.004   4.389   9.169 -0.0757 -1.2620 -0.1666
  135TMC2    C3 2098   0.881   4.418   9.119  0.7442  0.2172  0.5338
  135TMC2    C4 2099   0.900   4.354   9.375  1.0146 -0.3100  0.2083
  135TMC2    C5 2100   0.776   4.373   9.313 -0.7437 -0.0992  0.5354
  135TMC2    C6 2101   0.761   4.412   9.185 -0.0928 -0.2655  1.1433
  135TMC2     C 2102   1.131   4.307   9.364 -0.2859 -1.0321  0.1284
  135TMC2     O 2103   1.144   4.334   9.483 -0.1750  0.1231  0.1476
  135TMC2     H 2104   1.091   4.392   9.104  1.4464 -0.0362  1.9400
  135TMC2    H1 2105   0.900   4.341   9.483  1.0727  2.3764  0.5380
  135TMC2    H2 2106   0.667   4.393   9.134 -0.0575  0.3388  0.8570
  135TMC2    C7 2107   0.655   4.308   9.361 -0.0401 -0.2940  0.8764
  135TMC2    C8 2108   0.893   4.425   8.973  0.4806 -0.2974 -0.0016
  135TMC2    O1 2109   0.546   4.365   9.338 -0.0277 -0.4825 -0.2723
  135TMC2    O2 2110   0.985   4.384   8.901 -0.0395 -0.0036 -0.0803
  135TMC2    O5 2111   0.775   4.471   8.928 -0.2560 -0.4965  0.4717
  135TMC2    H5 2112   0.715   4.498   9.001 -2.9190 -3.2669 -0.7298
  136MPD2     C 2113   1.395   4.201   9.420  0.0757 -0.1304  0.5403
  136MPD2    C1 2114   1.312   4.149   9.321  0.2604 -0.2610  0.0366
  136MPD2    C2 2115   1.355   4.037   9.260 -0.2503 -0.0877  0.5564
  136MPD2    C3 2116   1.469   3.973   9.309  0.1820 -0.7713 -0.6761
  136MPD2    C4 2117   1.551   4.023   9.407  0.4019  0.2572  0.1804
  136MPD2    C5 2118   1.507   4.137   9.465  0.4537  0.8746 -0.2984
  136MPD2     H 2119   1.295   4.008   9.175  0.2064  1.1419 -0.1828
  136MPD2    H1 2120   1.632   3.968   9.453  0.6934  0.4667 -0.0816
  136MPD2    H2 2121   1.370   4.293   9.471  3.8290  1.5347 -0.6673
  136MPD2    H3 2122   1.569   4.168   9.548  0.5996 -2.3556  0.8249
  136MPD2     N 2123   1.511   3.842   9.270  0.3700 -0.2232 -0.5525
  136MPD2    H5 2124   1.605   3.810   9.290  0.2686  0.6586  1.2684
  136MPD2    N1 2125   1.195   4.218   9.279  0.4856 -0.6807  0.1073
  136MPD2    H7 2126   1.155   4.202   9.187 -1.1539  0.1772  0.6686
  137TMC2    C1 2127   4.425   3.299   8.709 -0.5732  0.3032 -0.3039
  137TMC2    C2 2128   4.333   3.373   8.638 -0.4461 -0.0757  0.6454
  137TMC2    C3 2129   4.198   3.356   8.663 -0.1289 -0.8927  0.2430
  137TMC2    C4 2130   4.394   3.202   8.799 -0.0789 -0.4195  0.3770
  137TMC2    C5 2131   4.258   3.196   8.824 -1.1735  0.6088  0.0807
  137TMC2    C6 2132   4.163   3.270   8.761  0.1549 -0.0391  1.0500
  137TMC2     C 2133   4.565   3.279   8.661  1.1571 -0.2746  0.2102
  137TMC2     O 2134   4.649   3.233   8.734 -0.6300  0.1303  0.2958
  137TMC2     H 2135   4.362   3.445   8.563  0.8509  0.7477  1.9300
  137TMC2    H1 2136   4.470   3.132   8.834  0.9566 -0.3320 -1.6665
  137TMC2    H2 2137   4.060   3.267   8.794 -0.1115 -3.2183 -0.0981
  137TMC2    C7 2138   4.207   3.081   8.896 -0.7107  0.3812 -0.2136
  137TMC2    C8 2139   4.107   3.464   8.631  0.7011  0.4366 -0.0887
  137TMC2    O1 2140   4.105   3.038   8.844 -0.5131  0.7010  0.1146
  137TMC2    O2 2141   4.013   3.493   8.701  0.1472 -0.5352 -0.9825
  137TMC2    O5 2142   4.118   3.469   8.496  0.4461  0.1373  0.6789
  137TMC2    H5 2143   4.185   3.418   8.446 -0.5459 -1.1073  0.6304
  138MPD2     C 2144   4.694   3.416   8.341  0.2853  0.1138 -0.5124
  138MPD2    C1 2145   4.702   3.366   8.463 -0.3170  0.5149 -0.6348
  138MPD2    C2 2146   0.096   3.363   8.526  0.0139  0.7107 -0.0309
  138MPD2    C3 2147   0.215   3.413   8.467 -0.3516  0.6783  0.4883
  138MPD2    C4 2148   0.197   3.465   8.343  0.0894  0.2183  0.2126
  138MPD2    C5 2149   0.075   3.466   8.283  0.3370 -0.0877  0.2079
  138MPD2     H 2150   0.102   3.308   8.619  0.4088  0.1169 -0.4033
  138MPD2    H1 2151   0.275   3.499   8.275  1.5715 -0.1425  1.7272
  138MPD2    H2 2152   4.595   3.420   8.298  0.6558 -2.8247 -1.6926
  138MPD2    H3 2153   0.064   3.520   8.189 -0.8160  0.3494  0.6035
  138MPD2     N 2154   0.340   3.395   8.529 -0.2895  0.1366  0.2326
  138MPD2    H5 2155   0.338   3.383   8.630 -1.5068 -0.6249  0.1144
  138MPD2    N1 2156   4.581   3.335   8.534  0.1912 -0.0420 -0.1866
  138MPD2    H7 2157   4.497   3.366   8.487  0.1596  1.1875  0.6950
  139TMC2    C1 2158   1.270   0.244  13.400 -0.3570 -0.0625  0.3234
  139TMC2    C2 2159   1.336   0.323  13.314  0.6568  0.9400  0.0927
  139TMC2    C3 2160   1.260   0.422  13.257 -0.2874  0.1294  0.4659
  139TMC2    C4 2161   1.145   0.276  13.452 -0.1176  0.0379  0.2321
  139TMC2    C5 2162   1.083   0.395  13.405 -0.2226 -0.5911  0.1494
  139TMC2    C6 2163   1.141   0.462  13.303  0.8813 -0.1427 -0.4508
  139TMC2     C 2164   1.333   0.111  13.421 -0.7636  0.0593 -0.5522
  139TMC2     O 2165   1.411   0.071  13.334 -0.3321  0.1271  0.2754
  139TMC2     H 2166   1.431   0.287  13.276  0.1195  0.3715 -0.7157
  139TMC2    H1 2167   1.098   0.196  13.508  0.4906  0.3163  1.1391
  139TMC2    H2 2168   1.089   0.553  13.274  1.7102  0.4343 -0.1185
  139TMC2    C7 2169   0.961   0.448  13.473 -0.4182  0.1921 -0.1837
  139TMC2    C8 2170   1.332   0.511  13.171  0.6364  0.2136  0.1449
  139TMC2    O1 2171   0.900   0.538  13.417 -0.1089 -0.2536 -0.1823
  139TMC2    O2 2172   1.289   0.539  13.062  0.2878 -0.7539 -0.1095
  139TMC2    O5 2173   1.414   0.587  13.241  0.1573 -0.2086  0.4556
  139TMC2    H5 2174   1.409   0.550  13.332  1.4959  0.9080  0.9708
  140MPD2     C 2175   1.384   4.646  13.728 -0.9515 -0.0985  0.3043
  140MPD2    C1 2176   1.373   4.666  13.589 -0.5295 -0.0194 -0.2097
  140MPD2    C2 2177   1.417   4.567  13.495 -0.1271  0.1280 -0.2663
  140MPD2    C3 2178   1.484   4.459  13.542  0.0105  0.4672 -0.2912
  140MPD2    C4 2179   1.502   4.448  13.676 -0.7335  0.4607 -0.3086
  140MPD2    C5 2180   1.452   4.534  13.767 -0.3030 -0.6280  0.8511
  140MPD2     H 2181   1.406   4.585  13.389  0.0392  0.9269 -0.1459
  140MPD2    H1 2182   1.539   4.354  13.715 -2.1756 -0.8733 -2.2090
  140MPD2    H2 2183   1.349   4.718  13.801  0.0001  1.1229 -0.4429
  140MPD2    H3 2184   1.462   4.506  13.872  0.0639 -0.4989  0.8528
  140MPD2     N 2185   1.514   4.363  13.449  0.2575 -0.2380 -0.3769
  140MPD2    H5 2186   1.500   4.393  13.353 -4.5012 -1.7525 -0.1335
  140MPD2    N1 2187   1.310   0.053  13.545  0.8963 -0.9419  0.2485
  140MPD2    H7 2188   1.267   0.115  13.613  0.7489 -1.4755  0.6392
  141TMC2    C1 2189   1.732   1.453  14.096  0.2290  0.0542 -0.2991
  141TMC2    C2 2190   1.751   1.353  14.177 -0.3667 -0.1125  0.0296
  141TMC2    C3 2191   1.780   1.380  14.308 -0.1227  1.0708 -0.3800
  141TMC2    C4 2192   1.740   1.577  14.142 -0.7623 -0.4635 -0.5402
  141TMC2    C5 2193   1.765   1.612  14.267  0.0723 -0.6006 -0.3832
  141TMC2    C6 2194   1.785   1.510  14.357  0.6522  0.0059 -0.1809
  141TMC2     C 2195   1.710   1.443  13.950 -0.0505  0.5376  0.0259
  141TMC2     O 2196   1.642   1.531  13.903 -0.7221  0.0757  0.0342
  141TMC2     H 2197   1.732   1.249  14.151 -0.3694 -0.1813  0.3110
  141TMC2    H1 2198   1.748   1.658  14.070 -1.1445  0.6368  0.6528
  141TMC2    H2 2199   1.829   1.532  14.454  1.7026  0.6390 -0.7951
  141TMC2    C7 2200   1.789   1.754  14.296 -0.4263  0.0809  0.0337
  141TMC2    C8 2201   1.757   1.265  14.391  0.2170  0.0804 -0.0298
  141TMC2    O1 2202   1.714   1.834  14.241  0.3928 -0.8057  0.2217
  141TMC2    O2 2203   1.851   1.212  14.447  0.1797  0.1753 -0.1648
  141TMC2    O5 2204   1.624   1.247  14.414 -0.3673  0.0837  0.0263
  141TMC2    H5 2205   1.575   1.297  14.345 -0.1837  2.0050  1.3000
  142TMC2    C1 2206   4.307   0.817   9.504 -0.3817  0.3038  0.0472
  142TMC2    C2 2207   4.336   0.809   9.369 -0.0980  0.3868  0.2894
  142TMC2    C3 2208   4.371   0.924   9.304  0.4458  0.3167  0.0458
  142TMC2    C4 2209   4.320   0.945   9.569 -0.0340  0.2494 -0.3124
  142TMC2    C5 2210   4.359   1.051   9.496  0.2621  0.6428  0.2495
  142TMC2    C6 2211   4.365   1.048   9.361 -0.0895 -0.5304  0.8418
  142TMC2     C 2212   4.261   0.697   9.576  0.0640 -0.1246 -0.2161
  142TMC2     O 2213   4.209   0.600   9.522  0.5049  0.4812  0.1061
  142TMC2     H 2214   4.346   0.711   9.324  1.7448  0.0541  1.4088
  142TMC2    H1 2215   4.296   0.958   9.674 -1.5041 -0.4194 -0.5646
  142TMC2    H2 2216   4.395   1.132   9.300 -0.0063 -1.0079  0.2245
  142TMC2    C7 2217   4.388   1.169   9.569 -0.6764 -0.5916 -0.5038
  142TMC2    C8 2218   4.384   0.928   9.157  0.7113  0.2241  0.6091
  142TMC2    O1 2219   4.385   1.154   9.690 -0.4550 -0.2775 -0.0919
  142TMC2    O2 2220   4.366   1.031   9.091  0.0180  0.2752 -0.4279
  142TMC2    O5 2221   4.465   0.821   9.119 -0.3811 -0.4558 -0.9941
  142TMC2    H5 2222   4.487   0.753   9.186  0.1107  0.9516  0.2703
  143MPD2     C 2223   4.191   0.490  10.033 -0.0004 -0.2711  0.4612
  143MPD2    C1 2224   4.107   0.485   9.923 -0.8225  0.0644 -0.0954
  143MPD2    C2 2225   4.148   0.549   9.805  0.2352  0.2080  0.1759
  143MPD2    C3 2226   4.266   0.623   9.806  0.7179 -0.3018 -0.0018
  143MPD2    C4 2227   4.342   0.641   9.925  0.0282 -1.2553 -0.5190
  143MPD2    C5 2228   4.309   0.566  10.039 -0.3131 -0.2749 -0.0757
  143MPD2     H 2229   4.090   0.547   9.714 -0.1341 -0.1241  0.4161
  143MPD2    H1 2230   4.422   0.711   9.943 -1.0791 -0.3792  1.0103
  143MPD2    H2 2231   4.163   0.421  10.112  1.6798 -0.7190  0.6546
  143MPD2    H3 2232   4.357   0.574  10.136  0.7092  1.2401 -0.7127
  143MPD2     N 2233   4.306   0.704   9.704  0.2557 -0.1395  0.5598
  143MPD2    H5 2234   4.377   0.770   9.732  2.0301 -0.3927 -3.3395
  143MPD2    N1 2235   3.983   0.419   9.948  0.4143 -0.2828 -0.4767
  143MPD2    H7 2236   3.964   0.401  10.046 -0.7207  0.9009 -0.4757
  144TMC2    C1 2237   2.483   3.331   0.780  0.2460  0.8837 -1.3450
  144TMC2    C2 2238   2.550   3.215   0.764 -0.0675 -0.3621  1.0636
  144TMC2    C3 2239   2.656   3.182   0.845  0.1545 -0.0214 -0.6722
  144TMC2    C4 2240   2.525   3.430   0.863  0.3137 -0.1152 -0.0581
  144TMC2    C5 2241   2.630   3.397   0.947  1.0934  0.0515  0.2550
  144TMC2    C6 2242   2.695   3.274   0.943  0.1216 -0.3969  0.0750
  144TMC2     C 2243   2.372   3.351   0.699 -0.0598  0.1972 -0.2358
  144TMC2     O 2244   2.372   3.454   0.641 -0.5169 -0.0498  0.2203
  144TMC2     H 2245   2.507   3.139   0.700  0.2866 -0.0713  0.4892
  144TMC2    H1 2246   2.480   3.527   0.878 -0.5082  0.0361 -3.4736
  144TMC2    H2 2247   2.776   3.256   1.013  1.3489 -0.8044 -1.4419
  144TMC2    C7 2248   2.657   3.476   1.068  0.0702 -0.2134 -0.3074
  144TMC2    C8 2249   2.696   3.043   0.850  0.5299  0.1516 -0.0046
  144TMC2    O1 2250   2.735   3.425   1.152 -0.2725 -0.4466  0.4940
  144TMC2    O2 2251   2.619   2.954   0.813  0.0674  0.2549 -0.0191
  144TMC2    O5 2252   2.800   3.026   0.927 -0.2441 -0.1476 -0.2600
  144TMC2    H5 2253   2.870   3.084   0.888  1.7956 -2.9232 -0.6984
  145MPD2     C 2254   1.896   3.205   0.535 -0.3358 -0.8201 -0.0290
  145MPD2    C1 2255   1.984   3.306   0.488  0.4181  0.3982 -0.2247
  145MPD2    C2 2256   2.115   3.319   0.536 -0.4490  0.0131  0.6305
  145MPD2    C3 2257   2.158   3.231   0.639  0.3186  0.0484 -0.0738
  145MPD2    C4 2258   2.073   3.130   0.673  0.3336  0.0351  0.1889
  145MPD2    C5 2259   1.946   3.114   0.625 -0.2597 -0.0681  0.4077
  145MPD2     H 2260   2.180   3.396   0.496  1.3135  0.3270  4.0439
  145MPD2    H1 2261   2.106   3.066   0.754  1.1215  2.9326  2.1383
  145MPD2    H2 2262   1.799   3.184   0.492  0.8627 -1.5702 -2.3973
  145MPD2    H3 2263   1.890   3.030   0.663 -0.5116 -0.8115 -1.6053
  145MPD2     N 2264   2.281   3.240   0.712 -0.7235  0.2697  0.2945
  145MPD2    H5 2265   2.305   3.178   0.788  1.6890  2.4074  1.2903
  145MPD2    N1 2266   1.936   3.392   0.385  0.6128 -1.0769  0.2472
  145MPD2    H7 2267   2.004   3.451   0.339 -0.3562 -0.6751 -0.6780
  146TMC2    C1 2268   3.340   2.685  12.603 -0.2388  0.5593  0.0571
  146TMC2    C2 2269   3.241   2.731  12.519  0.3141 -0.0316  0.3161
  146TMC2    C3 2270   3.227   2.692  12.384  0.6364 -0.0624 -0.1513
  146TMC2    C4 2271   3.434   2.605  12.553  0.0161 -0.1309  0.3348
  146TMC2    C5 2272   3.428   2.576  12.422 -0.3616 -0.2229 -0.1656
  146TMC2    C6 2273   3.329   2.609  12.335 -0.2265  0.1094  0.1259
  146TMC2     C 2274   3.351   2.740  12.740  0.6840  0.2084  0.0747
  146TMC2     O 2275   3.285   2.839  12.774 -0.7010 -0.3486 -0.2706
  146TMC2     H 2276   3.165   2.795  12.562  0.3816  0.5779 -0.4927
  146TMC2    H1 2277   3.525   2.583  12.607  0.1970 -2.6359 -0.9411
  146TMC2    H2 2278   3.324   2.591  12.228 -0.6056  1.3585 -0.0643
  146TMC2    C7 2279   3.539   2.516  12.354 -0.1740  0.1465 -0.0737
  146TMC2    C8 2280   3.175   2.798  12.302 -0.2719 -0.0917 -0.1713
  146TMC2    O1 2281   3.548   2.537  12.231 -0.3128  0.9224 -0.2531
  146TMC2    O2 2282   3.192   2.915  12.336  0.0047  0.3991 -0.2800
  146TMC2    O5 2283   3.166   2.749  12.177  0.2898 -0.2603 -0.7689
  146TMC2    H5 2284   3.125   2.660  12.174  1.3853 -0.7796 -0.6756
  147MPD2     C 2285   4.013   2.307  12.374 -0.3728 -0.1582  0.1298
  147MPD2    C1 2286   3.972   2.330  12.498  0.3199  0.3535  0.3639
  147MPD2    C2 2287   3.839   2.365  12.514 -0.6917 -0.0830  0.3083
  147MPD2    C3 2288   3.758   2.409  12.406 -0.0857 -1.0694 -0.1812
  147MPD2    C4 2289   3.806   2.393  12.278 -0.7712 -0.0590 -0.8917
  147MPD2    C5 2290   3.941   2.343  12.269  0.5962  0.1868 -0.3524
  147MPD2     H 2291   3.794   2.373  12.613  0.1477 -0.5540  0.7248
  147MPD2    H1 2292   3.752   2.432  12.192 -0.6671  2.3278  0.1280
  147MPD2    H2 2293   4.113   2.265  12.371 -1.0730 -1.7540 -0.7317
  147MPD2    H3 2294   3.990   2.324  12.174 -1.5498 -0.4298 -1.3571
  147MPD2     N 2295   3.625   2.454  12.442 -0.1935 -0.0382  0.6978
  147MPD2    H5 2296   3.598   2.456  12.539  1.4104 -0.8325  1.1535
  147MPD2    N1 2297   4.061   2.302  12.605 -0.1093  0.4152  0.2417
  147MPD2    H7 2298   4.151   2.260  12.585 -0.3649 -0.6048  1.2438
  148TMC2    C1 2299   3.689   1.392  11.032  0.9030 -0.1502 -0.2334
  148TMC2    C2 2300   3.671   1.302  11.136  0.5258 -0.1070  0.6535
  148TMC2    C3 2301   3.708   1.170  11.118 -0.1238 -0.1789 -0.2000
  148TMC2    C4 2302   3.751   1.352  10.912  0.0980 -0.3789 -0.4126
  148TMC2    C5 2303   3.789   1.222  10.902 -0.5864  0.1650 -0.6898
  148TMC2    C6 2304   3.765   1.129  11.001  0.1015  0.0262  0.0251
  148TMC2     C 2305   3.617   1.519  11.038 -0.3621 -0.9096  0.6318
  148TMC2     O 2306   3.605   1.580  11.149  0.2367 -0.3384 -0.4690
  148TMC2     H 2307   3.620   1.327  11.228 -1.2070  1.7596 -0.7965
  148TMC2    H1 2308   3.761   1.418  10.827  0.8495  0.1399  0.0743
  148TMC2    H2 2309   3.788   1.025  10.981  1.7393  0.3487  0.2098
  148TMC2    C7 2310   3.814   1.166  10.768  0.0420  0.0875  0.4615
  148TMC2    C8 2311   3.699   1.077  11.228  0.1858  0.3522 -0.1079
  148TMC2    O1 2312   3.785   1.055  10.744 -0.1383  0.3693 -0.7728
  148TMC2    O2 2313   3.778   0.987  11.236 -0.0266  0.4185  0.5481
  148TMC2    O5 2314   3.618   1.120  11.329  0.0459 -0.0227  0.5408
  148TMC2    H5 2315   3.544   1.177  11.297  2.2440  2.5056  0.0207
  149MPD2     C 2316   3.438   1.760  10.992 -0.3117 -0.0066 -0.3992
  149MPD2    C1 2317   3.504   1.684  10.892 -0.2066 -0.1526  0.5072
  149MPD2    C2 2318   3.479   1.707  10.761  0.5404 -0.5936  0.3325
  149MPD2    C3 2319   3.396   1.814  10.718  0.2140  0.2391 -0.3307
  149MPD2    C4 2320   3.326   1.883  10.811  0.7092  0.0177  1.2685
  149MPD2    C5 2321   3.346   1.854  10.943 -0.5558 -0.3700 -0.3914
  149MPD2     H 2322   3.520   1.638  10.688  1.1908 -1.4507  1.5156
  149MPD2    H1 2323   3.264   1.969  10.787  2.4710  1.0051  0.3038
  149MPD2    H2 2324   3.436   1.742  11.099 -0.4123 -1.0096 -0.5648
  149MPD2    H3 2325   3.300   1.912  11.022 -1.4118 -0.1698 -1.0337
  149MPD2     N 2326   3.369   1.839  10.579 -0.1233  0.6160  0.2750
  149MPD2    H5 2327   3.280   1.884  10.563 -0.7998 -1.1558 -0.9335
  149MPD2    N1 2328   3.577   1.567  10.917 -0.2161 -0.1398 -0.4694
  149MPD2    H7 2329   3.598   1.500  10.844  1.0247 -2.2283  1.7903
  150TMC2    C1 2330   1.026   0.842  11.894 -0.0797 -0.1034 -0.0726
  150TMC2    C2 2331   0.989   0.958  11.834 -0.1343 -0.4290 -0.1107
  150TMC2    C3 2332   1.091   1.051  11.823 -0.5651  0.5312  0.3182
  150TMC2    C4 2333   1.146   0.821  11.958  0.0813 -0.3476  0.5964
  150TMC2    C5 2334   1.233   0.919  11.949 -0.8561 -0.0913  1.1243
  150TMC2    C6 2335   1.214   1.036  11.876  0.2136  0.1764 -0.2166
  150TMC2     C 2336   0.929   0.732  11.898 -0.1382 -1.0669  0.1840
  150TMC2     O 2337   0.959   0.635  11.962 -0.1650 -0.1744 -0.0936
  150TMC2     H 2338   0.897   0.980  11.782 -0.8891 -0.2828  1.2975
  150TMC2    H1 2339   1.166   0.732  12.016 -0.0757 -2.1073 -2.0164
  150TMC2    H2 2340   1.290   1.114  11.872 -0.2416  0.6624  0.6741
  150TMC2    C7 2341   1.346   0.926  12.039 -0.0197 -0.3002 -0.1458
  150TMC2    C8 2342   1.073   1.175  11.754  0.1598 -0.0671  0.2183
  150TMC2    O1 2343   1.401   1.038  12.045 -0.1801  0.2677 -0.0435
  150TMC2    O2 2344   1.136   1.277  11.776  0.0638 -0.1477  0.3334
  150TMC2    O5 2345   1.047   1.130  11.635  0.0692 -0.6895 -0.0039
  150TMC2    H5 2346   1.000   1.044  11.633 -0.5753 -0.3333 -0.1215
  151MPD2     C 2347   0.453   0.543  11.805  0.0314  0.2310 -0.4770
  151MPD2    C1 2348   0.471   0.660  11.739 -0.1420  0.4922  0.5696
  151MPD2    C2 2349   0.594   0.724  11.740  0.4153 -0.3968  0.3706
  151MPD2    C3 2350   0.699   0.676  11.812 -0.6841  0.1100 -0.1036
  151MPD2    C4 2351   0.679   0.550  11.870 -0.5165 -0.2771  0.2289
  151MPD2    C5 2352   0.559   0.479  11.862  0.4014  0.3944  0.8793
  151MPD2     H 2353   0.610   0.815  11.683 -1.8295 -0.0847  0.2250
  151MPD2    H1 2354   0.760   0.504  11.926  0.1149 -0.7272 -1.0439
  151MPD2    H2 2355   0.355   0.496  11.815  0.3037 -0.0009  1.0792
  151MPD2    H3 2356   0.550   0.383  11.910  1.2531  0.6629  1.5745
  151MPD2     N 2357   0.812   0.759  11.831  0.8177  0.1734  0.9110
  151MPD2    H5 2358   0.813   0.840  11.769  0.9190  0.4102  1.2260
  151MPD2    N1 2359   0.354   0.713  11.675 -0.6196 -0.0139 -0.4924
  151MPD2    H7 2360   0.269   0.668  11.706 -0.7918  0.6342 -0.0355
  152TMC2    C1 2361   0.791   0.656  12.557  0.7054 -0.0811  0.6335
  152TMC2    C2 2362   0.757   0.561  12.459 -0.4438  0.0505 -0.8035
  152TMC2    C3 2363   0.838   0.550  12.346  0.0776 -0.1014  0.2560
  152TMC2    C4 2364   0.908   0.725  12.550  1.0119  0.2976  0.0244
  152TMC2    C5 2365   0.982   0.712  12.436 -0.3036  0.0443  0.0468
  152TMC2    C6 2366   0.945   0.633  12.328 -0.0435  0.3641 -0.4458
  152TMC2     C 2367   0.678   0.694  12.633  0.2420 -0.1955 -0.2075
  152TMC2     O 2368   0.572   0.666  12.576 -0.5297 -0.4021  0.4371
  152TMC2     H 2369   0.677   0.492  12.484 -0.7397  0.2341 -1.2253
  152TMC2    H1 2370   0.926   0.817  12.604 -0.0266 -0.1069  1.0460
  152TMC2    H2 2371   1.001   0.647  12.236 -0.0520 -0.1229 -0.5237
  152TMC2    C7 2372   1.064   0.827  12.409  0.2107 -0.5518  1.0788
  152TMC2    C8 2373   0.817   0.430  12.263 -0.1383 -0.4186 -0.6714
  152TMC2    O1 2374   1.050   0.879  12.297 -0.1291  0.2284  0.2542
  152TMC2    O2 2375   0.717   0.357  12.271 -0.1432  0.3415  0.1050
  152TMC2    O5 2376   0.943   0.385  12.250  0.0103  0.8207 -0.8372
  152TMC2    H5 2377   1.020   0.445  12.262  1.7330 -1.3521 -0.9190
  153MPD2     C 2378   0.654   0.937  12.906  0.7185 -0.7601 -0.6411
  153MPD2    C1 2379   0.613   0.841  12.816  0.9001 -0.3605  0.1392
  153MPD2    C2 2380   0.480   0.813  12.829  1.0225  0.9449 -0.2857
  153MPD2    C3 2381   0.392   0.879  12.911  0.4846 -0.3887 -0.4975
  153MPD2    C4 2382   0.442   0.972  13.003  0.5860 -0.2535 -0.1881
  153MPD2    C5 2383   0.575   1.013  12.991 -0.3832  0.1279  0.1938
  153MPD2     H 2384   0.442   0.741  12.758 -2.0786  1.0707  1.2616
  153MPD2    H1 2385   0.382   1.018  13.081  0.1592 -0.2148 -0.5358
  153MPD2    H2 2386   0.761   0.949  12.901  1.1930 -3.7844  2.4708
  153MPD2    H3 2387   0.621   1.070  13.070  1.5840 -1.6465  0.3274
  153MPD2     N 2388   0.256   0.839  12.907 -0.2727  0.4614 -0.4670
  153MPD2    H5 2389   0.225   0.761  12.850 -0.1191  1.0091 -1.3032
  153MPD2    N1 2390   0.708   0.782  12.729  0.0196 -0.3144 -0.4330
  153MPD2    H7 2391   0.803   0.811  12.748  0.4809 -2.0796 -0.0574
  154TMC2    C1 2392   2.601   4.708   0.776 -0.2731  0.5495  0.0463
  154TMC2    C2 2393   2.625   0.048   0.886  0.0273 -0.2535 -0.6704
  154TMC2    C3 2394   2.713   4.727   0.973 -0.9325 -0.6734 -0.4216
  154TMC2    C4 2395   2.674   4.594   0.740  0.1932  0.4389 -0.7391
  154TMC2    C5 2396   2.761   4.543   0.831  0.0133 -0.4755 -0.1626
  154TMC2    C6 2397   2.780   4.609   0.954  0.5093  0.3702  0.9782
  154TMC2     C 2398   2.537   0.042   0.668  0.3304  1.0002 -0.6419
  154TMC2     O 2399   2.441   0.112   0.703  0.0470 -0.5579 -0.6097
  154TMC2     H 2400   2.580   0.145   0.904 -2.3410 -1.2642 -1.2071
  154TMC2    H1 2401   2.668   4.536   0.648 -0.1788  0.5423 -0.7808
  154TMC2    H2 2402   2.855   4.576   1.025  1.8120  1.4836  0.1151
  154TMC2    C7 2403   2.849   4.438   0.784  0.4722 -0.2612  0.1167
  154TMC2    C8 2404   2.747   0.079   1.091 -0.2165 -0.0553  0.4667
  154TMC2    O1 2405   2.851   4.411   0.665 -0.4156  0.3524 -0.2789
  154TMC2    O2 2406   2.682   0.086   1.195 -0.3360  0.3262 -0.1880
  154TMC2    O5 2407   2.874   0.120   1.070 -0.8172 -0.2696  0.0782
  154TMC2    H5 2408   2.903   0.111   0.977 -1.4021 -0.6270 -0.0719
  155MPD2     C 2409   2.603   0.066   0.300  0.3768 -0.3868 -0.0620
  155MPD2    C1 2410   2.533   0.089   0.419  0.0694  0.1005  0.4971
  155MPD2    C2 2411   2.428   0.179   0.408 -0.0066  0.5120  0.7347
  155MPD2    C3 2412   2.386   0.243   0.290 -0.3597 -1.0126 -0.7530
  155MPD2    C4 2413   2.461   0.219   0.182  0.1230  0.8281 -0.4486
  155MPD2    C5 2414   2.563   0.123   0.182  0.2322  0.5109 -0.3622
  155MPD2     H 2415   2.373   0.213   0.495 -0.4584  1.6049  0.0282
  155MPD2    H1 2416   2.431   0.263   0.087 -0.4080  0.7261 -0.3265
  155MPD2    H2 2417   2.690   0.002   0.291  1.4030  1.1743 -1.2091
  155MPD2    H3 2418   2.621   0.108   0.092 -1.7321  0.5979 -1.6403
  155MPD2     N 2419   2.279   0.336   0.305 -0.6282  0.5581  0.0359
  155MPD2    H5 2420   2.218   0.326   0.386 -3.7161 -2.4816 -2.6774
  155MPD2    N1 2421   2.593   0.027   0.536  0.2883  0.5286  0.6902
  155MPD2    H7 2422   2.689   4.727   0.525  0.2223 -0.0279  1.7974
  156TMC2    C1 2423   0.762   2.983  11.919 -0.3998 -0.1876 -0.0092
  156TMC2    C2 2424   0.716   2.865  11.872  0.1393 -0.0294 -0.6827
  156TMC2    C3 2425   0.687   2.866  11.740  0.0763 -0.1507  0.2003
  156TMC2    C4 2426   0.781   3.102  11.848 -0.2439  0.1827 -0.0175
  156TMC2    C5 2427   0.750   3.099  11.712 -0.2392  0.2306 -0.0259
  156TMC2    C6 2428   0.708   2.977  11.661  0.1031 -0.1972 -0.0295
  156TMC2     C 2429   0.804   2.994  12.055  0.6600  0.3442  0.2071
  156TMC2     O 2430   0.807   3.110  12.104  0.8900 -0.0833 -0.0531
  156TMC2     H 2431   0.686   2.780  11.933 -2.2163  2.5122  1.7839
  156TMC2    H1 2432   0.798   3.199  11.892  3.6038 -1.1407  1.3909
  156TMC2    H2 2433   0.691   2.959  11.555 -0.3367  1.0538 -0.1656
  156TMC2    C7 2434   0.741   3.225  11.642 -0.5970 -0.9577  0.3951
  156TMC2    C8 2435   0.646   2.737  11.679 -0.0775  0.0695 -0.7421
  156TMC2    O1 2436   0.804   3.321  11.682 -0.8092  0.2435  0.1315
  156TMC2    O2 2437   0.685   2.705  11.569 -0.2406 -0.0983 -0.0135
  156TMC2    O5 2438   0.518   2.728  11.720 -1.0342  0.1386  0.2706
  156TMC2    H5 2439   0.504   2.776  11.805 -1.0785 -1.9284  1.4298
  157MPD2     C 2440   0.837   2.722  12.307  0.3312 -0.7232 -0.3968
  157MPD2    C1 2441   0.830   2.855  12.264 -0.6950 -0.0549 -0.3422
  157MPD2    C2 2442   0.842   2.954  12.359  0.5968  0.0745  0.6152
  157MPD2    C3 2443   0.847   2.921  12.492 -0.2747 -1.1685  0.6791
  157MPD2    C4 2444   0.850   2.788  12.534  0.7118 -0.6216 -0.5346
  157MPD2    C5 2445   0.853   2.697  12.438 -0.5876  0.0489 -0.3375
  157MPD2     H 2446   0.861   3.055  12.325  1.6837 -0.4978 -0.4781
  157MPD2    H1 2447   0.855   2.764  12.639 -1.5402 -0.7523 -0.4768
  157MPD2    H2 2448   0.843   2.636  12.242  2.6078 -0.6391 -0.3136
  157MPD2    H3 2449   0.865   2.596  12.474 -0.9204 -0.4348 -1.5580
  157MPD2     N 2450   0.871   3.032  12.576  0.0171  0.2042  0.0210
  157MPD2    H5 2451   0.867   3.126  12.540  1.4989  0.0285 -0.5623
  157MPD2    N1 2452   0.811   2.871  12.124 -0.1847  0.3108  0.1542
  157MPD2    H7 2453   0.808   2.785  12.070  0.0278  0.3248  0.1234
  158TMC2    C1 2454   0.952   1.367  13.030  0.5332 -0.4822 -0.6635
  158TMC2    C2 2455   0.973   1.406  12.901 -0.0953 -0.8598  0.1606
  158TMC2    C3 2456   0.872   1.467  12.831 -0.9187  0.4795  0.2408
  158TMC2    C4 2457   0.834   1.396  13.091  0.3762 -0.3498  0.6177
  158TMC2    C5 2458   0.735   1.452  13.017 -0.3772  0.2169 -0.3099
  158TMC2    C6 2459   0.748   1.485  12.887  0.7165  0.0549  0.4841
  158TMC2     C 2460   1.071   1.341  13.114 -0.5909  0.1960  0.5632
  158TMC2     O 2461   1.176   1.402  13.092  0.1776 -0.3272 -0.3292
  158TMC2     H 2462   1.079   1.401  12.877 -0.0652  0.0339  0.1124
  158TMC2    H1 2463   0.827   1.391  13.200 -0.7952  0.8484  0.6058
  158TMC2    H2 2464   0.668   1.539  12.838  0.2868 -1.3217 -0.3464
  158TMC2    C7 2465   0.608   1.479  13.085 -0.2233 -0.2664 -0.0655
  158TMC2    C8 2466   0.902   1.524  12.699  0.5378  0.4914  0.7318
  158TMC2    O1 2467   0.541   1.570  13.043  0.0769  0.4196  0.6902
  158TMC2    O2 2468   0.839   1.616  12.656 -0.6393 -0.0921 -0.0391
  158TMC2    O5 2469   1.007   1.475  12.639  0.3255 -0.0983  0.3246
  158TMC2    H5 2470   1.040   1.386  12.662  0.8016 -0.4012 -1.5307
  159MPD2     C 2471   1.289   1.217  13.568  0.1859 -0.9972 -0.2305
  159MPD2    C1 2472   1.153   1.185  13.567  0.1289  0.3490 -0.3114
  159MPD2    C2 2473   1.078   1.203  13.448 -0.2020  0.2440  0.2377
  159MPD2    C3 2474   1.136   1.251  13.333 -0.2286 -0.5881 -0.0914
  159MPD2    C4 2475   1.274   1.280  13.331 -0.1467 -0.4995 -0.0439
  159MPD2    C5 2476   1.347   1.262  13.449 -0.1316 -0.5977 -0.3695
  159MPD2     H 2477   0.971   1.194  13.442 -0.3854  2.1825  0.7413
  159MPD2    H1 2478   1.328   1.304  13.239  0.7271  1.9693  1.0994
  159MPD2    H2 2479   1.346   1.200  13.659 -0.2816  1.8454  0.5691
  159MPD2    H3 2480   1.451   1.292  13.448 -0.1668 -0.4816 -0.6048
  159MPD2     N 2481   1.043   1.266  13.221  1.0821  0.6903  0.3243
  159MPD2    H5 2482   0.952   1.223  13.222  1.1249  0.6032  0.9935
  159MPD2    N1 2483   1.100   1.132  13.688 -0.3050 -0.3957 -0.2176
  159MPD2    H7 2484   1.156   1.139  13.773 -3.3311 -0.6266  1.7834
  160TMC2    C1 2485   0.559   4.326   0.986  0.4071 -0.5978  0.4584
  160TMC2    C2 2486   0.473   4.225   1.008 -0.1617 -0.5832 -0.4959
  160TMC2    C3 2487   0.475   4.125   0.919  1.0287  0.2981  0.6984
  160TMC2    C4 2488   0.656   4.328   0.891  0.3077 -0.6783  0.2432
  160TMC2    C5 2489   0.664   4.215   0.811  0.4855 -0.3463  0.2369
  160TMC2    C6 2490   0.569   4.119   0.820 -0.1887 -0.2740  0.8675
  160TMC2     C 2491   0.534   4.455   1.045 -0.5315 -0.7708  0.2145
  160TMC2     O 2492   0.635   4.523   1.055  0.0295 -0.6063  0.3109
  160TMC2     H 2493   0.408   4.225   1.095  0.2749 -1.6362 -0.1667
  160TMC2    H1 2494   0.709   4.422   0.876 -0.0300 -0.3506  1.1078
  160TMC2    H2 2495   0.551   4.050   0.739  0.4459 -0.4942  0.9087
  160TMC2    C7 2496   0.747   4.224   0.695 -0.1569 -0.0113 -0.0227
  160TMC2    C8 2497   0.386   4.015   0.922  0.3133  0.2339 -0.5684
  160TMC2    O1 2498   0.700   4.176   0.592 -0.4233  0.0535  0.1629
  160TMC2    O2 2499   0.413   3.908   0.868  0.0411  0.5838 -0.2252
  160TMC2    O5 2500   0.265   4.060   0.951  0.3397 -0.0265 -0.2365
  160TMC2    H5 2501   0.246   4.156   0.954  2.3338  0.3995 -1.6394
  161MPD2     C 2502   0.445   4.652   1.242  0.1366  0.0556 -0.2708
  161MPD2    C1 2503   0.357   4.567   1.176 -0.2581  0.5586  1.2205
  161MPD2    C2 2504   0.224   4.571   1.205 -0.4783  0.0208  0.2561
  161MPD2    C3 2505   0.174   4.665   1.302 -0.0995  0.1956 -0.4135
  161MPD2    C4 2506   0.260   0.022   1.360 -0.5779  0.1168 -0.1811
  161MPD2    C5 2507   0.395   0.006   1.333  0.3602  0.2520 -0.5318
  161MPD2     H 2508   0.155   4.501   1.161 -0.7026  0.1418  0.4125
  161MPD2    H1 2509   0.232   0.107   1.419 -1.4280  0.0303 -0.4628
  161MPD2    H2 2510   0.550   4.659   1.219  0.3348 -2.3431 -0.0792
  161MPD2    H3 2511   0.465   0.076   1.378  1.3031 -0.3127 -1.1137
  161MPD2     N 2512   0.039   4.688   1.334  0.0575  0.9186 -0.8687
  161MPD2    H5 2513   0.014   0.036   1.390 -0.3316  1.7033 -2.1492
  161MPD2    N1 2514   0.402   4.475   1.079 -0.1461 -0.5299 -0.0966
  161MPD2    H7 2515   0.335   4.402   1.056 -0.3407 -0.2138 -0.5108
  162TMC2    C1 2516   2.804   1.285   0.695  0.0388  0.4673  0.1131
  162TMC2    C2 2517   2.689   1.216   0.656 -0.7053 -0.9776  0.4281
  162TMC2    C3 2518   2.583   1.216   0.738  0.3419 -0.4087  0.6841
  162TMC2    C4 2519   2.818   1.351   0.815  0.6314 -0.1896 -0.5995
  162TMC2    C5 2520   2.705   1.348   0.899 -0.1995 -0.5776  0.3335
  162TMC2    C6 2521   2.596   1.280   0.858 -0.7225  0.5877  0.0653
  162TMC2     C 2522   2.918   1.287   0.607  0.5735  1.0216 -0.4705
  162TMC2     O 2523   3.029   1.328   0.640  0.2931  0.0543 -0.0549
  162TMC2     H 2524   2.693   1.136   0.584  3.4483 -0.5320  0.1942
  162TMC2    H1 2525   2.913   1.398   0.834 -1.1414  2.1789  2.2496
  162TMC2    H2 2526   2.511   1.277   0.925 -0.9720 -0.5444 -0.3079
  162TMC2    C7 2527   2.705   1.384   1.042  0.1894  0.2254  0.4046
  162TMC2    C8 2528   2.485   1.111   0.715  0.2481 -0.5975  0.4147
  162TMC2    O1 2529   2.601   1.379   1.106  0.3421 -0.4832 -0.2238
  162TMC2    O2 2530   2.436   1.056   0.812 -0.4733  0.2363 -0.2370
  162TMC2    O5 2531   2.468   1.071   0.587 -0.0633 -0.0334 -0.0553
  162TMC2    H5 2532   2.495   1.124   0.508 -0.5288  1.1875  0.6007
  163MPD2     C 2533   3.105   1.229   0.134 -0.5304 -0.4271 -0.1278
  163MPD2    C1 2534   3.170   1.219   0.255 -0.8164 -0.1939 -0.3379
  163MPD2    C2 2535   3.102   1.239   0.372 -0.2518  0.0018 -0.0117
  163MPD2    C3 2536   2.959   1.246   0.367 -0.3013 -0.3532  0.6301
  163MPD2    C4 2537   2.891   1.242   0.247 -0.3692 -0.0431  0.6104
  163MPD2    C5 2538   2.962   1.243   0.131 -0.0753  0.0780  0.0974
  163MPD2     H 2539   3.153   1.230   0.467 -0.1573  0.2923 -0.0365
  163MPD2    H1 2540   2.783   1.239   0.236 -0.5093 -1.5409  2.4859
  163MPD2    H2 2541   3.163   1.234   0.042  1.5670 -0.2686  1.2201
  163MPD2    H3 2542   2.917   1.251   0.033  0.2320 -1.0840 -0.1452
  163MPD2     N 2543   2.873   1.256   0.479  0.1893 -0.2014  0.1418
  163MPD2    H5 2544   2.773   1.250   0.460  0.1181  0.1186  0.4144
  163MPD2    N1 2545   3.308   1.190   0.251 -0.0206 -0.0098 -0.1691
  163MPD2    H7 2546   3.347   1.178   0.158  0.4333  0.2235 -0.0096
  164TMC2    C1 2547   4.001   1.686  11.015 -0.0549 -0.1465  0.2108
  164TMC2    C2 2548   4.065   1.723  10.900  0.3696  0.6972 -0.0854
  164TMC2    C3 2549   4.026   1.834  10.840  0.1312 -0.2944 -0.0664
  164TMC2    C4 2550   3.885   1.745  11.055 -0.2697 -0.6383  0.2249
  164TMC2    C5 2551   3.855   1.862  10.997 -0.2389 -0.2631  0.3066
  164TMC2    C6 2552   3.919   1.906  10.879 -0.1988  0.4397 -0.7813
  164TMC2     C 2553   4.029   1.556  11.065  0.1347 -0.0741  0.0681
  164TMC2     O 2554   3.952   1.511  11.151  0.0147  0.5545  0.3044
  164TMC2     H 2555   4.156   1.679  10.861 -0.4384  0.8655 -2.1433
  164TMC2    H1 2556   3.834   1.705  11.142  0.1578 -2.4816 -0.3656
  164TMC2    H2 2557   3.891   2.004  10.841  2.7798  3.0925  3.8970
  164TMC2    C7 2558   3.730   1.924  11.030 -0.3678 -0.0997  0.1609
  164TMC2    C8 2559   4.091   1.864  10.713  0.5494  1.1686  0.4774
  164TMC2    O1 2560   3.682   2.005  10.952  0.4911 -0.4075  0.2228
  164TMC2    O2 2561   4.213   1.880  10.708  0.0936  0.4202 -0.3029
  164TMC2    O5 2562   3.999   1.926  10.632  0.6764 -0.2756 -0.3237
  164TMC2    H5 2563   3.907   1.896  10.653  0.4885 -0.1344 -0.9470
  165TMC2    C1 2564   0.576   3.349   0.632 -0.1903  0.2731 -0.2426
  165TMC2    C2 2565   0.632   3.229   0.599  0.0504 -0.1006  0.5680
  165TMC2    C3 2566   0.748   3.194   0.665  0.1162 -0.5639 -0.2748
  165TMC2    C4 2567   0.634   3.432   0.727  0.1195 -0.5633 -0.5527
  165TMC2    C5 2568   0.747   3.393   0.783  0.1334  0.3057  0.6044
  165TMC2    C6 2569   0.807   3.282   0.752 -0.3009 -0.6326  0.5818
  165TMC2     C 2570   0.478   3.403   0.524 -0.0320 -0.7359  0.2647
  165TMC2     O 2571   0.432   3.324   0.442  0.1566 -0.1052  0.4123
  165TMC2     H 2572   0.572   3.166   0.534 -0.1419 -2.0775  2.6593
  165TMC2    H1 2573   0.582   3.520   0.762 -0.0657 -0.5426 -0.8797
  165TMC2    H2 2574   0.893   3.235   0.798  0.0550 -0.6083 -0.0486
  165TMC2    C7 2575   0.818   3.475   0.875  0.2348  0.1071  0.2849
  165TMC2    C8 2576   0.793   3.051   0.656  0.0433  0.5514  0.1084
  165TMC2    O1 2577   0.932   3.443   0.903 -0.2789 -0.2434 -0.1767
  165TMC2    O2 2578   0.899   3.011   0.698 -0.0282  0.3808 -0.1474
  165TMC2    O5 2579   0.678   2.980   0.651 -0.2710  0.2830 -0.1196
  165TMC2    H5 2580   0.597   3.031   0.631  1.7818  2.7993 -1.8998
  166MPD2     C 2581   0.132   3.745   0.385 -0.1016 -0.1846  0.2241
  166MPD2    C1 2582   0.127   3.608   0.386 -0.5609  0.1916 -0.4498
  166MPD2    C2 2583   0.229   3.536   0.445  0.6421 -0.3990  0.5644
  166MPD2    C3 2584   0.338   3.602   0.492  0.6829 -0.2204  0.1826
  166MPD2    C4 2585   0.333   3.740   0.510 -0.4836 -0.3406  0.3491
  166MPD2    C5 2586   0.229   3.809   0.456 -0.3296  0.4184 -0.3704
  166MPD2     H 2587   0.232   3.427   0.449  1.2976 -0.4710 -1.8284
  166MPD2    H1 2588   0.417   3.799   0.544  0.4691  0.1812 -2.8687
  166MPD2    H2 2589   0.057   3.799   0.328  0.1168 -0.2803 -0.1467
  166MPD2    H3 2590   0.245   3.916   0.461  0.3497  0.2754  0.5206
  166MPD2     N 2591   0.444   3.540   0.547 -0.1906 -0.0895  0.4199
  166MPD2    H5 2592   0.513   3.593   0.598 -1.8104  0.7335  1.7317
  166MPD2    N1 2593   0.019   3.556   0.316  0.2573 -0.2817  0.1350
  166MPD2    H7 2594   4.681   3.620   0.279 -0.5809 -1.0968  0.3148
  167TMC2    C1 2595   3.159   1.502  12.846  0.3958  0.6585  0.0021
  167TMC2    C2 2596   3.085   1.523  12.952 -0.5151 -0.1296 -0.8276
  167TMC2    C3 2597   3.023   1.411  12.999  0.3951 -0.7160  0.0027
  167TMC2    C4 2598   3.192   1.373  12.803  0.2420 -0.7197 -0.0897
  167TMC2    C5 2599   3.130   1.265  12.860 -0.2943 -0.7010  0.1746
  167TMC2    C6 2600   3.055   1.285  12.968 -0.2245 -0.1229  0.7656
  167TMC2     C 2601   3.217   1.616  12.780  0.0562 -0.8335 -0.8929
  167TMC2     O 2602   3.215   1.721  12.844 -0.1628 -0.0023 -0.5497
  167TMC2     H 2603   3.059   1.623  12.985 -0.0546 -0.2211 -0.1836
  167TMC2    H1 2604   3.264   1.354  12.724 -0.1088  0.7731 -0.7438
  167TMC2    H2 2605   3.025   1.199  13.027  0.8516 -0.5865  0.6276
  167TMC2    C7 2606   3.170   1.132  12.822  0.2427 -0.3234  0.1529
  167TMC2    C8 2607   2.949   1.422  13.117  0.5024  0.1824  0.0167
  167TMC2    O1 2608   3.158   1.046  12.905  0.0587 -0.1845 -0.1652
  167TMC2    O2 2609   2.881   1.325  13.146  0.1525  0.9760  0.0159
  167TMC2    O5 2610   3.038   1.484  13.200  0.2058  0.4693  0.0401
  167TMC2    H5 2611   3.128   1.504  13.168  0.0721 -1.3098 -1.4485
  168MPD2     C 2612   3.290   1.821  12.583 -0.8822  0.0246 -0.2048
  168MPD2    C1 2613   3.289   1.685  12.557 -0.0056  0.5712  0.4359
  168MPD2    C2 2614   3.316   1.635  12.429  0.0262 -0.5170  0.2900
  168MPD2    C3 2615   3.327   1.723  12.323 -0.0914 -0.4684  0.8434
  168MPD2    C4 2616   3.310   1.853  12.345  0.6938 -0.0588  0.2705
  168MPD2    C5 2617   3.297   1.902  12.472 -0.5083  0.2636  0.4521
  168MPD2     H 2618   3.316   1.527  12.422  1.5634 -0.4988 -0.0774
  168MPD2    H1 2619   3.319   1.924  12.263  0.2049  0.8002  0.9609
  168MPD2    H2 2620   3.277   1.864  12.681  1.4709 -2.2618  1.1146
  168MPD2    H3 2621   3.276   2.006  12.491  0.6149  0.7531 -0.9822
  168MPD2     N 2622   3.344   1.675  12.191 -0.2323  0.4094 -0.2428
  168MPD2    H5 2623   3.332   1.751  12.125  0.2985  0.1840 -0.5936
  168MPD2    N1 2624   3.260   1.590  12.654 -0.1777 -0.6077  0.3287
  168MPD2    H7 2625   3.256   1.495  12.619  0.8053 -0.5697  0.0913
  169MPD1     C 2626   0.360   2.320   9.365  0.0237  0.0268 -0.8923
  169MPD1    C1 2627   0.479   2.247   9.349  0.7841 -0.3919  0.0215
  169MPD1    C2 2628   0.491   2.129   9.421  0.8684  0.3572  0.1133
  169MPD1    C3 2629   0.392   2.094   9.512 -0.1091  0.2678  0.3111
  169MPD1    C4 2630   0.285   2.173   9.534  0.1664 -0.0764 -0.2480
  169MPD1    C5 2631   0.270   2.287   9.458 -0.5095 -0.1110  0.6053
  169MPD1     H 2632   0.569   2.059   9.395 -1.5409 -2.5062  0.6860
  169MPD1    H1 2633   0.200   2.143   9.594  0.8005  0.0547  0.7142
  169MPD1    H2 2634   0.344   2.419   9.325  0.1995 -0.1970 -1.5280
  169MPD1    H3 2635   0.188   2.356   9.472  0.7680  1.4327  0.5348
  169MPD1     N 2636   0.407   1.965   9.574 -0.1475 -0.7249 -0.0164
  169MPD1    H5 2637   0.500   1.924   9.573  0.1046 -0.1165 -1.3431
  169MPD1    N1 2638   0.574   2.280   9.248  0.1312  0.0855 -0.1973
  169MPD1    H6 2639   0.573   2.380   9.229 -2.4012  0.1711  0.3655
  169MPD1    H7 2640   0.670   2.262   9.275  0.0758  1.4059  0.8506
  170MPD1     C 2641   4.490   3.290  12.849 -0.3226  0.3912  0.1173
  170MPD1    C1 2642   4.361   3.336  12.855 -0.5377 -0.2058 -0.1218
  170MPD1    C2 2643   4.322   3.378  12.977 -0.1638  0.6580  0.0594
  170MPD1    C3 2644   4.406   3.378  13.089  0.0959  0.2914  0.3600
  170MPD1    C4 2645   4.538   3.348  13.069 -0.0400 -0.0576  1.0978
  170MPD1    C5 2646   4.577   3.302  12.951  0.3977  0.6657  0.3397
  170MPD1     H 2647   4.220   3.413  12.979 -0.7431 -1.0770  0.5165
  170MPD1    H1 2648   4.610   3.339  13.150 -2.7194 -0.3663  3.4090
  170MPD1    H2 2649   4.522   3.238  12.759 -0.7904 -0.4300  0.4268
  170MPD1    H3 2650   4.680   3.269  12.944  0.3028  0.1789  1.2022
  170MPD1     N 2651   4.360   3.441  13.205 -0.7444  0.2336 -0.0689
  170MPD1    H5 2652   4.267   3.481  13.195 -1.1319 -0.7464 -0.4022
  170MPD1    N1 2653   4.286   3.324  12.737  0.9745  0.2898  0.2202
  170MPD1    H6 2654   4.344   3.325  12.654 -0.5036  1.0170 -0.8163
  170MPD1    H7 2655   4.208   3.390  12.739  1.4770  0.9244 -1.2086
  171MPD1     C 2656   3.147   0.038  15.212 -0.3735  0.0694  0.4834
  171MPD1    C1 2657   3.126   4.631  15.203  0.3223 -0.3720 -0.0792
  171MPD1    C2 2658   3.187   4.552  15.291 -0.0847  0.1813 -0.0725
  171MPD1    C3 2659   3.276   4.605  15.388 -0.3025 -0.5185 -0.7902
  171MPD1    C4 2660   3.318   0.006  15.371  0.4032 -0.2507  0.3565
  171MPD1    C5 2661   3.249   0.087  15.284 -0.0951 -0.2991  0.1676
  171MPD1     H 2662   3.143   4.454  15.302 -0.4825  0.4247  0.5682
  171MPD1    H1 2663   3.399   0.045  15.431 -0.7433 -0.6262  2.1486
  171MPD1    H2 2664   3.095   0.098  15.138  2.7531 -1.9352 -3.3546
  171MPD1    H3 2665   3.273   0.193  15.278  0.2776 -0.4068 -0.2215
  171MPD1     N 2666   3.344   4.529  15.487 -0.4319 -0.4992 -0.5042
  171MPD1    H5 2667   3.395   4.583  15.555 -0.3960 -1.1367 -0.0215
  171MPD1    N1 2668   3.009   4.588  15.138  0.6167 -0.3606 -0.7381
  171MPD1    H6 2669   3.015   4.491  15.107 -1.4766  0.1480 -2.7117
  171MPD1    H7 2670   2.997   4.640  15.051  2.5382  1.6182  0.1884
  172MPD1     C 2671   2.180   3.152   0.111  0.9627 -0.3011  1.2091
  172MPD1    C1 2672   2.253   3.245   0.037 -0.3381 -0.2323  0.0493
  172MPD1    C2 2673   2.335   3.342   0.092 -0.4000  0.8441 -0.3948
  172MPD1    C3 2674   2.351   3.331   0.228 -0.2048 -0.0300  0.0286
  172MPD1    C4 2675   2.288   3.234   0.302 -1.1264  0.5015  0.4874
  172MPD1    C5 2676   2.206   3.141   0.242  0.4344 -0.0558 -0.2843
  172MPD1     H 2677   2.385   3.423   0.043  2.9634  0.4780  2.4423
  172MPD1    H1 2678   2.300   3.218   0.409 -0.0214 -1.0506  0.1416
  172MPD1    H2 2679   2.129   3.076   0.053  1.1781  1.5253 -1.3817
  172MPD1    H3 2680   2.174   3.057   0.302 -1.6668 -0.7203 -2.3057
  172MPD1     N 2681   2.420   3.427   0.307  0.1824 -0.3263 -0.0618
  172MPD1    H5 2682   2.455   3.394   0.396 -0.2701 -0.6573 -0.0095
  172MPD1    N1 2683   2.249   3.235  17.625  0.0646 -0.0318 -0.2326
  172MPD1    H6 2684   2.261   3.331  17.595 -0.1002  0.1980  0.4341
  172MPD1    H7 2685   2.155   3.207  17.596  0.4988 -3.0455  1.2086
  173MPD1     C 2686   3.113   3.731  13.895  0.0900  0.3057 -0.2799
  173MPD1    C1 2687   3.108   3.603  13.834 -0.3576 -0.1440 -0.7046
  173MPD1    C2 2688   3.217   3.515  13.856  0.2764  0.5469 -0.2871
  173MPD1    C3 2689   3.327   3.561  13.925 -0.3548 -0.6804 -0.5856
  173MPD1    C4 2690   3.324   3.692  13.967 -0.2641  0.9293 -0.5168
  173MPD1    C5 2691   3.216   3.772  13.970 -0.7034 -0.1266  0.0567
  173MPD1     H 2692   3.215   3.414  13.815 -0.3740 -0.1396  1.3979
  173MPD1    H1 2693   3.411   3.736  14.015  0.3687  0.7685 -1.5372
  173MPD1    H2 2694   3.031   3.802  13.891 -1.2396 -1.2320 -0.5160
  173MPD1    H3 2695   3.231   3.867  14.018  0.0696 -0.4018  0.3493
  173MPD1     N 2696   3.421   3.467  13.958 -0.4161  0.0060  0.6812
  173MPD1    H5 2697   3.402   3.371  13.933  1.6090 -0.6156  1.5060
  173MPD1    N1 2698   2.991   3.565  13.770  0.2625 -0.1098  0.5826
  173MPD1    H6 2699   2.904   3.577  13.823  0.0729  1.2725 -0.0361
  173MPD1    H7 2700   3.012   3.470  13.742  0.6062  0.6225 -1.6087
  174MPD1     C 2701   3.597   2.510  13.953 -0.5943  0.0018 -0.8524
  174MPD1    C1 2702   3.544   2.606  13.870 -1.1508 -0.0736  0.3886
  174MPD1    C2 2703   3.581   2.738  13.892 -0.2326 -0.3924 -0.2300
  174MPD1    C3 2704   3.655   2.776  14.003 -0.2241 -0.2092 -0.3561
  174MPD1    C4 2705   3.710   2.677  14.074 -0.7139  0.7324 -0.1942
  174MPD1    C5 2706   3.677   2.546  14.054 -0.3129  0.2163 -0.4182
  174MPD1     H 2707   3.559   2.807  13.811 -0.3213  1.8189  1.7052
  174MPD1    H1 2708   3.767   2.697  14.165 -0.2464  0.2933 -0.3884
  174MPD1    H2 2709   3.573   2.404  13.944  1.4555 -0.7120  2.1419
  174MPD1    H3 2710   3.708   2.475  14.130 -1.0570  0.9110  0.5208
  174MPD1     N 2711   3.669   2.907  14.056  0.5211 -0.3992 -0.5977
  174MPD1    H5 2712   3.739   2.918  14.128 -1.8530 -1.1754  1.8278
  174MPD1    N1 2713   3.477   2.569  13.755 -0.1339  0.0165  0.2208
  174MPD1    H6 2714   3.409   2.635  13.718 -1.2961  0.1578  2.6029
  174MPD1    H7 2715   3.430   2.481  13.775  1.8843 -0.5985  2.2189
  175MPD1     C 2716   2.109   0.052  15.239 -0.3083 -0.1795 -0.3290
  175MPD1    C1 2717   2.226   4.706  15.239  0.1771  0.5105  0.2867
  175MPD1    C2 2718   2.246   4.608  15.333  0.2421  0.4477  0.3192
  175MPD1    C3 2719   2.140   4.584  15.422 -0.4104  0.4830 -0.3349
  175MPD1    C4 2720   2.027   4.659  15.418 -0.0662 -0.1138 -0.0863
  175MPD1    C5 2721   2.008   0.028  15.328 -0.3291  1.0195 -0.0764
  175MPD1     H 2722   2.331   4.541  15.335 -0.6781 -0.6877  1.3209
  175MPD1    H1 2723   1.945   4.651  15.488 -0.3381 -1.5729 -0.5716
  175MPD1    H2 2724   2.091   0.135  15.172  2.1036 -0.3478 -1.1841
  175MPD1    H3 2725   1.919   0.091  15.327 -0.4354  0.9012  0.9787
  175MPD1     N 2726   2.143   4.486  15.527  0.0450  0.1153  0.5989
  175MPD1    H5 2727   2.056   4.473  15.578 -0.5615  1.3848 -0.1272
  175MPD1    N1 2728   2.335   0.001  15.149  0.6743  0.4385 -0.1793
  175MPD1    H6 2729   2.290   0.062  15.082  1.5406  1.0075 -0.2384
  175MPD1    H7 2730   2.372   4.651  15.102  1.9233  1.0178 -0.2000
  176MPD1     C 2731   3.373   1.423  16.220  0.3051 -0.6806  0.2406
  176MPD1    C1 2732   3.466   1.521  16.238  0.5847 -0.6284 -0.0555
  176MPD1    C2 2733   3.470   1.583  16.364 -0.0714 -0.3789 -0.4525
  176MPD1    C3 2734   3.379   1.557  16.467 -0.0039 -0.3599 -0.4248
  176MPD1    C4 2735   3.283   1.461  16.442 -0.1381 -0.6973  0.3686
  176MPD1    C5 2736   3.287   1.394  16.325  0.3460  0.2512  0.3103
  176MPD1     H 2737   3.548   1.654  16.390  2.9768 -2.7956 -2.9761
  176MPD1    H1 2738   3.203   1.443  16.513 -0.8581 -0.9426 -0.4985
  176MPD1    H2 2739   3.368   1.360  16.132  0.3411  0.1405 -0.3597
  176MPD1    H3 2740   3.215   1.317  16.301  0.8584  0.2792 -1.3237
  176MPD1     N 2741   3.395   1.630  16.587  0.2168  0.7942 -0.1370
  176MPD1    H5 2742   3.468   1.699  16.593 -1.3159  2.2624  1.6113
  176MPD1    N1 2743   3.568   1.528  16.141 -0.2698  0.1015  0.4315
  176MPD1    H6 2744   3.622   1.613  16.158  0.3222 -0.7752  2.9387
  176MPD1    H7 2745   3.514   1.537  16.055  0.2146 -1.1358  0.0066
  177MPD1     C 2746   2.096   1.672  10.136 -0.6590 -0.7057  0.0237
  177MPD1    C1 2747   1.972   1.613  10.112  0.1386  0.0277  0.2133
  177MPD1    C2 2748   1.872   1.687  10.046  0.1939  0.6320  0.8843
  177MPD1    C3 2749   1.901   1.815  10.005 -0.2225  0.8518 -0.0160
  177MPD1    C4 2750   2.032   1.866  10.034  0.3964  0.0138 -0.0080
  177MPD1    C5 2751   2.119   1.797  10.107 -0.6597  0.1274  0.2902
  177MPD1     H 2752   1.775   1.643  10.030 -0.0193  0.9279  1.3760
  177MPD1    H1 2753   2.062   1.964   9.999 -0.7206  0.4752  0.3288
  177MPD1    H2 2754   2.163   1.608  10.193 -0.0823 -0.9227 -0.9144
  177MPD1    H3 2755   2.217   1.837  10.127  0.2175 -1.5867 -0.5530
  177MPD1     N 2756   1.809   1.886   9.922  0.3389  0.6960 -0.2781
  177MPD1    H5 2757   1.713   1.853   9.920  1.0507 -1.2847 -1.3903
  177MPD1    N1 2758   1.952   1.487  10.143  0.2703 -0.2673  0.2278
  177MPD1    H6 2759   2.014   1.471  10.222 -0.1674  2.7011  1.1854
  177MPD1    H7 2760   1.853   1.473  10.166 -0.1618  2.2479 -0.0833
  178MPD1     C 2761   4.261   3.078  16.727  0.1416  0.8519 -0.2039
  178MPD1    C1 2762   4.146   3.005  16.730  0.1233 -0.2416 -0.1853
  178MPD1    C2 2763   4.151   2.867  16.733  0.2880 -0.6403 -0.1162
  178MPD1    C3 2764   4.278   2.809  16.738  0.4615  0.1885  0.8873
  178MPD1    C4 2765   4.392   2.892  16.731  0.2684 -0.0065  0.0805
  178MPD1    C5 2766   4.385   3.022  16.726 -0.5418  0.4323  0.2586
  178MPD1     H 2767   4.058   2.814  16.749  1.0577 -1.5210  1.4617
  178MPD1    H1 2768   4.492   2.853  16.727  0.2180 -0.0934 -0.4353
  178MPD1    H2 2769   4.250   3.182  16.698  0.2778  1.6414  2.6199
  178MPD1    H3 2770   4.478   3.077  16.726 -1.6143  2.2308 -3.1254
  178MPD1     N 2771   4.304   2.673  16.753 -0.4664 -0.4743 -0.2266
  178MPD1    H5 2772   4.400   2.643  16.741  0.3484  1.6523  1.0725
  178MPD1    N1 2773   4.034   3.079  16.699 -0.4267 -0.5310 -0.2807
  178MPD1    H6 2774   3.940   3.040  16.710 -0.4615 -0.0820  0.9643
  178MPD1    H7 2775   4.043   3.179  16.716 -2.1066 -0.3508 -0.4524
  179MPD1     C 2776   4.624   1.077  15.598 -0.5681 -0.2499  0.0339
  179MPD1    C1 2777   4.537   1.068  15.494  0.9227  0.5831  0.9440
  179MPD1    C2 2778   4.472   0.946  15.477  0.5947  0.2838  0.6834
  179MPD1    C3 2779   4.496   0.841  15.564  0.2019  0.0615 -0.4965
  179MPD1    C4 2780   4.588   0.851  15.660  0.0341 -0.3551 -0.2785
  179MPD1    C5 2781   4.646   0.974  15.681  0.1858  0.2040 -0.3349
  179MPD1     H 2782   4.398   0.944  15.397  0.2397 -0.1096  1.0210
  179MPD1    H1 2783   4.609   0.771  15.730 -1.4325 -0.6563 -0.1991
  179MPD1    H2 2784   4.685   1.162  15.624 -1.2967  0.4922 -0.6711
  179MPD1    H3 2785   4.721   0.988  15.759  2.4165 -1.3753 -2.1997
  179MPD1     N 2786   4.429   0.720  15.558 -0.8509 -0.2004 -0.2257
  179MPD1    H5 2787   4.458   0.645  15.620  3.0162  0.9527 -0.6280
  179MPD1    N1 2788   4.519   1.182  15.410  0.0093  0.2070  0.5413
  179MPD1    H6 2789   4.596   1.247  15.399 -0.6134  0.7374 -0.7455
  179MPD1    H7 2790   4.501   1.152  15.314 -0.2747  1.9381  0.0652
  180MPD1     C 2791   4.278   2.238  15.232 -0.0135  0.6152  0.1254
  180MPD1    C1 2792   4.373   2.263  15.136  0.0621  0.1049 -0.0348
  180MPD1    C2 2793   4.335   2.232  15.004 -0.9471 -0.0613  0.4881
  180MPD1    C3 2794   4.204   2.208  14.970  0.2343  0.2966 -0.3535
  180MPD1    C4 2795   4.121   2.169  15.067  0.1202  0.3508 -0.1045
  180MPD1    C5 2796   4.156   2.182  15.199 -0.0433  0.4383 -0.5165
  180MPD1     H 2797   4.399   2.254  14.920  0.6766  2.0975  2.2978
  180MPD1    H1 2798   4.023   2.135  15.035  0.4529 -1.4200  0.7066
  180MPD1    H2 2799   4.286   2.257  15.338  0.3593 -1.9963  0.5535
  180MPD1    H3 2800   4.078   2.161  15.271 -1.3172  0.7306 -1.7965
  180MPD1     N 2801   4.167   2.215  14.840 -0.4024  0.1806  0.1977
  180MPD1    H5 2802   4.245   2.225  14.776 -0.8312  0.1928 -0.3334
  180MPD1    N1 2803   4.506   2.285  15.163  0.2186 -0.3186 -0.2286
  180MPD1    H6 2804   4.507   2.351  15.241  1.1291  0.2262 -0.6968
  180MPD1    H7 2805   4.550   2.340  15.089  2.2585  0.2531  1.4122
  181MPD1     C 2806   0.699   1.108   9.942  0.0401 -0.2287 -0.1844
  181MPD1    C1 2807   0.810   1.058   9.881 -0.6035  0.0793 -0.5452
  181MPD1    C2 2808   0.883   0.964   9.951  0.3519 -0.0786 -0.1787
  181MPD1    C3 2809   0.830   0.913  10.073 -0.0844 -0.3883  0.4496
  181MPD1    C4 2810   0.711   0.950  10.114  0.3059  0.0305  0.0217
  181MPD1    C5 2811   0.650   1.052  10.056  0.2383  0.4516 -0.2277
  181MPD1     H 2812   0.979   0.937   9.910 -1.2751 -0.1408 -3.9584
  181MPD1    H1 2813   0.664   0.913  10.204 -0.2222 -0.7876 -0.5942
  181MPD1    H2 2814   0.639   1.192   9.907 -0.6399 -0.6493 -0.0295
  181MPD1    H3 2815   0.559   1.093  10.098  2.7055  3.1386  2.4809
  181MPD1     N 2816   0.886   0.810  10.142 -1.1370 -0.0862 -0.3696
  181MPD1    H5 2817   0.839   0.781  10.226 -1.8012 -0.3963 -0.8493
  181MPD1    N1 2818   0.870   1.120   9.773 -0.2892  0.4869  0.2316
  181MPD1    H6 2819   0.806   1.158   9.703  0.5285 -0.5718 -1.1013
  181MPD1    H7 2820   0.946   1.065   9.731 -1.7147  1.1704 -3.2636
  182MPD1     C 2821   2.162   3.078   1.974  0.2616 -0.0193 -0.6733
  182MPD1    C1 2822   2.156   2.993   1.868  0.5023  0.2568 -0.1876
  182MPD1    C2 2823   2.069   3.011   1.760 -0.5112  0.3453 -0.1606
  182MPD1    C3 2824   1.976   3.115   1.762  0.3659 -0.6256 -0.3541
  182MPD1    C4 2825   1.983   3.203   1.865  0.5120 -0.4858  0.0326
  182MPD1    C5 2826   2.080   3.191   1.966 -0.2225 -0.0241  0.5616
  182MPD1     H 2827   2.082   2.956   1.667  1.9662 -0.1415  0.5006
  182MPD1    H1 2828   1.916   3.289   1.864  2.2523  0.8708 -0.9917
  182MPD1    H2 2829   2.248   3.072   2.039  1.4981 -2.4520 -2.5606
  182MPD1    H3 2830   2.083   3.270   2.040 -1.8462  0.3149  0.2652
  182MPD1     N 2831   1.873   3.137   1.666 -0.6828  0.5142 -0.4097
  182MPD1    H5 2832   1.817   3.222   1.670  0.5209  1.2424  1.4695
  182MPD1    N1 2833   2.266   2.905   1.844  0.1250 -0.5099 -0.9093
  182MPD1    H6 2834   2.228   2.835   1.782  0.3784 -1.0976 -0.3987
  182MPD1    H7 2835   2.303   2.856   1.925  1.0776 -0.2295 -1.1676
  183MPD1     C 2836   1.483   4.195   8.916  0.2264  0.4036  0.0310
  183MPD1    C1 2837   1.490   4.312   8.993 -0.1478 -0.6713 -0.2802
  183MPD1    C2 2838   1.606   4.386   8.998  0.0627  0.1829  0.1586
  183MPD1    C3 2839   1.722   4.326   8.963 -0.1488 -0.3088 -0.9800
  183MPD1    C4 2840   1.722   4.199   8.904  0.2603  0.4455 -0.0013
  183MPD1    C5 2841   1.598   4.138   8.878 -0.5873  0.5226  0.4772
  183MPD1     H 2842   1.611   4.483   9.048 -1.9361  0.9067 -1.0353
  183MPD1    H1 2843   1.814   4.145   8.884 -0.8436 -1.5320  0.3638
  183MPD1    H2 2844   1.390   4.140   8.909  1.1649 -1.4104  1.9476
  183MPD1    H3 2845   1.596   4.036   8.842 -3.7410  0.8744 -0.3402
  183MPD1     N 2846   1.837   4.395   9.002 -0.6900  0.3906  0.2219
  183MPD1    H5 2847   1.823   4.486   9.045  0.5721  0.9820 -0.6251
  183MPD1    N1 2848   1.373   4.373   9.037  0.5551 -0.2115 -0.6521
  183MPD1    H6 2849   1.302   4.302   9.053  0.1983 -0.2321 -2.2781
  183MPD1    H7 2850   1.372   4.439   9.115 -1.1852 -2.1307  0.9349
  184MPD1     C 2851   0.137   2.797   9.525 -0.0632 -1.1871  1.0233
  184MPD1    C1 2852   0.249   2.828   9.443 -0.7360 -0.3827  1.0717
  184MPD1    C2 2853   0.365   2.753   9.456  0.7799 -0.1676  0.1190
  184MPD1    C3 2854   0.366   2.640   9.540  0.1869 -0.6553 -0.7228
  184MPD1    C4 2855   0.254   2.603   9.607 -0.4912  0.0890  0.4112
  184MPD1    C5 2856   0.137   2.678   9.599 -0.2980 -0.2228  0.6379
  184MPD1     H 2857   0.445   2.787   9.392  0.1690  1.6691  0.3177
  184MPD1    H1 2858   0.240   2.514   9.667  1.3366 -1.6351 -1.6476
  184MPD1    H2 2859   0.047   2.857   9.528  0.5384 -0.3120  1.7251
  184MPD1    H3 2860   0.046   2.657   9.654 -0.1455  0.8730  1.3175
  184MPD1     N 2861   0.486   2.564   9.565 -0.0355  0.4117 -0.1310
  184MPD1    H5 2862   0.474   2.491   9.634 -1.6593 -0.1934 -1.0477
  184MPD1    N1 2863   0.240   2.949   9.366 -0.5712 -0.4870  0.2822
  184MPD1    H6 2864   0.146   2.986   9.355  1.0901  3.1033 -1.7761
  184MPD1    H7 2865   0.287   2.937   9.277 -2.4596 -0.4517 -0.7240
  185MPD1     C 2866   0.444   1.918  10.083 -0.5843 -0.1594  0.3171
  185MPD1    C1 2867   0.368   2.010  10.019  0.3726  0.2070 -0.2940
  185MPD1    C2 2868   0.418   2.088   9.921  0.1626 -0.6646  0.3958
  185MPD1    C3 2869   0.557   2.076   9.895 -0.0795 -0.2697  0.2781
  185MPD1    C4 2870   0.634   1.981   9.961  0.4852 -0.7879 -0.5461
  185MPD1    C5 2871   0.570   1.895  10.035  0.2744  0.0453 -0.1547
  185MPD1     H 2872   0.358   2.155   9.860 -0.1946 -1.0771  0.3004
  185MPD1    H1 2873   0.735   1.957   9.930 -0.0480 -1.0616 -2.0596
  185MPD1    H2 2874   0.412   1.847  10.158 -2.0277  2.8306  2.5204
  185MPD1    H3 2875   0.619   1.803  10.064  3.1665  1.4677 -0.4920
  185MPD1     N 2876   0.604   2.166   9.800  0.1492  0.0228 -0.0759
  185MPD1    H5 2877   0.550   2.251   9.792  0.6161  0.3132 -0.1727
  185MPD1    N1 2878   0.228   2.008  10.036 -0.0167  0.1782  0.5776
  185MPD1    H6 2879   0.200   2.016  10.134 -0.4429  1.1212  0.3811
  185MPD1    H7 2880   0.180   2.083   9.987  0.4812 -0.1311 -0.3846
  186MPD1     C 2881   3.977   0.730  15.581 -0.0912  0.2270  0.1715
  186MPD1    C1 2882   4.022   0.854  15.577 -0.5596  0.0023 -0.1028
  186MPD1    C2 2883   4.121   0.900  15.661 -0.6117  0.6557  0.6527
  186MPD1    C3 2884   4.173   0.817  15.762  0.0889 -0.4070  0.5702
  186MPD1    C4 2885   4.113   0.694  15.780 -0.5125  0.7676  0.4746
  186MPD1    C5 2886   4.008   0.653  15.695  0.1852  0.7719 -0.1134
  186MPD1     H 2887   4.168   0.994  15.633  1.7680 -1.0935 -1.2933
  186MPD1    H1 2888   4.154   0.624  15.852  0.6014  1.1263  0.1925
  186MPD1    H2 2889   3.893   0.697  15.522  1.3644 -0.1866 -1.6873
  186MPD1    H3 2890   3.954   0.561  15.712  0.3550  0.3489 -1.8536
  186MPD1     N 2891   4.268   0.856  15.858  0.3193 -0.1324  0.1398
  186MPD1    H5 2892   4.300   0.783  15.921 -1.1265  1.5614  2.8224
  186MPD1    N1 2893   3.979   0.934  15.466  0.3226  0.3459  0.2229
  186MPD1    H6 2894   3.884   0.915  15.435  0.4040 -0.1635  0.2811
  186MPD1    H7 2895   3.999   1.033  15.477  0.0602  0.4092  0.1247
  187MPD1     C 2896   3.674   2.441   0.220 -0.1630 -0.3110  0.2814
  187MPD1    C1 2897   3.689   2.581   0.240  0.4082  0.5607  0.3271
  187MPD1    C2 2898   3.667   2.669   0.134 -0.9503  0.8737  0.9301
  187MPD1    C3 2899   3.648   2.627   0.008  0.3199  0.1512 -0.2659
  187MPD1    C4 2900   3.637   2.495  17.712  0.0581 -0.1262 -0.2194
  187MPD1    C5 2901   3.653   2.408   0.093  0.3000 -0.4567 -0.0318
  187MPD1     H 2902   3.683   2.775   0.152 -0.6264  1.4178 -2.7074
  187MPD1    H1 2903   3.610   2.455  17.615  2.5331 -1.5821 -0.2907
  187MPD1    H2 2904   3.695   2.368   0.297 -2.4526 -1.6196 -0.3432
  187MPD1    H3 2905   3.644   2.302   0.075  0.3219 -0.4627 -0.0054
  187MPD1     N 2906   3.631   2.717  17.628 -0.1744  0.1137 -0.0992
  187MPD1    H5 2907   3.637   2.679  17.534 -0.9273  1.7870 -0.8087
  187MPD1    N1 2908   3.713   2.636   0.369 -0.7677  0.3780  0.2709
  187MPD1    H6 2909   3.766   2.569   0.423  0.9840  0.8433 -0.8853
  187MPD1    H7 2910   3.769   2.721   0.362  1.4783 -1.1317 -0.0794
  188MPD1     C 2911   3.027   3.401  10.335  0.5584  0.4638 -0.1156
  188MPD1    C1 2912   3.159   3.370  10.342  0.1002 -0.1099 -0.6894
  188MPD1    C2 2913   3.206   3.262  10.272  0.0304  0.5204 -0.7818
  188MPD1    C3 2914   3.122   3.163  10.226 -0.6492  0.5787  0.3259
  188MPD1    C4 2915   2.986   3.190  10.225  0.3495  0.9925 -0.2362
  188MPD1    C5 2916   2.943   3.300  10.292 -0.5335  0.2020 -0.7108
  188MPD1     H 2917   3.314   3.254  10.267  0.0364  0.5355 -0.6514
  188MPD1    H1 2918   2.911   3.115  10.202  0.6523  1.0238 -1.3094
  188MPD1    H2 2919   2.992   3.486  10.392  0.7644  0.0499  0.6255
  188MPD1    H3 2920   2.838   3.325  10.307 -0.3950  0.9319 -0.9778
  188MPD1     N 2921   3.163   3.039  10.185 -0.3659 -0.2676 -0.0668
  188MPD1    H5 2922   3.091   2.975  10.154  1.8425 -2.8687  0.1192
  188MPD1    N1 2923   3.244   3.473  10.379  0.2008  0.7467 -0.0430
  188MPD1    H6 2924   3.330   3.444  10.425 -0.1443  3.5294  2.3595
  188MPD1    H7 2925   3.202   3.530  10.452  1.7727  1.2988  0.4345
  189MPD1     C 2926   0.931   3.108  17.633 -0.3313  0.2886  0.0378
  189MPD1    C1 2927   0.857   3.044  17.533  0.4871 -0.4096 -0.3806
  189MPD1    C2 2928   0.754   3.117  17.482  0.2457 -0.7979 -0.3801
  189MPD1    C3 2929   0.741   3.253  17.498  0.2135  0.0986 -0.2588
  189MPD1    C4 2930   0.827   3.316  17.584 -0.1473  0.2518 -0.1361
  189MPD1    C5 2931   0.918   3.244  17.648  0.1774 -0.2987  0.3153
  189MPD1     H 2932   0.685   3.059  17.422  0.5361 -0.5865 -0.9184
  189MPD1    H1 2933   0.812   3.422  17.603 -1.7795 -0.5211  2.9723
  189MPD1    H2 2934   1.007   3.054  17.688  1.1824  0.5006 -1.8462
  189MPD1    H3 2935   0.982   3.297  17.718  2.2800 -1.2667 -0.8728
  189MPD1     N 2936   0.621   3.311  17.452  0.2510  0.0539  0.1000
  189MPD1    H5 2937   0.553   3.246  17.416  0.8888 -0.1166 -0.8060
  189MPD1    N1 2938   0.867   2.910  17.509  0.3287 -0.5303  0.0011
  189MPD1    H6 2939   0.836   2.877  17.418 -1.1950  1.7158 -0.2817
  189MPD1    H7 2940   0.958   2.872  17.536  0.1791 -0.1668  1.0166
  190MPD1     C 2941   3.920   1.774  14.906 -0.4563  0.0441 -0.3672
  190MPD1    C1 2942   4.055   1.778  14.877  0.1885 -0.3003  0.2102
  190MPD1    C2 2943   4.145   1.804  14.969  0.0155  0.6453 -0.5421
  190MPD1    C3 2944   4.108   1.830  15.102  0.2263 -0.1475 -0.2340
  190MPD1    C4 2945   3.970   1.832  15.132  0.8225  0.0531 -0.0948
  190MPD1    C5 2946   3.880   1.798  15.032 -0.9406 -0.3128  0.0342
  190MPD1     H 2947   4.249   1.801  14.937 -0.3863 -0.0413 -1.7773
  190MPD1    H1 2948   3.940   1.854  15.234 -0.7988  2.4638 -1.0836
  190MPD1    H2 2949   3.850   1.739  14.831 -0.3116 -1.0817  0.0236
  190MPD1    H3 2950   3.775   1.792  15.059 -0.8975 -0.1237  0.2420
  190MPD1     N 2951   4.209   1.861  15.191  0.7609 -0.2239 -0.5416
  190MPD1    H5 2952   4.296   1.881  15.143  0.7937 -0.9020 -0.7583
  190MPD1    N1 2953   4.100   1.770  14.739 -0.1933 -1.2089  0.4198
  190MPD1    H6 2954   4.174   1.700  14.733 -0.7197 -1.6359 -0.9329
  190MPD1    H7 2955   4.032   1.721  14.682 -0.5517 -0.1130 -0.0850
  191MPD1     C 2956   3.281   4.549  13.189  0.4132 -0.0642  0.0761
  191MPD1    C1 2957   3.398   4.543  13.116  0.1645 -0.0801  0.2721
  191MPD1    C2 2958   3.393   4.571  12.981  0.0969  0.2524 -0.2741
  191MPD1    C3 2959   3.286   4.630  12.918 -0.0926  0.0425 -0.0467
  191MPD1    C4 2960   3.179   4.656  13.002  0.1954  0.4289 -0.6997
  191MPD1    C5 2961   3.173   4.608  13.133 -0.0821 -0.1593  0.3936
  191MPD1     H 2962   3.477   4.533  12.924 -0.9055 -0.7547 -1.0647
  191MPD1    H1 2963   3.097   4.717  12.966  0.0644 -0.0762 -1.2671
  191MPD1    H2 2964   3.274   4.507  13.289  3.4737  0.8424  0.6747
  191MPD1    H3 2965   3.086   4.618  13.196 -2.1412 -1.2699 -2.2724
  191MPD1     N 2966   3.293   4.652  12.777 -0.2663  0.2180  0.2509
  191MPD1    H5 2967   3.384   4.630  12.737  1.0947  0.5589  3.1944
  191MPD1    N1 2968   3.504   4.475  13.161  0.3768  0.6208 -0.4409
  191MPD1    H6 2969   3.591   4.502  13.115  0.6989  0.8266  0.2983
  191MPD1    H7 2970   3.514   4.490  13.261  0.1521 -0.5779 -0.2336
  192MPD1     C 2971   2.592   0.006  12.079 -0.5563 -0.1396  0.5257
  192MPD1    C1 2972   2.687   4.646  12.046  0.4493 -0.5018 -0.1398
  192MPD1    C2 2973   2.809   4.650  12.118 -0.4540  0.1070  0.6368
  192MPD1    C3 2974   2.843   0.026  12.196  0.5164  0.3814 -0.0606
  192MPD1    C4 2975   2.748   0.123  12.220 -0.5475  0.1253 -0.0841
  192MPD1    C5 2976   2.626   0.114  12.158 -0.2040 -0.4342 -0.0340
  192MPD1     H 2977   2.878   4.566  12.118 -0.4776  0.0875  0.0907
  192MPD1    H1 2978   2.775   0.211  12.277 -1.7935  1.9354 -2.2728
  192MPD1    H2 2979   2.500   0.013  12.023 -0.1766 -2.4629 -0.3693
  192MPD1    H3 2980   2.560   0.200  12.165 -0.2212 -0.5015  0.7192
  192MPD1     N 2981   2.965   0.021  12.271  0.2404 -0.2612  0.5269
  192MPD1    H5 2982   2.964   0.090  12.345  0.3078 -0.9661  1.1798
  192MPD1    N1 2983   2.664   4.534  11.964 -0.0673 -0.4722 -0.1122
  192MPD1    H6 2984   2.609   4.557  11.882  0.1875 -0.4016 -0.2626
  192MPD1    H7 2985   2.749   4.494  11.926 -0.1989 -0.4350 -0.4503
  193MPD1     C 2986   3.121   4.124  15.913  0.8313 -0.1077 -1.0671
  193MPD1    C1 2987   3.052   4.233  15.955  0.7649 -0.1035 -0.5342
  193MPD1    C2 2988   3.129   4.330  16.026 -0.8025 -0.0338  0.1263
  193MPD1    C3 2989   3.254   4.307  16.080 -0.9642  0.0341 -0.5182
  193MPD1    C4 2990   3.307   4.183  16.053  1.0815 -0.3225 -0.6683
  193MPD1    C5 2991   3.250   4.098  15.961 -0.2903 -0.5457 -0.3890
  193MPD1     H 2992   3.079   4.422  16.054 -1.0415  0.3098 -1.4655
  193MPD1    H1 2993   3.403   4.157  16.095  0.9725 -0.4904 -0.5214
  193MPD1    H2 2994   3.069   4.042  15.864  0.6124  0.1458 -1.2530
  193MPD1    H3 2995   3.295   4.001  15.943 -2.4033 -1.6925  0.5379
  193MPD1     N 2996   3.308   4.392  16.189 -0.0762  0.4792  0.2265
  193MPD1    H5 2997   3.388   4.358  16.242  0.5680 -1.3027 -1.8896
  193MPD1    N1 2998   2.934   4.263  15.903  0.1428  0.2610  0.1504
  193MPD1    H6 2999   2.872   4.313  15.966 -1.0013  0.2566 -0.9477
  193MPD1    H7 3000   2.879   4.186  15.864  1.3959 -0.1116 -0.8675
  194MPD1     C 3001   2.081   1.556  15.990 -0.8048 -0.2858 -0.3178
  194MPD1    C1 3002   1.955   1.503  15.999  0.6251  0.2467 -0.2103
  194MPD1    C2 3003   1.917   1.449  16.117  0.3836  0.3666 -0.5295
  194MPD1    C3 3004   2.003   1.422  16.224  0.3508  0.3360  0.3430
  194MPD1    C4 3005   2.126   1.474  16.215  0.2461 -0.6894  0.1087
  194MPD1    C5 3006   2.162   1.538  16.101 -0.7140 -0.1636 -0.2280
  194MPD1     H 3007   1.815   1.413  16.127  0.4646 -0.4223 -2.4080
  194MPD1    H1 3008   2.204   1.448  16.286  1.2271 -1.6670 -1.3061
  194MPD1    H2 3009   2.115   1.601  15.897 -2.0437  0.9005 -0.2031
  194MPD1    H3 3010   2.264   1.575  16.095  0.2641 -2.7265  0.5317
  194MPD1     N 3011   1.974   1.347  16.343 -0.0869  0.0560 -0.0436
  194MPD1    H5 3012   2.054   1.315  16.397  0.0254 -1.8131 -1.3361
  194MPD1    N1 3013   1.851   1.525  15.911 -0.7210  0.8441 -0.1334
  194MPD1    H6 3014   1.782   1.449  15.908  0.2716 -0.0193 -1.1073
  194MPD1    H7 3015   1.891   1.556  15.823  1.9781 -1.4582  0.2789
  195MPD1     C 3016   3.415   3.371  17.675 -0.6884  0.0770 -0.0263
  195MPD1    C1 3017   3.316   3.332   0.029 -1.1137 -0.0002  0.6842
  195MPD1    C2 3018   3.266   3.205   0.011  0.7786 -0.6715 -0.6547
  195MPD1    C3 3019   3.296   3.129  17.626  0.6234  0.2637 -0.7070
  195MPD1    C4 3020   3.384   3.180  17.537 -0.2480  0.3003  0.0191
  195MPD1    C5 3021   3.454   3.296  17.564 -0.1995 -0.3041 -0.2280
  195MPD1     H 3022   3.204   3.162   0.089  1.7257 -2.2525 -0.7914
  195MPD1    H1 3023   3.422   3.130  17.448 -0.7307 -0.0115 -0.0093
  195MPD1    H2 3024   3.460   3.466  17.701 -0.2570 -0.1370  0.0119
  195MPD1    H3 3025   3.535   3.323  17.496 -2.5506  0.8146 -2.5751
  195MPD1     N 3026   3.262   2.995  17.613  0.6667  0.5071  0.0280
  195MPD1    H5 3027   3.272   2.958  17.519 -0.3949 -0.0870  0.1602
  195MPD1    N1 3028   3.277   3.407   0.143  0.2776 -0.0025  0.3406
  195MPD1    H6 3029   3.281   3.356   0.230  0.0195  0.5307  0.6661
  195MPD1    H7 3030   3.337   3.486   0.166 -2.3549  2.3925 -0.9775
  196MPD1     C 3031   1.835   1.957   0.467 -0.0124 -0.3521 -0.2104
  196MPD1    C1 3032   1.964   2.001   0.468  0.6983 -0.6800  0.9441
  196MPD1    C2 3033   2.021   2.035   0.586  0.0640  0.1409 -0.1833
  196MPD1    C3 3034   1.952   2.050   0.704 -0.9572 -0.6791 -0.2016
  196MPD1    C4 3035   1.824   1.998   0.707 -0.3141  0.1296  0.2511
  196MPD1    C5 3036   1.766   1.948   0.586  0.5433  0.3406 -0.4961
  196MPD1     H 3037   2.125   2.068   0.591  0.0350  0.4813 -1.8696
  196MPD1    H1 3038   1.765   2.009   0.797  0.5824 -0.6717  0.9393
  196MPD1    H2 3039   1.783   1.921   0.379 -1.1851  0.4958  0.1331
  196MPD1    H3 3040   1.661   1.922   0.585  0.1978  1.6885  0.1394
  196MPD1     N 3041   2.006   2.113   0.821 -0.2091  0.2677 -0.1807
  196MPD1    H5 3042   1.930   2.140   0.883  1.7339  1.0265  1.9020
  196MPD1    N1 3043   2.052   1.973   0.360  0.7294 -0.4260 -0.6962
  196MPD1    H6 3044   2.007   1.982   0.270 -1.7659 -2.8381  0.2960
  196MPD1    H7 3045   2.145   2.016   0.364 -0.2414  1.5146  1.0705
  197MPD1     C 3046   2.065   4.182  17.390 -0.4492 -0.2728 -0.2957
  197MPD1    C1 3047   2.177   4.214  17.454 -0.4149  0.1919  0.0757
  197MPD1    C2 3048   2.263   4.300  17.379 -0.1456 -0.2683  0.0453
  197MPD1    C3 3049   2.236   4.340  17.250  0.6850  0.5909 -0.2706
  197MPD1    C4 3050   2.123   4.299  17.192 -0.2451  0.1521  0.1364
  197MPD1    C5 3051   2.033   4.227  17.264 -0.0147 -0.2342 -0.6545
  197MPD1     H 3052   2.361   4.320  17.421 -0.4268  0.8374  0.1654
  197MPD1    H1 3053   2.091   4.317  17.090  0.4072 -0.3010 -0.1473
  197MPD1    H2 3054   1.983   4.133  17.442 -1.0369 -1.0929 -1.9892
  197MPD1    H3 3055   1.938   4.204  17.218 -0.7321 -0.8151  1.1281
  197MPD1     N 3056   2.321   4.422  17.173  0.1466 -0.4676  0.4016
  197MPD1    H5 3057   2.284   4.446  17.082 -0.8582 -0.5243  0.7895
  197MPD1    N1 3058   2.204   4.172  17.587 -0.3254 -0.3890 -0.6867
  197MPD1    H6 3059   2.302   4.155  17.607 -0.1748  0.8826 -0.3374
  197MPD1    H7 3060   2.155   4.086  17.612  0.5654 -0.1882  1.8266
  198MPD1     C 3061   0.713   3.447  16.072 -0.6179  0.6283 -0.2862
  198MPD1    C1 3062   0.682   3.437  16.205 -0.5288 -0.7428 -0.2638
  198MPD1    C2 3063   0.557   3.388  16.238  0.3299  0.0508  0.4563
  198MPD1    C3 3064   0.475   3.333  16.138  0.5552  0.0845  0.7323
  198MPD1    C4 3065   0.508   3.350  16.004  0.8201 -0.1054  0.2195
  198MPD1    C5 3066   0.622   3.415  15.973 -0.0082  0.0822 -0.0724
  198MPD1     H 3067   0.526   3.384  16.341  1.5148 -0.8183  0.7809
  198MPD1    H1 3068   0.445   3.321  15.921  0.1197  2.5516 -0.1661
  198MPD1    H2 3069   0.813   3.476  16.044 -0.0240 -0.3253  0.8769
  198MPD1    H3 3070   0.655   3.439  15.873 -1.8830  0.0339 -0.6811
  198MPD1     N 3071   0.347   3.283  16.183  0.1732 -0.1956 -0.2951
  198MPD1    H5 3072   0.340   3.296  16.284 -1.6571  1.2474 -0.6125
  198MPD1    N1 3073   0.769   3.506  16.291 -0.4255 -0.9906 -0.3192
  198MPD1    H6 3074   0.754   3.475  16.387  0.5753  0.9304  0.4553
  198MPD1    H7 3075   0.867   3.492  16.266 -0.7585 -0.8350 -1.7465
  199MPD1     C 3076   0.843   0.216  10.582 -0.2459 -0.4329  0.7019
  199MPD1    C1 3077   0.814   0.349  10.593  0.3228 -0.0530 -0.1918
  199MPD1    C2 3078   0.751   0.407  10.482  0.0624 -0.3821  0.4304
  199MPD1    C3 3079   0.731   0.338  10.364 -0.8406 -0.9086 -0.0806
  199MPD1    C4 3080   0.758   0.206  10.353  0.0239 -0.4151 -0.0414
  199MPD1    C5 3081   0.813   0.149  10.461 -0.2079  0.3359 -0.4800
  199MPD1     H 3082   0.721   0.511  10.483 -0.3529 -0.5090  1.0981
  199MPD1    H1 3083   0.721   0.146  10.270 -0.6986 -0.0025 -0.0134
  199MPD1    H2 3084   0.891   0.154  10.657  0.6640 -2.7888 -1.8233
  199MPD1    H3 3085   0.844   0.045  10.457 -2.9733 -0.4314 -1.5687
  199MPD1     N 3086   0.680   0.393  10.248 -0.1919 -0.3504  0.0409
  199MPD1    H5 3087   0.655   0.320  10.181  1.0447  1.7259 -2.6596
  199MPD1    N1 3088   0.807   0.411  10.718 -0.1780 -0.3169 -0.8569
  199MPD1    H6 3089   0.837   0.509  10.710  0.5293 -0.2353  2.8640
  199MPD1    H7 3090   0.866   0.368  10.789  0.4150 -0.2705 -1.3206
  200MPD1     C 3091   0.146   3.946  15.522  0.4601  0.1503  0.1247
  200MPD1    C1 3092   0.079   3.980  15.396  0.0911  0.9187 -0.2310
  200MPD1    C2 3093   0.156   4.043  15.298  0.2164  0.6303  0.0965
  200MPD1    C3 3094   0.283   4.090  15.322 -0.4021 -0.8496  0.6274
  200MPD1    C4 3095   0.339   4.067  15.448  0.6675  0.4559  0.4168
  200MPD1    C5 3096   0.271   4.000  15.547 -0.0049  0.6888 -0.0110
  200MPD1     H 3097   0.105   4.070  15.206  2.5069 -1.1055 -1.6515
  200MPD1    H1 3098   0.436   4.098  15.484  0.4458  0.1283  1.3128
  200MPD1    H2 3099   0.090   3.896  15.601  0.1919  0.8216  0.3557
  200MPD1    H3 3100   0.313   3.999  15.647 -1.4300 -0.1223  0.5771
  200MPD1     N 3101   0.353   4.161  15.227  0.4247  0.6527 -0.1292
  200MPD1    H5 3102   0.306   4.179  15.139 -0.4688 -2.6847 -0.3458
  200MPD1    N1 3103   4.689   3.919  15.368  0.0164  0.1174  0.1665
  200MPD1    H6 3104   4.643   3.963  15.288 -0.5105  0.5672  0.7149
  200MPD1    H7 3105   4.619   3.913  15.442  0.5590  0.1834  0.6860
  201MPD1     C 3106   2.271   3.653  12.972  0.0635 -0.0418 -0.1819
  201MPD1    C1 3107   2.236   3.522  12.948 -0.1184  0.0743 -0.5860
  201MPD1    C2 3108   2.333   3.450  12.880 -0.7196 -0.1863 -0.4020
  201MPD1    C3 3109   2.456   3.508  12.842 -0.7089  0.0922  0.1075
  201MPD1    C4 3110   2.484   3.644  12.860 -0.4328 -0.2942  0.0186
  201MPD1    C5 3111   2.389   3.716  12.934 -0.0954  0.1066 -0.4971
  201MPD1     H 3112   2.314   3.344  12.870 -0.9362 -0.0318 -1.6254
  201MPD1    H1 3113   2.568   3.700  12.819 -1.4440 -0.2126 -1.9771
  201MPD1    H2 3114   2.198   3.716  13.021 -1.0233 -1.0104 -0.5474
  201MPD1    H3 3115   2.401   3.822  12.951  3.6481 -0.2858 -0.6688
  201MPD1     N 3116   2.560   3.422  12.797 -0.9508 -0.0832 -0.3134
  201MPD1    H5 3117   2.543   3.323  12.784 -0.5026 -0.2926  0.6206
  201MPD1    N1 3118   2.127   3.463  13.014  0.2602  0.0297  0.1194
  201MPD1    H6 3119   2.054   3.531  13.033  0.3596  0.2024 -0.1265
  201MPD1    H7 3120   2.082   3.381  12.975 -1.5248  1.0004  0.1682
  202MPD1     C 3121   1.737   3.159   9.034 -0.9982  0.2719 -0.4112
  202MPD1    C1 3122   1.774   3.292   9.016 -0.0419 -0.1990  0.6252
  202MPD1    C2 3123   1.893   3.337   9.056  0.1658  0.1261  0.1018
  202MPD1    C3 3124   1.986   3.246   9.112  0.4266  0.1188 -0.5514
  202MPD1    C4 3125   1.952   3.112   9.129 -0.0778  0.4774  0.7289
  202MPD1    C5 3126   1.826   3.066   9.086 -0.2190  0.4247 -0.0427
  202MPD1     H 3127   1.896   3.445   9.063 -1.3593  0.1929 -0.3998
  202MPD1    H1 3128   2.020   3.043   9.177 -0.8515  0.4007  1.7099
  202MPD1    H2 3129   1.636   3.133   9.004 -1.4780  0.9002  0.6546
  202MPD1    H3 3130   1.806   2.960   9.087 -1.4052  0.6503 -0.1029
  202MPD1     N 3131   2.113   3.284   9.156  0.4380  0.0102  0.1545
  202MPD1    H5 3132   2.168   3.218   9.210  1.6341 -0.9756 -2.2720
  202MPD1    N1 3133   1.675   3.387   9.019  0.5446 -1.4461 -0.8195
  202MPD1    H6 3134   1.590   3.357   8.972  1.0238 -0.3271 -2.3936
  202MPD1    H7 3135   1.710   3.475   8.983 -1.1163 -0.4283  0.0367
  203MPD1     C 3136   1.021   2.867  11.545  0.2122 -0.5453  0.3671
  203MPD1    C1 3137   1.042   3.001  11.523 -0.5173  0.1820 -0.2289
  203MPD1    C2 3138   1.060   3.078  11.639  0.6207  0.4680 -0.9348
  203MPD1    C3 3139   1.073   3.022  11.768  0.6130 -0.2373  0.1243
  203MPD1    C4 3140   1.061   2.884  11.782  0.5862  0.0050  1.0076
  203MPD1    C5 3141   1.048   2.809  11.666 -0.1569  0.3158  0.2528
  203MPD1     H 3142   1.067   3.186  11.628  0.4534  0.6591  0.8089
  203MPD1    H1 3143   1.077   2.831  11.875 -0.9715  0.1847  1.3832
  203MPD1    H2 3144   1.017   2.803  11.458  1.3222  0.5454 -0.5040
  203MPD1    H3 3145   1.050   2.701  11.669 -2.5158  0.2847  0.5062
  203MPD1     N 3146   1.097   3.111  11.876 -0.4465  0.6952  0.3600
  203MPD1    H5 3147   1.093   3.211  11.857 -1.0686 -0.0187 -3.2886
  203MPD1    N1 3148   1.024   3.055  11.398 -0.0065 -0.6111 -0.8443
  203MPD1    H6 3149   1.063   2.987  11.333  2.9814  1.2838 -1.0750
  203MPD1    H7 3150   1.081   3.139  11.397 -0.6282 -0.2100 -2.6938
  204MPD1     C 3151   0.679   4.515  17.389  0.2146 -0.1479  0.3433
  204MPD1    C1 3152   0.787   4.552  17.311 -0.5229 -0.2318 -0.7633
  204MPD1    C2 3153   0.882   4.454  17.278  0.2656 -0.2978 -0.1421
  204MPD1    C3 3154   0.861   4.324  17.303  0.2802 -0.2601  0.0033
  204MPD1    C4 3155   0.752   4.286  17.375  0.5039  0.3275  0.1007
  204MPD1    C5 3156   0.658   4.384  17.409  0.2804 -0.2455 -0.3862
  204MPD1     H 3157   0.962   4.478  17.209 -0.8179 -0.9115 -1.6157
  204MPD1    H1 3158   0.722   4.185  17.401 -2.9996  1.0086 -1.3039
  204MPD1    H2 3159   0.608   4.592  17.415 -0.5176  0.4191 -3.2419
  204MPD1    H3 3160   0.580   4.360  17.481 -1.7855  1.1735 -2.1382
  204MPD1     N 3161   0.964   4.239  17.257 -0.9861 -0.0874  0.1067
  204MPD1    H5 3162   1.033   4.280  17.196  0.1098 -1.6917  0.2565
  204MPD1    N1 3163   0.809   4.688  17.285  0.6633  0.1263  0.1013
  204MPD1    H6 3164   0.726   0.013  17.269  0.7090 -0.1553 -1.1163
  204MPD1    H7 3165   0.868   4.704  17.204  0.1386 -0.7029 -0.4429
  205MPD1     C 3166   1.435   2.479  16.454 -0.4524  0.0760 -0.2734
  205MPD1    C1 3167   1.318   2.552  16.472 -0.1807 -0.4992 -1.0586
  205MPD1    C2 3168   1.318   2.648  16.572  0.2028 -0.7892  0.5870
  205MPD1    C3 3169   1.425   2.648  16.662 -0.8729 -0.3748 -0.3508
  205MPD1    C4 3170   1.536   2.567  16.644  0.6732 -0.7401  0.3022
  205MPD1    C5 3171   1.536   2.478  16.541 -1.1263  0.0445  0.5756
  205MPD1     H 3172   1.228   2.708  16.579 -0.8832 -2.4448  1.0051
  205MPD1    H1 3173   1.630   2.577  16.695  0.2365 -0.9195  1.1337
  205MPD1    H2 3174   1.448   2.415  16.367  1.0795 -1.5913  1.1859
  205MPD1    H3 3175   1.622   2.414  16.527 -0.3738  1.2553 -0.3375
  205MPD1     N 3176   1.421   2.719  16.785  0.0335 -0.2648  0.5228
  205MPD1    H5 3177   1.492   2.685  16.849  0.5450  1.3316  0.8145
  205MPD1    N1 3178   1.223   2.564  16.368 -0.6712 -0.0062  0.2921
  205MPD1    H6 3179   1.127   2.587  16.395 -0.1945  0.9031  1.2118
  205MPD1    H7 3180   1.211   2.479  16.314 -1.8161  0.7898 -0.7097
  206MPD1     C 3181   1.315   1.216  16.973  0.4355 -0.8434  0.5082
  206MPD1    C1 3182   1.405   1.227  16.868  0.8046 -0.3367  0.1300
  206MPD1    C2 3183   1.347   1.244  16.743 -0.0096  0.4652  0.3205
  206MPD1    C3 3184   1.213   1.269  16.729 -0.4690  0.1101  0.0190
  206MPD1    C4 3185   1.132   1.274  16.834  0.1240  0.3630  0.4437
  206MPD1    C5 3186   1.186   1.242  16.954  0.4438  0.0022  0.0059
  206MPD1     H 3187   1.410   1.239  16.654  0.4345  0.4268  0.6386
  206MPD1    H1 3188   1.025   1.290  16.827 -0.2778 -3.7092 -2.6701
  206MPD1    H2 3189   1.352   1.190  17.072 -0.4639  0.1168  1.0991
  206MPD1    H3 3190   1.112   1.246  17.034  1.1179 -0.8945  0.6791
  206MPD1     N 3191   1.162   1.322  16.604  0.0102 -0.1572  0.7552
  206MPD1    H5 3192   1.073   1.371  16.592 -1.1877 -2.2666  1.0746
  206MPD1    N1 3193   1.540   1.189  16.896 -0.3438 -0.6286  0.5465
  206MPD1    H6 3194   1.603   1.263  16.865 -0.3185  0.1560  2.4956
  206MPD1    H7 3195   1.558   1.169  16.994 -0.7318  1.8404  1.1331
  207MPD1     C 3196   2.997   0.008   9.641 -0.0372 -0.0750 -0.3457
  207MPD1    C1 3197   3.047   0.135   9.628 -0.2208  0.0567 -0.5805
  207MPD1    C2 3198   3.174   0.160   9.679  0.2105  0.0243  0.9303
  207MPD1    C3 3199   3.241   0.070   9.762 -0.6720  0.9248 -0.2732
  207MPD1    C4 3200   3.183   4.676   9.786  0.2360 -0.0810  0.4013
  207MPD1    C5 3201   3.065   4.652   9.719  0.6036  0.6559 -0.4167
  207MPD1     H 3202   3.215   0.258   9.656  0.0683 -0.1576 -0.1187
  207MPD1    H1 3203   3.225   4.594   9.843 -0.0301 -0.9349 -0.6361
  207MPD1    H2 3204   2.901   4.714   9.597  0.4051  0.2638 -1.5127
  207MPD1    H3 3205   3.029   4.553   9.747  2.1205 -0.4025 -2.2072
  207MPD1     N 3206   3.365   0.091   9.819 -0.2286 -0.4461  0.0508
  207MPD1    H5 3207   3.411   0.016   9.869 -0.0177 -1.5187 -1.7845
  207MPD1    N1 3208   2.965   0.224   9.557  0.2302  0.3626 -0.1448
  207MPD1    H6 3209   2.994   0.322   9.561 -0.7340  0.5773  1.3563
  207MPD1    H7 3210   2.866   0.215   9.576  0.1183  0.2038 -0.8102
  208MPD1     C 3211   2.371   2.901   0.529 -0.5095  0.0215 -0.0492
  208MPD1    C1 3212   2.296   2.879   0.647  0.1849 -0.9833 -0.0616
  208MPD1    C2 3213   2.168   2.835   0.631 -0.6698 -0.2458 -0.2590
  208MPD1    C3 3214   2.124   2.794   0.504 -0.4295 -0.1059  1.0587
  208MPD1    C4 3215   2.203   2.815   0.388  0.5754  0.6629 -0.2554
  208MPD1    C5 3216   2.324   2.876   0.405  0.0295 -0.0075  0.3083
  208MPD1     H 3217   2.100   2.828   0.715 -0.3884 -2.9529 -0.2668
  208MPD1    H1 3218   2.169   2.789   0.289 -0.0408  0.8539 -0.0904
  208MPD1    H2 3219   2.470   2.945   0.538 -0.5310  0.3806 -1.6003
  208MPD1    H3 3220   2.376   2.902   0.313  0.0765 -2.5803 -0.4099
  208MPD1     N 3221   1.996   2.742   0.502  0.7972 -0.0115 -0.1920
  208MPD1    H5 3222   1.950   2.738   0.592 -0.1457  1.6103 -0.5973
  208MPD1    N1 3223   2.331   2.933   0.773 -0.2619  0.6264  0.1787
  208MPD1    H6 3224   2.432   2.937   0.784 -0.2737  1.6934 -0.1199
  208MPD1    H7 3225   2.302   2.876   0.852  1.9961 -2.1702 -1.0326
  209MPD1     C 3226   3.538   3.850  11.000 -0.5116 -0.4533 -0.8009
  209MPD1    C1 3227   3.516   3.907  11.122  0.6974 -0.5530 -0.2073
  209MPD1    C2 3228   3.522   4.049  11.122 -0.6131 -0.0452  0.0397
  209MPD1    C3 3229   3.541   4.127  11.007 -0.1645 -0.0120  0.1211
  209MPD1    C4 3230   3.552   4.059  10.887 -0.5638  0.6951  0.2036
  209MPD1    C5 3231   3.548   3.921  10.882 -0.4969  0.5278  0.1015
  209MPD1     H 3232   3.499   4.101  11.214 -0.5351  1.7859 -0.9719
  209MPD1    H1 3233   3.576   4.104  10.792 -0.8781 -1.1033 -0.7207
  209MPD1    H2 3234   3.551   3.742  11.003  0.8939 -0.1937  2.5661
  209MPD1    H3 3235   3.559   3.863  10.792  1.3609 -0.0899  0.7213
  209MPD1     N 3236   3.550   4.271  11.020 -0.3437 -0.3086  0.2191
  209MPD1    H5 3237   3.542   4.309  11.113 -0.1009 -1.2571  0.6229
  209MPD1    N1 3238   3.530   3.824  11.236  0.5875  0.5391 -0.8130
  209MPD1    H6 3239   3.477   3.861  11.315  2.8141  0.5503  0.6793
  209MPD1    H7 3240   3.504   3.726  11.224 -0.0952  0.8851 -2.1558
  210MPD1     C 3241   3.376   4.625  11.692  0.3078 -0.3748 -0.2917
  210MPD1    C1 3242   3.405   0.015  11.636  0.4940  0.2712  0.2248
  210MPD1    C2 3243   3.424   0.017  11.498 -0.2397 -0.2318 -0.2016
  210MPD1    C3 3244   3.404   4.632  11.418 -0.1989 -0.3396  0.8437
  210MPD1    C4 3245   3.379   4.513  11.482 -0.1133  0.4310  0.2008
  210MPD1    C5 3246   3.364   4.511  11.620  0.1659 -0.5001 -0.0673
  210MPD1     H 3247   3.438   0.114  11.451 -0.6443 -0.7807 -1.4503
  210MPD1    H1 3248   3.372   4.419  11.429 -3.3680  1.4513 -1.2041
  210MPD1    H2 3249   3.349   4.625  11.797  0.9533  0.5432 -0.1248
  210MPD1    H3 3250   3.350   4.419  11.675 -1.4193  0.2323  0.7685
  210MPD1     N 3251   3.422   4.625  11.278 -0.5249  0.4229  0.4410
  210MPD1    H5 3252   3.400   4.536  11.235  2.6877 -0.5080  0.7459
  210MPD1    N1 3253   3.386   0.126  11.715 -0.2756  0.2589  0.6104
  210MPD1    H6 3254   3.390   0.100  11.814  3.0512 -2.2535 -0.1724
  210MPD1    H7 3255   3.448   0.202  11.690 -1.7094  0.6746 -1.6539
  211MPD1     C 3256   1.786   2.831  16.878 -0.3290 -0.1315 -0.0033
  211MPD1    C1 3257   1.736   2.942  16.944  0.2789 -0.4454 -0.4383
  211MPD1    C2 3258   1.648   3.023  16.867  0.0869 -0.5176  0.0790
  211MPD1    C3 3259   1.634   3.006  16.728 -0.1392  0.1385  0.2730
  211MPD1    C4 3260   1.702   2.905  16.668  0.7458 -0.1801 -0.2908
  211MPD1    C5 3261   1.779   2.822  16.744 -0.2178  0.1322 -0.2861
  211MPD1     H 3262   1.585   3.103  16.904 -0.5082 -0.6808 -0.5846
  211MPD1    H1 3263   1.701   2.903  16.560 -1.4810  0.9062 -0.2974
  211MPD1    H2 3264   1.840   2.759  16.937  2.2294  1.3588 -0.5176
  211MPD1    H3 3265   1.832   2.738  16.700 -0.7444  0.3191 -1.2884
  211MPD1     N 3266   1.549   3.096  16.658  0.2698 -0.3434  0.3289
  211MPD1    H5 3267   1.497   3.167  16.709  1.0452  0.4469  0.0054
  211MPD1    N1 3268   1.732   2.945  17.089 -0.1938  0.1173  0.0300
  211MPD1    H6 3269   1.723   3.044  17.107  0.8748 -0.1423  1.9297
  211MPD1    H7 3270   1.814   2.898  17.127  1.4504  0.8574 -2.5730
  212MPD1     C 3271   0.593   1.841  16.448 -0.9396 -0.5219  0.5513
  212MPD1    C1 3272   0.454   1.852  16.451  0.2068 -0.2237  0.5743
  212MPD1    C2 3273   0.383   1.778  16.542  0.7304  0.5862  1.1366
  212MPD1    C3 3274   0.451   1.696  16.634  0.4104  0.3575  0.1179
  212MPD1    C4 3275   0.589   1.684  16.624 -0.6942  0.2085  0.3166
  212MPD1    C5 3276   0.658   1.760  16.531 -0.9121 -0.4583 -0.5985
  212MPD1     H 3277   0.274   1.775  16.540  0.7152  0.9003  1.4128
  212MPD1    H1 3278   0.633   1.601  16.679  0.2350 -0.3932 -1.3587
  212MPD1    H2 3279   0.642   1.877  16.358 -2.9425 -1.1489 -0.7872
  212MPD1    H3 3280   0.764   1.749  16.513 -0.7690  0.5138 -0.3491
  212MPD1     N 3281   0.383   1.611  16.731 -0.2386  0.4275  0.3537
  212MPD1    H5 3282   0.439   1.549  16.789 -3.0242 -1.0615  1.4092
  212MPD1    N1 3283   0.386   1.935  16.362  0.3250  0.2170  0.5031
  212MPD1    H6 3284   0.441   2.013  16.325 -0.6036  1.0476  0.8708
  212MPD1    H7 3285   0.300   1.976  16.398 -0.1740 -0.2951 -0.1180
  213MPD1     C 3286   3.600   3.047  15.952 -0.5621  0.5545 -0.4110
  213MPD1    C1 3287   3.468   3.017  15.905 -0.2507 -0.0834  0.5144
  213MPD1    C2 3288   3.467   2.936  15.790  0.2637 -0.4481 -0.0698
  213MPD1    C3 3289   3.590   2.898  15.732 -0.0258 -0.0723  0.2243
  213MPD1    C4 3290   3.713   2.947  15.770 -0.4244 -0.5803  0.3607
  213MPD1    C5 3291   3.712   3.032  15.876 -0.0887  0.0895 -0.1333
  213MPD1     H 3292   3.369   2.898  15.763  0.3821 -0.4053 -0.5596
  213MPD1    H1 3293   3.804   2.920  15.719  0.1532  1.8550  0.0927
  213MPD1    H2 3294   3.620   3.111  16.037 -0.0463  1.2687 -1.0700
  213MPD1    H3 3295   3.810   3.070  15.903 -0.1987 -0.5378  1.1088
  213MPD1     N 3296   3.576   2.819  15.618 -0.9965  0.0453  0.0685
  213MPD1    H5 3297   3.481   2.788  15.595 -0.8088 -1.4638  1.3193
  213MPD1    N1 3298   3.362   3.016  15.996 -0.3430 -0.3636 -0.3197
  213MPD1    H6 3299   3.372   3.087  16.069 -1.2473 -0.3007 -0.2585
  213MPD1    H7 3300   3.276   3.036  15.945 -0.5336 -0.6970 -0.1251
  214MPD1     C 3301   2.977   2.215  15.525  0.8627 -0.1042  0.3736
  214MPD1    C1 3302   2.986   2.303  15.414 -0.4031 -0.0282  0.4188
  214MPD1    C2 3303   3.102   2.367  15.378  1.0944  0.9562 -0.1321
  214MPD1    C3 3304   3.212   2.348  15.461  0.7925 -0.1484  0.1468
  214MPD1    C4 3305   3.196   2.268  15.575  0.4898  0.5113 -0.7428
  214MPD1    C5 3306   3.084   2.205  15.607 -0.1231  0.4818 -0.6506
  214MPD1     H 3307   3.099   2.442  15.300  0.8350  1.8426  0.7293
  214MPD1    H1 3308   3.273   2.254  15.650 -2.3021  1.0473  2.2360
  214MPD1    H2 3309   2.884   2.164  15.551  2.4910 -2.0291  2.4369
  214MPD1    H3 3310   3.083   2.143  15.695  2.1829  1.2009 -0.1183
  214MPD1     N 3311   3.333   2.422  15.441 -0.5939  0.2522 -0.1785
  214MPD1    H5 3312   3.394   2.442  15.520  0.6527 -0.3632 -0.9767
  214MPD1    N1 3313   2.874   2.310  15.330  0.2484  0.0831  0.5654
  214MPD1    H6 3314   2.861   2.400  15.284 -1.1498  0.1460  1.0847
  214MPD1    H7 3315   2.785   2.277  15.366 -0.1327  0.0585 -0.4221
  215MPD1     C 3316   2.428   3.761  10.572  0.0894  0.4281  0.5220
  215MPD1    C1 3317   2.515   3.835  10.498  0.0144  0.7274  0.5500
  215MPD1    C2 3318   2.625   3.894  10.553  0.1146 -0.4850 -0.2969
  215MPD1    C3 3319   2.650   3.859  10.685 -0.7056 -0.4041 -0.8116
  215MPD1    C4 3320   2.572   3.771  10.760 -0.5845 -0.7677  0.2879
  215MPD1    C5 3321   2.455   3.727  10.701 -0.0133 -0.2662 -0.2851
  215MPD1     H 3322   2.692   3.961  10.499  1.1252 -1.0512  0.2432
  215MPD1    H1 3323   2.594   3.743  10.862 -0.4660  0.2249  0.5309
  215MPD1    H2 3324   2.344   3.716  10.519  1.6837 -0.0016 -1.6382
  215MPD1    H3 3325   2.393   3.658  10.758 -1.0723  1.2927  0.4528
  215MPD1     N 3326   2.774   3.908  10.740 -0.6659 -0.2241 -0.0413
  215MPD1    H5 3327   2.835   3.960  10.678  0.9077 -1.0408  0.8183
  215MPD1    N1 3328   2.478   3.879  10.369  0.5416  0.2809  1.0029
  215MPD1    H6 3329   2.449   3.976  10.383 -0.8613 -0.1916  1.3331
  215MPD1    H7 3330   2.396   3.828  10.336  0.3324  0.5264  1.1365
  216MPD1     C 3331   0.901   0.927  16.565 -1.0091  0.0093  0.0171
  216MPD1    C1 3332   1.030   0.887  16.569 -1.0835  0.3019  0.0491
  216MPD1    C2 3333   1.054   0.748  16.579 -0.3736  0.2351 -0.3156
  216MPD1    C3 3334   0.959   0.650  16.562 -0.5330  0.1291  0.1289
  216MPD1    C4 3335   0.833   0.701  16.538 -0.3452  0.7529  0.0814
  216MPD1    C5 3336   0.804   0.835  16.546 -1.0536 -0.1624 -0.1210
  216MPD1     H 3337   1.155   0.717  16.603 -0.5556  0.5880  0.8995
  216MPD1    H1 3338   0.755   0.633  16.504  1.2041  0.4080 -2.7486
  216MPD1    H2 3339   0.869   1.028  16.588  1.5672  0.5347  1.3363
  216MPD1    H3 3340   0.699   0.864  16.548 -1.1948 -0.5885 -1.7115
  216MPD1     N 3341   0.996   0.513  16.562 -0.3691 -0.2255 -0.2300
  216MPD1    H5 3342   1.086   0.497  16.606 -0.9976 -0.3223  1.0279
  216MPD1    N1 3343   1.128   0.967  16.620 -0.3730 -0.0414  0.2243
  216MPD1    H6 3344   1.221   0.938  16.590  0.3564  1.0598  1.4028
  216MPD1    H7 3345   1.124   1.060  16.578  1.6139 -0.7716 -1.5729
  217MPD1     C 3346   1.324   2.841   9.532  0.5324  0.6659  0.3233
  217MPD1    C1 3347   1.227   2.927   9.480  0.3489  0.6560  0.4952
  217MPD1    C2 3348   1.278   3.047   9.432 -0.2138  0.4290  0.0960
  217MPD1    C3 3349   1.417   3.080   9.429  0.5697  0.0026 -0.2963
  217MPD1    C4 3350   1.504   2.997   9.491  0.3663 -0.2270  0.0998
  217MPD1    C5 3351   1.455   2.883   9.545  0.0865 -0.9470  0.2412
  217MPD1     H 3352   1.204   3.114   9.389 -0.8650 -1.7802 -2.1978
  217MPD1    H1 3353   1.612   3.005   9.494  0.2503  0.6254  1.8315
  217MPD1    H2 3354   1.302   2.741   9.566  0.1792 -0.2174 -2.5219
  217MPD1    H3 3355   1.525   2.818   9.595 -0.2961 -0.5393  1.2922
  217MPD1     N 3356   1.477   3.200   9.381 -0.4006 -0.7739  0.0359
  217MPD1    H5 3357   1.578   3.197   9.371 -0.3510 -0.9011  0.5797
  217MPD1    N1 3358   1.092   2.881   9.485  0.6001 -0.1416 -0.2104
  217MPD1    H6 3359   1.035   2.912   9.407  0.6359  0.8285  0.1459
  217MPD1    H7 3360   1.095   2.780   9.495  0.4558  0.0917  2.4221
  218MPD1     C 3361   3.071   4.287  13.071 -0.1899  0.7350 -0.3542
  218MPD1    C1 3362   3.160   4.184  13.095  0.4145 -1.1539 -0.5098
  218MPD1    C2 3363   3.214   4.127  12.984  0.6877  0.8997  1.1369
  218MPD1    C3 3364   3.185   4.169  12.856  0.9044 -0.0479 -0.6853
  218MPD1    C4 3365   3.093   4.268  12.833  0.4833 -0.3571 -0.2475
  218MPD1    C5 3366   3.032   4.324  12.944 -0.7147  0.0294  0.8804
  218MPD1     H 3367   3.288   4.048  12.985 -0.8953 -0.6363 -1.9012
  218MPD1    H1 3368   3.052   4.287  12.735 -1.3901 -0.8701  0.4414
  218MPD1    H2 3369   3.038   4.341  13.160  2.7010  0.0790  1.1171
  218MPD1    H3 3370   2.957   4.402  12.946 -0.6297  0.1478 -0.6309
  218MPD1     N 3371   3.250   4.095  12.751 -0.0062  0.1898  0.0776
  218MPD1    H5 3372   3.301   4.018  12.794  0.0992 -0.0176 -0.4158
  218MPD1    N1 3373   3.163   4.123  13.225 -0.3119  0.4780 -0.3180
  218MPD1    H6 3374   3.247   4.066  13.224  0.4424  1.5898  1.2218
  218MPD1    H7 3375   3.159   4.191  13.300 -3.2014 -0.3259  0.2744
  219MPD1     C 3376   3.638   4.006  11.854  0.8599 -0.0744 -0.4190
  219MPD1    C1 3377   3.635   3.885  11.914  0.0384 -0.4441  0.4237
  219MPD1    C2 3378   3.561   3.860  12.022  0.0990  0.2899  0.4254
  219MPD1    C3 3379   3.496   3.968  12.087 -0.3187 -1.0192  0.5341
  219MPD1    C4 3380   3.506   4.093  12.029  0.1346  0.1033  0.4081
  219MPD1    C5 3381   3.570   4.114  11.911  0.4324 -0.5008  0.6246
  219MPD1     H 3382   3.546   3.755  12.047 -0.1812 -0.1189 -1.4521
  219MPD1    H1 3383   3.441   4.169  12.070  2.3342  1.6741  0.9509
  219MPD1    H2 3384   3.696   4.017  11.763 -1.1492  3.5554 -1.2375
  219MPD1    H3 3385   3.559   4.208  11.858  1.4349 -2.1937 -2.5592
  219MPD1     N 3386   3.412   3.954  12.199  0.2891  0.6339 -0.0787
  219MPD1    H5 3387   3.373   4.038  12.240 -0.5289  0.6288 -0.8382
  219MPD1    N1 3388   3.698   3.784  11.843 -0.7150 -0.1768 -0.0170
  219MPD1    H6 3389   3.718   3.707  11.907 -0.7313 -0.0615  0.1271
  219MPD1    H7 3390   3.791   3.806  11.807 -1.6268  0.5237 -1.9180
  220MPD1     C 3391   2.727   0.697  10.195  0.1605 -0.5472 -0.4089
  220MPD1    C1 3392   2.853   0.655  10.233  0.4235  0.0564  0.0229
  220MPD1    C2 3393   2.906   0.542  10.177 -0.2172 -0.1141 -0.1838
  220MPD1    C3 3394   2.828   0.456  10.103 -0.5853  0.2449  0.4371
  220MPD1    C4 3395   2.705   0.498  10.066 -0.5264  0.0416  0.6657
  220MPD1    C5 3396   2.653   0.617  10.114 -0.5947 -0.0813 -0.1823
  220MPD1     H 3397   3.006   0.507  10.201 -0.1569 -0.2874 -0.6890
  220MPD1    H1 3398   2.640   0.443   9.999  1.5548 -2.4370  0.6682
  220MPD1    H2 3399   2.690   0.795  10.220  2.3834  0.1989 -0.0535
  220MPD1    H3 3400   2.557   0.658  10.084 -0.7385 -1.8331 -2.1230
  220MPD1     N 3401   2.877   0.328  10.065  0.3057 -0.3210 -0.5179
  220MPD1    H5 3402   2.960   0.290  10.107  1.0782 -0.7956 -2.4543
  220MPD1    N1 3403   2.927   0.743  10.314 -0.2342 -0.3782 -0.7862
  220MPD1    H6 3404   2.876   0.813  10.368 -0.5575 -0.4456 -1.0054
  220MPD1    H7 3405   2.996   0.693  10.370 -1.1342 -0.2093  0.4422
  221MPD1     C 3406   1.463   3.323  16.105  0.5207  0.2721 -0.2821
  221MPD1    C1 3407   1.392   3.271  16.000  0.3645 -0.3435 -0.2755
  221MPD1    C2 3408   1.423   3.146  15.954 -0.8586  0.5385 -0.5733
  221MPD1    C3 3409   1.498   3.058  16.036  0.2056 -0.0730  0.4524
  221MPD1    C4 3410   1.564   3.109  16.148 -0.0529  0.2940  0.4423
  221MPD1    C5 3411   1.556   3.248  16.177 -0.3502  0.1062 -0.1468
  221MPD1     H 3412   1.383   3.104  15.863  3.6689 -0.0024 -2.3363
  221MPD1    H1 3413   1.621   3.047  16.216  0.3242  0.6484  0.4499
  221MPD1    H2 3414   1.456   3.427  16.134 -0.7462 -0.4015  1.7977
  221MPD1    H3 3415   1.603   3.279  16.270 -1.3640  0.1337  0.3571
  221MPD1     N 3416   1.505   2.915  16.015 -0.4283  0.1764 -0.2151
  221MPD1    H5 3417   1.572   2.864  16.072  0.4554  0.8281 -0.6635
  221MPD1    N1 3418   1.304   3.353  15.932  0.5795 -0.4235  0.4196
  221MPD1    H6 3419   1.230   3.304  15.881 -0.2503  2.3619 -1.0304
  221MPD1    H7 3420   1.275   3.429  15.992 -0.6541 -0.3096 -0.3196
  222MPD1     C 3421   4.621   1.929  16.644  0.5973 -0.0276  0.0298
  222MPD1    C1 3422   4.511   1.929  16.723 -0.0176  0.2210  0.3050
  222MPD1    C2 3423   4.528   1.896  16.853 -0.0754 -0.3690 -0.0460
  222MPD1    C3 3424   4.652   1.862  16.912 -0.0054  0.6464 -0.0508
  222MPD1    C4 3425   0.031   1.868  16.832  0.4019 -0.2401 -0.8332
  222MPD1    C5 3426   0.011   1.911  16.704  0.4296  0.4610 -0.3819
  222MPD1     H 3427   4.441   1.886  16.917  0.2749  0.8702  0.6375
  222MPD1    H1 3428   0.133   1.860  16.867 -1.0923 -2.5383  2.8620
  222MPD1    H2 3429   4.611   1.947  16.537  0.6762 -1.2057 -0.1828
  222MPD1    H3 3430   0.092   1.936  16.636  0.7771 -0.8438 -0.4478
  222MPD1     N 3431   4.665   1.821  17.045  0.0693 -0.0483  0.3861
  222MPD1    H5 3432   0.022   1.779  17.067 -0.2097 -0.3161  0.9959
  222MPD1    N1 3433   4.376   1.932  16.686  0.4369 -0.3236 -0.0155
  222MPD1    H6 3434   4.314   1.967  16.759 -1.0734 -2.9921 -0.0164
  222MPD1    H7 3435   4.364   1.973  16.594  0.8713  2.3809  1.1291
  223MPD1     C 3436   0.532   1.350  17.085 -0.5863  0.4389  0.7026
  223MPD1    C1 3437   0.504   1.480  17.061 -0.4176  0.0197  0.2626
  223MPD1    C2 3438   0.389   1.542  17.112  0.0292  0.6109  0.2294
  223MPD1    C3 3439   0.307   1.465  17.192 -0.0516  0.9916 -0.0055
  223MPD1    C4 3440   0.343   1.340  17.229  0.0966  0.0254  0.2662
  223MPD1    C5 3441   0.461   1.284  17.178  0.2460 -0.0394 -0.1028
  223MPD1     H 3442   0.360   1.640  17.075  1.5390  0.9052 -0.1945
  223MPD1    H1 3443   0.289   1.272  17.294 -0.9795  0.9844  0.3975
  223MPD1    H2 3444   0.623   1.314  17.040 -1.5722 -0.0315 -0.8899
  223MPD1    H3 3445   0.496   1.185  17.205 -0.0099  0.3981  1.8371
  223MPD1     N 3446   0.191   1.520  17.239  0.3424 -0.1708 -0.1703
  223MPD1    H5 3447   0.156   1.606  17.198  2.0221 -0.2186 -1.6889
  223MPD1    N1 3448   0.577   1.545  16.964 -0.1799  0.4606  0.0357
  223MPD1    H6 3449   0.662   1.506  16.925  1.1919  1.4446  2.0297
  223MPD1    H7 3450   0.588   1.643  16.989 -0.5729  0.1780  1.3390
  224MPD1     C 3451   0.967   0.049   9.011 -0.6297  0.7481  0.2545
  224MPD1    C1 3452   1.081   4.716   8.984 -0.2688  0.6262  0.2169
  224MPD1    C2 3453   1.165   4.678   9.084  0.2363 -0.1110  0.2850
  224MPD1    C3 3454   1.132   4.692   9.220 -0.3422  0.4482  0.6132
  224MPD1    C4 3455   1.008   0.010   9.242 -0.5271  0.0856 -0.5395
  224MPD1    C5 3456   0.927   0.062   9.144 -0.3315 -0.2607  0.3433
  224MPD1     H 3457   1.261   4.639   9.054  1.0675  2.4882 -0.4474
  224MPD1    H1 3458   0.991   0.036   9.346 -0.8108 -0.7686 -0.3726
  224MPD1    H2 3459   0.909   0.088   8.928 -0.1373 -1.3246 -1.0765
  224MPD1    H3 3460   0.833   0.108   9.172 -0.7311 -1.0730  0.3430
  224MPD1     N 3461   1.219   4.662   9.332  0.1088 -0.5726 -0.3241
  224MPD1    H5 3462   1.190   4.689   9.426  1.0929 -0.9987  0.0967
  224MPD1    N1 3463   1.128   4.729   8.855 -0.3312 -0.1110  0.2298
  224MPD1    H6 3464   1.200   4.659   8.839 -1.3081 -1.1243  0.2584
  224MPD1    H7 3465   1.061   4.704   8.782  1.7312 -0.0293 -1.6725
  225MPD1     C 3466   2.755   4.627  13.260 -0.0920  0.7783 -0.1743
  225MPD1    C1 3467   2.760   4.492  13.214  0.1324 -0.2230 -0.1437
  225MPD1    C2 3468   2.719   4.479  13.083  0.2480  0.5130  0.5806
  225MPD1    C3 3469   2.715   4.594  12.999 -0.1124  0.9171 -0.0072
  225MPD1    C4 3470   2.728   4.719  13.049  0.4972  0.2873 -0.8250
  225MPD1    C5 3471   2.745   0.002  13.180 -0.0174 -0.2902 -0.2030
  225MPD1     H 3472   2.713   4.380  13.038  1.3042  0.5999  0.2483
  225MPD1    H1 3473   2.716   0.075  12.987  1.1841  0.6278 -0.4642
  225MPD1    H2 3474   2.753   4.654  13.365 -1.1682 -0.1162  0.0315
  225MPD1    H3 3475   2.723   0.098  13.225  2.0813  0.2941 -0.4213
  225MPD1     N 3476   2.688   4.583  12.857  0.2649 -0.2593  0.2611
  225MPD1    H5 3477   2.673   4.668  12.803  1.6928  0.3538  0.8205
  225MPD1    N1 3478   2.753   4.387  13.307 -0.2531 -0.6746  0.0015
  225MPD1    H6 3479   2.790   4.295  13.282  1.2269 -0.0178 -0.1901
  225MPD1    H7 3480   2.798   4.417  13.393  1.1124 -1.2101 -0.5258
  226MPD1     C 3481   1.594   0.583  10.606 -0.5373 -0.8870  0.4870
  226MPD1    C1 3482   1.714   0.524  10.573 -0.9943  0.4556 -0.4960
  226MPD1    C2 3483   1.730   0.480  10.443 -0.4439  0.2529 -0.3460
  226MPD1    C3 3484   1.630   0.497  10.345 -1.1521 -0.1722 -0.1453
  226MPD1    C4 3485   1.509   0.557  10.386  0.5002  0.2256 -0.4003
  226MPD1    C5 3486   1.494   0.603  10.514 -0.3994 -0.0973 -0.2977
  226MPD1     H 3487   1.828   0.443  10.412 -0.2658  0.3812  0.0675
  226MPD1    H1 3488   1.424   0.569  10.320  0.8990  1.3911 -0.7014
  226MPD1    H2 3489   1.573   0.615  10.707  0.4683 -1.4177  0.8634
  226MPD1    H3 3490   1.412   0.669  10.538 -0.7944 -1.5223  2.2090
  226MPD1     N 3491   1.641   0.457  10.210 -0.1858  0.2657 -0.3514
  226MPD1    H5 3492   1.733   0.419  10.187 -0.3234  0.0245 -0.5031
  226MPD1    N1 3493   1.792   0.483  10.677  0.7609 -0.4360  0.2072
  226MPD1    H6 3494   1.802   0.554  10.750 -0.9246  1.2749 -1.2376
  226MPD1    H7 3495   1.887   0.467  10.645  1.3706 -0.4831  2.0036
  227MPD1     C 3496   1.219   0.293   9.204 -0.4798  0.2676 -0.1949
  227MPD1    C1 3497   1.344   0.232   9.205  0.6003  0.6769 -0.0757
  227MPD1    C2 3498   1.422   0.243   9.317 -0.0172  0.0212 -0.0826
  227MPD1    C3 3499   1.372   0.311   9.428  0.0203 -0.0685  0.5578
  227MPD1    C4 3500   1.248   0.366   9.427 -0.2031  0.8287 -0.0305
  227MPD1    C5 3501   1.175   0.358   9.315 -0.1755 -0.2128 -0.0431
  227MPD1     H 3502   1.513   0.186   9.325 -0.3982 -0.5992 -0.1275
  227MPD1    H1 3503   1.196   0.414   9.509  0.4622 -0.1889  0.9829
  227MPD1    H2 3504   1.156   0.296   9.116 -0.5936 -1.9844 -0.1912
  227MPD1    H3 3505   1.076   0.400   9.325 -0.1705 -0.7000  2.2730
  227MPD1     N 3506   1.452   0.309   9.544 -0.4239  0.4626 -0.3049
  227MPD1    H5 3507   1.536   0.252   9.548 -1.1173 -0.5465 -0.1004
  227MPD1    N1 3508   1.396   0.174   9.084  0.2048 -0.4099 -0.0522
  227MPD1    H6 3509   1.325   0.125   9.030 -0.2213  1.8164 -1.5248
  227MPD1    H7 3510   1.472   0.108   9.101  1.5534  1.3737  0.8060
  228MPD1     C 3511   4.471   2.823  13.437 -0.0626 -0.1359 -0.1625
  228MPD1    C1 3512   4.506   2.698  13.480 -0.3153 -0.2201 -0.1886
  228MPD1    C2 3513   4.467   2.594  13.397 -0.1290  0.4392 -0.8131
  228MPD1    C3 3514   4.385   2.620  13.288  0.3055  0.6148  0.2751
  228MPD1    C4 3515   4.356   2.749  13.250 -0.1366 -0.7201  0.0381
  228MPD1    C5 3516   4.403   2.853  13.326  0.2807 -0.0411  0.6369
  228MPD1     H 3517   4.490   2.493  13.431  0.9930  1.7112  2.1591
  228MPD1    H1 3518   4.292   2.779  13.167 -0.0018 -0.5472 -0.0037
  228MPD1    H2 3519   4.497   2.906  13.503  0.9598 -2.0218  1.8050
  228MPD1    H3 3520   4.376   2.953  13.292  2.4849  0.2875 -0.1461
  228MPD1     N 3521   4.338   2.512  13.206 -0.7922 -0.6330 -1.0473
  228MPD1    H5 3522   4.377   2.419  13.215  0.9320 -0.1459 -3.3364
  228MPD1    N1 3523   4.547   2.677  13.613 -0.2514  0.3320  0.0944
  228MPD1    H6 3524   4.604   2.753  13.649  0.3073 -0.0223 -0.0330
  228MPD1    H7 3525   4.605   2.595  13.629  0.1222  0.8458  1.3474
  229MPD1     C 3526   4.538   1.139  14.210  0.0154 -0.2948  0.3320
  229MPD1    C1 3527   4.577   1.023  14.152 -0.6783  0.1361 -0.5894
  229MPD1    C2 3528   4.609   0.919  14.234  0.1179  0.2149 -0.2705
  229MPD1    C3 3529   4.625   0.935  14.372 -0.7257 -0.9885 -0.5040
  229MPD1    C4 3530   4.595   1.059  14.423 -0.4869  0.0055 -0.1997
  229MPD1    C5 3531   4.552   1.158  14.344 -0.0655 -0.1758  0.1061
  229MPD1     H 3532   4.617   0.820  14.191  0.4819 -0.4975  1.4128
  229MPD1    H1 3533   4.595   1.069  14.531  2.0578  0.9296 -0.2871
  229MPD1    H2 3534   4.496   1.226  14.161 -1.2003 -0.7500  0.5822
  229MPD1    H3 3535   4.510   1.250  14.383  0.6537  0.2552 -0.1407
  229MPD1     N 3536   4.653   0.826  14.465 -0.1317 -0.0536  0.4287
  229MPD1    H5 3537   4.658   0.847  14.564 -1.6688 -1.7862  0.8717
  229MPD1    N1 3538   4.542   1.001  14.017 -0.5458 -0.0926  0.4588
  229MPD1    H6 3539   4.613   0.938  13.980 -1.6016 -2.0530  1.7833
  229MPD1    H7 3540   4.556   1.083  13.959 -0.6071 -1.0602 -0.9209
  230MPD1     C 3541   4.713   0.639  15.411  0.4997  0.2136  0.4115
  230MPD1    C1 3542   0.001   0.512  15.366 -0.0617 -0.1758  0.0953
  230MPD1    C2 3543   4.713   0.474  15.235 -0.2326 -0.1751 -0.0596
  230MPD1    C3 3544   4.691   0.580  15.146  0.1460  0.2287  0.1021
  230MPD1    C4 3545   4.668   0.711  15.190 -0.0020 -0.3486  0.1830
  230MPD1    C5 3546   4.676   0.741  15.321 -0.4256 -0.3376  0.0529
  230MPD1     H 3547   4.731   0.372  15.204 -0.1207  0.3365 -1.7237
  230MPD1    H1 3548   4.642   0.794  15.124  1.1213 -0.0106  0.1650
  230MPD1    H2 3549   4.728   0.674  15.512  0.6985  1.7223 -0.1404
  230MPD1    H3 3550   4.660   0.844  15.349 -1.0211 -0.7956  1.4212
  230MPD1     N 3551   4.696   0.544  15.008 -0.1599  0.6920 -0.0491
  230MPD1    H5 3552   4.705   0.444  14.991  0.2542  0.8304 -0.6693
  230MPD1    N1 3553   0.037   0.420  15.464  0.7365  0.4625 -0.2298
  230MPD1    H6 3554   0.082   0.470  15.541 -2.0338  1.6931  0.5870
  230MPD1    H7 3555   0.119   0.369  15.433  1.9960  2.1514  0.3149
  231MPD1     C 3556   2.650   2.670  15.355  0.4143 -0.4417 -0.2739
  231MPD1    C1 3557   2.661   2.593  15.246 -0.4180 -0.3548  1.1155
  231MPD1    C2 3558   2.776   2.624  15.173  0.1619  0.0938 -0.7414
  231MPD1    C3 3559   2.870   2.710  15.213  0.0853 -0.2240  0.3393
  231MPD1    C4 3560   2.858   2.782  15.331  0.1920  0.3227 -0.7731
  231MPD1    C5 3561   2.741   2.763  15.395  0.1266 -0.2364  0.2033
  231MPD1     H 3562   2.788   2.572  15.079 -2.1004 -0.5015 -0.6982
  231MPD1    H1 3563   2.925   2.857  15.371  1.2099 -1.7400  1.3939
  231MPD1    H2 3564   2.558   2.670  15.413  0.8906 -1.5046  0.4939
  231MPD1    H3 3565   2.694   2.817  15.477  0.4911  0.0940  0.1906
  231MPD1     N 3566   2.989   2.727  15.134  0.4197 -0.2378 -0.0564
  231MPD1    H5 3567   2.979   2.699  15.037  1.2105 -0.1690 -0.1592
  231MPD1    N1 3568   2.562   2.500  15.211  0.0260 -0.6466  0.0299
  231MPD1    H6 3569   2.604   2.420  15.163  0.9549  0.4320 -0.9697
  231MPD1    H7 3570   2.494   2.471  15.281  0.8938 -2.2374  0.2201
  232MPD1     C 3571   0.133   0.411   0.321  0.3522  1.0850 -0.6754
  232MPD1    C1 3572   0.075   0.305   0.376  0.4434 -0.1961  0.2027
  232MPD1    C2 3573   4.672   0.277   0.361  0.3565 -0.2091  0.1836
  232MPD1    C3 3574   4.599   0.365   0.285 -0.1435 -0.0065 -0.1610
  232MPD1    C4 3575   4.659   0.469   0.220  0.5543 -0.3344  0.0312
  232MPD1    C5 3576   0.063   0.486   0.234  1.2947  0.3051  0.4763
  232MPD1     H 3577   4.636   0.194   0.419  0.8307 -0.6407 -0.1434
  232MPD1    H1 3578   4.609   0.537   0.152  0.6496  0.8962  1.2062
  232MPD1    H2 3579   0.241   0.419   0.329  0.4434 -1.4333  0.6107
  232MPD1    H3 3580   0.109   0.570   0.183 -0.8227  2.4647  2.1016
  232MPD1     N 3581   4.461   0.344   0.276 -0.4177 -0.3875  0.7241
  232MPD1    H5 3582   4.423   0.263   0.325  2.6428 -0.6973  2.6160
  232MPD1    N1 3583   0.147   0.218   0.459  0.6918  0.5715 -0.0099
  232MPD1    H6 3584   0.119   0.121   0.442  0.0848  1.1841 -2.5127
  232MPD1    H7 3585   0.247   0.221   0.446  0.6743 -1.2718 -0.6068
  233MPD1     C 3586   0.278   4.271   1.367 -0.3045  0.8700  0.1388
  233MPD1    C1 3587   0.380   4.253   1.452 -0.0609 -0.0948 -0.6507
  233MPD1    C2 3588   0.451   4.133   1.439 -0.1007  0.5330 -0.5306
  233MPD1    C3 3589   0.408   4.031   1.351  0.5104  0.3373 -0.6322
  233MPD1    C4 3590   0.294   4.050   1.281 -0.1065 -0.0554  0.1657
  233MPD1    C5 3591   0.233   4.170   1.285  0.2173 -1.1490 -0.5341
  233MPD1     H 3592   0.537   4.121   1.503 -0.2127 -1.0321 -0.6688
  233MPD1    H1 3593   0.257   3.967   1.222  2.2770 -0.7744 -0.3398
  233MPD1    H2 3594   0.232   4.369   1.362 -0.8035  0.5868 -0.9412
  233MPD1    H3 3595   0.139   4.181   1.232  0.4414  2.8860 -0.0979
  233MPD1     N 3596   0.474   3.903   1.335  0.3992  0.5165  0.3775
  233MPD1    H5 3597   0.436   3.848   1.259  0.8993 -0.6761  0.9858
  233MPD1    N1 3598   0.429   4.364   1.529 -0.3040 -0.3360 -0.3329
  233MPD1    H6 3599   0.465   4.333   1.619 -0.9338 -0.9244 -0.2822
  233MPD1    H7 3600   0.362   4.440   1.534 -0.4478 -0.5795  1.6218
  234MPD1     C 3601   3.215   4.118   9.314  0.3918  0.4151  0.6949
  234MPD1    C1 3602   3.145   4.229   9.348  0.4561  0.6450 -0.0058
  234MPD1    C2 3603   3.012   4.221   9.391 -0.2179  0.5151  0.4350
  234MPD1    C3 3604   2.947   4.095   9.394  0.0152 -0.6156 -0.0713
  234MPD1    C4 3605   3.023   3.982   9.366  0.3157 -0.2829 -0.0867
  234MPD1    C5 3606   3.154   3.998   9.327 -0.6780 -0.2154  0.5107
  234MPD1     H 3607   2.955   4.307   9.425  0.5915  0.7808  1.1230
  234MPD1    H1 3608   2.992   3.878   9.368  2.1587 -0.8369 -0.8950
  234MPD1    H2 3609   3.320   4.125   9.288  0.3271 -1.0696  0.0596
  234MPD1    H3 3610   3.218   3.912   9.305 -0.8711 -0.6262  1.5457
  234MPD1     N 3611   2.811   4.099   9.422  0.1279 -0.9139 -0.0995
  234MPD1    H5 3612   2.772   4.192   9.419  0.6781 -0.7284 -1.1125
  234MPD1    N1 3613   3.215   4.344   9.370  0.0562 -0.2680 -0.0501
  234MPD1    H6 3614   3.304   4.348   9.320  1.7004  0.3515  2.8731
  234MPD1    H7 3615   3.153   4.423   9.356  1.4787  1.0824  1.1190
  235MPD1     C 3616   3.242   0.424  10.017 -0.0429 -0.2679 -0.0465
  235MPD1    C1 3617   3.267   0.481   9.898  0.1470 -0.0829 -0.2171
  235MPD1    C2 3618   3.383   0.556   9.883 -0.1990 -0.9345 -0.8735
  235MPD1    C3 3619   3.477   0.565   9.984  0.0160  0.0958  0.0476
  235MPD1    C4 3620   3.451   0.502  10.105 -0.3102 -0.0537  0.0077
  235MPD1    C5 3621   3.328   0.445  10.125  0.0179  0.5135 -0.4037
  235MPD1     H 3622   3.395   0.608   9.789  1.6423  0.6357  0.2345
  235MPD1    H1 3623   3.513   0.521  10.191 -0.4775  1.1055 -0.1224
  235MPD1    H2 3624   3.160   0.354  10.028 -1.0527  0.6616 -1.6775
  235MPD1    H3 3625   3.308   0.416  10.227  0.5559  3.7039  0.6122
  235MPD1     N 3626   3.597   0.643   9.967  0.0345  0.5086 -0.2747
  235MPD1    H5 3627   3.607   0.707   9.889  0.5108 -1.5930 -1.9631
  235MPD1    N1 3628   3.161   0.491   9.803  0.1887 -0.0352  0.4246
  235MPD1    H6 3629   3.096   0.413   9.805  0.8004 -0.5697 -0.9616
  235MPD1    H7 3630   3.204   0.508   9.712  1.4948  2.8122  1.5613
  236MPD1     C 3631   2.541   1.813  10.126  0.0827 -0.3171 -0.0856
  236MPD1    C1 3632   2.640   1.909  10.139  0.3450 -0.7546 -0.1126
  236MPD1    C2 3633   2.763   1.874  10.186 -0.3944  0.2321  0.2170
  236MPD1    C3 3634   2.789   1.746  10.223  0.3040 -0.1010  0.4309
  236MPD1    C4 3635   2.688   1.648  10.200 -0.3669  0.3041 -0.1328
  236MPD1    C5 3636   2.560   1.684  10.163  0.1215 -0.1185 -0.0021
  236MPD1     H 3637   2.832   1.955  10.206  0.8932 -1.0941  1.1159
  236MPD1    H1 3638   2.702   1.543  10.223  0.8441 -0.5767 -5.0691
  236MPD1    H2 3639   2.437   1.831  10.101 -0.5933 -2.4157  1.2661
  236MPD1    H3 3640   2.475   1.617  10.161 -0.8542  1.1285 -0.3495
  236MPD1     N 3641   2.913   1.707  10.275 -0.6454  0.3122  0.3360
  236MPD1    H5 3642   2.925   1.607  10.285 -2.6738 -0.0384 -0.7262
  236MPD1    N1 3643   2.604   2.046  10.116  0.0560 -0.3748  0.1411
  236MPD1    H6 3644   2.686   2.087  10.072  0.4737 -1.8444 -0.4765
  236MPD1    H7 3645   2.527   2.049  10.049 -0.1583  1.4298  0.4655
  237MPD1     C 3646   3.029   4.048  15.475 -0.4649 -0.7992 -0.4460
  237MPD1    C1 3647   2.934   3.970  15.529  0.4805  0.3031 -1.4361
  237MPD1    C2 3648   2.830   3.912  15.454  0.3055  0.1798  0.4447
  237MPD1    C3 3649   2.814   3.945  15.321 -0.4473 -0.6302 -0.0004
  237MPD1    C4 3650   2.914   4.022  15.267 -0.8928 -0.1540 -0.1817
  237MPD1    C5 3651   3.010   4.076  15.344  0.0257 -0.0468 -0.2528
  237MPD1     H 3652   2.758   3.842  15.496 -0.4208  0.6664  0.0171
  237MPD1    H1 3653   2.904   4.060  15.166 -1.2986 -0.2074 -0.1639
  237MPD1    H2 3654   3.108   4.095  15.533  1.0067 -1.9731 -1.4809
  237MPD1    H3 3655   3.072   4.151  15.296 -0.6749  1.3147  0.9601
  237MPD1     N 3656   2.714   3.900  15.238  0.8213  0.3494  0.1315
  237MPD1    H5 3657   2.715   3.934  15.142 -2.0426 -1.6339 -0.6196
  237MPD1    N1 3658   2.948   3.942  15.661  0.3344 -0.1182 -0.2837
  237MPD1    H6 3659   3.046   3.936  15.690 -0.1097 -1.4851  0.9225
  237MPD1    H7 3660   2.892   3.861  15.687 -0.6830  0.9699  0.9572
  238MPD1     C 3661   0.377   2.433  14.900 -0.0186 -0.0714  0.4098
  238MPD1    C1 3662   0.269   2.359  14.948 -0.4128 -0.3063 -0.0992
  238MPD1    C2 3663   0.149   2.410  14.919 -0.2402 -0.4256  0.6874
  238MPD1    C3 3664   0.129   2.524  14.834 -0.6407 -0.6630 -0.6587
  238MPD1    C4 3665   0.241   2.589  14.789 -0.4790  0.3559 -0.1951
  238MPD1    C5 3666   0.360   2.541  14.818  0.7526 -0.3321  0.4153
  238MPD1     H 3667   0.062   2.356  14.955 -0.5068 -1.3031 -1.2857
  238MPD1    H1 3668   0.230   2.679  14.729  1.8763  0.5868 -0.2826
  238MPD1    H2 3669   0.479   2.405  14.925 -0.2352 -0.8137  0.4707
  238MPD1    H3 3670   0.446   2.599  14.786  1.3387 -2.3913 -1.7079
  238MPD1     N 3671   0.003   2.573  14.809 -0.0048  0.3244  0.2268
  238MPD1    H5 3672   4.732   2.651  14.743 -1.9576  1.3476  1.5229
  238MPD1    N1 3673   0.283   2.257  15.050 -0.2210 -0.4684  0.4860
  238MPD1    H6 3674   0.374   2.213  15.037  0.2810  0.2464  1.6067
  238MPD1    H7 3675   0.202   2.197  15.062  1.7237 -3.3339 -0.6371
  239MPD1     C 3676   4.661   3.642  14.943 -0.5719  0.8747 -0.1060
  239MPD1    C1 3677   0.003   3.723  14.863  0.0573  0.3954  0.4483
  239MPD1    C2 3678   4.703   3.745  14.729 -0.0728  0.4578 -0.6635
  239MPD1    C3 3679   4.603   3.660  14.666 -0.3864  0.3877  0.3328
  239MPD1    C4 3680   4.537   3.571  14.749 -0.3542  0.0205  0.6072
  239MPD1    C5 3681   4.562   3.567  14.884  0.1521  0.4049  0.3510
  239MPD1     H 3682   0.028   3.810  14.664  1.0883  0.1563  0.0523
  239MPD1    H1 3683   4.467   3.502  14.704 -0.4337 -0.2555  1.1500
  239MPD1    H2 3684   4.680   3.628  15.049 -1.7940 -1.6668 -0.2113
  239MPD1    H3 3685   4.506   3.497  14.944  2.1713 -0.8032  0.8028
  239MPD1     N 3686   4.566   3.660  14.526 -0.2339  0.2070  0.2195
  239MPD1    H5 3687   4.489   3.600  14.498  1.2783 -1.0742 -1.2040
  239MPD1    N1 3688   0.105   3.804  14.926 -0.1184  0.2353 -0.7970
  239MPD1    H6 3689   0.130   3.759  15.014 -1.4372  0.2095 -0.4289
  239MPD1    H7 3690   0.187   3.814  14.867 -1.6869  0.1170 -2.9811
  240MPD1     C 3691   4.254   3.157  13.442  0.4498 -0.3377 -0.2770
  240MPD1    C1 3692   4.124   3.138  13.482 -0.1342 -0.3582 -0.0277
  240MPD1    C2 3693   4.110   3.108  13.618  0.1014 -0.0677  0.3452
  240MPD1    C3 3694   4.222   3.082  13.701 -0.0747  0.2789 -0.0750
  240MPD1    C4 3695   4.352   3.082  13.638 -1.1676 -0.0370  0.6966
  240MPD1    C5 3696   4.358   3.146  13.521  0.5036 -0.1468  0.4589
  240MPD1     H 3697   4.007   3.118  13.652  0.1289  1.6119 -0.0243
  240MPD1    H1 3698   4.445   3.070  13.694 -1.6409 -1.1868  1.2550
  240MPD1    H2 3699   4.273   3.175  13.337  3.4438 -1.5192  0.0603
  240MPD1    H3 3700   4.457   3.165  13.482  0.6296 -0.8476  0.4374
  240MPD1     N 3701   4.206   3.049  13.841  0.1611 -0.1958 -0.4208
  240MPD1    H5 3702   4.115   3.071  13.879  0.6784 -0.5013  0.9975
  240MPD1    N1 3703   4.019   3.169  13.400 -0.0727 -1.3344  0.1418
  240MPD1    H6 3704   4.044   3.155  13.302 -0.5659  0.9855 -0.3112
  240MPD1    H7 3705   3.936   3.115  13.421 -1.2655  0.2494 -0.5372
  241MPD1     C 3706   0.226   3.071  14.458 -0.1787 -0.6094 -0.4245
  241MPD1    C1 3707   0.126   3.050  14.552  0.2238  0.2009 -0.1774
  241MPD1    C2 3708   0.004   3.025  14.495  1.1953  0.1279  0.7693
  241MPD1    C3 3709   4.710   3.028  14.357  0.6625 -1.0292  0.4793
  241MPD1    C4 3710   0.088   3.030  14.267  0.1772 -1.4585 -0.0181
  241MPD1    C5 3711   0.204   3.063  14.326  0.9615  0.2818 -0.9193
  241MPD1     H 3712   4.651   3.025  14.563  0.0127 -1.9356 -0.6924
  241MPD1    H1 3713   0.091   3.007  14.161  0.9510  1.5471 -0.6319
  241MPD1    H2 3714   0.322   3.116  14.480 -1.4650  1.5304  0.8223
  241MPD1    H3 3715   0.289   3.094  14.266  1.5756  0.0932 -0.1533
  241MPD1     N 3716   4.588   3.000  14.297 -0.2320 -0.0393 -0.2111
  241MPD1    H5 3717   4.588   2.983  14.197 -1.6673 -0.8832 -0.0684
  241MPD1    N1 3718   0.139   3.081  14.688 -0.0432 -0.1220  0.2750
  241MPD1    H6 3719   0.234   3.072  14.724  0.8912  2.2211 -1.6304
  241MPD1    H7 3720   0.070   3.029  14.742 -1.9682  0.1450 -1.9315
  242MPD1     C 3721   3.891   1.297  15.792 -0.5356 -0.5613  0.0799
  242MPD1    C1 3722   3.816   1.393  15.728 -0.4376 -0.0338  0.3770
  242MPD1    C2 3723   3.847   1.425  15.593  0.1601  0.2142 -0.2872
  242MPD1    C3 3724   3.954   1.362  15.528  0.4022 -0.7661  0.1634
  242MPD1    C4 3725   4.033   1.272  15.592  0.2795  0.0054 -0.7040
  242MPD1    C5 3726   4.002   1.242  15.724  0.6074  0.9859 -0.3711
  242MPD1     H 3727   3.780   1.494  15.543  0.6035 -0.0881 -1.2982
  242MPD1    H1 3728   4.127   1.240  15.549  1.5434  2.4109  0.2673
  242MPD1    H2 3729   3.872   1.261  15.892  0.9470  0.0998  0.6020
  242MPD1    H3 3730   4.064   1.166  15.772 -0.9388 -0.6054 -0.8902
  242MPD1     N 3731   3.992   1.376  15.394  0.0422  0.0815  0.1898
  242MPD1    H5 3732   4.069   1.325  15.352  0.4581 -0.0515  1.1373
  242MPD1    N1 3733   3.699   1.452  15.795  0.1738  0.2559  0.2217
  242MPD1    H6 3734   3.670   1.385  15.867  0.5620 -1.0500 -0.8267
  242MPD1    H7 3735   3.616   1.477  15.740  0.6665  0.5441 -0.3842
  243MPD1     C 3736   0.155   4.601  17.456  0.8403 -0.2084  0.5056
  243MPD1    C1 3737   0.281   4.559  17.469  0.3830 -0.5546 -0.0174
  243MPD1    C2 3738   0.329   4.488  17.365  0.0364  0.4355  0.4257
  243MPD1    C3 3739   0.250   4.449  17.254 -0.1879  0.0432  0.3348
  243MPD1    C4 3740   0.121   4.498  17.238 -0.4040  0.0918 -0.0781
  243MPD1    C5 3741   0.077   4.570  17.350  0.3459  0.3010 -0.5479
  243MPD1     H 3742   0.436   4.470  17.355  0.1479  2.0711 -1.2360
  243MPD1    H1 3743   0.051   4.479  17.158  0.0137 -0.0734 -0.4022
  243MPD1    H2 3744   0.103   4.657  17.533 -0.0532 -2.1812  1.3420
  243MPD1    H3 3745   4.703   4.592  17.357  0.7084  1.9213 -0.3219
  243MPD1     N 3746   0.311   4.359  17.164 -0.2846  0.1318 -0.2578
  243MPD1    H5 3747   0.399   4.321  17.198 -0.9557 -2.2562 -1.2109
  243MPD1    N1 3748   0.363   4.607  17.573 -0.0606 -0.7507  0.0569
  243MPD1    H6 3749   0.427   4.535  17.606  2.1050  0.8569 -0.6660
  243MPD1    H7 3750   0.303   4.621  17.654 -1.0357  0.1931 -0.8289
  244MPD1     C 3751   0.889   3.605  16.963  0.2645  0.5714  0.2383
  244MPD1    C1 3752   0.926   3.699  16.876  0.4668  0.0613 -0.0148
  244MPD1    C2 3753   0.888   3.836  16.884 -0.0356 -0.3057  0.1216
  244MPD1    C3 3754   0.785   3.850  16.969  0.4830 -0.6300 -0.6917
  244MPD1    C4 3755   0.745   3.748  17.053 -0.4081 -0.5128 -0.5308
  244MPD1    C5 3756   0.789   3.623  17.049  0.2121 -0.3074  0.2079
  244MPD1     H 3757   0.922   3.913  16.816  0.1922 -0.5842 -0.0793
  244MPD1    H1 3758   0.658   3.749  17.117  0.6340  1.3512  0.8500
  244MPD1    H2 3759   0.926   3.504  16.958 -1.5453  0.0060 -1.6527
  244MPD1    H3 3760   0.758   3.537  17.108  1.5247 -0.2929  0.9117
  244MPD1     N 3761   0.708   3.966  16.949  0.2546  0.1010 -0.3777
  244MPD1    H5 3762   0.742   4.031  16.879  0.6782 -1.5155 -1.6913
  244MPD1    N1 3763   1.032   3.656  16.795  0.1102  0.2978  0.0627
  244MPD1    H6 3764   1.007   3.562  16.765 -1.1585  1.4323 -2.4873
  244MPD1    H7 3765   1.031   3.708  16.707  1.9592  0.9349  0.4318
  245MPD1     C 3766   1.879   0.793  13.550  0.5193  0.0161 -0.0044
  245MPD1    C1 3767   1.950   0.818  13.434 -0.0139  0.5186  0.0099
  245MPD1    C2 3768   2.083   0.852  13.444  0.5699  0.4550 -0.3708
  245MPD1    C3 3769   2.148   0.884  13.565  0.0238 -0.1323  0.1788
  245MPD1    C4 3770   2.067   0.874  13.673 -0.8880 -0.2119  0.0055
  245MPD1    C5 3771   1.941   0.831  13.664  0.1788  0.2186 -0.5293
  245MPD1     H 3772   2.139   0.852  13.351  0.0204  0.2619 -0.6958
  245MPD1    H1 3773   2.099   0.899  13.774 -0.3918 -0.6954 -0.0360
  245MPD1    H2 3774   1.777   0.753  13.548 -0.0780  1.5571 -0.0614
  245MPD1    H3 3775   1.875   0.828  13.749  2.5416  1.9284  1.3633
  245MPD1     N 3776   2.283   0.913  13.566 -0.0607  0.1282  0.4812
  245MPD1    H5 3777   2.319   0.938  13.475 -0.2493 -1.9112 -0.1497
  245MPD1    N1 3778   1.895   0.778  13.317 -0.1173 -0.2417 -0.7325
  245MPD1    H6 3779   1.946   0.809  13.234  0.8707 -0.2836 -0.1360
  245MPD1    H7 3780   1.796   0.796  13.300  0.3212 -0.0711 -3.1915
  246MPD1     C 3781   3.137   3.329   8.925  0.5653 -0.1061 -0.0583
  246MPD1    C1 3782   3.044   3.231   8.907  0.4142 -0.2538  0.2851
  246MPD1    C2 3783   3.062   3.115   8.981  0.3443 -0.0403  0.5002
  246MPD1    C3 3784   3.144   3.113   9.098 -0.0207 -1.4296 -0.4535
  246MPD1    C4 3785   3.204   3.233   9.134 -0.1697 -0.0943  0.1477
  246MPD1    C5 3786   3.211   3.337   9.038 -0.7330  0.6281  0.4413
  246MPD1     H 3787   3.012   3.022   8.955  0.5886 -0.0369  0.0229
  246MPD1    H1 3788   3.264   3.241   9.224 -1.4687 -0.0958  1.0142
  246MPD1    H2 3789   3.144   3.418   8.864 -0.9724  0.6782  0.9235
  246MPD1    H3 3790   3.260   3.432   9.056 -0.2149  0.8788 -2.2165
  246MPD1     N 3791   3.153   2.995   9.170  0.1028 -0.0026 -0.8921
  246MPD1    H5 3792   3.088   2.921   9.148  0.3409 -0.6766  0.7030
  246MPD1    N1 3793   2.952   3.229   8.801  0.0310  0.2195 -0.2823
  246MPD1    H6 3794   2.919   3.320   8.771 -0.8054 -0.6649 -2.0992
  246MPD1    H7 3795   2.874   3.164   8.806 -0.9999  1.0846 -4.6623
  247MPD1     C 3796   2.441   0.400  16.783  0.3149  0.4678  0.5117
  247MPD1    C1 3797   2.452   0.490  16.678  0.2974  1.3659 -0.3674
  247MPD1    C2 3798   2.400   0.457  16.559  0.0118  0.4936 -0.7613
  247MPD1    C3 3799   2.354   0.333  16.528  0.5626  0.3787 -0.3905
  247MPD1    C4 3800   2.362   0.237  16.622 -0.1030  0.0342 -0.2499
  247MPD1    C5 3801   2.405   0.268  16.752 -0.4166  0.4061  0.4048
  247MPD1     H 3802   2.395   0.539  16.488 -2.4583  1.0205  0.0086
  247MPD1    H1 3803   2.335   0.135  16.598 -2.4063 -0.0137  2.6559
  247MPD1    H2 3804   2.470   0.426  16.884  0.6915 -0.2216  0.5818
  247MPD1    H3 3805   2.400   0.188  16.826 -2.1040  0.3630  0.2463
  247MPD1     N 3806   2.311   0.296  16.403  0.0906 -0.1821  0.7314
  247MPD1    H5 3807   2.293   0.197  16.391  0.6825  0.0609 -2.0001
  247MPD1    N1 3808   2.487   0.625  16.703  0.1599  0.1859 -0.0738
  247MPD1    H6 3809   2.548   0.628  16.785 -0.3383  0.2917  0.2926
  247MPD1    H7 3810   2.531   0.681  16.629  2.3241  0.6018  1.5133
  248MPD1     C 3811   3.246   4.122   0.856  0.0624  0.3515 -0.5931
  248MPD1    C1 3812   3.200   4.150   0.981  0.4204  0.9628 -0.6014
  248MPD1    C2 3813   3.090   4.239   0.986 -0.5947 -0.4601 -0.0786
  248MPD1    C3 3814   3.032   4.292   0.871  0.0429 -0.1331 -0.3660
  248MPD1    C4 3815   3.078   4.247   0.749  0.9271  0.0465 -0.4330
  248MPD1    C5 3816   3.184   4.167   0.746  0.2811  0.0400 -1.2112
  248MPD1     H 3817   3.054   4.265   1.085  1.3407  1.5846  0.0953
  248MPD1    H1 3818   3.040   4.286   0.656  1.0520 -1.2331 -1.0089
  248MPD1    H2 3819   3.335   4.061   0.846 -0.6884 -1.0331  1.2307
  248MPD1    H3 3820   3.232   4.139   0.652 -0.5953 -1.4352 -1.2154
  248MPD1     N 3821   2.921   4.377   0.888 -0.4634  0.1595 -0.1549
  248MPD1    H5 3822   2.897   4.393   0.986  0.6407  1.0336 -0.0226
  248MPD1    N1 3823   3.282   4.119   1.092  0.0710  0.2158 -0.1530
  248MPD1    H6 3824   3.337   4.035   1.078  1.3710  0.9183  0.7628
  248MPD1    H7 3825   3.226   4.116   1.177  0.2991  0.0055 -0.0075
  249MPD1     C 3826   0.058   1.138   9.375  0.1193 -0.0707  0.4328
  249MPD1    C1 3827   0.045   1.104   9.506 -0.5518 -0.4967 -0.5011
  249MPD1    C2 3828   0.017   0.976   9.547 -0.1179  0.2508  0.3729
  249MPD1    C3 3829   4.718   0.878   9.453 -0.2265 -0.0455  0.0502
  249MPD1    C4 3830   4.725   0.919   9.326 -0.6867 -0.0233 -0.2146
  249MPD1    C5 3831   0.033   1.043   9.285  0.2405  0.0266  0.3577
  249MPD1     H 3832   0.016   0.955   9.653 -0.9027 -4.7335 -0.6380
  249MPD1    H1 3833   4.719   0.849   9.243  1.4020 -0.9784  0.4230
  249MPD1    H2 3834   0.078   1.238   9.337  0.2023  1.2175  3.8641
  249MPD1    H3 3835   0.037   1.065   9.179  1.5384 -0.3887  0.3213
  249MPD1     N 3836   4.688   0.743   9.490 -0.5440 -0.0901 -0.4654
  249MPD1    H5 3837   4.707   0.722   9.588  0.9422  1.3704 -0.4418
  249MPD1    N1 3838   0.068   1.199   9.604  0.2220  0.0080 -0.1029
  249MPD1    H6 3839   0.010   1.282   9.589 -1.5180 -1.2635 -0.4452
  249MPD1    H7 3840   0.034   1.169   9.695 -0.5938  1.6134  0.1331
  250MPD2     C 3841   0.957   4.046  13.149  0.0590 -0.0440  0.4633
  250MPD2    C1 3842   0.892   4.152  13.104  0.1049  0.3126 -1.0033
  250MPD2    C2 3843   0.760   4.151  13.060 -0.6371  0.5703  0.4097
  250MPD2    C3 3844   0.697   4.028  13.056  0.1161 -0.4674  1.0329
  250MPD2    C4 3845   0.762   3.923  13.113 -0.0810 -0.7056  0.3920
  250MPD2    C5 3846   0.891   3.924  13.155  0.4458  0.1314  0.0214
  250MPD2     H 3847   0.714   4.245  13.031  2.0865  1.6183 -0.4608
  250MPD2    H1 3848   0.721   3.822  13.111  1.7210 -1.4849  2.8866
  250MPD2    H2 3849   1.055   4.050  13.196  0.0540 -3.6407  0.7991
  250MPD2    H3 3850   0.936   3.835  13.198 -0.5521 -1.4622 -2.2485
  250MPD2     N 3851   0.562   4.005  13.017  0.0001 -0.3040  0.2920
  250MPD2    H5 3852   0.520   3.914  13.030 -0.2932  0.0029  1.4463
  250MPD2    N1 3853   0.965   4.270  13.101  0.6825 -0.2897  0.6749
  250MPD2    H7 3854   1.063   4.251  13.122  1.3603  1.5248 -0.7728
  251TMC3    C1 3855   1.027   4.498  13.068 -0.2617  0.8320 -0.3923
  251TMC3    C2 3856   1.002   4.631  13.032  0.1393  0.1888  0.1151
  251TMC3    C3 3857   1.099   4.722  13.058 -0.2454  0.3306  0.4075
  251TMC3    C4 3858   1.151   4.457  13.104  0.2586  0.0689 -0.3030
  251TMC3    C5 3859   1.246   4.555  13.112 -0.3967 -0.1921  0.0852
  251TMC3    C6 3860   1.222   4.685  13.098  0.0915  0.3633  0.2592
  251TMC3     C 3861   0.915   4.404  13.074 -0.8984  0.0356 -0.7907
  251TMC3     O 3862   0.804   4.452  13.073 -0.4801 -0.1602  0.1064
  251TMC3     H 3863   0.903   4.670  13.010 -0.0879 -0.1414  0.5427
  251TMC3    H1 3864   1.175   4.366  13.158 -0.1623 -0.4234 -0.9344
  251TMC3    H2 3865   1.284   0.016  13.161 -2.7301 -0.5067  3.8700
  251TMC3    C7 3866   1.381   4.505  13.117 -0.1902 -0.2861  0.3967
  251TMC3    C8 3867   1.056   0.102  13.129 -0.2436 -0.0302 -0.4681
  251TMC3    O1 3868   1.401   4.393  13.170 -0.2047  0.1807  0.0800
  251TMC3    O2 3869   1.050   0.089  13.249 -0.1550 -0.1712 -0.0090
  252TMC3    C1 3870   0.361   1.771   9.690  0.5946 -0.4349 -0.1444
  252TMC3    C2 3871   0.498   1.766   9.724  0.1544 -0.5939  0.3777
  252TMC3    C3 3872   0.556   1.650   9.759 -0.1102  1.0002 -0.2761
  252TMC3    C4 3873   0.278   1.658   9.715  1.1809 -0.5653  0.2783
  252TMC3    C5 3874   0.343   1.538   9.749  0.0451  0.0413  0.1923
  252TMC3    C6 3875   0.475   1.535   9.774 -0.0522  0.7530  0.2720
  252TMC3     C 3876   0.309   1.893   9.642  0.1305 -0.4448 -0.4992
  252TMC3     O 3877   0.184   1.893   9.623 -0.6243  0.0096 -0.1339
  252TMC3     H 3878   0.562   1.853   9.729  0.1408 -0.5347 -0.5734
  252TMC3    H1 3879   0.171   1.663   9.704  1.2759  0.0865 -0.3638
  252TMC3    H2 3880   0.526   1.440   9.777 -0.4568  0.5004 -0.9625
  252TMC3    C7 3881   0.256   1.440   9.814  1.3770 -0.4833 -1.2124
  252TMC3    C8 3882   0.705   1.641   9.758 -0.1087 -0.1676 -0.4359
  252TMC3    O1 3883   0.170   1.493   9.875 -0.3026 -0.3976  0.8956
  252TMC3    O2 3884   0.753   1.734   9.696  0.0402 -0.4894  0.0761
  253MPD2     C 3885   2.592   4.407  15.182  0.3039 -0.2621  0.5687
  253MPD2    C1 3886   2.473   4.340  15.186 -0.6242  0.2140 -0.1059
  253MPD2    C2 3887   2.447   4.243  15.284 -0.1246  0.2071  0.4264
  253MPD2    C3 3888   2.544   4.206  15.378  0.1128 -0.5876 -0.0272
  253MPD2    C4 3889   2.671   4.267  15.365 -0.9200  0.4122 -0.0242
  253MPD2    C5 3890   2.690   4.366  15.270  0.3080 -0.0947 -0.0727
  253MPD2     H 3891   2.347   4.201  15.285 -0.5717  1.2748  0.1486
  253MPD2    H1 3892   2.749   4.247  15.438  0.4345 -0.9641 -1.8507
  253MPD2    H2 3893   2.615   4.489  15.114 -0.9369 -0.1634  0.2646
  253MPD2    H3 3894   2.787   4.413  15.261  0.0509  0.5469  0.5819
  253MPD2     N 3895   2.520   4.105  15.468  0.3802  0.5685  0.0991
  253MPD2    H5 3896   2.591   4.083  15.537 -0.8966  1.8330  1.8120
  253MPD2    N1 3897   2.368   4.359  15.098 -0.1659 -0.0292 -0.1299
  253MPD2    H7 3898   2.287   4.302  15.119  1.0528 -1.0235  1.8842
  254TMC3    C1 3899   2.428   3.907  15.565 -0.5102 -0.6353 -0.3267
  254TMC3    C2 3900   2.312   3.832  15.564 -0.8088 -0.4622  0.1017
  254TMC3    C3 3901   2.287   3.742  15.664 -0.3257 -0.5130  0.7393
  254TMC3    C4 3902   2.499   3.914  15.678 -1.0301 -0.5690  0.3714
  254TMC3    C5 3903   2.470   3.830  15.778  0.0532 -0.3243 -0.9732
  254TMC3    C6 3904   2.376   3.733  15.769  0.1616 -0.2128 -0.0508
  254TMC3     C 3905   2.410   4.022  15.482  0.6976 -0.6597 -0.0098
  254TMC3     O 3906   2.295   4.050  15.445  0.2007  0.2675 -0.0095
  254TMC3     H 3907   2.247   3.832  15.477  0.4897  0.3800 -0.8759
  254TMC3    H1 3908   2.566   3.995  15.706 -1.4938 -0.1525  0.2761
  254TMC3    H2 3909   2.352   3.665  15.850  1.5244 -0.2267  0.3322
  254TMC3    C7 3910   2.502   3.865  15.914 -0.0000  0.2447 -0.1026
  254TMC3    C8 3911   2.153   3.751  15.733 -1.0526 -0.0913 -0.4095
  254TMC3    O1 3912   2.422   3.832  16.000 -0.2582  0.1082  0.7461
  254TMC3    O2 3913   2.156   3.752  15.853 -0.8275  0.4986 -0.4052
  255MPD2     C 3914   0.612   3.038   9.349 -0.0308  0.1251  0.1838
  255MPD2    C1 3915   0.644   3.171   9.356 -0.0976 -0.4555  0.8642
  255MPD2    C2 3916   0.668   3.246   9.242 -0.2524  0.1624  0.5594
  255MPD2    C3 3917   0.667   3.182   9.123  0.0286 -0.5641 -0.4411
  255MPD2    C4 3918   0.636   3.045   9.112  0.4834  0.2658  0.4161
  255MPD2    C5 3919   0.602   2.976   9.228  0.1615  0.5277 -0.1700
  255MPD2     H 3920   0.689   3.352   9.249 -1.3744  0.4068  0.3205
  255MPD2    H1 3921   0.637   2.988   9.020 -0.0789  2.4756 -0.9588
  255MPD2    H2 3922   0.587   2.974   9.433 -1.3868  0.7836  0.2758
  255MPD2    H3 3923   0.570   2.873   9.228 -0.1646  0.6277 -2.9080
  255MPD2     N 3924   0.668   3.270   9.000 -0.0577 -0.1759 -0.2056
  255MPD2    H5 3925   0.685   3.368   9.022 -0.2097  0.0632 -1.1242
  255MPD2    N1 3926   0.650   3.238   9.484 -0.1374 -0.3896  0.3128
  255MPD2    H7 3927   0.609   3.192   9.565  0.4348 -0.5449  0.5178
  256TMC3    C1 3928   0.661   3.397   9.653 -0.2274  0.1783 -1.0089
  256TMC3    C2 3929   0.653   3.533   9.671 -0.3493 -0.1862 -0.0951
  256TMC3    C3 3930   0.579   3.577   9.774 -0.0925  0.2403 -0.0550
  256TMC3    C4 3931   0.608   3.301   9.733 -0.2536 -0.2737 -0.3623
  256TMC3    C5 3932   0.527   3.347   9.833  0.0395  0.0561  0.7414
  256TMC3    C6 3933   0.507   3.487   9.849 -0.1629 -0.3686  0.5113
  256TMC3     C 3934   0.691   3.366   9.512  0.1021 -0.2685  0.0536
  256TMC3     O 3935   0.731   3.456   9.435  0.1026  0.2911  0.3733
  256TMC3     H 3936   0.708   3.601   9.606 -1.8297  1.3843  0.3018
  256TMC3    H1 3937   0.603   3.195   9.709  0.8943 -0.1420 -1.2075
  256TMC3    H2 3938   0.440   3.518   9.928  1.0841 -0.1781  1.5081
  256TMC3    C7 3939   0.419   3.259   9.876  0.0813 -0.0655 -0.4782
  256TMC3    C8 3940   0.529   3.713   9.774 -0.1195 -0.0128 -0.9651
  256TMC3    O1 3941   0.305   3.301   9.875  0.3831  0.1918 -0.6079
  256TMC3    O2 3942   0.442   3.746   9.857  0.3659 -0.0150  0.4111
  257MPD2     C 3943   3.904   4.155  13.248  0.0127  0.1108 -0.0056
  257MPD2    C1 3944   4.036   4.139  13.216 -0.9568  0.4599  0.5927
  257MPD2    C2 3945   4.100   4.020  13.245 -0.3055  0.1864 -0.7718
  257MPD2    C3 3946   4.033   3.928  13.330 -0.2786 -0.5606 -0.3812
  257MPD2    C4 3947   3.906   3.955  13.377 -0.0976  0.6079  0.2569
  257MPD2    C5 3948   3.839   4.062  13.327  0.5674 -0.6836  0.3319
  257MPD2     H 3949   4.201   3.995  13.217  0.4506  2.3982 -0.0023
  257MPD2    H1 3950   3.853   3.893  13.448  0.3060 -1.7932 -1.5606
  257MPD2    H2 3951   3.852   4.248  13.229 -0.3151 -0.4022 -1.6122
  257MPD2    H3 3952   3.735   4.081  13.349  0.0591 -0.6379 -2.0999
  257MPD2     N 3953   4.106   3.815  13.379 -0.2120  0.6566  0.2726
  257MPD2    H5 3954   4.195   3.798  13.333 -0.6718 -2.3187  0.4556
  257MPD2    N1 3955   4.098   4.236  13.138  0.3831  0.7414 -0.7683
  257MPD2    H7 3956   4.048   4.325  13.143  0.0234  0.5423 -0.8236
  258TMC3    C1 3957   4.170   3.632  13.509 -0.1659  0.5002  0.2045
  258TMC3    C2 3958   4.241   3.588  13.401  0.8907 -0.0235  0.2083
  258TMC3    C3 3959   4.343   3.503  13.437  0.1481 -0.6244  0.0077
  258TMC3    C4 3960   4.188   3.591  13.635 -0.4850  0.1589  0.2465
  258TMC3    C5 3961   4.296   3.507  13.662 -0.3003 -0.3255 -0.1504
  258TMC3    C6 3962   4.376   3.464  13.564  0.3219 -0.5768 -0.6841
  258TMC3     C 3963   4.076   3.737  13.490  0.0238  0.1470  0.0558
  258TMC3     O 3964   3.988   3.763  13.575  0.1158  0.0942  0.2870
  258TMC3     H 3965   4.220   3.620  13.299 -0.6816 -2.8347 -0.3597
  258TMC3    H1 3966   4.135   3.642  13.715  0.2036  1.9535 -0.4330
  258TMC3    H2 3967   4.466   3.408  13.587 -0.0966 -2.0115 -2.5469
  258TMC3    C7 3968   4.289   3.456  13.798 -0.0423  0.3368 -0.1550
  258TMC3    C8 3969   4.421   3.441  13.328  0.1346  0.4447 -0.2663
  258TMC3    O1 3970   4.190   3.482  13.865  0.0838 -0.1690  0.7091
  258TMC3    O2 3971   4.522   3.387  13.363 -0.5457 -0.0804 -0.3273
  259MPD2     C 3972   2.756   0.776   0.841 -0.9681 -0.4056  0.2944
  259MPD2    C1 3973   2.866   0.695   0.858 -0.2866 -0.1618 -0.3347
  259MPD2    C2 3974   2.958   0.673   0.760 -0.8678  0.0262  0.1532
  259MPD2    C3 3975   2.938   0.724   0.633  0.2853 -0.2091 -0.1663
  259MPD2    C4 3976   2.839   0.808   0.616  0.6589 -0.6053  0.0968
  259MPD2    C5 3977   2.747   0.828   0.716 -0.0641 -0.1925 -0.0138
  259MPD2     H 3978   3.046   0.616   0.788 -0.0192  1.3720  0.2523
  259MPD2    H1 3979   2.818   0.855   0.521  2.0601 -1.5797 -0.6956
  259MPD2    H2 3980   2.693   0.807   0.923 -0.1507  1.4471  0.2123
  259MPD2    H3 3981   2.670   0.901   0.694  1.1945  0.7873 -1.1439
  259MPD2     N 3982   3.026   0.686   0.534  0.0477  0.7768 -0.5197
  259MPD2    H5 3983   3.077   0.599   0.548 -0.4008  0.9300  2.1568
  259MPD2    N1 3984   2.889   0.655   0.993 -0.7117 -0.1709  0.3155
  259MPD2    H7 3985   2.819   0.690   1.058  0.5522  0.7679  1.1596
  260TMC3    C1 3986   3.135   0.669   0.325 -0.0092  0.1674  0.2052
  260TMC3    C2 3987   3.160   0.741   0.211  0.3144 -0.0094  0.2234
  260TMC3    C3 3988   3.243   0.675   0.128  0.3816 -0.1051 -0.5180
  260TMC3    C4 3989   3.178   0.542   0.357  0.2615 -0.4121 -0.2765
  260TMC3    C5 3990   3.261   0.485   0.266 -0.2579 -0.4576  0.0328
  260TMC3    C6 3991   3.286   0.539   0.145  0.3547  0.0258  0.1626
  260TMC3     C 3992   3.036   0.736   0.403 -0.6144  0.3097 -0.2947
  260TMC3     O 3993   2.981   0.837   0.362 -0.1406 -0.5302 -0.3265
  260TMC3     H 3994   3.137   0.846   0.201  0.9166 -0.0208 -1.2782
  260TMC3    H1 3995   3.149   0.499   0.452  1.1678  0.1316  0.2618
  260TMC3    H2 3996   3.336   0.486   0.065  4.8354  3.5256  0.5778
  260TMC3    C7 3997   3.312   0.355   0.298 -0.1725 -0.1413  0.1350
  260TMC3    C8 3998   3.354   0.754   0.088  0.7343  0.1439 -0.6387
  260TMC3    O1 3999   3.379   0.308   0.209 -0.3661 -0.3019 -0.0117
  260TMC3    O2 4000   3.335   0.863   0.138 -0.1164  0.2350  0.0918
  261MPD2     C 4001   0.022   4.036  12.408 -0.2684  0.0108  0.3227
  261MPD2    C1 4002   0.106   4.116  12.475  0.0930 -0.5404 -0.4260
  261MPD2    C2 4003   0.120   4.248  12.426  0.5917  0.5339  0.2219
  261MPD2    C3 4004   0.046   4.291  12.314  0.0312 -0.2179  0.0977
  261MPD2    C4 4005   4.694   4.209  12.252  0.7946  0.6581 -0.0193
  261MPD2    C5 4006   4.686   4.081  12.294  0.0200 -0.2339 -0.2538
  261MPD2     H 4007   0.174   4.327  12.476 -0.0870  0.6842  0.7210
  261MPD2    H1 4008   4.640   4.233  12.160 -0.6454 -0.9001  0.4357
  261MPD2    H2 4009   0.002   3.933  12.435  0.1889 -0.5434 -1.4358
  261MPD2    H3 4010   4.624   4.014  12.236 -0.4200  0.8348 -1.0359
  261MPD2     N 4011   0.053   4.428  12.277 -0.5065  0.0927 -0.2799
  261MPD2    H5 4012   0.113   4.485  12.335 -1.0549  0.7659 -0.3799
  261MPD2    N1 4013   0.153   4.089  12.609  0.3160  0.1826 -0.0512
  261MPD2    H7 4014   0.197   4.163  12.662  0.2859  0.3005 -0.1905
  262TMC3    C1 4015   0.072   4.606  12.121  0.4056 -0.5396 -0.7827
  262TMC3    C2 4016   0.009   4.717  12.075  0.0299  0.3338  0.9812
  262TMC3    C3 4017   0.090   0.096  12.052 -0.2860  0.3974  0.2497
  262TMC3    C4 4018   0.207   4.592  12.138  0.2190  0.8337 -0.2676
  262TMC3    C5 4019   0.280   4.702  12.103  0.1072 -0.6892  0.1391
  262TMC3    C6 4020   0.225   0.091  12.063 -0.2199 -0.9626  0.3024
  262TMC3     C 4021   4.722   4.493  12.173  0.1280  0.0531 -0.1621
  262TMC3     O 4022   4.616   4.468  12.122  0.1762  0.0482  0.1598
  262TMC3     H 4023   4.635   0.004  12.083 -0.3349 -1.2620 -0.1767
  262TMC3    H1 4024   0.259   4.501  12.167  2.9967  2.2624 -0.7378
  262TMC3    H2 4025   0.289   0.178  12.051 -0.2638 -1.1119 -1.0580
  262TMC3    C7 4026   0.423   4.700  12.103 -0.7387  0.2831 -0.4154
  262TMC3    C8 4027   0.038   0.215  12.003 -0.3577  0.5441  0.0333
  262TMC3    O1 4028   0.474   4.611  12.171  0.5119  0.5589  0.2814
  262TMC3    O2 4029   0.122   0.298  11.971  0.0131 -0.6693 -0.7499
  263MPD2     C 4030   1.257   3.712  11.281  0.2523 -1.1310 -0.3865
  263MPD2    C1 4031   1.371   3.741  11.203 -0.2426  0.0400 -1.0110
  263MPD2    C2 4032   1.349   3.816  11.081 -0.1663 -0.4306 -0.2264
  263MPD2    C3 4033   1.220   3.865  11.058 -0.0586  0.0065  0.0731
  263MPD2    C4 4034   1.119   3.836  11.141  0.6079  0.1592 -0.1650
  263MPD2    C5 4035   1.131   3.747  11.245 -0.2036  0.7330  0.0104
  263MPD2     H 4036   1.437   3.842  11.024 -0.6027  0.2358 -0.5960
  263MPD2    H1 4037   1.013   3.851  11.120  0.8929  3.3989  0.6001
  263MPD2    H2 4038   1.266   3.644  11.365  0.6184  2.4922  2.4687
  263MPD2    H3 4039   1.039   3.712  11.291 -1.8138  1.2075 -2.8675
  263MPD2     N 4040   1.197   3.954  10.954  0.2043  0.5757 -0.0973
  263MPD2    H5 4041   1.107   3.997  10.938  0.3181  0.5742 -0.7224
  263MPD2    N1 4042   1.500   3.713  11.252  0.2418 -0.9411 -0.1159
  263MPD2    H7 4043   1.504   3.648  11.331  1.5238 -0.7173  0.0091
  264TMC3    C1 4044   1.233   4.098  10.776 -1.2097 -0.3292  0.3844
  264TMC3    C2 4045   1.204   4.208  10.853  0.1637 -0.6031  0.6813
  264TMC3    C3 4046   1.232   4.331  10.803  0.3963  0.0960 -0.0950
  264TMC3    C4 4047   1.292   4.103  10.650  0.2549  0.4884 -0.1471
  264TMC3    C5 4048   1.323   4.231  10.608  0.6724  0.2960 -0.3448
  264TMC3    C6 4049   1.295   4.346  10.681  0.6366  0.2137 -0.1821
  264TMC3     C 4050   1.284   3.986  10.857 -0.6583  0.1622  0.4461
  264TMC3     O 4051   1.386   3.923  10.826 -0.3059 -0.3165 -0.3171
  264TMC3     H 4052   1.156   4.190  10.949 -1.1700 -1.0633 -0.0622
  264TMC3    H1 4053   1.310   4.015  10.590 -0.0157 -0.6891  1.4940
  264TMC3    H2 4054   1.315   4.444  10.637  2.7407 -0.4438 -0.7039
  264TMC3    C7 4055   1.419   4.228  10.504 -0.5011  0.1768 -0.4184
  264TMC3    C8 4056   1.260   4.444  10.888  0.3101 -0.0296 -0.3419
  264TMC3    O1 4057   1.431   4.127  10.435  0.0752  0.0224  0.0353
  264TMC3    O2 4058   1.276   4.555  10.836 -0.6270 -0.1939  0.2762
  265MPD2     C 4059   3.483   3.716  15.654 -1.2013  0.2458 -0.4397
  265MPD2    C1 4060   3.502   3.810  15.562 -0.0788  0.5890 -0.6199
  265MPD2    C2 4061   3.538   3.764  15.432  1.1206 -0.1736  0.1476
  265MPD2    C3 4062   3.549   3.630  15.401  0.7521  0.5581 -0.0840
  265MPD2    C4 4063   3.527   3.536  15.499 -0.4360  0.2389 -0.8105
  265MPD2    C5 4064   3.491   3.583  15.622 -0.4680  0.0582  0.0374
  265MPD2     H 4065   3.564   3.838  15.357 -2.0586  1.7894  1.0071
  265MPD2    H1 4066   3.549   3.431  15.485 -1.4197 -0.4220  2.6383
  265MPD2    H2 4067   3.458   3.728  15.759  2.4658  0.2804  0.4288
  265MPD2    H3 4068   3.464   3.516  15.702 -0.4022  0.7427  0.6380
  265MPD2     N 4069   3.585   3.592  15.270  0.6824  0.5443  1.2566
  265MPD2    H5 4070   3.597   3.492  15.253 -0.3306  0.5848  0.2641
  265MPD2    N1 4071   3.499   3.944  15.583 -0.0045  0.3831  0.3324
  265MPD2    H7 4072   3.518   4.005  15.504  0.3905 -1.5820 -1.0796
  266TMC3    C1 4073   3.502   4.150  15.702 -0.0280  0.8756 -0.0901
  266TMC3    C2 4074   3.552   4.214  15.809  0.5932 -0.1604 -0.2330
  266TMC3    C3 4075   3.507   4.340  15.823 -0.0816 -0.6469 -0.2395
  266TMC3    C4 4076   3.431   4.207  15.600 -0.5821  0.2290 -0.6610
  266TMC3    C5 4077   3.401   4.337  15.621 -0.1974  0.5345 -0.5325
  266TMC3    C6 4078   3.433   4.408  15.733  0.9011 -0.1669 -0.2935
  266TMC3     C 4079   3.486   4.005  15.705  0.5352 -0.2055 -0.1508
  266TMC3     O 4080   3.485   3.954  15.818  0.2124 -0.1130 -0.4869
  266TMC3     H 4081   3.609   4.169  15.890 -0.5874  0.0955  0.7401
  266TMC3    H1 4082   3.399   4.150  15.514 -1.4581 -1.6786  0.9437
  266TMC3    H2 4083   3.413   4.514  15.734  1.7865 -0.0231  2.3925
  266TMC3    C7 4084   3.349   4.393  15.497 -0.1357 -0.1528  0.5458
  266TMC3    C8 4085   3.564   4.411  15.938 -0.0595 -0.3134 -0.8154
  266TMC3    O1 4086   3.302   4.307  15.419  0.3110  0.2223  0.6951
  266TMC3    O2 4087   3.649   4.346  15.998 -0.9936  0.1094  0.6063
  267MPD2     C 4088   1.564   4.580  17.005  0.0384  0.1157  0.4677
  267MPD2    C1 4089   1.567   4.719  16.983 -0.4060 -0.1714  0.3946
  267MPD2    C2 4090   1.496   0.040  16.879 -0.5932 -0.1927 -0.5067
  267MPD2    C3 4091   1.416   4.688  16.802  1.1296 -0.7047  0.2227
  267MPD2    C4 4092   1.422   4.552  16.817 -0.4346 -0.1051 -0.1853
  267MPD2    C5 4093   1.513   4.499  16.905  0.7433  0.4982  0.6631
  267MPD2     H 4094   1.494   0.145  16.854  0.9620 -0.1100 -0.2744
  267MPD2    H1 4095   1.367   4.481  16.756 -3.1731 -1.4057  3.7250
  267MPD2    H2 4096   1.618   4.531  17.085 -0.1176  1.0300  1.1312
  267MPD2    H3 4097   1.531   4.393  16.899 -0.5356  0.2238  1.6159
  267MPD2     N 4098   1.326   4.731  16.700 -0.3334  0.2614  0.4904
  267MPD2    H5 4099   1.264   4.658  16.667 -1.2064 -1.7458  6.6291
  267MPD2    N1 4100   1.637   0.060  17.077 -0.4984 -0.3487  0.0522
  267MPD2    H7 4101   1.666   0.013  17.162  1.4375 -0.8566 -0.8733
  268TMC3    C1 4102   1.748   0.250  17.168  0.2565 -0.0135  0.2069
  268TMC3    C2 4103   1.834   0.344  17.132  0.4159 -0.8526  0.1667
  268TMC3    C3 4104   1.921   0.386  17.227 -0.7589 -0.0757 -0.5864
  268TMC3    C4 4105   1.736   0.200  17.293 -0.3709  0.6492 -0.1401
  268TMC3    C5 4106   1.822   0.251  17.386 -0.0957 -0.2315 -0.2046
  268TMC3    C6 4107   1.920   0.337  17.359  0.3769 -0.8209  0.3175
  268TMC3     C 4108   1.661   0.197  17.064 -0.9594 -0.1210 -0.8100
  268TMC3     O 4109   1.637   0.272  16.971 -0.0396  0.1184  0.3262
  268TMC3     H 4110   1.845   0.376  17.030 -2.6967  0.9146  0.3914
  268TMC3    H1 4111   1.657   0.130  17.318 -1.8793  1.2936 -3.0418
  268TMC3    H2 4112   1.972   0.389  17.439  1.4375 -0.8404 -0.3613
  268TMC3    C7 4113   1.808   0.215  17.528  0.3617 -0.1416 -0.5791
  268TMC3    C8 4114   2.016   0.494  17.200 -0.4580 -0.3004  0.2319
  268TMC3    O1 4115   1.722   0.132  17.543 -0.2118 -0.1255 -0.3140
  268TMC3    O2 4116   2.113   0.520  17.268  0.1020 -0.1479  0.2034
  269MPD2     C 4117   1.437   4.153  15.561  0.4229 -0.3655  0.1151
  269MPD2    C1 4118   1.310   4.187  15.604 -0.0042 -0.0144  0.1202
  269MPD2    C2 4119   1.268   4.313  15.586  0.2065  0.1028 -0.8513
  269MPD2    C3 4120   1.341   4.401  15.503 -0.0074 -0.0793  0.4822
  269MPD2    C4 4121   1.462   4.361  15.456 -0.1144  0.9472 -0.1354
  269MPD2    C5 4122   1.511   4.233  15.481  0.3878 -0.1670  0.2442
  269MPD2     H 4123   1.170   4.341  15.622  0.7020  0.6334  0.0570
  269MPD2    H1 4124   1.525   4.437  15.413  0.7181  0.7024  0.6696
  269MPD2    H2 4125   1.479   4.063  15.602  0.8042  0.6313  1.9032
  269MPD2    H3 4126   1.614   4.210  15.454  0.0351  0.9340 -2.0664
  269MPD2     N 4127   1.292   4.535  15.481  0.3404 -0.8069 -0.0966
  269MPD2    H5 4128   1.208   4.558  15.532 -0.6737 -1.4911 -1.4699
  269MPD2    N1 4129   1.239   4.089  15.671 -0.0034 -0.1587 -0.1642
  269MPD2    H7 4130   1.281   3.998  15.684  0.1191 -0.1211 -0.2996
  270TMC3    C1 4131   1.066   3.982  15.793  0.1411 -0.3411 -0.0140
  270TMC3    C2 4132   0.991   3.901  15.722  0.3870  0.4817  0.5042
  270TMC3    C3 4133   0.979   3.768  15.763  0.4621 -0.3988 -1.1352
  270TMC3    C4 4134   1.131   3.944  15.909  0.2804 -0.0647 -0.2001
  270TMC3    C5 4135   1.110   3.810  15.954 -0.4516  0.6480 -0.0310
  270TMC3    C6 4136   1.041   3.725  15.876  0.1509  0.4103 -0.4173
  270TMC3     C 4137   1.109   4.105  15.725 -0.4801 -0.0708  0.1301
  270TMC3     O 4138   1.023   4.187  15.702 -0.8849 -0.1472  0.0197
  270TMC3     H 4139   0.930   3.938  15.640  1.6820  1.9808  0.2231
  270TMC3    H1 4140   1.202   4.021  15.937  2.1531 -1.2556 -1.6667
  270TMC3    H2 4141   1.034   3.620  15.901 -0.7391  0.1507 -1.7672
  270TMC3    C7 4142   1.207   3.758  16.049  0.1350  0.7554  0.2287
  270TMC3    C8 4143   0.896   3.686  15.678 -0.1817  0.1643 -0.2515
  270TMC3    O1 4144   1.213   3.636  16.036  0.5383 -0.1619  0.4650
  270TMC3    O2 4145   0.815   3.619  15.739  0.4979  0.1674 -0.1837
  271MPD2     C 4146   0.164   4.068  14.052  0.2297 -0.4852  0.8227
  271MPD2    C1 4147   0.121   4.021  14.176  1.7347  0.3426 -0.4347
  271MPD2    C2 4148   4.722   4.039  14.209 -0.2460  0.1183  0.2065
  271MPD2    C3 4149   4.640   4.107  14.114 -0.3831 -0.0109 -0.2640
  271MPD2    C4 4150   4.681   4.145  13.992 -0.2210  1.0806 -0.2400
  271MPD2    C5 4151   0.078   4.117  13.961 -0.1014  0.0430  0.1447
  271MPD2     H 4152   4.688   4.002  14.304  3.3242 -1.2350  0.9470
  271MPD2    H1 4153   4.615   4.195  13.922 -0.2995 -0.3265 -1.1831
  271MPD2    H2 4154   0.265   4.078  14.015  0.3422  0.5966  1.4455
  271MPD2    H3 4155   0.115   4.156  13.867 -1.1782 -0.7277 -0.5947
  271MPD2     N 4156   4.506   4.126  14.135 -0.0806  0.2860 -0.2387
  271MPD2    H5 4157   4.450   4.177  14.067  0.2944  1.3122  0.2181
  271MPD2    N1 4158   0.205   3.953  14.266 -0.1273 -0.0994 -0.1255
  271MPD2    H7 4159   0.163   3.928  14.355 -0.4256  0.2452 -0.1698
  272TMC3    C1 4160   0.405   3.861  14.353  0.1776  0.0576  0.4521
  272TMC3    C2 4161   0.526   3.807  14.325 -0.3002 -1.0369 -0.0577
  272TMC3    C3 4162   0.602   3.752  14.424 -0.0432 -0.2152  0.2035
  272TMC3    C4 4163   0.364   3.878  14.482  0.0796 -0.1193 -0.0001
  272TMC3    C5 4164   0.443   3.820  14.576  0.2107 -1.0554  0.1988
  272TMC3    C6 4165   0.564   3.768  14.557  0.5557 -1.1181 -1.4365
  272TMC3     C 4166   0.338   3.927  14.245  0.7538 -0.0856  0.3166
  272TMC3     O 4167   0.405   3.952  14.148  0.6857 -0.1681  0.1198
  272TMC3     H 4168   0.549   3.785  14.222  0.7523  1.2994 -0.3184
  272TMC3    H1 4169   0.272   3.932  14.506 -1.4308 -2.2124 -1.0717
  272TMC3    H2 4170   0.627   3.720  14.631 -0.3530 -1.3035 -0.7736
  272TMC3    C7 4171   0.415   3.857  14.714 -0.2480  0.4831  0.3206
  272TMC3    C8 4172   0.737   3.716  14.388  0.1914 -0.3567  0.3621
  272TMC3    O1 4173   0.296   3.873  14.740 -0.4990 -0.5042 -0.5029
  272TMC3    O2 4174   0.777   3.764  14.281 -0.2084  0.3712 -0.1200
  273MPD2     C 4175   1.715   2.553  11.340  0.4673  0.8361 -0.0400
  273MPD2    C1 4176   1.810   2.646  11.320  0.5435  0.1757  0.7567
  273MPD2    C2 4177   1.834   2.677  11.189 -0.0762 -0.0715  0.6085
  273MPD2    C3 4178   1.762   2.618  11.087  0.6388 -0.0256  0.3300
  273MPD2    C4 4179   1.671   2.514  11.104 -0.0553  0.1068 -0.6004
  273MPD2    C5 4180   1.647   2.487  11.238 -0.2643 -0.5847  0.2728
  273MPD2     H 4181   1.911   2.750  11.167  0.0636 -0.7622 -1.2179
  273MPD2    H1 4182   1.611   2.477  11.022  1.1723  0.8665 -1.8371
  273MPD2    H2 4183   1.687   2.534  11.443 -2.2303 -1.4854 -1.1969
  273MPD2    H3 4184   1.564   2.423  11.268 -1.1119  0.9278  1.1208
  273MPD2     N 4185   1.794   2.670  10.960  0.1235  0.0027  0.5031
  273MPD2    H5 4186   1.855   2.750  10.956  1.5704 -1.1775 -0.9203
  273MPD2    N1 4187   1.872   2.703  11.431  0.1497 -0.2470  0.0799
  273MPD2    H7 4188   1.842   2.679  11.525  0.2990  0.7128  0.3787
  274TMC3    C1 4189   1.802   2.696  10.735 -0.3796 -0.1681  0.3017
  274TMC3    C2 4190   1.714   2.728  10.634  0.3441 -0.8654 -0.3160
  274TMC3    C3 4191   1.738   2.850  10.571 -0.5962 -0.2752 -0.6634
  274TMC3    C4 4192   1.917   2.768  10.754 -0.5090 -0.3950  0.3107
  274TMC3    C5 4193   1.931   2.888  10.694 -0.0355  0.2749  0.5268
  274TMC3    C6 4194   1.846   2.928  10.597 -0.5158  0.1887 -0.1464
  274TMC3     C 4195   1.759   2.609  10.836 -0.1189 -0.3033 -0.1543
  274TMC3     O 4196   1.664   2.537  10.808 -0.5791 -0.0377 -0.0641
  274TMC3     H 4197   1.621   2.675  10.616  0.1355 -0.8201  0.6446
  274TMC3    H1 4198   1.990   2.741  10.829  1.4828  2.6787 -0.5399
  274TMC3    H2 4199   1.839   3.033  10.568  0.3057  0.5137  0.8362
  274TMC3    C7 4200   1.989   3.001  10.774 -0.2872 -0.5272  0.7580
  274TMC3    C8 4201   1.638   2.901  10.478  0.3529 -0.1135  0.6357
  274TMC3    O1 4202   2.002   2.985  10.892 -0.4844  0.0691  0.4139
  274TMC3    O2 4203   1.525   2.848  10.483  0.2486  0.3220 -0.1169
  275MPD2     C 4204   2.094   0.056  14.437 -0.7365  0.7910 -0.6805
  275MPD2    C1 4205   2.001   0.161  14.438  0.3246  0.2535  0.3960
  275MPD2    C2 4206   1.872   0.123  14.477  0.5410 -0.2626  0.4678
  275MPD2    C3 4207   1.832   4.728  14.507 -0.1264 -0.5808 -0.5275
  275MPD2    C4 4208   1.928   4.628  14.490 -0.2945  0.1323  0.2426
  275MPD2    C5 4209   2.058   4.658  14.466  0.7280 -0.1640 -0.0150
  275MPD2     H 4210   1.798   0.201  14.491  0.6483  0.4131 -2.7190
  275MPD2    H1 4211   1.895   4.526  14.503  2.1798 -0.9239 -1.8493
  275MPD2    H2 4212   2.198   0.072  14.408 -0.2912  0.6440  0.8094
  275MPD2    H3 4213   2.126   4.574  14.462  1.8709  0.7144  0.9860
  275MPD2     N 4214   1.702   4.693  14.553  0.4316 -0.3544 -0.1007
  275MPD2    H5 4215   1.682   4.595  14.570 -4.5749  1.0932  2.3688
  275MPD2    N1 4216   2.025   0.297  14.428  0.3374  0.5813 -1.2158
  275MPD2    H7 4217   1.944   0.358  14.424 -0.4961 -0.5040 -0.8443
  276TMC3    C1 4218   2.110   0.487  14.535  0.1692 -0.9201 -0.2495
  276TMC3    C2 4219   1.988   0.514  14.582  0.6732  0.5707 -0.5509
  276TMC3    C3 4220   1.965   0.604  14.685 -0.5549  0.1450  0.1414
  276TMC3    C4 4221   2.217   0.549  14.587 -0.4147  0.1135  0.1512
  276TMC3    C5 4222   2.195   0.655  14.674 -0.0166 -0.4389  0.3349
  276TMC3    C6 4223   2.071   0.679  14.731  0.5245  0.2114  0.0455
  276TMC3     C 4224   2.141   0.358  14.472  0.1434 -0.5975  0.2368
  276TMC3     O 4225   2.247   0.313  14.517 -0.3626 -0.0044 -0.3326
  276TMC3     H 4226   1.902   0.471  14.533 -0.1121  3.2938 -1.5463
  276TMC3    H1 4227   2.316   0.523  14.555 -0.6041 -0.7956  0.3107
  276TMC3    H2 4228   2.065   0.739  14.821  0.8274  1.5927 -0.8577
  276TMC3    C7 4229   2.301   0.696  14.761 -0.6134  0.1427  0.0392
  276TMC3    C8 4230   1.869   0.560  14.785  0.2155  0.8500 -0.7228
  276TMC3    O1 4231   2.282   0.743  14.873 -0.0482 -0.5958 -0.2724
  276TMC3    O2 4232   1.824   0.628  14.874 -0.1110 -0.0648  0.2058
  277MPD2     C 4233   3.675   4.479  13.510  0.1218  0.2764 -0.1134
  277MPD2    C1 4234   3.541   4.487  13.516  0.7185  0.2587 -0.1212
  277MPD2    C2 4235   3.463   4.380  13.540 -0.3631  0.1684 -0.1046
  277MPD2    C3 4236   3.526   4.258  13.552  0.0278 -0.0517  1.1807
  277MPD2    C4 4237   3.661   4.248  13.557 -0.0951  0.1999  0.0322
  277MPD2    C5 4238   3.740   4.361  13.535 -0.1892 -0.3393 -0.5516
  277MPD2     H 4239   3.356   4.397  13.546 -0.4573 -0.1547 -0.7720
  277MPD2    H1 4240   3.715   4.154  13.565  2.5818  1.6178 -1.4594
  277MPD2    H2 4241   3.730   4.571  13.496 -0.8987  0.8886 -0.0492
  277MPD2    H3 4242   3.848   4.347  13.528  0.1489  0.5565  2.7181
  277MPD2     N 4243   3.438   4.147  13.578  0.0670 -0.7198  0.0303
  277MPD2    H5 4244   3.338   4.164  13.578  0.3038  0.7269  0.2877
  277MPD2    N1 4245   3.489   4.618  13.494  0.7465 -0.0985 -0.1520
  277MPD2    H7 4246   3.563   4.684  13.471 -0.4220  0.6537 -1.7903
  278TMC3    C1 4247   3.378   3.916  13.611  0.1583  0.2232  0.5507
  278TMC3    C2 4248   3.413   3.788  13.593 -0.4863  0.1343 -0.4327
  278TMC3    C3 4249   3.308   3.700  13.565  0.1667  0.1916 -0.2873
  278TMC3    C4 4250   3.253   3.961  13.592  0.3621  0.0190 -0.1312
  278TMC3    C5 4251   3.147   3.875  13.573 -1.0193 -0.4824  0.0899
  278TMC3    C6 4252   3.173   3.742  13.565  0.1884 -0.2916  0.3107
  278TMC3     C 4253   3.483   4.013  13.579  0.9034  0.6015  0.6907
  278TMC3     O 4254   3.587   3.965  13.559  0.0951 -0.3218  0.3756
  278TMC3     H 4255   3.515   3.753  13.603 -0.6057 -0.3732 -0.9792
  278TMC3    H1 4256   3.219   4.064  13.600 -0.0385  0.2700 -5.0787
  278TMC3    H2 4257   3.106   3.660  13.542  1.5642 -0.6585 -2.4178
  278TMC3    C7 4258   3.018   3.925  13.591 -0.5166 -0.2403 -0.1703
  278TMC3    C8 4259   3.342   3.572  13.509 -0.0293 -0.2505 -0.5697
  278TMC3    O1 4260   3.011   4.044  13.561 -0.1042 -0.2687 -0.2960
  278TMC3    O2 4261   3.442   3.511  13.546 -0.1563  0.1263 -0.2769
  279MPD2     C 4262   2.918   3.384   0.577  0.0492  0.4500 -0.0042
  279MPD2    C1 4263   2.865   3.506   0.553  0.0308 -0.0718  0.7179
  279MPD2    C2 4264   2.879   3.567   0.426  0.2901  0.3399 -0.2782
  279MPD2    C3 4265   2.959   3.508   0.330  0.1625 -0.3651  0.3342
  279MPD2    C4 4266   3.024   3.392   0.357  0.1957  0.1528 -0.1863
  279MPD2    C5 4267   2.995   3.335   0.479 -0.0199  0.5063 -0.3271
  279MPD2     H 4268   2.850   3.670   0.412  0.0352  0.4863  1.3876
  279MPD2    H1 4269   3.074   3.331   0.283 -1.1917 -0.4265 -0.6304
  279MPD2    H2 4270   2.896   3.328   0.667 -0.3319 -0.3096 -0.5701
  279MPD2    H3 4271   3.057   3.249   0.504 -2.3805 -1.7890 -2.4050
  279MPD2     N 4272   2.975   3.557   0.200 -0.1821  0.1403 -0.6160
  279MPD2    H5 4273   3.053   3.519   0.146  1.2041 -0.3717  1.7541
  279MPD2    N1 4274   2.793   3.556   0.658 -0.3887 -0.6976 -0.4845
  279MPD2    H7 4275   2.830   3.528   0.748  0.0394 -0.8991 -0.7247
  280TMC3    C1 4276   2.632   3.697   0.533  0.0050  0.4999  0.3116
  280TMC3    C2 4277   2.584   3.593   0.455  0.3889  0.5036 -0.9264
  280TMC3    C3 4278   2.521   3.643   0.341 -0.0951  0.2077 -0.8022
  280TMC3    C4 4279   2.617   3.832   0.511  0.4592  0.3891  0.0471
  280TMC3    C5 4280   2.561   3.872   0.398  0.5916 -0.3607 -1.0770
  280TMC3    C6 4281   2.508   3.779   0.315  0.3695  0.0059  0.2263
  280TMC3     C 4282   2.699   3.657   0.657  0.4686  0.5321  0.1938
  280TMC3     O 4283   2.670   3.714   0.761 -0.1610  0.5710 -0.1193
  280TMC3     H 4284   2.585   3.489   0.485 -1.1179  0.9976  0.8274
  280TMC3    H1 4285   2.653   3.904   0.584  2.2968 -0.2586 -0.2001
  280TMC3    H2 4286   2.463   3.820   0.226 -2.1433 -0.7264  1.1435
  280TMC3    C7 4287   2.569   4.014   0.377 -0.4180 -0.1268  0.1324
  280TMC3    C8 4288   2.450   3.553   0.253  0.3134 -0.2678  0.1638
  280TMC3    O1 4289   2.664   4.071   0.429 -0.5043 -0.3186  0.3172
  280TMC3    O2 4290   2.389   3.608   0.165  0.6581 -0.6110  0.4813
  281TMC3    C1 4291   1.552   4.155  13.357  0.1517  0.6147  0.8021
  281TMC3    C2 4292   1.641   4.215  13.275 -0.5425 -0.1018 -0.8124
  281TMC3    C3 4293   1.671   4.155  13.154  0.2332  0.0138 -0.5270
  281TMC3    C4 4294   1.494   4.035  13.330  0.2925  0.1589  1.2623
  281TMC3    C5 4295   1.534   3.972  13.215 -0.0339 -0.1268 -0.4776
  281TMC3    C6 4296   1.618   4.033  13.126  0.1412 -0.2340 -0.1273
  281TMC3     C 4297   1.513   4.226  13.479 -0.5300 -0.0113 -0.3701
  281TMC3     O 4298   1.518   4.165  13.585 -0.3071 -0.1640  1.0878
  281TMC3     H 4299   1.708   4.290  13.315 -0.5869 -0.4762 -0.0379
  281TMC3    H1 4300   1.413   4.000  13.393  0.9086 -0.7268  1.5706
  281TMC3    H2 4301   1.637   3.984  13.032  2.3531  1.1669 -0.4023
  281TMC3    C7 4302   1.437   3.881  13.153 -0.0689  0.3153  0.7301
  281TMC3    C8 4303   1.812   4.168  13.104  0.4624 -0.3026 -0.5335
  281TMC3    O1 4304   1.413   3.899  13.034  0.5574  0.2321 -0.1313
  281TMC3    O2 4305   1.875   4.065  13.091  0.1047  0.1919 -0.4263
  282MPD2     C 4306   3.492   1.027  14.904 -0.9280  0.3759  0.1966
  282MPD2    C1 4307   3.372   1.070  14.955 -0.6419 -0.0787 -0.6571
  282MPD2    C2 4308   3.272   1.117  14.873  0.1148 -0.2260 -0.2215
  282MPD2    C3 4309   3.286   1.118  14.737  0.4229 -0.4859  0.1797
  282MPD2    C4 4310   3.403   1.064  14.688  0.7096  0.3724  0.8033
  282MPD2    C5 4311   3.503   1.015  14.767  0.5643 -0.4323 -0.0305
  282MPD2     H 4312   3.180   1.160  14.911 -0.3475  0.0044 -1.5869
  282MPD2    H1 4313   3.429   1.071  14.583  1.0670  0.4539  0.8982
  282MPD2    H2 4314   3.578   1.003  14.965 -2.8520 -2.1612  1.8882
  282MPD2    H3 4315   3.596   0.984  14.721  0.5438 -1.4081  0.5744
  282MPD2     N 4316   3.189   1.171  14.651 -0.9145  0.0799 -0.3244
  282MPD2    H5 4317   3.107   1.216  14.691 -1.2081  0.5282 -1.4126
  282MPD2    N1 4318   3.345   1.069  15.095  0.5292  0.4552 -0.3813
  282MPD2    H7 4319   3.258   1.116  15.121  0.8173  0.1183  1.1997
  283TMC3    C1 4320   3.349   1.020  15.327 -0.5456  0.3027  0.6003
  283TMC3    C2 4321   3.299   1.146  15.347  0.3886  0.5760 -0.2705
  283TMC3    C3 4322   3.233   1.167  15.464  0.8573 -0.0770  0.1395
  283TMC3    C4 4323   3.326   0.917  15.408  0.5771 -0.7086 -0.5049
  283TMC3    C5 4324   3.251   0.938  15.519 -0.2938  0.6227 -0.2903
  283TMC3    C6 4325   3.207   1.067  15.556  0.1656  0.4343  0.2137
  283TMC3     C 4326   3.413   1.006  15.195  0.4278 -0.3259  0.7038
  283TMC3     O 4327   3.512   0.941  15.191 -0.1352 -0.5171  0.0174
  283TMC3     H 4328   3.323   1.227  15.278 -0.0978 -0.5838 -1.8157
  283TMC3    H1 4329   3.379   0.827  15.380  1.1614 -0.1228 -1.2641
  283TMC3    H2 4330   3.153   1.078  15.649  2.2073  1.0315  1.3361
  283TMC3    C7 4331   3.220   0.816  15.597 -0.1939  0.1588  0.0546
  283TMC3    C8 4332   3.199   1.303  15.506 -0.1439  0.3040  0.1112
  283TMC3    O1 4333   3.181   0.825  15.713  0.4271  0.2332 -0.0969
  283TMC3    O2 4334   3.135   1.319  15.612 -0.3586  0.1252  0.1003
  284MPD2     C 4335   2.173   0.290  12.146 -1.0160  0.1352 -0.4448
  284MPD2    C1 4336   2.049   0.344  12.112 -0.0137 -0.4020 -1.4247
  284MPD2    C2 4337   1.936   0.264  12.126 -0.1578 -0.3059  0.0376
  284MPD2    C3 4338   1.943   0.137  12.179  0.1993 -0.5951  0.1689
  284MPD2    C4 4339   2.069   0.085  12.213 -0.1228  0.7454 -0.2020
  284MPD2    C5 4340   2.177   0.163  12.204 -0.7812  1.2001  0.0341
  284MPD2     H 4341   1.838   0.302  12.098 -0.2898  0.5787  1.7209
  284MPD2    H1 4342   2.078   4.714  12.247  3.4008  1.3463  0.6568
  284MPD2    H2 4343   2.269   0.339  12.132 -0.9483  0.2421  0.3800
  284MPD2    H3 4344   2.275   0.125  12.230 -0.3281 -0.0037 -3.4206
  284MPD2     N 4345   1.831   0.045  12.171 -0.3966  0.6817  0.1149
  284MPD2    H5 4346   1.849   4.682  12.201  2.4605  0.8634 -1.0144
  284MPD2    N1 4347   2.048   0.475  12.050  0.2116  0.0516 -0.3617
  284MPD2    H7 4348   2.139   0.519  12.048 -0.7790  2.1626  1.3709
  285TMC3    C1 4349   1.976   0.667  11.923 -0.4268  0.6174 -0.6336
  285TMC3    C2 4350   1.914   0.662  11.800  0.3826  0.3617  0.0026
  285TMC3    C3 4351   1.976   0.739  11.699  0.3197 -0.0379 -0.1835
  285TMC3    C4 4352   2.093   0.740  11.944 -0.0219  0.2913  0.0531
  285TMC3    C5 4353   2.146   0.815  11.846  0.1058  1.0795 -0.0975
  285TMC3    C6 4354   2.085   0.823  11.721  0.3033  0.1111 -0.1030
  285TMC3     C 4355   1.941   0.550  12.000  0.0055  0.6524  0.3974
  285TMC3     O 4356   1.823   0.522  12.003  1.0610 -0.5318 -0.6319
  285TMC3     H 4357   1.825   0.605  11.773 -0.3452  1.9205 -0.9077
  285TMC3    H1 4358   2.134   0.737  12.044 -0.8424 -1.2154  0.3458
  285TMC3    H2 4359   2.117   0.904  11.656  1.4757 -0.6190 -0.4446
  285TMC3    C7 4360   2.276   0.893  11.866  0.4241  0.2491 -0.2245
  285TMC3    C8 4361   1.960   0.710  11.558 -0.7194 -0.0326 -0.6176
  285TMC3    O1 4362   2.284   0.994  11.792 -0.3122 -0.4010 -0.9116
  285TMC3    O2 4363   1.861   0.646  11.523 -0.0687  0.0767 -0.4998
  286MPD2     C 4364   1.837   3.650   1.495 -0.0654  0.0728  0.4026
  286MPD2    C1 4365   1.804   3.591   1.380  0.3573  0.4474  0.4975
  286MPD2    C2 4366   1.878   3.477   1.341 -0.2791 -0.4525 -0.1008
  286MPD2    C3 4367   1.975   3.415   1.428  0.4164  0.1003 -0.3650
  286MPD2    C4 4368   1.998   3.475   1.554 -0.6286 -0.2527  0.7222
  286MPD2    C5 4369   1.932   3.596   1.582 -0.8261 -0.8429 -0.0139
  286MPD2     H 4370   1.863   3.447   1.238  0.7748  0.8932 -0.6428
  286MPD2    H1 4371   2.050   3.432   1.638  0.8709 -0.9035 -0.5291
  286MPD2    H2 4372   1.783   3.730   1.543 -1.4300  0.4851 -1.8086
  286MPD2    H3 4373   1.940   3.652   1.674 -1.4744 -0.8120  0.0208
  286MPD2     N 4374   2.041   3.296   1.402  0.0329 -0.3807 -0.0810
  286MPD2    H5 4375   2.108   3.272   1.474 -1.7032 -0.8528  1.3545
  286MPD2    N1 4376   1.707   3.643   1.294  0.1385 -0.0569  0.1314
  286MPD2    H7 4377   1.685   3.596   1.207  0.2122  3.8892 -2.0110
  287TMC3    C1 4378   2.097   3.090   1.293 -0.2293  0.9639 -0.1313
  287TMC3    C2 4379   2.062   2.995   1.196 -0.2873 -0.6014  0.4199
  287TMC3    C3 4380   2.133   2.877   1.195 -0.0265  0.5963  0.1667
  287TMC3    C4 4381   2.196   3.060   1.389  0.0343 -0.5095 -0.2272
  287TMC3    C5 4382   2.253   2.939   1.382 -0.1160  0.7105 -0.4330
  287TMC3    C6 4383   2.236   2.847   1.284 -0.3033 -0.2124 -0.2798
  287TMC3     C 4384   2.030   3.223   1.285  0.9984 -0.4386 -0.6572
  287TMC3     O 4385   1.964   3.253   1.183 -0.1151  0.2850  0.2399
  287TMC3     H 4386   1.997   3.026   1.116  1.4124  0.7046 -0.4649
  287TMC3    H1 4387   2.216   3.126   1.473 -1.1220  0.3355 -0.6076
  287TMC3    H2 4388   2.290   2.755   1.264  0.8685  0.3515  0.2666
  287TMC3    C7 4389   2.352   2.906   1.488  0.3639 -0.1875  0.2373
  287TMC3    C8 4390   2.117   2.800   1.077 -0.3387 -0.1631  0.5944
  287TMC3    O1 4391   2.381   2.999   1.562  0.1104 -0.0322 -0.2104
  287TMC3    O2 4392   2.010   2.802   1.018 -0.2212  0.3500  0.2098
  288TMC3    C1 4393   3.639   3.146  14.066  0.5332  0.4912 -0.2224
  288TMC3    C2 4394   3.705   3.144  14.186  0.2679 -0.2130  0.2766
  288TMC3    C3 4395   3.723   3.265  14.245  0.1779  0.3393 -0.3561
  288TMC3    C4 4396   3.571   3.255  14.011 -0.0788  0.6062 -0.4437
  288TMC3    C5 4397   3.602   3.374  14.075  0.0780 -0.3959 -0.1801
  288TMC3    C6 4398   3.673   3.376  14.193 -0.1767 -0.2892  0.3849
  288TMC3     C 4399   3.599   3.017  14.012  0.0032 -0.6079 -0.3306
  288TMC3     O 4400   3.510   3.018  13.929  0.7619  0.0881  0.6028
  288TMC3     H 4401   3.765   3.058  14.214  1.9484  1.4510  1.7710
  288TMC3    H1 4402   3.529   3.257  13.911 -1.0370  1.0819 -0.0388
  288TMC3    H2 4403   3.691   3.473  14.238 -2.1273  0.9479 -1.4853
  288TMC3    C7 4404   3.533   3.496  14.034 -0.1955  0.3202  0.2328
  288TMC3    C8 4405   3.713   3.256  14.391  0.8975  0.1784 -0.4691
  288TMC3    O1 4406   3.576   3.600  14.078 -0.0413 -0.4156 -0.2729
  288TMC3    O2 4407   3.798   3.188  14.442 -0.4081 -0.9713  0.3256
  289MPD2     C 4408   3.914   2.602  14.514 -0.0307 -0.1610 -0.8355
  289MPD2    C1 4409   3.906   2.703  14.425  0.4568 -0.0378 -0.0725
  289MPD2    C2 4410   3.782   2.764  14.421 -0.1815  0.7693  0.8132
  289MPD2    C3 4411   3.665   2.700  14.472 -0.6232  0.7528  0.1496
  289MPD2    C4 4412   3.676   2.585  14.538  0.3250  0.1441  0.2214
  289MPD2    C5 4413   3.802   2.542  14.571 -0.3161  0.4664  0.3077
  289MPD2     H 4414   3.772   2.863  14.378 -0.7185  1.0846  1.6802
  289MPD2    H1 4415   3.586   2.530  14.560 -1.3709  2.1293 -1.7527
  289MPD2    H2 4416   4.012   2.556  14.527  0.0441  0.5365  1.0343
  289MPD2    H3 4417   3.815   2.449  14.626 -0.6775 -0.1908 -0.7162
  289MPD2     N 4418   3.533   2.750  14.451  0.2753  0.2516  0.4618
  289MPD2    H5 4419   3.453   2.690  14.471  0.3060 -0.6841 -2.2876
  289MPD2    N1 4420   4.023   2.755  14.369 -0.0875  0.3321  0.1965
  289MPD2    H7 4421   4.110   2.720  14.407 -0.8152  0.2888  1.8629
  290TMC3    C1 4422   3.382   2.864  14.310 -0.2460 -0.4834  0.9834
  290TMC3    C2 4423   3.323   2.986  14.301 -1.1017  0.0833  0.1837
  290TMC3    C3 4424   3.244   3.012  14.189  0.3019 -0.6916 -0.2164
  290TMC3    C4 4425   3.338   2.755  14.248  0.3954 -0.4467  0.4169
  290TMC3    C5 4426   3.253   2.780  14.144  0.2174  0.0009 -0.1668
  290TMC3    C6 4427   3.212   2.908  14.108  0.2380 -0.7096  0.6244
  290TMC3     C 4428   3.509   2.863  14.378 -0.1767  0.3482 -0.4781
  290TMC3     O 4429   3.570   2.968  14.372 -0.2474 -0.2068 -0.1570
  290TMC3     H 4430   3.358   3.069  14.361 -0.7185  0.7209 -0.9300
  290TMC3    H1 4431   3.402   2.667  14.244 -0.4115 -1.1176  2.0695
  290TMC3    H2 4432   3.147   2.933  14.025  1.9975 -0.4692 -0.6713
  290TMC3    C7 4433   3.240   2.686  14.035 -0.4168  0.3448  0.4865
  290TMC3    C8 4434   3.178   3.137  14.163 -0.8133  0.3801 -0.0115
  290TMC3    O1 4435   3.192   2.735  13.937 -0.8723  0.3103 -0.2404
  290TMC3    O2 4436   3.150   3.155  14.045 -0.1875 -0.2171  0.0150
  291MPD2     C 4437   3.272   2.423   0.645  0.9266 -0.3545 -0.3992
  291MPD2    C1 4438   3.206   2.352   0.544  0.7154  0.2139 -0.2928
  291MPD2    C2 4439   3.237   2.377   0.415  0.2030  0.0716  0.1104
  291MPD2    C3 4440   3.326   2.478   0.381 -0.7486  0.0229 -0.3184
  291MPD2    C4 4441   3.380   2.554   0.482  0.9552 -0.1376  0.6226
  291MPD2    C5 4442   3.351   2.526   0.610 -0.1970 -0.7829 -0.2873
  291MPD2     H 4443   3.191   2.322   0.334 -2.2661  0.6571  1.1274
  291MPD2    H1 4444   3.448   2.635   0.458 -0.5620  1.7239  2.5860
  291MPD2    H2 4445   3.253   2.399   0.749 -0.7578  0.0497 -0.6120
  291MPD2    H3 4446   3.401   2.581   0.690  2.1528 -1.9640 -0.9312
  291MPD2     N 4447   3.340   2.522   0.248  0.1255 -0.0114  0.0714
  291MPD2    H5 4448   3.382   2.614   0.238 -1.9824  0.9575  0.0237
  291MPD2    N1 4449   3.111   2.248   0.563  0.1674  0.1697  0.8554
  291MPD2    H7 4450   3.082   2.199   0.479  4.2995 -0.0646 -0.4351
  292TMC3    C1 4451   2.946   2.128   0.689 -0.1536 -0.3283  0.1961
  292TMC3    C2 4452   2.855   2.142   0.790  0.0796  0.1158  0.5017
  292TMC3    C3 4453   2.732   2.077   0.781 -0.0817  0.6068 -0.1443
  292TMC3    C4 4454   2.911   2.058   0.575  0.1619 -0.2583  0.0322
  292TMC3    C5 4455   2.784   2.002   0.570 -0.4870  0.2771 -0.1706
  292TMC3    C6 4456   2.699   2.005   0.671  0.0009 -0.5624  0.1290
  292TMC3     C 4457   3.032   2.244   0.675  0.3384  0.0917  0.1666
  292TMC3     O 4458   3.021   2.335   0.761  0.2425 -0.1838  1.0971
  292TMC3     H 4459   2.877   2.183   0.889  0.3986 -2.2082  1.3912
  292TMC3    H1 4460   2.961   2.039   0.481 -0.5157  0.8588 -0.5528
  292TMC3    H2 4461   2.611   1.943   0.653  0.2049 -1.2343  1.3923
  292TMC3    C7 4462   2.749   1.945   0.443  0.3553  0.0229  0.5610
  292TMC3    C8 4463   2.650   2.053   0.901  0.8096  0.5655  0.3100
  292TMC3    O1 4464   2.839   1.921   0.361 -0.2607 -0.2578 -0.1378
  292TMC3    O2 4465   2.697   2.085   1.008  0.0460 -0.7309  0.2292
  293MPD2     C 4466   4.257   4.238  12.465 -0.2470  0.4204  0.0046
  293MPD2    C1 4467   4.190   4.216  12.586 -0.1574  0.6388  0.2444
  293MPD2    C2 4468   4.270   4.193  12.698  0.3980 -0.4054 -0.3624
  293MPD2    C3 4469   4.405   4.181  12.694 -0.1418  0.5355 -0.6594
  293MPD2    C4 4470   4.467   4.201  12.572  0.0669  0.2591  0.1237
  293MPD2    C5 4471   4.392   4.232  12.459 -0.9112 -0.3076 -0.1269
  293MPD2     H 4472   4.224   4.179  12.796  1.5001 -3.5238 -0.2839
  293MPD2    H1 4473   4.574   4.208  12.555  0.1771  2.5878  1.7646
  293MPD2    H2 4474   4.200   4.254  12.374  1.4247 -1.6679 -1.3920
  293MPD2    H3 4475   4.449   4.251  12.369  0.3754 -0.4587  0.6643
  293MPD2     N 4476   4.483   4.155  12.810  0.2639  0.5318 -0.0176
  293MPD2    H5 4477   4.431   4.112  12.886  2.3824 -1.3557  0.3639
  293MPD2    N1 4478   4.046   4.215  12.585  0.4789  0.6307  0.1519
  293MPD2    H7 4479   4.004   4.222  12.492  1.3625  0.2346 -0.2827
  294TMC3    C1 4480   3.823   4.178  12.643 -0.4596  0.5167  0.0824
  294TMC3    C2 4481   3.754   4.072  12.696 -0.6034  0.0411  0.2046
  294TMC3    C3 4482   3.651   4.019  12.627 -0.6230 -0.2772 -0.1886
  294TMC3    C4 4483   3.783   4.237  12.528 -0.8321  0.4257  0.1920
  294TMC3    C5 4484   3.666   4.189  12.468  0.9239  0.0684  0.3875
  294TMC3    C6 4485   3.603   4.082  12.515  0.0635  0.1968 -0.8319
  294TMC3     C 4486   3.964   4.182  12.686 -0.3444 -0.1540  0.5881
  294TMC3     O 4487   3.989   4.142  12.798 -0.3914 -0.3336  0.7303
  294TMC3     H 4488   3.784   4.013  12.782 -2.2266  0.8879  1.3498
  294TMC3    H1 4489   3.824   4.334  12.501  1.1781 -0.2487  0.7961
  294TMC3    H2 4490   3.529   4.020  12.466  0.8633  0.0627 -1.8630
  294TMC3    C7 4491   3.604   4.256  12.357  0.2909 -0.9774 -0.6028
  294TMC3    C8 4492   3.633   3.878  12.637 -0.3019 -0.8884 -0.7148
  294TMC3    O1 4493   3.485   4.240  12.355 -0.2183 -0.4159  0.3022
  294TMC3    O2 4494   3.636   3.838  12.752  0.3869 -0.1549 -0.7426
  295MPD2     C 4495   4.129   2.263   1.000  0.2517  0.1479 -0.8063
  295MPD2    C1 4496   4.196   2.355   0.918  0.6398 -0.0580  0.4416
  295MPD2    C2 4497   4.197   2.489   0.956 -0.3777  0.2105 -0.0425
  295MPD2    C3 4498   4.138   2.531   1.073 -0.9732  0.1956 -0.2493
  295MPD2    C4 4499   4.077   2.427   1.152 -0.7234  0.2160  0.3595
  295MPD2    C5 4500   4.074   2.300   1.119  0.1595  0.2360  0.0520
  295MPD2     H 4501   4.245   2.566   0.895  0.1017 -2.1133 -2.5918
  295MPD2    H1 4502   4.037   2.458   1.249  1.1455  3.7899  0.0174
  295MPD2    H2 4503   4.122   2.157   0.975 -0.4258 -0.5428  2.3332
  295MPD2    H3 4504   4.042   2.226   1.192  1.5041 -1.3246 -0.9375
  295MPD2     N 4505   4.152   2.664   1.123  0.0358 -0.0865 -0.5647
  295MPD2    H5 4506   4.127   2.688   1.219  0.3144 -0.3440 -0.4269
  295MPD2    N1 4507   4.253   2.327   0.792 -0.3450 -0.5346 -0.6741
  295MPD2    H7 4508   4.286   2.400   0.730  0.4974 -0.4556 -0.1387
  296TMC3    C1 4509   4.197   2.897   1.118  0.2737  0.6401  0.4312
  296TMC3    C2 4510   4.208   3.008   1.040  0.1452 -0.2872 -0.2950
  296TMC3    C3 4511   4.176   3.129   1.094 -0.2300 -0.3372  0.2568
  296TMC3    C4 4512   4.162   2.906   1.251  0.1216 -0.5395  0.1978
  296TMC3    C5 4513   4.154   3.033   1.300  0.2131  0.9568  0.0898
  296TMC3    C6 4514   4.167   3.149   1.228 -0.2852 -0.0410  0.7755
  296TMC3     C 4515   4.186   2.775   1.047  0.1322 -0.0126 -0.2799
  296TMC3     O 4516   4.182   2.784   0.927  0.4817 -0.1319 -0.2338
  296TMC3     H 4517   4.229   3.000   0.934  1.0613  2.3511 -0.3138
  296TMC3    H1 4518   4.165   2.820   1.318  1.4852  0.2152  1.1095
  296TMC3    H2 4519   4.166   3.248   1.273 -0.4801  0.6294 -0.7167
  296TMC3    C7 4520   4.106   3.059   1.445 -0.3627 -0.4074  0.3358
  296TMC3    C8 4521   4.140   3.243   1.024  0.2171 -0.2099  0.4539
  296TMC3    O1 4522   4.129   3.172   1.490  0.2045  0.9883 -0.0065
  296TMC3    O2 4523   4.107   3.346   1.079 -0.0963  0.1133  0.8188
  297MPD2     C 4524   2.682   4.313  16.126 -0.7785 -0.5274  0.2618
  297MPD2    C1 4525   2.639   4.386  16.023 -0.6492  0.4094  0.2581
  297MPD2    C2 4526   2.707   4.503  15.994  0.3810  0.3581  0.2426
  297MPD2    C3 4527   2.807   4.547  16.083 -0.6537  0.3841  0.4854
  297MPD2    C4 4528   2.849   4.469  16.190  0.5368  0.2479  0.5801
  297MPD2    C5 4529   2.782   4.348  16.206  0.1924 -0.6094  0.5393
  297MPD2     H 4530   2.667   4.562  15.912 -0.2361 -0.9772 -0.4327
  297MPD2    H1 4531   2.932   4.496  16.255  0.3621  2.6173 -0.1980
  297MPD2    H2 4532   2.638   4.217  16.151 -1.5874 -0.1541  0.2684
  297MPD2    H3 4533   2.821   4.284  16.284  1.8471  0.0882  0.2962
  297MPD2     N 4534   2.857   4.682  16.067  0.6673 -0.2081 -0.0580
  297MPD2    H5 4535   2.825   4.728  15.983 -0.2437  1.3283  1.1261
  297MPD2    N1 4536   2.529   4.349  15.946  0.0097 -0.4056 -0.3421
  297MPD2    H7 4537   2.509   4.416  15.873  0.6690  0.3897  0.2030
  298TMC3    C1 4538   2.337   4.256  15.875  0.6655  0.2502  0.3770
  298TMC3    C2 4539   2.346   4.308  15.752 -0.7422 -0.6625 -0.1431
  298TMC3    C3 4540   2.233   4.357  15.697 -0.3178  0.3385 -0.3068
  298TMC3    C4 4541   2.210   4.246  15.939 -0.3704  0.3658 -0.0585
  298TMC3    C5 4542   2.099   4.299  15.880 -0.1378 -0.2447  1.1387
  298TMC3    C6 4543   2.114   4.362  15.764 -0.0392  0.7272 -0.0458
  298TMC3     C 4544   2.441   4.246  15.968  0.7372  0.0620 -0.0726
  298TMC3     O 4545   2.445   4.154  16.050  0.3474  0.0137 -0.0271
  298TMC3     H 4546   2.446   4.310  15.710 -0.9591  1.1266 -0.5754
  298TMC3    H1 4547   2.201   4.205  16.039  1.3259  2.7087  1.0571
  298TMC3    H2 4548   2.028   4.410  15.717  0.1922 -0.1108 -1.3327
  298TMC3    C7 4549   1.994   4.332  15.971  0.0213  0.4222 -0.6216
  298TMC3    C8 4550   2.249   4.420  15.573 -0.0049 -0.0424 -0.3653
  298TMC3    O1 4551   2.011   4.325  16.092 -0.0097 -0.2279  0.0628
  298TMC3    O2 4552   2.364   4.410  15.528  0.0409 -0.1820 -0.2491
  299MPD2     C 4553   2.667   4.324  10.460  0.3071 -0.2740  0.4490
  299MPD2    C1 4554   2.701   4.456  10.454 -0.0682  0.2655  0.5270
  299MPD2    C2 4555   2.639   4.532  10.356 -0.3718 -0.0075 -0.6627
  299MPD2    C3 4556   2.538   4.480  10.280  0.1371  0.3728 -0.3619
  299MPD2    C4 4557   2.500   4.349  10.293  0.0282  0.9977 -0.4228
  299MPD2    C5 4558   2.567   4.267  10.376  0.1276 -0.3293 -0.0184
  299MPD2     H 4559   2.674   4.633  10.339 -1.7267  0.1842 -2.2581
  299MPD2    H1 4560   2.420   4.310  10.231 -0.9448 -1.5338  2.4285
  299MPD2    H2 4561   2.721   4.255  10.523 -0.3042  1.6023  3.0108
  299MPD2    H3 4562   2.540   4.162  10.381  0.2103 -0.4147 -1.3304
  299MPD2     N 4563   2.459   4.561  10.191 -0.5126 -0.0100 -0.1126
  299MPD2    H5 4564   2.378   4.519  10.146 -0.5688  3.0479 -2.8336
  299MPD2    N1 4565   2.801   4.506  10.536  0.2846 -0.0705 -0.1424
  299MPD2    H7 4566   2.823   4.449  10.616  1.6913  0.1788 -0.3574
  300TMC3    C1 4567   2.384   0.013  10.073 -0.1643  0.7815 -0.4087
  300TMC3    C2 4568   2.435   0.117   9.999  0.1428 -0.0725 -0.1515
  300TMC3    C3 4569   2.339   0.198   9.949 -0.5683  0.4386 -0.7822
  300TMC3    C4 4570   2.251   4.719  10.087  0.0325  0.5834  0.0952
  300TMC3    C5 4571   2.167   0.057  10.001 -0.6293  1.1547  0.7224
  300TMC3    C6 4572   2.211   0.160   9.927 -0.0846 -0.3291 -0.6443
  300TMC3     C 4573   2.478   4.693  10.170 -0.0784 -0.2620 -0.6540
  300TMC3     O 4574   2.568   0.033  10.207 -0.6026 -0.1699 -0.4471
  300TMC3     H 4575   2.538   0.150  10.003  0.3945 -0.8123 -0.5187
  300TMC3    H1 4576   2.218   4.631  10.142 -0.6909  1.1842  0.6217
  300TMC3    H2 4577   2.129   0.212   9.880  0.8686  2.7475  1.0678
  300TMC3    C7 4578   2.026   0.068  10.037  0.5247 -0.1739  0.3716
  300TMC3    C8 4579   2.356   0.321  10.016  0.0170  0.4955 -0.1701
  300TMC3    O1 4580   1.950   0.100   9.942  0.1396  0.4235  0.1817
  300TMC3    O2 4581   2.450   0.338  10.090 -0.1021  0.2688  0.1430
  301MPD2     C 4582   4.358   0.674   1.553  0.1951  0.8391 -0.0432
  301MPD2    C1 4583   4.270   0.631   1.460  0.4341 -0.4525  0.5922
  301MPD2    C2 4584   4.285   0.504   1.411  0.0499 -0.5380 -0.1032
  301MPD2    C3 4585   4.386   0.419   1.455 -0.4962  1.0289  0.7005
  301MPD2    C4 4586   4.483   0.473   1.539 -0.1113 -0.1165 -0.0892
  301MPD2    C5 4587   4.467   0.601   1.587 -0.4444 -0.2501  0.0636
  301MPD2     H 4588   4.216   0.472   1.334 -0.4832  0.6336 -0.1180
  301MPD2    H1 4589   4.575   0.424   1.569  0.1903  0.6777  0.2940
  301MPD2    H2 4590   4.352   0.772   1.598 -2.4235  0.0049  1.4369
  301MPD2    H3 4591   4.548   0.649   1.641  0.3810 -0.3037 -1.1145
  301MPD2     N 4592   4.419   0.288   1.404  0.3002  0.3525 -0.3308
  301MPD2    H5 4593   4.499   0.238   1.441  0.1404  0.5483  0.2837
  301MPD2    N1 4594   4.167   0.711   1.401 -0.0809  0.6183  0.0134
  301MPD2    H7 4595   4.112   0.670   1.326 -0.5663 -1.2575  1.3974
  302TMC3    C1 4596   4.374   0.084   1.298  0.9714  0.8446 -0.6614
  302TMC3    C2 4597   4.507   0.046   1.324  0.4016 -0.6183  0.4894
  302TMC3    C3 4598   4.539   4.646   1.328 -0.0016  0.2696 -0.2423
  302TMC3    C4 4599   4.273   4.723   1.262 -0.3188  0.0265  0.5759
  302TMC3    C5 4600   4.312   4.592   1.268  0.5455  0.3262 -0.3320
  302TMC3    C6 4601   4.438   4.550   1.304 -0.1954 -0.5793 -1.0246
  302TMC3     C 4602   4.333   0.222   1.318  0.3498 -0.3666 -0.1726
  302TMC3     O 4603   4.223   0.253   1.277 -0.0862 -0.1731 -0.2904
  302TMC3     H 4604   4.581   0.120   1.350 -0.3354 -0.2701  1.5536
  302TMC3    H1 4605   4.170   0.024   1.272 -0.0559  0.4637  1.8121
  302TMC3    H2 4606   4.458   4.444   1.301  2.5295 -0.0310 -2.1138
  302TMC3    C7 4607   4.225   4.510   1.198 -0.0438 -0.5905  0.1995
  302TMC3    C8 4608   4.674   4.596   1.309  0.1947 -0.1388 -0.3932
  302TMC3    O1 4609   4.245   4.392   1.214  0.3033  0.2964  0.9624
  302TMC3    O2 4610   4.687   4.482   1.263 -0.1556  0.0735  0.5566
  303MPD2     C 4611   0.491   4.611  10.657 -0.0207 -0.2228  0.1262
  303MPD2    C1 4612   0.494   4.474  10.640  0.3088  0.0343  0.7836
  303MPD2    C2 4613   0.536   4.417  10.522  0.2389 -0.0010 -0.4473
  303MPD2    C3 4614   0.566   4.495  10.407  0.8407 -0.2423 -0.3458
  303MPD2    C4 4615   0.549   4.631  10.417  0.2058  0.2593 -0.7372
  303MPD2    C5 4616   0.526   4.688  10.544 -0.0322 -1.0062  0.0519
  303MPD2     H 4617   0.539   4.308  10.521 -1.1395 -0.0377 -1.0057
  303MPD2    H1 4618   0.562   4.693  10.329 -1.8127  0.9319 -0.5655
  303MPD2    H2 4619   0.464   4.659  10.750  5.0906  1.3979  0.8081
  303MPD2    H3 4620   0.524   0.064  10.551  1.5401 -1.0621  1.2561
  303MPD2     N 4621   0.621   4.443  10.291  0.0659 -0.2386 -0.6889
  303MPD2    H5 4622   0.641   4.519  10.226 -3.4854  0.2240 -1.2111
  303MPD2    N1 4623   0.449   4.393  10.750  0.1152 -0.1092  0.4865
  303MPD2    H7 4624   0.399   4.435  10.827  1.0488  2.1813 -0.1671
  304TMC3    C1 4625   0.390   4.205  10.873  0.1859  0.3158 -0.3639
  304TMC3    C2 4626   0.260   4.234  10.842  0.1701  0.3743  0.3279
  304TMC3    C3 4627   0.170   4.129  10.853  0.1480 -0.1802 -0.5524
  304TMC3    C4 4628   0.431   4.082  10.921  0.3520  0.2819 -0.2085
  304TMC3    C5 4629   0.338   3.990  10.941  0.1612 -0.4358  0.3578
  304TMC3    C6 4630   0.207   4.013  10.909  0.0376  0.2481  0.3358
  304TMC3     C 4631   0.480   4.260  10.769 -0.5639  0.6647  0.0746
  304TMC3     O 4632   0.583   4.203  10.744 -0.8104 -0.0903 -0.4396
  304TMC3     H 4633   0.219   4.323  10.795  0.3400 -0.2832 -1.0584
  304TMC3    H1 4634   0.536   4.060  10.934 -0.2580 -2.2443  0.4975
  304TMC3    H2 4635   0.138   3.934  10.937 -0.4848  0.3350 -0.6710
  304TMC3    C7 4636   0.384   3.858  10.898 -0.4632 -0.1214  0.4382
  304TMC3    C8 4637   0.106   4.110  10.728  1.0191 -0.0774 -0.5150
  304TMC3    O1 4638   0.295   3.792  10.842  0.0781 -0.2463  0.0330
  304TMC3    O2 4639   0.080   4.206  10.662 -0.3682 -0.9874  0.3532
  305MPD2     C 4640   3.344   1.261  13.676 -0.7608 -0.5406 -0.2248
  305MPD2    C1 4641   3.439   1.161  13.697 -0.1646  0.7703 -0.6059
  305MPD2    C2 4642   3.465   1.069  13.596 -0.9119  0.1805 -0.0002
  305MPD2    C3 4643   3.384   1.066  13.484  0.0178  0.8868  0.0497
  305MPD2    C4 4644   3.284   1.158  13.474  0.1002 -0.0491  0.6543
  305MPD2    C5 4645   3.275   1.260  13.559  0.8125  0.2233 -0.8551
  305MPD2     H 4646   3.538   0.992  13.619  1.4039  1.1285 -4.0174
  305MPD2    H1 4647   3.227   1.159  13.382 -0.1875  2.7456  0.8690
  305MPD2    H2 4648   3.327   1.330  13.757 -0.4720 -2.2589  1.3040
  305MPD2    H3 4649   3.201   1.337  13.542 -0.7788 -1.5759 -2.0283
  305MPD2     N 4650   3.381   0.961  13.382 -0.1279 -0.2755 -0.0518
  305MPD2    H5 4651   3.314   0.969  13.306  0.5063 -1.0055 -0.6856
  305MPD2    N1 4652   3.500   1.157  13.823 -0.4728 -0.1070  0.3050
  305MPD2    H7 4653   3.485   1.237  13.884 -3.8822  0.7001 -1.5677
  306TMC3    C1 4654   3.638   1.099  14.002 -0.5483 -0.3422 -1.0812
  306TMC3    C2 4655   3.772   1.081  14.019 -0.7227  0.3040 -0.0205
  306TMC3    C3 4656   3.834   1.173  14.103  0.2784 -0.1524 -0.0407
  306TMC3    C4 4657   3.558   1.172  14.081 -0.2701  0.5381  0.7788
  306TMC3    C5 4658   3.624   1.244  14.181  0.1918 -0.6417  0.0490
  306TMC3    C6 4659   3.759   1.245  14.195 -0.5431 -0.8464 -0.7843
  306TMC3     C 4660   3.578   1.055  13.879 -0.5438  0.2058  0.2257
  306TMC3     O 4661   3.614   0.950  13.823 -0.1510  0.1688  0.2064
  306TMC3     H 4662   3.827   1.025  13.944  0.0862  0.2012  0.6484
  306TMC3    H1 4663   3.450   1.169  14.088 -0.2524 -0.3185  0.7301
  306TMC3    H2 4664   3.797   1.310  14.274  2.4657 -2.8050 -0.6132
  306TMC3    C7 4665   3.540   1.292  14.285  0.6097  0.3042 -0.2762
  306TMC3    C8 4666   3.969   1.144  14.137  0.0938  0.2299 -0.0984
  306TMC3    O1 4667   3.421   1.314  14.255 -0.0347  0.3665 -0.5748
  306TMC3    O2 4668   4.022   1.047  14.085 -0.2061 -0.3138  0.2796
  307MPD2     C 4669   1.533   3.154  17.621 -0.0485 -0.3059  0.4433
  307MPD2    C1 4670   1.503   3.276  17.686 -0.0013 -0.4980 -0.0296
  307MPD2    C2 4671   1.398   3.277   0.053 -0.3247 -0.0966  1.0016
  307MPD2    C3 4672   1.324   3.165   0.081 -0.0946  0.8424 -0.4120
  307MPD2    C4 4673   1.359   3.051   0.017  0.3954  0.2408  0.3095
  307MPD2    C5 4674   1.462   3.048  17.652 -0.0165  0.2240  0.0929
  307MPD2     H 4675   1.382   3.375   0.097  0.1373  1.2687 -1.8192
  307MPD2    H1 4676   1.294   2.964   0.025 -0.9085  1.0233 -1.5952
  307MPD2    H2 4677   1.610   3.141  17.546 -1.5439  1.2897 -1.3507
  307MPD2    H3 4678   1.491   2.958  17.598  2.8127 -0.5351  2.8517
  307MPD2     N 4679   1.223   3.173   0.174  0.1133  0.0565  0.0821
  307MPD2    H5 4680   1.210   3.258   0.229  2.4614  0.4189  0.0478
  307MPD2    N1 4681   1.551   3.405  17.645  0.2223 -0.3781  0.1433
  307MPD2    H7 4682   1.509   3.488  17.686  2.0133  1.0613 -0.9592
  308TMC3    C1 4683   0.814   3.203   0.265 -1.1103 -0.5472  0.0666
  308TMC3    C2 4684   0.833   3.308   0.353  0.3883  0.0158  0.3798
  308TMC3    C3 4685   0.958   3.318   0.407 -0.2616  0.0391  0.2361
  308TMC3    C4 4686   0.912   3.110   0.233  0.2854 -0.2756 -0.5210
  308TMC3    C5 4687   1.030   3.124   0.289  0.0803  0.6519  0.5491
  308TMC3    C6 4688   1.056   3.230   0.372 -0.1546 -0.4811 -0.4497
  308TMC3     C 4689   0.688   3.195   0.203  0.0394 -0.3706  0.1051
  308TMC3     O 4690   0.646   3.081   0.181 -0.2580  0.1091 -0.8855
  308TMC3     H 4691   0.749   3.373   0.375  0.0604  0.4328 -2.1540
  308TMC3    H1 4692   0.896   3.017   0.180  0.7480 -0.4670 -0.3271
  308TMC3    H2 4693   1.146   3.243   0.431  0.5219 -0.3343 -1.5209
  308TMC3    C7 4694   1.142   3.077   0.222 -0.8400 -0.3010 -0.2056
  308TMC3    C8 4695   0.995   3.423   0.492 -0.0278 -0.1528 -0.1387
  308TMC3    O1 4696   1.132   2.957   0.194 -0.0273  0.4065 -0.8739
  308TMC3    O2 4697   1.093   3.409   0.564 -0.0819 -0.5647 -0.9693
  309MPD2     C 4698   0.255   3.905  16.827  0.2823  0.2589  0.1939
  309MPD2    C1 4699   0.216   3.984  16.715  0.7286 -0.4620 -0.3634
  309MPD2    C2 4700   0.115   4.073  16.730 -0.1309  0.0693  0.4639
  309MPD2    C3 4701   0.053   4.096  16.859 -0.1493  0.2925 -0.1931
  309MPD2    C4 4702   0.094   4.009  16.955 -0.2042  0.2637  0.4713
  309MPD2    C5 4703   0.199   3.925  16.950 -0.5384  0.1493  0.3877
  309MPD2     H 4704   0.085   4.139  16.649  0.7265  0.6829  0.6547
  309MPD2    H1 4705   0.053   4.030  17.053  2.2573  1.8657  1.1542
  309MPD2    H2 4706   0.344   3.845  16.838 -0.2488 -0.3842  0.9875
  309MPD2    H3 4707   0.230   3.860  17.031  0.1374 -0.0006  0.0125
  309MPD2     N 4708   4.687   4.189  16.891 -1.0329 -0.1936 -0.2103
  309MPD2    H5 4709   4.637   4.168  16.977  0.5558 -2.3121  0.1895
  309MPD2    N1 4710   0.290   3.978  16.590 -0.3503 -0.2105 -0.0535
  309MPD2    H7 4711   0.242   4.030  16.517  0.6005 -0.3843 -0.8186
  310TMC3    C1 4712   0.487   3.973  16.451  0.7712  0.3598 -0.3102
  310TMC3    C2 4713   0.422   4.062  16.362 -0.3138 -0.0256  0.7618
  310TMC3    C3 4714   0.497   4.159  16.293 -0.6068  0.0946 -0.2832
  310TMC3    C4 4715   0.623   3.990  16.466  0.5693  0.0466  0.2594
  310TMC3    C5 4716   0.693   4.084  16.402  0.1105 -0.0460  0.8129
  310TMC3    C6 4717   0.636   4.168  16.309  0.6358  0.3392 -0.5028
  310TMC3     C 4718   0.416   3.925  16.570  0.0116 -0.1443 -0.2007
  310TMC3     O 4719   0.487   3.861  16.648  0.7251  0.7712  0.1082
  310TMC3     H 4720   0.315   4.047  16.347 -0.2097  0.4967 -0.4805
  310TMC3    H1 4721   0.664   3.934  16.550 -3.9430 -0.0882  2.3741
  310TMC3    H2 4722   0.696   4.244  16.262 -0.3194  1.6544  0.3974
  310TMC3    C7 4723   0.836   4.082  16.412  0.6011  0.0372  0.2294
  310TMC3    C8 4724   0.423   4.255  16.215  0.4091 -0.4667 -0.3811
  310TMC3    O1 4725   0.900   4.184  16.377 -0.2608 -0.6813 -0.0542
  310TMC3    O2 4726   0.300   4.244  16.217  0.1373  0.1805 -0.0302
  311MPD2     C 4727   2.531   0.813  12.973  0.5519  0.1140  0.1945
  311MPD2    C1 4728   2.513   0.939  12.931 -0.7478 -1.0484  0.9007
  311MPD2    C2 4729   2.383   0.992  12.924 -0.4710 -0.4384  1.8696
  311MPD2    C3 4730   2.275   0.924  12.973  1.1971 -0.3085  0.0284
  311MPD2    C4 4731   2.294   0.799  13.024 -0.6715  0.6830 -0.1233
  311MPD2    C5 4732   2.425   0.745  13.026 -0.0810 -0.1125 -0.1066
  311MPD2     H 4733   2.366   1.093  12.888  3.0397 -0.3165  0.5365
  311MPD2    H1 4734   2.216   0.724  13.039 -0.7760  1.0473  1.0926
  311MPD2    H2 4735   2.630   0.771  12.981  0.7904  0.4748 -0.8811
  311MPD2    H3 4736   2.439   0.646  13.067  3.0542 -0.0790 -1.0883
  311MPD2     N 4737   2.150   0.984  12.955 -0.0993 -0.8522  0.7842
  311MPD2    H5 4738   2.149   1.084  12.933  2.3193 -1.1203 -0.4988
  311MPD2    N1 4739   2.614   1.028  12.883  0.6954 -0.1361  0.1317
  311MPD2    H7 4740   2.590   1.126  12.874  0.4919 -0.1761  0.2258
  312TMC3    C1 4741   1.920   1.019  12.968  0.1945  0.6664  0.1917
  312TMC3    C2 4742   1.806   0.947  12.926  0.0489  0.0448  0.0014
  312TMC3    C3 4743   1.710   1.030  12.864 -0.0523 -0.2885  0.0339
  312TMC3    C4 4744   1.925   1.153  12.974  0.4848 -0.4612 -0.2256
  312TMC3    C5 4745   1.825   1.225  12.916 -0.3147 -0.2044  0.3078
  312TMC3    C6 4746   1.713   1.167  12.872  0.2532  0.5559 -0.1707
  312TMC3     C 4747   2.030   0.935  13.005 -0.1734 -0.5148  0.4211
  312TMC3     O 4748   2.003   0.826  13.053  0.1751  0.4388 -0.2567
  312TMC3     H 4749   1.799   0.839  12.930 -0.7224  0.1218  0.7741
  312TMC3    H1 4750   2.012   1.198  13.020 -0.2859 -0.0241  0.8339
  312TMC3    H2 4751   1.624   1.225  12.847  0.1476  0.6352  0.4032
  312TMC3    C7 4752   1.825   1.375  12.925 -0.2639 -0.2207 -0.4914
  312TMC3    C8 4753   1.607   0.971  12.780  0.0170 -0.4508 -0.4168
  312TMC3    O1 4754   1.769   1.437  12.837  0.5091  0.4694 -0.1526
  312TMC3    O2 4755   1.552   0.865  12.817  0.2554 -0.0221  0.4981
  313MPD2     C 4756   1.467   0.834  11.736  0.1769  0.0727 -0.8249
  313MPD2    C1 4757   1.401   0.828  11.617  0.2911 -0.9773  0.7278
  313MPD2    C2 4758   1.400   0.705  11.556 -0.2148  0.0557 -0.0055
  313MPD2    C3 4759   1.452   0.591  11.616 -0.2454 -0.4989 -0.4998
  313MPD2    C4 4760   1.510   0.604  11.735  0.0811  0.2952  0.5119
  313MPD2    C5 4761   1.530   0.727  11.789  0.2994  0.9808  0.0468
  313MPD2     H 4762   1.354   0.694  11.459 -0.0300 -0.0409 -0.0824
  313MPD2    H1 4763   1.548   0.518  11.788  0.8554 -0.4747 -1.3059
  313MPD2    H2 4764   1.474   0.932  11.782 -0.3471 -0.6085  0.7129
  313MPD2    H3 4765   1.583   0.734  11.884  0.9711 -0.6898 -0.2074
  313MPD2     N 4766   1.429   0.468  11.548  0.1938 -0.3134 -0.7156
  313MPD2    H5 4767   1.393   0.476  11.454 -1.1421 -0.5632 -0.2252
  313MPD2    N1 4768   1.347   0.932  11.538 -0.2043  0.2283 -0.2485
  313MPD2    H7 4769   1.294   0.900  11.458  1.8279 -2.0019 -0.7252
  314TMC3    C1 4770   1.300   1.157  11.468  0.3215  0.5491  0.2125
  314TMC3    C2 4771   1.381   1.246  11.414  0.2820 -0.4796  0.0508
  314TMC3    C3 4772   1.360   1.296  11.289  0.4740 -0.1457 -0.3695
  314TMC3    C4 4773   1.193   1.103  11.396  0.0663 -0.4527 -0.1902
  314TMC3    C5 4774   1.175   1.160  11.273 -0.1629  0.0883 -0.0696
  314TMC3    C6 4775   1.259   1.249  11.209  0.2358  0.4289  1.2401
  314TMC3     C 4776   1.370   1.072  11.564 -0.8373 -0.4841 -0.0144
  314TMC3     O 4777   1.427   1.123  11.659  0.2068 -0.0352  0.2332
  314TMC3     H 4778   1.459   1.279  11.481 -0.4131  3.0115 -0.8725
  314TMC3    H1 4779   1.125   1.023  11.425 -0.0037  0.5623  2.4371
  314TMC3    H2 4780   1.229   1.286  11.111  0.6853  1.9282  1.6750
  314TMC3    C7 4781   1.062   1.109  11.194 -0.0329 -0.0257 -0.3030
  314TMC3    C8 4782   1.454   1.378  11.228  0.1560 -0.1537  0.5141
  314TMC3    O1 4783   0.965   1.064  11.254 -0.5950  0.5136  0.3519
  314TMC3    O2 4784   1.415   1.452  11.140 -0.0539  0.2535  0.4400
  315MPD2     C 4785   1.566   4.071   0.007  0.1007 -0.9828  0.0083
  315MPD2    C1 4786   1.699   4.039   0.003 -0.6393  1.0910  0.3423
  315MPD2    C2 4787   1.789   4.138  17.684  0.9954 -0.8094  0.1718
  315MPD2    C3 4788   1.741   4.261  17.644  0.1400 -0.2934 -0.2767
  315MPD2    C4 4789   1.608   4.288  17.651 -0.0627 -0.3324 -0.7414
  315MPD2    C5 4790   1.521   4.197  17.698 -0.0265 -0.1704  0.0144
  315MPD2     H 4791   1.895   4.118  17.674  0.7871 -2.8026  1.9204
  315MPD2    H1 4792   1.566   4.379  17.610  2.0768  1.1878  0.4715
  315MPD2    H2 4793   1.490   4.004   0.045  0.9543 -1.3539  1.0472
  315MPD2    H3 4794   1.414   4.210  17.714  0.2240 -0.3363  1.7883
  315MPD2     N 4795   1.839   4.353  17.598  0.2995  0.0237  0.1336
  315MPD2    H5 4796   1.935   4.320  17.600  0.2637 -0.1374 -0.9308
  315MPD2    N1 4797   1.750   3.920   0.057  0.3621  0.5839 -0.6102
  315MPD2    H7 4798   1.850   3.912   0.044  0.1255  0.8007 -2.5676
  316TMC3    C1 4799   1.948   4.548  17.511  0.4043 -0.0262  0.1894
  316TMC3    C2 4800   2.047   4.517  17.602 -0.5171 -1.4976 -0.4635
  316TMC3    C3 4801   2.171   4.574  17.586  1.0496  0.2421  0.7948
  316TMC3    C4 4802   1.970   4.629  17.402 -0.3909 -0.3069 -0.3001
  316TMC3    C5 4803   2.099   4.675  17.387  0.2654 -0.0007  0.1387
  316TMC3    C6 4804   2.194   4.652  17.475  0.1050 -0.1134 -0.3511
  316TMC3     C 4805   1.821   4.481  17.540 -0.1903  0.4952  0.3542
  316TMC3     O 4806   1.728   4.515  17.470  0.1948 -0.5448 -0.6260
  316TMC3     H 4807   2.033   4.461  17.695 -2.3975  0.3306  0.3626
  316TMC3    H1 4808   1.893   4.645  17.327  2.2125  0.0872 -2.9162
  316TMC3    H2 4809   2.295   4.691  17.472 -0.5081  1.6848  2.5332
  316TMC3    C7 4810   2.132   0.013  17.267 -0.7801 -0.4623  0.4102
  316TMC3    C8 4811   2.274   4.565  17.690 -0.1535 -0.3945 -0.5586
  316TMC3    O1 4812   2.243   0.067  17.275  0.8231  0.2567 -0.4582
  316TMC3    O2 4813   2.344   4.664  17.706 -0.3499  0.0009  0.2358
  317MPD2     C 4814   3.394   2.762  13.036  0.1807  0.6317  0.6830
  317MPD2    C1 4815   3.435   2.652  12.958 -0.0912 -0.8454 -0.0499
  317MPD2    C2 4816   3.497   2.551  13.021 -0.3938  0.8758 -0.1451
  317MPD2    C3 4817   3.537   2.562  13.156  0.0491 -0.5328  0.6478
  317MPD2    C4 4818   3.492   2.667  13.232  0.5351  0.4846 -0.6222
  317MPD2    C5 4819   3.423   2.770  13.164  0.7376 -0.3059  0.9542
  317MPD2     H 4820   3.522   2.463  12.963 -0.8581 -0.9061  2.3591
  317MPD2    H1 4821   3.514   2.680  13.337 -1.4688  0.0685 -0.1416
  317MPD2    H2 4822   3.327   2.840  13.002 -0.4138 -0.2660 -0.1849
  317MPD2    H3 4823   3.373   2.846  13.223 -1.4467  0.2817 -1.7009
  317MPD2     N 4824   3.617   2.458  13.205  0.2327  0.2869  0.4436
  317MPD2    H5 4825   3.629   2.386  13.135  0.7922 -0.6406  1.4839
  317MPD2    N1 4826   3.414   2.648  12.820  0.3929  0.1083 -0.2707
  317MPD2    H7 4827   3.437   2.560  12.775  0.6644  0.3399 -0.5851
  318TMC3    C1 4828   3.779   2.349  13.329  0.3662 -0.7028  0.4362
  318TMC3    C2 4829   3.740   2.224  13.287 -0.4487  0.3716 -0.1497
  318TMC3    C3 4830   3.831   2.121  13.306 -0.9804  0.0692  0.0199
  318TMC3    C4 4831   3.892   2.366  13.395  0.1367  0.2808  0.2924
  318TMC3    C5 4832   3.977   2.262  13.414 -0.0622 -0.1766 -0.3348
  318TMC3    C6 4833   3.948   2.134  13.373  0.3930  0.6971  0.0554
  318TMC3     C 4834   3.689   2.458  13.324 -0.2972 -0.2885  0.7053
  318TMC3     O 4835   3.715   2.553  13.395 -0.2924 -0.0440 -0.3554
  318TMC3     H 4836   3.642   2.204  13.246  0.0239 -0.6782 -0.7735
  318TMC3    H1 4837   3.920   2.465  13.428  2.1739  0.2934 -1.5301
  318TMC3    H2 4838   4.017   2.051  13.379 -2.3127 -1.2060  4.3187
  318TMC3    C7 4839   4.104   2.291  13.471  0.0697  0.1923  0.3887
  318TMC3    C8 4840   3.804   1.987  13.253 -0.2047 -0.4589  0.1372
  318TMC3    O1 4841   4.123   2.413  13.487  0.1268  0.0581 -0.0747
  318TMC3    O2 4842   3.864   1.902  13.312 -0.4500 -0.2781  0.2169
  319MPD2     C 4843   0.088   3.557  16.249  0.7598 -0.3728  0.1532
  319MPD2    C1 4844   0.001   3.538  16.353  0.1661 -0.6715 -0.0365
  319MPD2    C2 4845   4.595   3.563  16.333  0.0719 -0.3278 -0.2889
  319MPD2    C3 4846   4.549   3.587  16.205  0.1264 -0.4199 -0.0196
  319MPD2    C4 4847   4.635   3.586  16.098  0.2119 -0.3267  0.2367
  319MPD2    C5 4848   0.037   3.582  16.126 -0.2090  0.2678 -0.4727
  319MPD2     H 4849   4.526   3.564  16.417  0.2660 -0.9415 -0.1206
  319MPD2    H1 4850   4.600   3.596  15.996 -0.0822 -1.3430  0.2400
  319MPD2    H2 4851   0.195   3.549  16.265  0.6759  0.7639  1.3565
  319MPD2    H3 4852   0.106   3.592  16.043  0.0399  1.2282 -0.1510
  319MPD2     N 4853   4.413   3.604  16.180  0.4249 -0.4636 -0.4754
  319MPD2    H5 4854   4.387   3.603  16.082  0.6670 -0.3069 -0.5388
  319MPD2    N1 4855   0.044   3.520  16.486 -0.6319  0.2808  0.0257
  319MPD2    H7 4856   4.707   3.537  16.559 -1.6475  0.4341 -0.9742
  320TMC3    C1 4857   4.189   3.628  16.201  0.4091 -0.0519  0.5419
  320TMC3    C2 4858   4.197   3.698  16.083 -0.5766 -0.7921 -0.6851
  320TMC3    C3 4859   4.092   3.678  15.998 -0.0628 -1.0052  0.1255
  320TMC3    C4 4860   4.089   3.534  16.227  0.5506 -0.4584 -0.4146
  320TMC3    C5 4861   3.997   3.511  16.130  0.4456  0.0062  0.0398
  320TMC3    C6 4862   3.999   3.587  16.016  0.0093  0.4688 -0.4492
  320TMC3     C 4863   4.308   3.604  16.268 -0.5309  0.1658 -1.4027
  320TMC3     O 4864   4.304   3.594  16.389 -0.4708  0.5608 -0.1535
  320TMC3     H 4865   4.268   3.780  16.078 -0.6774 -0.5073  2.5529
  320TMC3    H1 4866   4.100   3.481  16.320  2.0746 -0.1943 -0.4431
  320TMC3    H2 4867   3.905   3.586  15.963  0.2234 -1.7168 -0.8231
  320TMC3    C7 4868   3.916   3.385  16.137  0.1910  0.2944 -0.5157
  320TMC3    C8 4869   4.057   3.795  15.919  0.2183  0.0677  0.0933
  320TMC3    O1 4870   3.864   3.333  16.039  0.5053  0.0169  0.3336
  320TMC3    O2 4871   4.076   3.907  15.964  0.1043 -0.4998 -0.3447
  321TMC3    C1 4872   0.189   3.520  16.675 -0.9086  0.1930 -0.0674
  321TMC3    C2 4873   0.083   3.504  16.758 -0.3546 -0.5182 -0.8988
  321TMC3    C3 4874   0.107   3.533  16.896 -0.7005 -0.6209 -0.7239
  321TMC3    C4 4875   0.315   3.562  16.719  0.1178 -0.2941 -0.3241
  321TMC3    C5 4876   0.332   3.583  16.849 -0.1125  0.2508 -0.1550
  321TMC3    C6 4877   0.227   3.574  16.938 -0.1015  0.1237  0.9882
  321TMC3     C 4878   0.174   3.501  16.531 -0.5124  0.3750  0.6334
  321TMC3     O 4879   0.270   3.473  16.466 -0.1666  0.8791 -0.2460
  321TMC3     H 4880   4.729   3.449  16.722  0.2479 -0.0707 -3.0114
  321TMC3    H1 4881   0.404   3.561  16.657  0.1189  0.6249 -0.3346
  321TMC3    H2 4882   0.243   3.610  17.039  2.4852  1.4586  0.0833
  321TMC3    C7 4883   0.455   3.523  16.906  0.4640 -0.0252  0.4138
  321TMC3    C8 4884   0.047   3.443  16.990 -0.0685  0.0588 -0.8919
  321TMC3    O1 4885   0.556   3.509  16.844 -0.1577 -0.3856  0.3815
  321TMC3    O2 4886   0.129   3.433  17.082  0.1083  0.3784 -0.4339
  322MPD2     C 4887   2.812   0.140  13.965 -0.4382 -0.0467 -0.1385
  322MPD2    C1 4888   2.888   0.168  14.076 -0.2096 -0.2566 -0.2321
  322MPD2    C2 4889   2.927   0.061  14.158 -0.1610 -0.5654 -0.0161
  322MPD2    C3 4890   2.893   4.660  14.127 -0.6559 -0.6247  0.6290
  322MPD2    C4 4891   2.806   4.635  14.021  0.0310  0.0348  0.1073
  322MPD2    C5 4892   2.764   0.010  13.946  0.8194  0.1740  0.3774
  322MPD2     H 4893   2.989   0.079  14.245  0.4051  0.6146 -0.6666
  322MPD2    H1 4894   2.785   4.535  13.985  1.4890 -0.8943  1.8593
  322MPD2    H2 4895   2.766   0.218  13.906  0.6750 -1.1555 -2.5099
  322MPD2    H3 4896   2.694   4.722  13.865 -0.5191  0.4085  1.4820
  322MPD2     N 4897   2.953   4.560  14.205  0.9053 -0.3520  0.0002
  322MPD2    H5 4898   3.012   4.590  14.282  1.1022 -0.8225  0.0290
  322MPD2    N1 4899   2.940   0.306  14.078 -0.4424 -0.1436  0.5661
  322MPD2    H7 4900   2.907   0.365  14.002  0.3130  0.4636  0.7021
  323TMC3    C1 4901   3.075   0.491  14.156  0.5709 -0.2070  0.3987
  323TMC3    C2 4902   3.143   0.501  14.037 -0.2905  0.0284  0.1868
  323TMC3    C3 4903   3.245   0.593  14.024  0.9831 -0.0402  0.0078
  323TMC3    C4 4904   3.130   0.558  14.261 -0.0224 -0.4360 -0.0981
  323TMC3    C5 4905   3.253   0.614  14.251  1.0817  0.0879 -0.2073
  323TMC3    C6 4906   3.310   0.647  14.131 -0.6958 -0.2842  0.2844
  323TMC3     C 4907   3.014   0.359  14.180  0.2040  0.0768  0.3756
  323TMC3     O 4908   3.029   0.318  14.293  0.5964 -0.1045 -0.2298
  323TMC3     H 4909   3.119   0.443  13.948 -1.2305 -0.8970  1.0423
  323TMC3    H1 4910   3.081   0.548  14.357  1.1920 -1.7634  0.3842
  323TMC3    H2 4911   3.401   0.706  14.122 -1.4750  0.6350 -1.4373
  323TMC3    C7 4912   3.345   0.559  14.350 -0.1832 -0.4251 -0.0663
  323TMC3    C8 4913   3.326   0.595  13.906  0.2509 -0.4488  0.6584
  323TMC3    O1 4914   3.288   0.491  14.437 -0.2134  0.0228 -0.3068
  323TMC3    O2 4915   3.445   0.591  13.929  0.5138 -0.5293 -0.1498
  324MPD2     C 4916   0.473   1.024  14.265  0.5670 -0.0227 -0.2219
  324MPD2    C1 4917   0.498   1.155  14.223 -1.2591  0.2980  0.1594
  324MPD2    C2 4918   0.393   1.238  14.207 -0.0567  0.3683  0.2787
  324MPD2    C3 4919   0.258   1.209  14.223 -0.0690  0.0083  0.0330
  324MPD2    C4 4920   0.235   1.077  14.271  0.2015  0.1557  0.7840
  324MPD2    C5 4921   0.340   0.998  14.297 -0.4966  0.0091 -0.2251
  324MPD2     H 4922   0.421   1.330  14.158  2.8528 -1.1095 -0.8347
  324MPD2    H1 4923   0.139   1.036  14.298  0.4250 -1.6135 -1.0983
  324MPD2    H2 4924   0.545   0.944  14.284  2.1549  1.4150 -0.1773
  324MPD2    H3 4925   0.318   0.896  14.328 -2.0594  0.1692 -0.7901
  324MPD2     N 4926   0.155   1.298  14.197 -0.6866 -0.0017 -0.0515
  324MPD2    H5 4927   0.064   1.262  14.224 -1.0199 -0.8667 -2.3670
  324MPD2    N1 4928   0.634   1.210  14.213 -0.1557  0.1005  0.1035
  324MPD2    H7 4929   0.644   1.309  14.192  1.5600  0.2454  1.5904
  325TMC3    C1 4930   0.052   1.520  14.157  0.7070  0.9194  0.1488
  325TMC3    C2 4931   4.663   1.461  14.128  0.1463  0.1715  0.2595
  325TMC3    C3 4932   4.556   1.550  14.132  0.5016 -0.6869  0.2571
  325TMC3    C4 4933   0.073   1.658  14.168  0.3142  0.3208  0.1361
  325TMC3    C5 4934   4.693   1.741  14.161  0.5104 -0.2308  0.4943
  325TMC3    C6 4935   4.563   1.690  14.153  0.2161 -0.2184 -0.3911
  325TMC3     C 4936   0.170   1.429  14.153 -0.0985 -0.4569  0.6229
  325TMC3     O 4937   0.270   1.492  14.121 -0.3051 -0.2260  0.0494
  325TMC3     H 4938   4.662   1.359  14.092 -1.6359  0.0449  0.6676
  325TMC3    H1 4939   0.173   1.699  14.165  0.5584 -0.3432 -1.0675
  325TMC3    H2 4940   4.481   1.754  14.121 -1.0453 -0.5131  2.1924
  325TMC3    C7 4941   4.715   1.882  14.143 -0.4136  0.7272 -0.1893
  325TMC3    C8 4942   4.425   1.505  14.093 -0.1710  0.7133 -0.0196
  325TMC3    O1 4943   0.069   1.904  14.062 -0.6161 -0.1441 -0.0881
  325TMC3    O2 4944   4.431   1.401  14.025 -0.5152 -0.3542  0.1219
  326MPD2     C 4945   1.134   2.930  10.697  0.0924  0.3287  0.4831
  326MPD2    C1 4946   1.166   3.047  10.631  0.6642  0.3267  0.6143
  326MPD2    C2 4947   1.284   3.107  10.649 -0.3350 -0.6163  0.0397
  326MPD2    C3 4948   1.383   3.048  10.727  0.3171 -0.3641 -0.4522
  326MPD2    C4 4949   1.364   2.922  10.773  0.8958  0.0403 -0.1280
  326MPD2    C5 4950   1.237   2.868  10.762  0.2487 -0.3006  0.3736
  326MPD2     H 4951   1.313   3.198  10.596 -0.3180 -0.8317 -0.3224
  326MPD2    H1 4952   1.443   2.878  10.832  1.1777 -1.2390 -1.4745
  326MPD2    H2 4953   1.039   2.880  10.685 -1.0718  3.0974 -1.8326
  326MPD2    H3 4954   1.227   2.768  10.803  0.6685  0.4687  2.3762
  326MPD2     N 4955   1.508   3.113  10.738  0.5908  0.2721 -0.4953
  326MPD2    H5 4956   1.582   3.056  10.778 -0.8537 -0.6414  0.8727
  326MPD2    N1 4957   1.076   3.105  10.533 -0.5002 -0.4475  0.0841
  326MPD2    H7 4958   1.106   3.194  10.493  0.4032 -0.8346 -0.0922
  327TMC3    C1 4959   0.911   3.145  10.389 -0.4905 -0.2983  0.2213
  327TMC3    C2 4960   0.880   3.273  10.435  0.0822 -0.2518 -0.1147
  327TMC3    C3 4961   0.922   3.379  10.359 -0.2996 -0.0539 -0.2457
  327TMC3    C4 4962   1.003   3.136  10.287  1.1871 -0.2474  0.5668
  327TMC3    C5 4963   1.048   3.242  10.214 -0.6331 -0.0729 -0.2041
  327TMC3    C6 4964   0.989   3.362  10.238 -0.3468 -0.3666 -0.5232
  327TMC3     C 4965   0.950   3.064  10.500  0.5931 -0.2184  0.5030
  327TMC3     O 4966   0.883   2.980  10.556  0.1452 -0.0961  0.0867
  327TMC3     H 4967   0.843   3.294  10.535 -0.8017 -2.6133  0.0580
  327TMC3    H1 4968   1.036   3.037  10.260 -0.7200 -0.7696  0.1636
  327TMC3    H2 4969   1.033   3.451  10.195  1.2088 -0.4894  0.7827
  327TMC3    C7 4970   1.190   3.257  10.170 -0.4883 -0.4172  0.2422
  327TMC3    C8 4971   0.895   3.518  10.393 -0.3625  0.1021  0.5124
  327TMC3    O1 4972   1.211   3.360  10.115 -0.5622  0.1975  0.2441
  327TMC3    O2 4973   0.965   3.606  10.340 -0.1016 -0.0695  0.2732
  328MPD2     C 4974   3.833   2.149  17.029  0.1021 -0.1725  0.8951
  328MPD2    C1 4975   3.733   2.120  16.937 -0.2694 -0.4854  0.3854
  328MPD2    C2 4976   3.698   2.218  16.842 -0.2518 -0.0489  0.6993
  328MPD2    C3 4977   3.768   2.341  16.843 -0.4758  0.0112 -0.2728
  328MPD2    C4 4978   3.874   2.363  16.930 -0.4369  0.2202  0.2477
  328MPD2    C5 4979   3.903   2.267  17.023  0.2306 -0.1452  0.2451
  328MPD2     H 4980   3.611   2.204  16.778  0.0605 -1.1175  0.5162
  328MPD2    H1 4981   3.904   2.466  16.949  1.2839 -0.2093 -0.1097
  328MPD2    H2 4982   3.849   2.089  17.117  0.0344 -0.4111  0.7434
  328MPD2    H3 4983   3.955   2.293  17.115  1.4777  0.3854 -0.6005
  328MPD2     N 4984   3.723   2.459  16.771  0.3638 -0.3754 -0.2767
  328MPD2    H5 4985   3.772   2.546  16.791 -1.5673  0.0154  2.8160
  328MPD2    N1 4986   3.668   1.998  16.948  0.5940 -0.6820 -0.9074
  328MPD2    H7 4987   3.692   1.949  17.033 -0.4407  0.5688  0.1065
  329TMC3    C1 4988   3.503   1.837  16.916 -0.5128 -0.0755 -0.6209
  329TMC3    C2 4989   3.409   1.877  17.002  0.2666  0.5945  0.5641
  329TMC3    C3 4990   3.284   1.827  16.988  0.6652 -0.0146 -0.1999
  329TMC3    C4 4991   3.475   1.747  16.817  0.9535 -0.0748 -0.3322
  329TMC3    C5 4992   3.345   1.705  16.804 -0.0951 -0.1569  0.0788
  329TMC3    C6 4993   3.248   1.744  16.890 -0.0377 -0.2157  0.3974
  329TMC3     C 4994   3.572   1.947  16.866 -0.3156 -0.2754 -0.5960
  329TMC3     O 4995   3.548   1.979  16.753 -0.6021 -0.5186 -0.1815
  329TMC3     H 4996   3.450   1.935  17.085 -0.5294  1.5522  0.2932
  329TMC3    H1 4997   3.552   1.730  16.743 -0.9921 -1.4051 -2.0659
  329TMC3    H2 4998   3.145   1.716  16.872 -0.5671  2.4314 -0.6402
  329TMC3    C7 4999   3.315   1.610  16.701  0.1661  0.4308  1.0404
  329TMC3    C8 5000   3.177   1.902  17.049  0.4241  0.1318  0.4412
  329TMC3    O1 5001   3.233   1.531  16.734 -0.2330  0.6237 -1.0140
  329TMC3    O2 5002   3.062   1.863  17.020 -0.3821  0.1456 -0.4955
  330TMC3    C1 5003   1.652   2.129   9.570  0.7738 -0.2615 -0.1274
  330TMC3    C2 5004   1.522   2.111   9.610  0.0632 -0.1093 -0.1627
  330TMC3    C3 5005   1.506   2.072   9.740 -0.7998  0.1433  0.7175
  330TMC3    C4 5006   1.756   2.098   9.647 -0.5319 -0.2689  0.5497
  330TMC3    C5 5007   1.734   2.056   9.776  0.1506  0.1346 -0.6336
  330TMC3    C6 5008   1.606   2.049   9.827  0.6305 -0.2070 -0.0997
  330TMC3     C 5009   1.674   2.253   9.505 -1.2430 -0.6518 -0.4590
  330TMC3     O 5010   1.778   2.313   9.527  0.0262 -0.0810 -0.2506
  330TMC3     H 5011   1.436   2.135   9.548  0.0025  2.3197  0.8525
  330TMC3    H1 5012   1.853   2.097   9.599  0.1421 -1.2189  1.9415
  330TMC3    H2 5013   1.589   2.018   9.929 -1.9648 -1.5990 -0.9473
  330TMC3    C7 5014   1.843   1.996   9.854 -0.0161  0.4448 -0.0073
  330TMC3    C8 5015   1.371   2.070   9.789  0.5081  0.8512  0.7343
  330TMC3    O1 5016   1.952   2.044   9.839 -0.1722 -0.0304 -0.0685
  330TMC3    O2 5017   1.287   2.114   9.711 -0.7297  0.0291  0.2143
  331MPD2     C 5018   4.213   1.376  12.667 -1.1018 -0.5649  0.5872
  331MPD2    C1 5019   4.295   1.313  12.577 -0.4372  0.3785 -0.3096
  331MPD2    C2 5020   4.353   1.193  12.616  0.3060  0.4295 -0.5896
  331MPD2    C3 5021   4.340   1.145  12.742  0.7053 -0.5048  0.1610
  331MPD2    C4 5022   4.270   1.219  12.836 -0.3676  0.2819 -0.0439
  331MPD2    C5 5023   4.205   1.339  12.796  0.1637  0.6156 -0.1598
  331MPD2     H 5024   4.415   1.148  12.540 -1.0969 -0.6121 -1.1274
  331MPD2    H1 5025   4.258   1.179  12.936  0.5046  1.5118  0.5490
  331MPD2    H2 5026   4.143   1.449  12.628 -1.7279 -1.0894  0.7339
  331MPD2    H3 5027   4.146   1.397  12.866 -0.3650  1.8775 -1.6444
  331MPD2     N 5028   4.422   1.032  12.776 -0.8528 -0.4116 -0.4151
  331MPD2    H5 5029   4.474   0.989  12.701  0.6964  0.5849  0.0943
  331MPD2    N1 5030   4.305   1.370  12.453 -0.2033 -0.3793  0.0611
  331MPD2    H7 5031   4.244   1.451  12.445  0.4713  0.0167 -1.0305
  332TMC3    C1 5032   4.543   0.873  12.892 -0.1286  0.0308  0.0678
  332TMC3    C2 5033   4.556   0.797  12.778  0.3898 -0.4693 -0.1226
  332TMC3    C3 5034   4.666   0.719  12.779 -0.2332 -0.0443 -0.3366
  332TMC3    C4 5035   4.645   0.893  12.980  0.2780  0.8064 -0.3307
  332TMC3    C5 5036   0.028   0.826  12.961 -0.0484 -0.2287  0.6647
  332TMC3    C6 5037   0.033   0.725  12.869 -0.1673  1.1265  0.3562
  332TMC3     C 5038   4.440   0.972  12.899 -0.1830  0.2817 -0.7470
  332TMC3     O 5039   4.392   0.999  13.007 -0.6197 -0.0764 -0.0342
  332TMC3     H 5040   4.472   0.774  12.714  0.0366 -1.6809  0.7586
  332TMC3    H1 5041   4.648   0.975  13.051 -1.4632  0.1091  0.5699
  332TMC3    H2 5042   0.101   0.643  12.887  0.2474  0.8738 -2.3659
  332TMC3    C7 5043   0.151   0.900  12.979 -0.7078  0.2934 -0.1060
  332TMC3    C8 5044   0.004   0.689  12.653  0.0735 -0.2899 -0.7144
  332TMC3    O1 5045   0.148   0.998  13.055  0.6818 -0.1076  0.5824
  332TMC3    O2 5046   0.126   0.704  12.648  0.5107  0.1475  0.0526
  333MPD2     C 5047   4.276   1.744  11.212 -0.3933 -0.0725  0.5261
  333MPD2    C1 5048   4.377   1.674  11.137 -0.2832 -0.6193  0.2734
  333MPD2    C2 5049   4.402   1.544  11.170  0.6902 -0.1897 -0.7073
  333MPD2    C3 5050   4.332   1.483  11.271 -0.4528  0.1553  0.5373
  333MPD2    C4 5051   4.235   1.548  11.349  0.1699  0.3841 -0.0536
  333MPD2    C5 5052   4.208   1.680  11.316 -0.4703  0.7147 -0.4826
  333MPD2     H 5053   4.485   1.493  11.122  1.0417 -2.0944  1.9429
  333MPD2    H1 5054   4.200   1.509  11.443  0.8166 -2.6923 -1.1015
  333MPD2    H2 5055   4.253   1.847  11.186  1.5098  0.2098 -0.0344
  333MPD2    H3 5056   4.152   1.730  11.394 -1.8475 -1.2169 -0.2299
  333MPD2     N 5057   4.379   1.356  11.298  0.1154  0.3865 -0.4407
  333MPD2    H5 5058   4.460   1.325  11.244 -0.4525 -0.7109 -0.6573
  333MPD2    N1 5059   4.440   1.738  11.028  0.2174 -0.0300 -0.2150
  333MPD2    H7 5060   4.432   1.839  11.023 -2.0596 -0.0768  2.4692
  334TMC3    C1 5061   4.582   1.760  10.837 -0.7427 -0.1078 -0.4268
  334TMC3    C2 5062   4.696   1.704  10.776  0.1064 -0.5617  0.4031
  334TMC3    C3 5063   0.026   1.788  10.696  0.4741 -0.1042  0.6567
  334TMC3    C4 5064   4.519   1.874  10.795 -0.7526  0.1654  0.1956
  334TMC3    C5 5065   4.586   1.956  10.707 -0.0525  0.4557  0.2611
  334TMC3    C6 5066   4.715   1.915  10.667 -0.1700 -0.8937 -0.4171
  334TMC3     C 5067   4.527   1.680  10.937 -0.2097  0.6229 -0.4554
  334TMC3     O 5068   4.573   1.564  10.937 -0.3683 -0.2657 -0.3813
  334TMC3     H 5069   0.005   1.609  10.807  0.9629 -0.3769 -0.1475
  334TMC3    H1 5070   4.429   1.913  10.840 -0.0037  2.7923 -0.5660
  334TMC3    H2 5071   0.038   1.983  10.603 -1.5858 -0.9680 -1.7136
  334TMC3    C7 5072   4.534   2.090  10.666  0.5469  0.1700  0.6702
  334TMC3    C8 5073   0.115   1.727  10.603 -0.0560 -0.1218 -0.4070
  334TMC3    O1 5074   4.613   2.174  10.624 -0.2421 -0.0454  0.0921
  334TMC3    O2 5075   0.117   1.604  10.605  0.1517  0.1277  0.0285
  335TMC3    C1 5076   4.276   2.441  16.746 -0.0613  0.1241 -0.4534
  335TMC3    C2 5077   4.184   2.347  16.756  0.0100  0.0818 -0.9099
  335TMC3    C3 5078   4.207   2.236  16.837  0.1767 -0.2111 -0.3993
  335TMC3    C4 5079   4.399   2.425  16.796 -0.0247  0.1299 -0.7594
  335TMC3    C5 5080   4.422   2.317  16.868  0.5451  0.1109  0.3791
  335TMC3    C6 5081   4.333   2.220  16.898 -0.2808  0.6584  0.5436
  335TMC3     C 5082   4.213   2.573  16.757  0.1595 -0.7957 -0.1847
  335TMC3     O 5083   4.090   2.580  16.776  0.1388 -0.1054 -0.0360
  335TMC3     H 5084   4.086   2.352  16.710 -0.0865  2.7906 -0.4228
  335TMC3    H1 5085   4.482   2.494  16.788  0.3404 -0.2857 -0.5384
  335TMC3    H2 5086   4.353   2.131  16.958 -0.6008  0.2788  0.0881
  335TMC3    C7 5087   4.564   2.290  16.891  0.0991 -0.0500  0.1920
  335TMC3    C8 5088   4.135   2.110  16.824 -0.1800  0.0239  0.5958
  335TMC3    O1 5089   4.648   2.301  16.801 -0.4825 -0.3362  0.6127
  335TMC3    O2 5090   4.185   2.023  16.891 -0.2563 -0.1981 -0.3734
  336MPD2     C 5091   4.300   0.205  16.053 -0.0519  0.0520 -0.8184
  336MPD2    C1 5092   4.310   0.128  15.937 -0.5003  0.0451  0.0172
  336MPD2    C2 5093   4.320   4.722  15.951 -0.5654  0.1763  0.4608
  336MPD2    C3 5094   4.335   4.664  16.081 -1.2271  0.6517  0.1441
  336MPD2    C4 5095   4.342   0.016  16.182  0.2900  0.4277 -0.2179
  336MPD2    C5 5096   4.322   0.152  16.171  0.8328  0.8995  0.5288
  336MPD2     H 5097   4.321   4.658  15.863 -0.2613 -0.4322  0.9003
  336MPD2    H1 5098   4.355   4.709  16.282 -1.0745 -0.4518 -0.3881
  336MPD2    H2 5099   4.273   0.310  16.049  0.0588  0.0527 -1.6016
  336MPD2    H3 5100   4.316   0.220  16.255 -0.9308 -0.9508  1.9162
  336MPD2     N 5101   4.327   4.526  16.099  0.0006 -0.1650 -0.0578
  336MPD2    H5 5102   4.335   4.498  16.197  2.4709  3.5070  0.7939
  336MPD2    N1 5103   4.282   0.179  15.808 -0.6134 -0.3986  0.4025
  336MPD2    H7 5104   4.250   0.116  15.735 -0.9014 -2.6945  2.5153
  337TMC3    C1 5105   4.301   0.349  15.643 -0.7968  0.0958  0.1493
  337TMC3    C2 5106   4.180   0.299  15.593 -0.1501  0.4050 -0.3340
  337TMC3    C3 5107   4.132   0.366  15.482  0.1610 -0.4467  0.1076
  337TMC3    C4 5108   4.362   0.464  15.600  0.2636 -0.4845 -0.0800
  337TMC3    C5 5109   4.298   0.537  15.497 -0.1820 -0.2223  0.0369
  337TMC3    C6 5110   4.183   0.489  15.437 -0.2174 -0.4931 -0.9528
  337TMC3     C 5111   4.324   0.305  15.780 -0.0188  0.6854 -0.2549
  337TMC3     O 5112   4.396   0.374  15.848 -0.0802  0.1771  0.1528
  337TMC3     H 5113   4.124   0.215  15.630  3.0551 -1.2965  0.6574
  337TMC3    H1 5114   4.446   0.496  15.661 -1.4208  1.7197  1.0977
  337TMC3    H2 5115   4.144   0.552  15.358  1.2907 -0.0406 -1.3417
  337TMC3    C7 5116   4.338   0.672  15.459  0.6132 -0.1613  0.1563
  337TMC3    C8 5117   3.992   0.333  15.456  0.1286 -0.0236  0.8258
  337TMC3    O1 5118   4.283   0.728  15.364 -0.3345  0.0201  0.3375
  337TMC3    O2 5119   3.949   0.235  15.512  0.2438  0.2210  0.1446
  338MPD2     C 5120   0.363   4.283   0.461 -0.4142  0.1886 -0.3827
  338MPD2    C1 5121   0.236   4.243   0.442  0.0731  0.8601  0.2519
  338MPD2    C2 5122   0.151   4.266   0.546  0.1394  0.7359  0.0615
  338MPD2    C3 5123   0.188   4.324   0.660  0.7613  0.1503 -0.2314
  338MPD2    C4 5124   0.317   4.356   0.681 -0.2754  0.3360  0.1331
  338MPD2    C5 5125   0.408   4.328   0.582  0.1216  0.6342 -0.5564
  338MPD2     H 5126   0.047   4.235   0.537  0.8261 -1.4080 -0.3617
  338MPD2    H1 5127   0.350   4.415   0.765  0.1993 -2.2601  1.7633
  338MPD2    H2 5128   0.435   4.275   0.380  0.6061  0.0754  0.5408
  338MPD2    H3 5129   0.509   4.365   0.598  0.8152 -0.0231 -3.3899
  338MPD2     N 5130   0.091   4.332   0.762 -0.1674  0.4888 -0.9848
  338MPD2    H5 5131   4.726   4.318   0.736 -0.6207  0.6306  0.6812
  338MPD2    N1 5132   0.198   4.167   0.333  0.6829 -0.0253 -0.7459
  338MPD2    H7 5133   0.097   4.162   0.318  0.4267  0.1544  0.9188
  339TMC3    C1 5134   4.718   4.362   0.959  0.2840 -0.1793  0.0723
  339TMC3    C2 5135   4.654   4.252   1.021  1.3891  0.4560 -0.4789
  339TMC3    C3 5136   4.514   4.236   1.033  0.0709 -1.0251  0.0857
  339TMC3    C4 5137   4.626   4.436   0.890  0.2252 -0.4004 -0.3521
  339TMC3    C5 5138   4.491   4.417   0.905 -0.1281  0.7607 -0.3678
  339TMC3    C6 5139   4.429   4.326   0.977  0.1675 -0.7353 -0.4007
  339TMC3     C 5140   0.116   4.349   0.896 -0.0221 -0.2953 -0.4922
  339TMC3     O 5141   0.206   4.310   0.966  0.4052  0.2749 -0.0158
  339TMC3     H 5142   4.722   4.185   1.071  0.0939 -0.0567  0.5734
  339TMC3    H1 5143   4.658   4.515   0.822  1.5945  0.5029  1.3310
  339TMC3    H2 5144   4.324   4.306   0.993  0.0023  0.1589 -0.3453
  339TMC3    C7 5145   4.414   4.495   0.809 -0.6886 -0.2924 -0.1887
  339TMC3    C8 5146   4.481   4.139   1.133  0.0401  0.5765  0.1626
  339TMC3    O1 5147   4.462   4.589   0.747 -0.0113  0.0683  0.4814
  339TMC3    O2 5148   4.569   4.053   1.142  0.2272  0.3073  0.3227
  340MPD2     C 5149   0.273   2.762   9.969 -0.1017  0.8700  1.3077
  340MPD2    C1 5150   0.195   2.873   9.941  0.0153  0.1154  0.1945
  340MPD2    C2 5151   0.255   2.999   9.923 -0.5349  0.1574 -0.1679
  340MPD2    C3 5152   0.390   3.015   9.931  0.3429  0.5404 -0.0211
  340MPD2    C4 5153   0.467   2.903   9.949 -0.2974  0.3913 -0.1060
  340MPD2    C5 5154   0.409   2.785   9.978  0.1722 -0.1281  0.0047
  340MPD2     H 5155   0.194   3.089   9.917 -0.4826  0.0190 -3.0454
  340MPD2    H1 5156   0.573   2.925   9.953  0.0028 -1.5395  2.6918
  340MPD2    H2 5157   0.238   2.662   9.990  0.2595  0.3818 -0.4318
  340MPD2    H3 5158   0.472   2.699   9.996 -0.3810 -0.8479 -1.4445
  340MPD2     N 5159   0.462   3.138   9.922  0.2858 -0.5187 -0.6539
  340MPD2    H5 5160   0.561   3.128   9.942  0.3716 -1.0167 -1.3040
  340MPD2    N1 5161   0.056   2.844   9.924  0.1280  0.1130  0.3702
  340MPD2    H7 5162   0.024   2.748   9.933 -2.6723  0.9750 -0.5668
  341TMC3    C1 5163   4.588   2.866   9.815  0.0905 -0.4053  0.4013
  341TMC3    C2 5164   4.555   2.744   9.864  0.1862 -0.2415 -0.2769
  341TMC3    C3 5165   4.464   2.671   9.784 -0.4774 -0.4390 -0.0982
  341TMC3    C4 5166   4.558   2.914   9.694  0.2997 -0.6407 -0.3323
  341TMC3    C5 5167   4.485   2.829   9.613  0.0039 -0.2017 -0.1810
  341TMC3    C6 5168   4.448   2.707   9.654  0.2147 -0.1122  1.2293
  341TMC3     C 5169   4.704   2.933   9.877 -0.0184  0.1579 -0.5843
  341TMC3     O 5170   4.709   3.052   9.855  0.1682  0.3717  0.2540
  341TMC3     H 5171   4.558   2.709   9.967 -3.2657 -0.0751 -0.0953
  341TMC3    H1 5172   4.590   3.009   9.655 -0.8216 -1.3085 -2.8616
  341TMC3    H2 5173   4.370   2.652   9.602 -1.2191  2.0920  1.0632
  341TMC3    C7 5174   4.449   2.885   9.478 -0.7375 -0.2968 -0.3932
  341TMC3    C8 5175   4.412   2.537   9.821  0.4187 -0.4186  0.2691
  341TMC3    O1 5176   4.484   2.999   9.441 -0.4502 -0.1566 -0.6508
  341TMC3    O2 5177   4.328   2.488   9.748  0.3787  0.0109  0.3333
  342MPD2     C 5178   2.533   0.603  17.666 -0.2487 -0.1202  0.0466
  342MPD2    C1 5179   2.637   0.642  17.585  0.6174  0.2042  0.2463
  342MPD2    C2 5180   2.653   0.778  17.557 -0.2523 -0.0588 -0.1433
  342MPD2    C3 5181   2.562   0.869  17.600 -0.0668  0.6195  0.5788
  342MPD2    C4 5182   2.452   0.824  17.670 -0.0073  0.3468  0.6704
  342MPD2    C5 5183   2.438   0.693  17.707  0.2759 -0.4094 -0.0991
  342MPD2     H 5184   2.740   0.805  17.497  0.5591 -2.4994 -0.0704
  342MPD2    H1 5185   2.374   0.887  17.714  0.1163  0.4142  0.7932
  342MPD2    H2 5186   2.514   0.498  17.685 -0.0095 -0.2416 -0.3782
  342MPD2    H3 5187   2.354   0.656   0.038  1.9692 -0.5935  2.2163
  342MPD2     N 5188   2.572   1.007  17.581  0.9310 -0.2171  0.8532
  342MPD2    H5 5189   2.491   1.060  17.612  0.9530 -0.4073  1.2318
  342MPD2    N1 5190   2.723   0.550  17.526  0.2969 -0.0261  0.3866
  342MPD2    H7 5191   2.785   0.582  17.453 -0.6718  1.9894  0.4410
  343TMC3    C1 5192   2.817   0.345  17.451  0.2828 -0.1025  0.0079
  343TMC3    C2 5193   2.862   0.403  17.336 -0.4699  0.4575 -0.1359
  343TMC3    C3 5194   2.932   0.324  17.247  0.7063  0.1201  0.2414
  343TMC3    C4 5195   2.849   0.213  17.483 -0.4600 -0.3439  0.7744
  343TMC3    C5 5196   2.936   0.148  17.395 -0.9992 -0.7563 -0.7193
  343TMC3    C6 5197   2.970   0.198  17.271  0.0065  0.3710  0.0534
  343TMC3     C 5198   2.728   0.415  17.547  0.7026 -0.4214  0.0139
  343TMC3     O 5199   2.669   0.345  17.624 -0.3187  0.6712  0.4128
  343TMC3     H 5200   2.825   0.497  17.298 -0.7886 -0.9485 -3.3226
  343TMC3    H1 5201   2.807   0.170  17.573  0.7774 -2.2631  0.4308
  343TMC3    H2 5202   3.042   0.141  17.214  0.0266  0.4764 -0.0260
  343TMC3    C7 5203   2.934   4.731  17.396  0.7355 -0.5995  0.2636
  343TMC3    C8 5204   2.976   0.400  17.134  0.0303 -0.3170  0.2814
  343TMC3    O1 5205   2.945   4.668  17.291  0.1460 -1.0218 -0.1250
  343TMC3    O2 5206   2.969   0.523  17.147 -0.4079  0.2157  0.1562
  344MPD2     C 5207   3.289   0.381  10.818  0.3758 -0.0532 -0.6298
  344MPD2    C1 5208   3.275   0.340  10.693  0.0060  0.0037  0.1053
  344MPD2    C2 5209   3.284   0.430  10.591 -0.1125 -0.3883  0.1288
  344MPD2    C3 5210   3.319   0.557  10.620  0.5683  0.5827 -0.5825
  344MPD2    C4 5211   3.346   0.602  10.742 -0.8827  0.3078 -0.0630
  344MPD2    C5 5212   3.324   0.517  10.841 -0.3367  0.3825 -0.7182
  344MPD2     H 5213   3.261   0.402  10.489  0.6617  0.5629 -0.3116
  344MPD2    H1 5214   3.360   0.705  10.772  0.3799  0.4796 -1.2668
  344MPD2    H2 5215   3.272   0.327  10.910 -3.0891  0.2722 -1.0704
  344MPD2    H3 5216   3.329   0.553  10.943  0.1831  0.8128 -0.8930
  344MPD2     N 5217   3.336   0.651  10.519 -0.1907 -0.9303  0.1388
  344MPD2    H5 5218   3.393   0.732  10.544  0.8345 -1.5920 -0.0473
  344MPD2    N1 5219   3.245   0.206  10.660  0.0626 -0.1099  0.4093
  344MPD2    H7 5220   3.235   0.177  10.563 -0.0223  2.2965 -0.2941
  345TMC3    C1 5221   3.350   0.760  10.312 -0.3487 -0.7023 -0.2995
  345TMC3    C2 5222   3.483   0.780  10.338 -0.8831 -0.0410 -0.0672
  345TMC3    C3 5223   3.537   0.886  10.272  0.0216  0.2073 -0.0774
  345TMC3    C4 5224   3.276   0.829  10.226  0.2266  0.3434  0.2846
  345TMC3    C5 5225   3.334   0.927  10.152  0.0260 -0.6246  0.0072
  345TMC3    C6 5226   3.464   0.965  10.180  0.2146 -0.4011 -0.0536
  345TMC3     C 5227   3.287   0.656  10.390 -0.8100  0.2296  0.0456
  345TMC3     O 5228   3.186   0.596  10.357 -0.1362 -0.6374 -0.6100
  345TMC3     H 5229   3.535   0.711  10.404 -1.7151  0.2076  0.8527
  345TMC3    H1 5230   3.171   0.804  10.220  0.7680 -1.8238 -0.3219
  345TMC3    H2 5231   3.513   1.045  10.126  0.2580  0.0365  0.6356
  345TMC3    C7 5232   3.259   1.032  10.086  0.1648 -0.4253 -1.2680
  345TMC3    C8 5233   3.649   0.947  10.340 -0.9601 -0.0942 -1.1975
  345TMC3    O1 5234   3.319   1.115  10.019 -0.7855 -0.3082  0.0676
  345TMC3    O2 5235   3.677   0.898  10.448  0.6027  0.5366  0.1655
  346MPD2     C 5236   3.606   1.976  13.961 -0.1378 -0.0767  0.5335
  346MPD2    C1 5237   3.732   1.921  13.984  0.0066 -0.0804  0.2498
  346MPD2    C2 5238   3.820   1.988  14.067 -0.2484 -0.1974  0.2454
  346MPD2    C3 5239   3.777   2.093  14.147 -0.1338  0.1204 -0.1916
  346MPD2    C4 5240   3.651   2.148  14.124  0.3244 -0.2367 -0.2849
  346MPD2    C5 5241   3.570   2.097  14.022 -0.1261 -0.5652 -0.4604
  346MPD2     H 5242   3.920   1.946  14.074 -0.0447  0.1358 -0.6861
  346MPD2    H1 5243   3.621   2.237  14.178  1.6014 -0.1127  0.2091
  346MPD2    H2 5244   3.533   1.949  13.886  1.3352  0.3988 -1.1002
  346MPD2    H3 5245   3.477   2.150  14.004  1.0668  1.0973 -1.6572
  346MPD2     N 5246   3.863   2.142  14.244 -0.1376 -0.3235  0.5494
  346MPD2    H5 5247   3.954   2.100  14.253  0.0501  0.0047  0.1618
  346MPD2    N1 5248   3.772   1.799  13.915  0.0382 -0.3439 -0.0269
  346MPD2    H7 5249   3.870   1.791  13.889 -0.0261  0.3162 -0.4871
  347TMC3    C1 5250   3.947   2.248  14.434 -0.1897  0.3427 -0.2974
  347TMC3    C2 5251   4.059   2.288  14.368  0.1901 -0.5640 -0.2247
  347TMC3    C3 5252   4.164   2.326  14.443  0.0405 -0.4231  0.4834
  347TMC3    C4 5253   3.941   2.237  14.570  0.0462  0.2527 -0.1265
  347TMC3    C5 5254   4.048   2.274  14.644 -0.2827 -0.3308 -0.2609
  347TMC3    C6 5255   4.160   2.319  14.583 -0.7447  0.6776 -0.0567
  347TMC3     C 5256   3.830   2.217  14.354  0.0612  0.4692 -0.3269
  347TMC3     O 5257   3.722   2.244  14.397  0.4273 -0.6261 -0.4203
  347TMC3     H 5258   4.059   2.279  14.260 -0.1916  1.2213 -0.3755
  347TMC3    H1 5259   3.852   2.202  14.620 -0.5393 -0.3269 -1.6035
  347TMC3    H2 5260   4.254   2.338  14.632  0.7027 -1.8138 -1.8254
  347TMC3    C7 5261   4.041   2.228  14.782 -0.4422  1.2867 -0.0270
  347TMC3    C8 5262   4.295   2.305  14.386 -0.0428  0.0257 -0.8963
  347TMC3    O1 5263   3.930   2.226  14.839  0.0833  0.0832 -0.4249
  347TMC3    O2 5264   4.390   2.272  14.453 -0.3400  0.4764 -0.6504
  348MPD2     C 5265   1.907   1.813  12.117 -0.1597 -0.0745 -0.0642
  348MPD2    C1 5266   2.025   1.848  12.059  0.1643  0.5307 -0.2025
  348MPD2    C2 5267   2.028   1.893  11.927 -0.5539  0.2923 -0.4868
  348MPD2    C3 5268   1.919   1.887  11.846  0.3378  0.5656  0.2476
  348MPD2    C4 5269   1.805   1.825  11.900  0.0846 -0.4982 -0.2085
  348MPD2    C5 5270   1.801   1.795  12.033  0.4001  0.4820  0.0228
  348MPD2     H 5271   2.116   1.936  11.881 -0.8152  2.6715  1.2647
  348MPD2    H1 5272   1.718   1.797  11.841  1.5797 -0.4001 -2.4885
  348MPD2    H2 5273   1.897   1.776  12.219  0.3932 -0.9556 -0.3250
  348MPD2    H3 5274   1.716   1.738  12.067  0.7711 -1.0990 -1.6729
  348MPD2     N 5275   1.929   1.933  11.712 -0.3971  0.4005 -0.2517
  348MPD2    H5 5276   2.022   1.962  11.685  0.6681 -1.7971  1.0448
  348MPD2    N1 5277   2.147   1.851  12.123 -0.0795  0.7917 -0.2624
  348MPD2    H7 5278   2.220   1.862  12.052  0.9039  0.4170  0.6922
  349TMC3    C1 5279   2.318   1.835  12.273 -0.1986  0.2965 -0.1068
  349TMC3    C2 5280   2.354   1.762  12.378 -0.5086 -0.4757 -0.9715
  349TMC3    C3 5281   2.487   1.731  12.392  0.1769  0.1884 -0.4736
  349TMC3    C4 5282   2.397   1.874  12.172  0.3825 -0.4008  0.3721
  349TMC3    C5 5283   2.536   1.861  12.202  0.2865 -0.6887 -0.3795
  349TMC3    C6 5284   2.578   1.793  12.310  0.1252 -0.5164  0.4196
  349TMC3     C 5285   2.178   1.830  12.253 -0.1048 -0.0799 -0.2544
  349TMC3     O 5286   2.101   1.811  12.344 -0.1178  0.1867 -0.2549
  349TMC3     H 5287   2.280   1.701  12.429 -0.6408  0.8305  0.3800
  349TMC3    H1 5288   2.364   1.944  12.096  3.7228 -0.5227 -1.1784
  349TMC3    H2 5289   2.682   1.797  12.338  0.4030 -2.9819 -0.3060
  349TMC3    C7 5290   2.617   1.826  12.087  0.0425  0.6495 -0.4882
  349TMC3    C8 5291   2.497   1.588  12.399  0.4511  0.3252  0.5104
  349TMC3    O1 5292   2.688   1.726  12.102  0.4067 -0.0647 -0.4297
  349TMC3    O2 5293   2.440   1.532  12.489  0.3410  0.2942  0.1697
  350MPD2     C 5294   1.159   0.677  10.808  0.2864 -0.9483  0.2274
  350MPD2    C1 5295   1.167   0.545  10.762  0.2231  0.0519 -0.4794
  350MPD2    C2 5296   1.210   0.454  10.856  0.3502  0.2378 -0.2632
  350MPD2    C3 5297   1.237   0.476  10.991 -0.2419 -0.1749  0.8164
  350MPD2    C4 5298   1.221   0.613  11.027 -0.7311 -0.0218 -0.0087
  350MPD2    C5 5299   1.177   0.702  10.936 -0.2894  0.4998  0.7557
  350MPD2     H 5300   1.217   0.352  10.822 -1.7037  0.1709 -0.4742
  350MPD2    H1 5301   1.235   0.647  11.129  2.4849 -2.0589  0.2287
  350MPD2    H2 5302   1.129   0.753  10.737  0.6338 -0.3599  0.7134
  350MPD2    H3 5303   1.168   0.805  10.969  0.5980  0.3284  1.5280
  350MPD2     N 5304   1.273   0.371  11.076 -0.5122 -0.4626  0.5024
  350MPD2    H5 5305   1.253   0.277  11.043  2.9026 -1.2336  0.6847
  350MPD2    N1 5306   1.135   0.514  10.628  0.0508  0.3048  0.8521
  350MPD2    H7 5307   1.141   0.417  10.600 -2.8055  0.3856 -0.0395
  351TMC3    C1 5308   1.040   0.544  10.405  0.1243  0.3751  0.6552
  351TMC3    C2 5309   1.105   0.436  10.359 -0.2284 -0.0650  0.3497
  351TMC3    C3 5310   1.129   0.425  10.226 -0.3432  0.0382 -0.2314
  351TMC3    C4 5311   0.990   0.638  10.324 -0.2015  0.2829  0.3211
  351TMC3    C5 5312   1.020   0.627  10.192 -0.2612  0.3495  0.2914
  351TMC3    C6 5313   1.094   0.524  10.136 -0.4773  0.7786 -0.1954
  351TMC3     C 5314   1.080   0.597  10.534  0.8847 -0.9847 -0.5043
  351TMC3     O 5315   1.068   0.718  10.539  0.2869  0.0486 -0.2496
  351TMC3     H 5316   1.132   0.363  10.434 -0.7328 -1.2053 -0.5742
  351TMC3    H1 5317   0.939   0.725  10.365 -1.3689  0.5353 -1.6856
  351TMC3    H2 5318   1.128   0.536  10.034 -3.6823  1.3603 -1.1856
  351TMC3    C7 5319   0.997   0.738  10.102 -0.3025  0.0730 -0.7338
  351TMC3    C8 5320   1.174   0.302  10.169 -0.0862 -0.2096 -0.1128
  351TMC3    O1 5321   1.060   0.736   9.999 -0.3867  0.0513  0.8008
  351TMC3    O2 5322   1.169   0.301  10.046 -0.0044  0.1520  0.1547
  352MPD2     C 5323   3.540   1.554   1.038  0.6690  0.3738  0.7055
  352MPD2    C1 5324   3.683   1.556   1.063  0.7098 -0.2016 -0.1351
  352MPD2    C2 5325   3.750   1.443   1.104 -0.4197  0.4332  0.8045
  352MPD2    C3 5326   3.678   1.332   1.141 -0.4226  0.0998  0.3638
  352MPD2    C4 5327   3.542   1.337   1.119  0.6054 -0.0140 -0.5815
  352MPD2    C5 5328   3.475   1.443   1.075 -0.4148  0.4404 -0.4326
  352MPD2     H 5329   3.859   1.438   1.103 -0.4237  0.6167 -0.1472
  352MPD2    H1 5330   3.482   1.253   1.151  1.4658 -0.1568  0.6734
  352MPD2    H2 5331   3.483   1.645   1.022 -1.3663 -0.8555  0.9250
  352MPD2    H3 5332   3.368   1.439   1.060 -0.7857 -0.1900  2.4009
  352MPD2     N 5333   3.731   1.219   1.200  0.1553  0.0707 -0.1177
  352MPD2    H5 5334   3.665   1.142   1.208 -0.9130  1.1224  1.0851
  352MPD2    N1 5335   3.750   1.673   1.023  0.4620 -0.0157 -0.4453
  352MPD2    H7 5336   3.684   1.741   0.986  1.0077 -0.4569 -2.2337
  353TMC3    C1 5337   3.881   1.059   1.259  0.1586 -0.4726 -0.0979
  353TMC3    C2 5338   3.997   1.023   1.329 -0.7867 -0.4554  0.4254
  353TMC3    C3 5339   4.018   0.891   1.348 -0.2778  0.3809 -0.4023
  353TMC3    C4 5340   3.784   0.966   1.230  0.6845 -0.2050  0.1652
  353TMC3    C5 5341   3.810   0.835   1.262  0.7571  0.1571 -0.0730
  353TMC3    C6 5342   3.922   0.792   1.319 -0.2607 -0.4224  0.1154
  353TMC3     C 5343   3.856   1.201   1.245 -0.6847 -0.0137  0.2716
  353TMC3     O 5344   3.946   1.285   1.269 -0.4845 -0.1743  0.2551
  353TMC3     H 5345   4.059   1.103   1.369  0.5095 -0.6521 -1.2085
  353TMC3    H1 5346   3.698   0.988   1.167  0.9868  2.1287  0.5587
  353TMC3    H2 5347   3.928   0.689   1.355 -0.0607 -0.2138  0.6751
  353TMC3    C7 5348   3.729   0.726   1.201 -0.0362  0.7991  0.9574
  353TMC3    C8 5349   4.139   0.846   1.418  0.1037  0.5932  0.1081
  353TMC3    O1 5350   3.783   0.617   1.192  0.1328 -0.7036  1.0108
  353TMC3    O2 5351   4.214   0.936   1.456  0.1999 -0.0385  0.3866
  354TMC3    C1 5352   1.346   2.888  13.316  0.3286 -1.2111 -0.0744
  354TMC3    C2 5353   1.329   3.010  13.266  0.8255  0.1317 -0.4642
  354TMC3    C3 5354   1.370   3.040  13.137  0.5902  0.1866 -0.7278
  354TMC3    C4 5355   1.419   2.800  13.243  0.1016  0.2116  0.1289
  354TMC3    C5 5356   1.459   2.829  13.112 -0.4022  0.2056  0.0859
  354TMC3    C6 5357   1.440   2.953  13.055  0.5194 -0.1397 -0.1742
  354TMC3     C 5358   1.320   2.861  13.455 -0.6962  0.2569  0.3408
  354TMC3     O 5359   1.401   2.805  13.528  0.6886  1.1868  0.8591
  354TMC3     H 5360   1.272   3.088  13.316  0.3362 -0.1853 -0.5205
  354TMC3    H1 5361   1.434   2.699  13.280 -2.5640 -0.8931 -1.8078
  354TMC3    H2 5362   1.484   2.981  12.960 -4.0028  0.0523 -2.2059
  354TMC3    C7 5363   1.545   2.728  13.041 -0.6242 -0.5981  0.0758
  354TMC3    C8 5364   1.339   3.168  13.084 -0.6154 -0.4830 -0.0256
  354TMC3    O1 5365   1.565   2.628  13.108 -0.1268 -0.0936 -0.6800
  354TMC3    O2 5366   1.321   3.258  13.161 -0.1869  0.3641 -0.0640
  355MPD2     C 5367   1.225   3.873  11.587  0.1673 -0.0067  0.3084
  355MPD2    C1 5368   1.302   3.952  11.516  0.3581 -0.3494 -0.3818
  355MPD2    C2 5369   1.439   3.946  11.541 -0.0875  0.0969  0.0212
  355MPD2    C3 5370   1.486   3.874  11.650  0.9742  0.2320  0.1000
  355MPD2    C4 5371   1.405   3.790  11.719  0.1985  0.1277  0.5912
  355MPD2    C5 5372   1.268   3.784  11.681  0.2305  0.1895  0.5409
  355MPD2     H 5373   1.508   4.004  11.481  0.1839 -0.0232  0.2168
  355MPD2    H1 5374   1.436   3.727  11.802  1.3302  0.3592  0.3419
  355MPD2    H2 5375   1.119   3.873  11.563 -0.2590 -1.6105  2.1710
  355MPD2    H3 5376   1.190   3.726  11.729 -1.4529 -0.4500 -2.9964
  355MPD2     N 5377   1.621   3.888  11.696 -0.5126 -0.1639 -0.4384
  355MPD2    H5 5378   1.642   3.851  11.788  1.2844 -0.6231 -1.0247
  355MPD2    N1 5379   1.235   4.035  11.417  0.3885 -0.3193  0.3745
  355MPD2    H7 5380   1.134   4.021  11.425  0.4070 -0.6463  0.0204
  356TMC3    C1 5381   1.853   3.957  11.691  0.2648  0.0392 -0.5639
  356TMC3    C2 5382   1.949   3.996  11.602 -0.2731 -0.7285 -0.0290
  356TMC3    C3 5383   2.051   4.073  11.654 -0.7676  0.0444 -0.2576
  356TMC3    C4 5384   1.860   3.994  11.824 -0.1548  0.1808  0.5296
  356TMC3    C5 5385   1.961   4.071  11.870  0.4808  1.0248 -0.1738
  356TMC3    C6 5386   2.060   4.109  11.785 -0.0714  0.1418  0.3013
  356TMC3     C 5387   1.730   3.936  11.625 -0.2569  0.0554  0.5822
  356TMC3     O 5388   1.728   3.976  11.511 -0.3187 -0.1708 -0.2943
  356TMC3     H 5389   1.957   3.944  11.508 -1.8218 -1.8854  0.4814
  356TMC3    H1 5390   1.775   3.968  11.887 -1.7084 -0.9101 -1.9991
  356TMC3    H2 5391   2.134   4.177  11.825  0.4043  0.2869 -0.8353
  356TMC3    C7 5392   1.956   4.091  12.013  0.5651  0.0746  0.5523
  356TMC3    C8 5393   2.140   4.121  11.554 -0.3766  0.5968 -0.3554
  356TMC3    O1 5394   1.861   4.040  12.072 -0.2664  0.0040  0.4779
  356TMC3    O2 5395   2.119   4.072  11.444 -0.6529 -0.5188 -0.7134
  357MPD2     C 5396   1.391   3.582   1.722 -0.1430  0.4845 -0.4414
  357MPD2    C1 5397   1.387   3.527   1.593 -0.8168 -0.1956  0.2739
  357MPD2    C2 5398   1.269   3.557   1.518  0.1974 -0.1083 -1.0066
  357MPD2    C3 5399   1.164   3.634   1.566  0.8219 -0.0687 -0.0968
  357MPD2    C4 5400   1.178   3.691   1.688  0.0134 -0.1844  0.1944
  357MPD2    C5 5401   1.281   3.655   1.770 -0.2608 -0.1443 -0.1831
  357MPD2     H 5402   1.266   3.542   1.411  0.3653 -0.6064 -0.9369
  357MPD2    H1 5403   1.094   3.743   1.734 -0.3984 -0.5489 -0.1464
  357MPD2    H2 5404   1.472   3.566   1.792 -2.2971  1.4304  2.2283
  357MPD2    H3 5405   1.296   3.688   1.872  1.4624 -1.3184 -0.0575
  357MPD2     N 5406   1.043   3.668   1.492 -0.3420  0.2903  0.0082
  357MPD2    H5 5407   0.973   3.723   1.541  1.0212  1.0717  1.1094
  357MPD2    N1 5408   1.491   3.439   1.547 -0.5290 -0.2711 -0.2842
  357MPD2    H7 5409   1.559   3.404   1.613  1.3931 -0.4298 -2.3415
  358TMC3    C1 5410   1.602   3.291   1.398 -0.1585 -0.0921  0.7942
  358TMC3    C2 5411   1.559   3.214   1.293 -0.4094  0.5222 -0.4684
  358TMC3    C3 5412   1.605   3.086   1.284 -0.7472 -0.1488 -0.4110
  358TMC3    C4 5413   1.686   3.237   1.491 -0.5961  0.0733  0.2681
  358TMC3    C5 5414   1.730   3.104   1.483  0.3901 -0.0606 -0.1343
  358TMC3    C6 5415   1.689   3.030   1.374 -0.2103  0.4887 -0.0412
  358TMC3     C 5416   1.516   3.402   1.415 -0.1611 -0.1280  0.0190
  358TMC3     O 5417   1.457   3.441   1.311  0.2861 -0.0760  0.2206
  358TMC3     H 5418   1.491   3.255   1.219 -1.4668  1.6682  1.1367
  358TMC3    H1 5419   1.720   3.304   1.569  0.0004 -0.3316  0.3460
  358TMC3    H2 5420   1.723   2.928   1.361  2.2789  1.6872 -2.9706
  358TMC3    C7 5421   1.840   3.052   1.571 -0.2487  0.1477 -0.0352
  358TMC3    C8 5422   1.562   2.997   1.182 -0.1062 -0.2686 -0.2214
  358TMC3    O1 5423   1.890   2.948   1.535 -0.1017  0.3209  0.4959
  358TMC3    O2 5424   1.636   2.914   1.133 -0.0743 -0.1133 -0.2278
  359MPD2     C 5425   1.596   3.021  12.007  0.0495  0.5458  0.4842
  359MPD2    C1 5426   1.622   2.908  11.925 -0.2182 -0.5302 -0.1299
  359MPD2    C2 5427   1.540   2.800  11.936  1.0100  0.3968  0.3355
  359MPD2    C3 5428   1.421   2.799  12.012  0.5749  0.0668 -0.1170
  359MPD2    C4 5429   1.402   2.911  12.092  0.6178 -0.1325  0.4032
  359MPD2    C5 5430   1.487   3.023  12.087  1.0252 -0.1182 -0.1854
  359MPD2     H 5431   1.565   2.710  11.880 -1.2206 -0.2696  0.3980
  359MPD2    H1 5432   1.320   2.918  12.163  0.7262  1.1731  0.3988
  359MPD2    H2 5433   1.657   3.110  12.003 -1.3380  1.4797 -0.1023
  359MPD2    H3 5434   1.478   3.104  12.159  1.4218 -0.5488  0.3480
  359MPD2     N 5435   1.331   2.691  12.013  1.0508 -0.0939 -0.3990
  359MPD2    H5 5436   1.250   2.696  12.075  2.1019  2.0480  0.7859
  359MPD2    N1 5437   1.736   2.905  11.840 -0.3201  0.3433  0.1389
  359MPD2    H7 5438   1.734   2.829  11.772 -1.3716 -0.9322  1.5985
  360TMC3    C1 5439   1.934   2.973  11.737  1.0956 -0.1621 -1.1454
  360TMC3    C2 5440   2.045   3.057  11.741 -0.2679  0.0025  0.2992
  360TMC3    C3 5441   2.150   3.013  11.659 -0.2004 -0.1034 -0.3990
  360TMC3    C4 5442   1.916   2.882  11.643  0.5479 -0.5011 -0.0494
  360TMC3    C5 5443   2.013   2.860  11.548 -1.9753  0.1031  0.2651
  360TMC3    C6 5444   2.132   2.925  11.553 -0.0076 -0.1983  0.0743
  360TMC3     C 5445   1.833   2.998  11.830 -0.8858 -0.6114 -0.9148
  360TMC3     O 5446   1.854   3.093  11.906  0.5671  0.3957  0.1144
  360TMC3     H 5447   2.077   3.110  11.829 -2.1925  0.6761  0.5899
  360TMC3    H1 5448   1.816   2.842  11.627  1.0997 -2.2078  0.7615
  360TMC3    H2 5449   2.200   2.901  11.472  0.1787 -0.2206  0.2406
  360TMC3    C7 5450   1.980   2.789  11.419 -0.3458 -0.0723  0.0052
  360TMC3    C8 5451   2.271   3.088  11.673  0.2341 -0.3749 -0.6685
  360TMC3    O1 5452   2.045   2.823  11.320  0.0678  0.4740 -0.0391
  360TMC3    O2 5453   2.272   3.194  11.736 -0.4844  0.5183  0.4603
  361MPD2     C 5454   3.482   1.289  16.736  0.3138 -0.1564 -0.0605
  361MPD2    C1 5455   3.441   1.229  16.851  0.1516  0.6551 -0.3378
  361MPD2    C2 5456   3.514   1.121  16.899 -0.2395  0.3719  0.0206
  361MPD2    C3 5457   3.625   1.067  16.834  0.1532 -1.0636  0.2069
  361MPD2    C4 5458   3.657   1.121  16.713 -0.1626 -0.1040 -0.1536
  361MPD2    C5 5459   3.588   1.233  16.665  0.2631  0.3532  0.1423
  361MPD2     H 5460   3.469   1.065  16.980  1.2322  0.9594  1.2547
  361MPD2    H1 5461   3.736   1.075  16.654 -0.8031 -1.7448  0.2835
  361MPD2    H2 5462   3.434   1.374  16.688 -2.1516 -0.7203  1.3956
  361MPD2    H3 5463   3.619   1.269  16.568 -1.8254 -1.4455 -1.1838
  361MPD2     N 5464   3.709   0.961  16.881  0.5465  0.7561 -0.0548
  361MPD2    H5 5465   3.780   0.928  16.818 -0.6687 -2.4740  0.2305
  361MPD2    N1 5466   3.322   1.277  16.906 -0.1290 -0.0578  0.0039
  361MPD2    H7 5467   3.287   1.363  16.866 -0.7272 -0.1678  0.2864
  362TMC3    C1 5468   3.090   1.248  16.965  0.0030 -0.2268 -0.1708
  362TMC3    C2 5469   3.016   1.272  17.076  0.4257  0.6682  0.1778
  362TMC3    C3 5470   2.909   1.352  17.054  0.4026  0.0968 -0.2823
  362TMC3    C4 5471   3.065   1.307  16.846  0.0503 -0.3699  0.0428
  362TMC3    C5 5472   2.960   1.395  16.841 -0.0179  0.7045  0.1739
  362TMC3    C6 5473   2.873   1.417  16.942 -0.5585 -0.2798  0.1637
  362TMC3     C 5474   3.236   1.210  16.993  0.0839 -0.0749  0.1506
  362TMC3     O 5475   3.251   1.114  17.069  0.1705  0.8298  0.2096
  362TMC3     H 5476   3.044   1.239  17.176  1.9139 -0.4509 -0.6124
  362TMC3    H1 5477   3.136   1.290  16.766 -1.1621 -0.1441 -1.0895
  362TMC3    H2 5478   2.786   1.480  16.927  1.4015  2.2221 -0.6191
  362TMC3    C7 5479   2.932   1.454  16.709 -0.0635 -0.2166 -0.3110
  362TMC3    C8 5480   2.804   1.333  17.142  0.1256 -0.0115  0.2024
  362TMC3    O1 5481   2.875   1.563  16.717  0.0547  0.2345 -0.5733
  362TMC3    O2 5482   2.762   1.224  17.166 -0.2909 -0.1821  0.4087
  363TMC3    C1 5483   2.065   4.409   9.078 -0.6074 -0.2323 -0.0411
  363TMC3    C2 5484   2.194   4.388   9.045 -0.6319  0.2676 -0.0732
  363TMC3    C3 5485   2.290   4.452   9.122 -0.1510 -0.4677  0.1690
  363TMC3    C4 5486   2.034   4.494   9.178  0.1356 -0.6679  0.0446
  363TMC3    C5 5487   2.126   4.555   9.250  0.1567  0.3815 -0.2464
  363TMC3    C6 5488   2.254   4.535   9.222 -0.7042 -0.2939  0.0816
  363TMC3     C 5489   1.965   4.343   8.991  0.2457  0.2362  0.5790
  363TMC3     O 5490   2.009   4.255   8.916  0.5764  0.7238  0.0997
  363TMC3     H 5491   2.221   4.330   8.957 -0.8717  0.2623 -0.1444
  363TMC3    H1 5492   1.929   4.507   9.199 -0.1749  0.3853 -2.1434
  363TMC3    H2 5493   2.325   4.566   9.298 -0.3701 -0.9655  0.0440
  363TMC3    C7 5494   2.083   4.667   9.325 -1.1378 -0.4861 -0.0547
  363TMC3    C8 5495   2.421   4.384   9.141 -0.3834 -0.0901  0.0550
  363TMC3    O1 5496   1.962   4.685   9.347  0.0082  0.0898  0.0546
  363TMC3    O2 5497   2.523   4.448   9.169  0.3869  0.5572 -0.4245
  364MPD2     C 5498   0.578   3.875  10.570  0.2282  0.3186 -0.0128
  364MPD2    C1 5499   0.706   3.885  10.524 -0.3100  0.0175 -0.0717
  364MPD2    C2 5500   0.773   3.771  10.490 -0.2127  0.3093 -0.9003
  364MPD2    C3 5501   0.712   3.648  10.487  0.4919 -0.2775 -0.8532
  364MPD2    C4 5502   0.579   3.643  10.524 -0.4299  0.2545 -0.5371
  364MPD2    C5 5503   0.513   3.756  10.571  0.0150 -0.7292 -0.5065
  364MPD2     H 5504   0.880   3.775  10.472 -0.1313  2.9439  0.1291
  364MPD2    H1 5505   0.536   3.544  10.522  1.5177 -0.5605 -2.1842
  364MPD2    H2 5506   0.535   3.958  10.624 -3.2673 -0.7992 -1.0745
  364MPD2    H3 5507   0.418   3.747  10.622  0.0619 -1.6113 -0.5749
  364MPD2     N 5508   0.778   3.526  10.467  0.3958 -0.5420  0.3464
  364MPD2    H5 5509   0.714   3.450  10.485  1.6839 -1.6526  0.1830
  364MPD2    N1 5510   0.768   4.018  10.552 -0.3202  0.2916  0.1266
  364MPD2    H7 5511   0.712   4.090  10.596  1.1299  0.0185  2.4582
  365TMC3    C1 5512   0.928   4.179  10.530 -0.2390  0.2633 -0.0056
  365TMC3    C2 5513   0.992   4.244  10.428  0.7598  0.9306 -0.3419
  365TMC3    C3 5514   0.971   4.382  10.419  0.1447  0.6708 -0.0072
  365TMC3    C4 5515   0.865   4.254  10.625  0.3000 -0.0721  0.1932
  365TMC3    C5 5516   0.855   4.389  10.621 -0.4595  0.6021  0.3403
  365TMC3    C6 5517   0.899   4.452  10.510 -0.4883 -0.1324  0.4668
  365TMC3     C 5518   0.888   4.046  10.511  0.3376  0.4863  0.8750
  365TMC3     O 5519   0.970   3.987  10.439 -0.1384  0.5971  0.6667
  365TMC3     H 5520   1.017   4.188  10.339 -2.1249 -1.7257  0.5277
  365TMC3    H1 5521   0.828   4.205  10.714 -1.7628 -0.3979 -0.8329
  365TMC3    H2 5522   0.906   4.560  10.518  0.2229 -0.0859 -0.7511
  365TMC3    C7 5523   0.874   4.468  10.746 -0.2331 -0.3142  0.7994
  365TMC3    C8 5524   1.003   4.460  10.298  0.4817  0.5135 -0.0287
  365TMC3    O1 5525   0.961   4.557  10.738  0.2887  0.0738 -0.0020
  365TMC3    O2 5526   0.946   4.566  10.294 -0.0776  0.2551 -0.1113
  366MPD2     C 5527   3.654   4.139  15.004  1.0757  0.9338  0.0911
  366MPD2    C1 5528   3.745   4.187  15.096 -0.0776 -0.0749 -0.6715
  366MPD2    C2 5529   3.853   4.109  15.125  0.1518  0.5283  0.5574
  366MPD2    C3 5530   3.879   3.986  15.070  0.3310  0.5660  0.7293
  366MPD2    C4 5531   3.792   3.943  14.975  0.1819  0.0424 -0.2444
  366MPD2    C5 5532   3.674   4.015  14.943  0.3647  0.2665  0.1238
  366MPD2     H 5533   3.918   4.136  15.207  0.7149  2.0216 -0.3850
  366MPD2    H1 5534   3.804   3.851  14.918 -0.2298 -0.3604  0.3164
  366MPD2    H2 5535   3.562   4.191  14.981  0.8746  0.5455  0.0199
  366MPD2    H3 5536   3.602   3.970  14.875  0.8862  0.2631 -0.4322
  366MPD2     N 5537   3.995   3.915  15.111  0.0995  0.2382  0.1749
  366MPD2    H5 5538   4.054   3.953  15.184 -3.2317  1.1153  2.3698
  366MPD2    N1 5539   3.737   4.310  15.154 -0.2437 -0.0991 -0.3848
  366MPD2    H7 5540   3.817   4.342  15.207 -1.6004  1.1032  0.9376
  367TMC3    C1 5541   3.675   4.510  15.225  0.2488  0.1100 -0.8288
  367TMC3    C2 5542   3.802   4.525  15.272 -0.1219  0.6792  0.4134
  367TMC3    C3 5543   3.855   4.654  15.261  0.0085 -0.0374 -0.8119
  367TMC3    C4 5544   3.598   4.618  15.173  0.2805 -0.1199 -0.0530
  367TMC3    C5 5545   3.660   0.007  15.176 -0.2925 -0.6585 -0.7955
  367TMC3    C6 5546   3.781   0.027  15.221  0.3143 -0.0035  0.6292
  367TMC3     C 5547   3.633   4.391  15.153 -0.2019 -0.0762 -0.5519
  367TMC3     O 5548   3.521   4.383  15.101 -0.3927 -0.3882  0.0784
  367TMC3     H 5549   3.870   4.450  15.311 -1.6728  0.1539  2.0829
  367TMC3    H1 5550   3.496   4.607  15.140 -1.2401  1.9976  3.9597
  367TMC3    H2 5551   3.826   0.126  15.218  0.1462  0.1153  1.9455
  367TMC3    C7 5552   3.612   0.103  15.076  0.0212 -1.4357 -0.4037
  367TMC3    C8 5553   3.988   4.674  15.308  0.0461  0.1545 -1.0226
  367TMC3    O1 5554   3.694   0.183  15.036  0.0851 -0.0917  0.0657
  367TMC3    O2 5555   4.029   4.590  15.383  0.1248  0.8966 -0.3636
  368MPD2     C 5556   0.186   1.275  12.915  0.0408 -0.6957 -0.9087
  368MPD2    C1 5557   0.184   1.413  12.920  0.2057  0.2676 -0.0398
  368MPD2    C2 5558   0.258   1.484  12.831 -0.2436 -0.2687 -0.2517
  368MPD2    C3 5559   0.360   1.424  12.757 -0.1968 -0.3773 -0.6090
  368MPD2    C4 5560   0.368   1.288  12.758  0.3093 -0.0701 -0.0784
  368MPD2    C5 5561   0.280   1.215  12.838  0.5490 -0.2605  0.3402
  368MPD2     H 5562   0.238   1.591  12.833  0.6361 -0.0646 -2.5582
  368MPD2    H1 5563   0.439   1.225  12.706  1.0535  1.0624 -0.4182
  368MPD2    H2 5564   0.111   1.212  12.961 -1.2525  0.0333 -2.0079
  368MPD2    H3 5565   0.290   1.107  12.836 -0.5285 -0.3504 -0.2601
  368MPD2     N 5566   0.446   1.504  12.668 -0.5998  0.0560 -0.1378
  368MPD2    H5 5567   0.491   1.450  12.594 -0.1928 -0.1503  0.2598
  368MPD2    N1 5568   0.087   1.475  13.000  0.4470 -0.0068 -0.1548
  368MPD2    H7 5569   0.016   1.410  13.032  1.5510 -1.2349 -0.1609
  369TMC3    C1 5570   4.677   1.652  13.071 -0.2931  1.2963 -0.1014
  369TMC3    C2 5571   4.660   1.784  13.023 -0.0517 -0.9295 -0.3354
  369TMC3    C3 5572   4.533   1.824  12.984  0.4109 -0.5203 -0.3125
  369TMC3    C4 5573   4.563   1.573  13.074  0.2729 -0.0324  0.4920
  369TMC3    C5 5574   4.438   1.620  13.035  0.2042  0.1401  0.4576
  369TMC3    C6 5575   4.420   1.752  12.993 -0.2572 -0.7920 -0.7725
  369TMC3     C 5576   0.087   1.606  13.049 -0.6554  0.3808 -0.0543
  369TMC3     O 5577   0.169   1.694  13.040 -0.3789  0.8597 -0.1215
  369TMC3     H 5578   0.015   1.844  13.002 -0.8456  0.6471  0.9528
  369TMC3    H1 5579   4.582   1.470  13.104  0.1095  0.8375  3.5812
  369TMC3    H2 5580   4.339   1.790  12.932 -0.3361  2.2446  1.2190
  369TMC3    C7 5581   4.325   1.547  13.081  0.3109 -0.5493  0.2616
  369TMC3    C8 5582   4.533   1.916  12.871 -0.1642 -0.1794 -0.7085
  369TMC3    O1 5583   4.342   1.436  13.128  0.0598 -0.0258  0.2916
  369TMC3    O2 5584   4.438   1.984  12.841 -0.6864  0.1526  0.2789
  370TMC3    C1 5585   4.602   1.827  16.010  0.7065 -0.3365 -0.9305
  370TMC3    C2 5586   4.530   1.756  16.105 -0.8188  0.2443 -0.4951
  370TMC3    C3 5587   4.476   1.634  16.063  0.5442 -0.5878 -0.3227
  370TMC3    C4 5588   4.643   1.764  15.888 -0.3995 -0.1159 -0.8176
  370TMC3    C5 5589   4.601   1.641  15.864 -0.1036 -0.3002 -0.4088
  370TMC3    C6 5590   4.520   1.570  15.950  0.3209 -0.2417 -0.2508
  370TMC3     C 5591   4.691   1.918  16.069  0.8721 -0.2057  0.4068
  370TMC3     O 5592   4.732   1.907  16.184 -0.5347  0.1669  0.5101
  370TMC3     H 5593   4.505   1.804  16.199 -0.9501  0.1312 -0.4728
  370TMC3    H1 5594   4.710   1.819  15.822 -0.8646  2.1286  0.5573
  370TMC3    H2 5595   4.490   1.467  15.934 -0.0016 -0.2593  0.4895
  370TMC3    C7 5596   4.658   1.563  15.756  0.4553  0.6115  0.1141
  370TMC3    C8 5597   4.399   1.559  16.160  0.3563 -0.0238  0.1831
  370TMC3    O1 5598   4.639   1.610  15.645  0.1032  0.0554 -0.1010
  370TMC3    O2 5599   4.368   1.442  16.141 -0.2029 -0.3024  0.6341
  371TMC3    C1 5600   1.263   0.015  15.390  0.5529  0.2671  0.1441
  371TMC3    C2 5601   1.148   0.027  15.467 -0.1206  0.5222 -0.4130
  371TMC3    C3 5602   1.074   0.141  15.468 -0.4747 -0.2670  0.0761
  371TMC3    C4 5603   1.304   0.122  15.313 -0.4824  0.2418  0.4277
  371TMC3    C5 5604   1.230   0.236  15.327  0.0741  0.2422  0.3245
  371TMC3    C6 5605   1.115   0.250  15.397 -1.1342  0.0787 -0.5645
  371TMC3     C 5606   1.350   4.633  15.407 -0.0529 -0.3188 -0.4050
  371TMC3     O 5607   1.456   4.632  15.349  0.0668 -0.5605 -0.2398
  371TMC3     H 5608   1.095   4.677  15.514 -0.8368  1.8865  1.1860
  371TMC3    H1 5609   1.398   0.120  15.259 -0.2818  0.4653  0.7652
  371TMC3    H2 5610   1.055   0.338  15.381  1.6455  2.1355  0.3115
  371TMC3    C7 5611   1.269   0.361  15.274 -0.1256 -0.0703  0.5091
  371TMC3    C8 5612   0.954   0.148  15.547  0.0254  0.3504 -0.5213
  371TMC3    O1 5613   1.253   0.464  15.337  0.6234  0.2221 -0.5953
  371TMC3    O2 5614   0.903   0.036  15.555 -0.3371  1.1202  0.0548
  372MPD2     C 5615   0.354   1.464  13.252 -0.0029 -0.0611 -0.1867
  372MPD2    C1 5616   0.460   1.375  13.266 -0.1672 -0.1203 -0.5239
  372MPD2    C2 5617   0.457   1.272  13.361  0.7763  1.0895  0.7045
  372MPD2    C3 5618   0.343   1.250  13.437 -0.3051  0.4182  0.0078
  372MPD2    C4 5619   0.244   1.350  13.431 -0.0100 -0.6892 -0.2476
  372MPD2    C5 5620   0.242   1.453  13.337 -0.4897 -0.2483  0.0504
  372MPD2     H 5621   0.536   1.198  13.366  0.1724  0.2663 -2.0298
  372MPD2    H1 5622   0.160   1.336  13.498  0.3334 -0.2315  0.2703
  372MPD2    H2 5623   0.351   1.541  13.176  0.5776 -0.8805 -1.0416
  372MPD2    H3 5624   0.163   1.527  13.331 -0.7014 -0.5312 -0.7327
  372MPD2     N 5625   0.338   1.135  13.524  0.2430  0.2223 -0.2036
  372MPD2    H5 5626   0.410   1.068  13.504  0.6591  0.1363  1.5721
  372MPD2    N1 5627   0.581   1.387  13.186  0.0552  0.0240  0.7501
  372MPD2    H7 5628   0.653   1.317  13.199  1.5447  0.9045 -2.6161
  373TMC3    C1 5629   0.282   0.984  13.697  0.0889 -0.0644 -0.3563
  373TMC3    C2 5630   0.194   0.947  13.799  0.0294 -0.8009  0.1736
  373TMC3    C3 5631   0.207   0.816  13.853 -0.0417 -0.2501 -0.6187
  373TMC3    C4 5632   0.365   0.895  13.639 -0.2117 -0.4240 -0.0022
  373TMC3    C5 5633   0.378   0.769  13.696 -1.0222  0.1950 -0.0700
  373TMC3    C6 5634   0.292   0.723  13.793 -0.4534 -0.3776 -0.3194
  373TMC3     C 5635   0.266   1.116  13.637 -1.1516  0.1275  0.6815
  373TMC3     O 5636   0.195   1.192  13.696 -0.0199  0.0852  0.1765
  373TMC3     H 5637   0.118   1.018  13.828  0.8732 -0.4966  1.6760
  373TMC3    H1 5638   0.444   0.907  13.565  1.3915  0.8051  1.9107
  373TMC3    H2 5639   0.305   0.628  13.843  0.1104 -0.4993 -0.6991
  373TMC3    C7 5640   0.496   0.681  13.658  0.4868 -0.1699 -0.0298
  373TMC3    C8 5641   0.113   0.777  13.963  0.2813  0.3145  0.6785
  373TMC3    O1 5642   0.544   0.694  13.545  0.5931 -0.0471 -0.0487
  373TMC3    O2 5643   0.011   0.844  13.950  0.5400 -0.1664 -0.1955
  374TMC3    C1 5644   0.715   2.509   9.596  0.8653 -0.4185 -0.0140
  374TMC3    C2 5645   0.842   2.549   9.588  0.5655  0.2914  0.1848
  374TMC3    C3 5646   0.930   2.453   9.625  0.2102  0.1661 -0.7564
  374TMC3    C4 5647   0.668   2.390   9.654 -0.4125  0.1839  0.3466
  374TMC3    C5 5648   0.768   2.297   9.686 -0.2993  0.0954  0.3856
  374TMC3    C6 5649   0.900   2.325   9.674 -0.2435  0.0236 -0.0614
  374TMC3     C 5650   0.616   2.601   9.538  0.1792  0.9131  0.5968
  374TMC3     O 5651   0.661   2.706   9.495  0.3006  0.4295 -0.1248
  374TMC3     H 5652   0.871   2.645   9.546  0.0424  1.3043  2.1682
  374TMC3    H1 5653   0.562   2.369   9.650  0.2286 -2.8790 -0.6947
  374TMC3    H2 5654   0.986   2.261   9.688 -0.0188  0.8093  2.0749
  374TMC3    C7 5655   0.736   2.176   9.757 -0.3063  0.1864 -0.1307
  374TMC3    C8 5656   1.071   2.493   9.626  0.3621  0.4473  1.3077
  374TMC3    O1 5657   0.828   2.098   9.778  0.3697 -0.5571  0.1869
  374TMC3    O2 5658   1.096   2.588   9.557  0.2422 -0.1132  0.1971
  375MPD2     C 5659   1.100   1.713  16.909 -1.0579  0.2527 -0.3153
  375MPD2    C1 5660   1.065   1.754  16.784 -0.8296 -0.2762  0.0337
  375MPD2    C2 5661   1.158   1.743  16.679  0.4088 -0.2652 -0.6546
  375MPD2    C3 5662   1.265   1.665  16.685 -0.2267 -0.3739  0.2764
  375MPD2    C4 5663   1.293   1.604  16.807 -0.8747  0.1265  0.1924
  375MPD2    C5 5664   1.213   1.632  16.917 -0.0394  0.4596  0.2205
  375MPD2     H 5665   1.146   1.789  16.581 -0.2376  1.3959  0.2073
  375MPD2    H1 5666   1.374   1.532  16.818  2.0268  3.7186  2.4141
  375MPD2    H2 5667   1.048   1.712  17.004  1.3537 -2.1656  0.9762
  375MPD2    H3 5668   1.242   1.594  17.015 -1.5567  1.6614  1.1358
  375MPD2     N 5669   1.344   1.650  16.572  0.1489  0.7139  0.6612
  375MPD2    H5 5670   1.307   1.679  16.482  0.1481 -0.5620  0.2517
  375MPD2    N1 5671   0.948   1.833  16.767 -0.1720 -0.1336  0.3449
  375MPD2    H7 5672   0.940   1.886  16.681  1.4320 -2.5442 -1.2894
  376TMC3    C1 5673   1.540   1.627  16.444 -0.7260  0.2225 -1.2634
  376TMC3    C2 5674   1.678   1.635  16.434 -0.1301  0.0168 -0.2673
  376TMC3    C3 5675   1.734   1.664  16.308  0.0433  0.2334  0.4849
  376TMC3    C4 5676   1.459   1.617  16.331 -0.0708  0.5789  0.5631
  376TMC3    C5 5677   1.525   1.627  16.207  0.7489  0.7750  0.5213
  376TMC3    C6 5678   1.656   1.662  16.195  0.2861 -0.2178  0.3004
  376TMC3     C 5679   1.475   1.609  16.569  0.3446  0.6873 -0.0080
  376TMC3     O 5680   1.544   1.581  16.664  0.2026 -0.3461 -0.1080
  376TMC3     H 5681   1.733   1.655  16.525  0.6089  0.5637 -0.8249
  376TMC3    H1 5682   1.352   1.600  16.330  0.0686 -0.2206 -0.6249
  376TMC3    H2 5683   1.704   1.658  16.097  2.2431 -1.3171  1.3054
  376TMC3    C7 5684   1.444   1.624  16.087 -0.2561  0.0866  0.1510
  376TMC3    C8 5685   1.855   1.747  16.297 -0.6655 -0.0203  0.3760
  376TMC3    O1 5686   1.352   1.544  16.074 -0.4149  0.1419  0.0243
  376TMC3    O2 5687   1.881   1.795  16.190 -0.1627  0.1228  0.2988
  377MPD2     C 5688   3.813   1.935  12.625 -0.6928 -0.0082 -0.0285
  377MPD2    C1 5689   3.899   1.833  12.672  0.5933 -0.0798 -0.1282
  377MPD2    C2 5690   3.843   1.732  12.745 -0.0631  0.1309  0.0282
  377MPD2    C3 5691   3.702   1.728  12.759 -0.1110 -0.3591 -0.2030
  377MPD2    C4 5692   3.620   1.834  12.713 -0.1325 -0.0135  0.3490
  377MPD2    C5 5693   3.679   1.943  12.656 -0.1654 -0.2137 -0.2952
  377MPD2     H 5694   3.907   1.650  12.778  0.1742  0.6807  0.9315
  377MPD2    H1 5695   3.512   1.830  12.723 -0.2350 -1.4466 -1.2530
  377MPD2    H2 5696   3.852   2.018  12.569  0.8777 -0.9370 -0.3046
  377MPD2    H3 5697   3.633   2.031  12.614  0.3530 -0.0451 -0.5151
  377MPD2     N 5698   3.643   1.616  12.820 -0.3828 -0.7952 -0.1338
  377MPD2    H5 5699   3.557   1.629  12.873 -0.1405 -0.6649  0.2302
  377MPD2    N1 5700   4.037   1.854  12.656  0.1856  0.1310  0.5607
  377MPD2    H7 5701   4.061   1.938  12.606 -0.8043  0.2364  0.2534
  378TMC3    C1 5702   4.310   1.909  12.435 -0.1713  0.1296 -0.3754
  378TMC3    C2 5703   4.256   1.926  12.559  0.1362 -0.0161 -0.1503
  378TMC3    C3 5704   4.269   1.824  12.646 -0.5748 -0.0834  0.3510
  378TMC3    C4 5705   4.392   1.805  12.410  0.3850 -0.1902  0.2270
  378TMC3    C5 5706   4.433   1.731  12.518 -0.1389  0.5787  0.2308
  378TMC3    C6 5707   4.365   1.735  12.636 -0.1266  0.0245  0.7569
  378TMC3     C 5708   4.229   1.970  12.329 -0.0307  0.0212 -0.2181
  378TMC3     O 5709   4.116   2.010  12.363 -0.3423 -0.4575 -0.1813
  378TMC3     H 5710   4.196   2.010  12.594  0.4549 -0.8853  2.5010
  378TMC3    H1 5711   4.414   1.790  12.305 -2.2240 -1.1015 -0.1833
  378TMC3    H2 5712   4.390   1.660  12.710  3.4751  0.3437 -0.1085
  378TMC3    C7 5713   4.541   1.651  12.504  0.2733 -0.4046 -0.3433
  378TMC3    C8 5714   4.140   1.777  12.699 -0.0163  0.1689  0.3664
  378TMC3    O1 5715   4.569   1.584  12.601 -0.1331 -0.9093 -0.1366
  378TMC3    O2 5716   4.134   1.684  12.778 -0.0035 -0.2429  0.3626
  379MPD2     C 5717   0.393   4.611  15.841  0.7888  0.5060 -0.0008
  379MPD2    C1 5718   0.290   4.549  15.911 -0.2406 -0.1334 -0.4268
  379MPD2    C2 5719   0.325   4.456  16.006 -0.4729 -0.9086  0.4306
  379MPD2    C3 5720   0.460   4.430  16.035 -0.3296 -0.7154 -0.3061
  379MPD2    C4 5721   0.561   4.502  15.974  0.2447 -0.4684  0.1452
  379MPD2    C5 5722   0.522   4.583  15.873  0.0217 -0.5034 -0.5214
  379MPD2     H 5723   0.247   4.401  16.056 -1.6661  1.5716  1.3231
  379MPD2    H1 5724   0.665   4.488  16.000  1.1448  0.6987 -2.8576
  379MPD2    H2 5725   0.376   4.656  15.744 -1.9894  0.5983  0.5500
  379MPD2    H3 5726   0.602   4.613  15.806 -0.6667 -0.5396 -1.3572
  379MPD2     N 5727   0.506   4.330  16.130 -0.1697  0.5847 -0.1044
  379MPD2    H5 5728   0.607   4.334  16.131 -0.1225 -0.1153 -1.7343
  379MPD2    N1 5729   0.163   4.581  15.874 -0.2453  0.2208 -0.1902
  379MPD2    H7 5730   0.150   4.636  15.789 -0.6887  1.6330  0.7838
  380TMC3    C1 5731   4.672   4.578  15.851  0.5737  0.0421 -0.1282
  380TMC3    C2 5732   4.609   4.453  15.823  0.5934 -0.5066  0.4922
  380TMC3    C3 5733   4.577   4.428  15.695  1.3287 -0.6857  0.2299
  380TMC3    C4 5734   4.701   4.666  15.747 -0.9281 -0.3270 -0.1234
  380TMC3    C5 5735   4.642   4.641  15.624 -0.2232 -0.3159 -0.0264
  380TMC3    C6 5736   4.577   4.523  15.595 -0.1286  0.8617 -0.0163
  380TMC3     C 5737   0.049   4.552  15.942  0.2474 -1.2618  0.1239
  380TMC3     O 5738   0.036   4.492  16.046  0.2903  0.1225 -0.1748
  380TMC3     H 5739   4.597   4.380  15.903 -0.8262 -0.7902  0.0106
  380TMC3    H1 5740   4.726   0.034  15.782  2.2596 -1.9011  2.0558
  380TMC3    H2 5741   4.558   4.489  15.494 -0.3914  2.7028 -0.5734
  380TMC3    C7 5742   4.598   0.024  15.553  0.2268  0.0970  0.4394
  380TMC3    C8 5743   4.563   4.290  15.654  0.0765  0.0735  0.3231
  380TMC3    O1 5744   4.654   0.132  15.557  0.1226 -0.4714 -0.0522
  380TMC3    O2 5745   4.452   4.273  15.600  0.0716  0.3831  0.0044
  381TMC3    C1 5746   4.413   0.992  15.986 -0.1265 -0.4450  0.7694
  381TMC3    C2 5747   4.486   1.106  15.987  0.4473 -0.2507  0.0080
  381TMC3    C3 5748   4.528   1.162  16.103  0.1647  0.0405  0.7573
  381TMC3    C4 5749   4.376   0.930  16.104 -0.2369  0.6564  0.1629
  381TMC3    C5 5750   4.441   0.978  16.217 -0.0580  0.7400 -0.4721
  381TMC3    C6 5751   4.516   1.091  16.219  0.4520  0.4238  0.4830
  381TMC3     C 5752   4.323   0.979  15.867 -1.1589 -0.0415 -0.2576
  381TMC3     O 5753   4.304   1.085  15.812  0.1528 -0.2090 -0.7407
  381TMC3     H 5754   4.518   1.147  15.892 -0.1884 -0.1142 -0.1495
  381TMC3    H1 5755   4.316   0.840  16.114  0.0592  0.3004 -1.3460
  381TMC3    H2 5756   4.569   1.117  16.310 -0.7149  0.2691  1.2023
  381TMC3    C7 5757   4.402   0.920  16.345  0.4606 -0.5288 -0.4060
  381TMC3    C8 5758   4.626   1.266  16.090 -0.1796 -0.1112 -0.6582
  381TMC3    O1 5759   4.432   0.804  16.360 -0.0276 -0.1637  0.0424
  381TMC3    O2 5760   4.689   1.263  15.986  0.2445 -0.0439  0.2444
  382MPD2     C 5761   4.160   3.472  17.113  0.0920  0.2742  0.0730
  382MPD2    C1 5762   4.095   3.498  17.229 -0.0099  0.0759 -0.2282
  382MPD2    C2 5763   3.998   3.411  17.273  0.1600  0.2746  0.1187
  382MPD2    C3 5764   3.966   3.302  17.197  0.0121 -0.1937 -0.3602
  382MPD2    C4 5765   4.027   3.280  17.073 -0.0248  0.5797 -0.0993
  382MPD2    C5 5766   4.119   3.371  17.030 -1.1024  0.2340 -0.3472
  382MPD2     H 5767   3.944   3.436  17.363 -0.6837 -0.0526 -0.2921
  382MPD2    H1 5768   3.999   3.199  17.007  0.9280  0.4835 -0.3784
  382MPD2    H2 5769   4.226   3.539  17.060 -0.9854  2.3599  1.3681
  382MPD2    H3 5770   4.164   3.372  16.931 -0.1940 -0.5487  0.0564
  382MPD2     N 5771   3.866   3.207  17.235  0.6034  0.7786 -0.2624
  382MPD2    H5 5772   3.851   3.136  17.165  1.9702 -0.7978  1.0376
  382MPD2    N1 5773   4.121   3.615  17.309  0.7443 -0.2500  0.3275
  382MPD2    H7 5774   4.065   3.622  17.393  2.1668  0.9968  1.1795
  383TMC3    C1 5775   3.706   3.092  17.355  0.3044 -0.1408 -0.0369
  383TMC3    C2 5776   3.672   3.021  17.246 -0.2670  0.1395 -0.2876
  383TMC3    C3 5777   3.630   2.891  17.260  0.3334 -0.3142 -0.3282
  383TMC3    C4 5778   3.688   3.036  17.481  0.4478 -0.1510 -0.2358
  383TMC3    C5 5779   3.635   2.906  17.495  0.1547  0.1161 -0.2958
  383TMC3    C6 5780   3.610   2.832  17.382  0.3026  0.2608 -0.0007
  383TMC3     C 5781   3.797   3.205  17.353 -0.6662  0.5881 -0.8249
  383TMC3     O 5782   3.809   3.277  17.452  0.0516 -0.0988 -0.6468
  383TMC3     H 5783   3.676   3.063  17.146 -0.6746 -1.3623 -0.9248
  383TMC3    H1 5784   3.714   3.096  17.567  0.5856 -0.5311 -0.0087
  383TMC3    H2 5785   3.565   2.733  17.382  0.0380  0.3800 -0.5938
  383TMC3    C7 5786   3.625   2.854  17.633 -0.3847  0.1481  0.6290
  383TMC3    C8 5787   3.548   2.837  17.151  0.1220 -0.6482  0.3893
  383TMC3    O1 5788   3.636   2.934  17.721 -0.1793  0.2683  0.2067
  383TMC3    O2 5789   3.448   2.901  17.116  0.3543  0.3887  0.4796
  384MPD2     C 5790   0.970   0.313  12.619  0.4191 -0.2411 -0.5521
  384MPD2    C1 5791   0.941   0.185  12.647  0.4967  0.4737 -0.7887
  384MPD2    C2 5792   1.027   0.081  12.597  0.2413  0.1435 -0.0886
  384MPD2    C3 5793   1.137   0.110  12.525 -0.0250 -0.0022 -0.1020
  384MPD2    C4 5794   1.169   0.237  12.500  0.1680  0.4325 -0.1728
  384MPD2    C5 5795   1.089   0.337  12.549  0.2757 -0.1566  0.9018
  384MPD2     H 5796   0.996   4.714  12.626 -0.5727  0.7673  1.2036
  384MPD2    H1 5797   1.251   0.261  12.434  0.5192 -0.4667 -0.0613
  384MPD2    H2 5798   0.914   0.400  12.651 -1.6038 -2.0749  0.9566
  384MPD2    H3 5799   1.109   0.441  12.526 -2.2457  0.0214 -0.5906
  384MPD2     N 5800   1.206   0.010  12.455  0.1616 -0.4230  0.0741
  384MPD2    H5 5801   1.290   0.029  12.400  1.3020 -0.9164  1.6469
  384MPD2    N1 5802   0.827   0.140  12.717  0.6139 -0.4354  0.3449
  384MPD2    H7 5803   0.822   0.039  12.724 -0.8679 -0.2647  1.7847
  385TMC3    C1 5804   1.280   4.530  12.390 -0.3344  0.3201  0.2663
  385TMC3    C2 5805   1.269   4.539  12.255 -0.3107  0.1781 -0.6832
  385TMC3    C3 5806   1.263   4.427  12.178 -0.7042 -0.0521  0.3364
  385TMC3    C4 5807   1.263   4.410  12.444 -0.0220  0.5480  0.7143
  385TMC3    C5 5808   1.248   4.289  12.368 -0.2560 -0.2172  0.0343
  385TMC3    C6 5809   1.247   4.298  12.229  0.0119 -0.1668 -0.1698
  385TMC3     C 5810   1.190   4.608  12.469  0.3579  0.0802  0.5222
  385TMC3     O 5811   1.087   4.550  12.494 -0.0972  0.2382  0.1313
  385TMC3     H 5812   1.279   4.636  12.208  0.5534  0.0635 -0.7353
  385TMC3    H1 5813   1.265   4.400  12.552 -2.1195 -0.6943  0.6220
  385TMC3    H2 5814   1.241   4.206  12.172 -0.4781 -0.4139  0.2708
  385TMC3    C7 5815   1.144   4.206  12.424 -0.6620 -0.5240 -0.5396
  385TMC3    C8 5816   1.242   4.442  12.036  0.4107 -0.3986  0.2611
  385TMC3    O1 5817   1.155   4.090  12.386  0.3861 -0.3257 -0.0901
  385TMC3    O2 5818   1.277   4.546  11.983  0.1193 -0.6189 -0.3505
  386TMC3    C1 5819   0.476   2.434  11.595 -0.4215  0.1356 -0.1244
  386TMC3    C2 5820   0.481   2.496  11.478 -0.0465  0.0493 -0.1179
  386TMC3    C3 5821   0.376   2.579  11.447  0.0239  0.2830  0.4707
  386TMC3    C4 5822   0.365   2.428  11.673  0.5758  0.1035  0.3256
  386TMC3    C5 5823   0.259   2.493  11.630  0.1654  0.0847  0.2928
  386TMC3    C6 5824   0.257   2.582  11.522  0.5873 -0.9397  0.3232
  386TMC3     C 5825   0.597   2.368  11.636  0.1327  0.3657  0.2270
  386TMC3     O 5826   0.593   2.272  11.709 -0.3014  0.1457 -0.0253
  386TMC3     H 5827   0.564   2.502  11.409  0.3056  2.3906  0.5276
  386TMC3    H1 5828   0.362   2.364  11.761  1.0742 -0.1067  0.1914
  386TMC3    H2 5829   0.187   2.663  11.507 -0.3683 -2.1641 -1.9522
  386TMC3    C7 5830   0.136   2.481  11.702  0.2835 -0.0926  0.3095
  386TMC3    C8 5831   0.368   2.651  11.318  0.0450 -0.2008  0.2805
  386TMC3    O1 5832   0.133   2.412  11.799 -0.3954 -0.6313  0.2117
  386TMC3    O2 5833   0.300   2.754  11.313 -0.4731 -0.0828 -0.0269
  387MPD2     C 5834   2.916   2.518   9.717 -0.3462 -0.0570 -0.7595
  387MPD2    C1 5835   2.992   2.475   9.829 -0.0641 -0.8029 -0.8079
  387MPD2    C2 5836   2.974   2.347   9.875  0.1826 -0.1016  0.1716
  387MPD2    C3 5837   2.892   2.257   9.817 -0.1503 -0.0734 -0.5692
  387MPD2    C4 5838   2.822   2.297   9.700  0.4111 -0.1494 -0.4736
  387MPD2    C5 5839   2.832   2.424   9.660 -0.0969 -0.2136  0.2098
  387MPD2     H 5840   3.029   2.319   9.965  2.5483  0.0032 -1.2511
  387MPD2    H1 5841   2.755   2.236   9.641  1.8686 -0.8346 -1.4163
  387MPD2    H2 5842   2.931   2.617   9.675 -1.1561 -0.1442 -1.2622
  387MPD2    H3 5843   2.771   2.461   9.579 -0.0838  1.2612  0.8679
  387MPD2     N 5844   2.894   2.129   9.871 -0.4310 -0.0836  0.0792
  387MPD2    H5 5845   2.936   2.124   9.963  2.0841 -2.4499 -1.1830
  387MPD2    N1 5846   3.093   2.550   9.878  0.6167  0.5565 -0.5413
  387MPD2    H7 5847   3.147   2.511   9.955 -2.1288 -0.9943  0.6123
  388TMC3    C1 5848   3.225   2.726   9.938  0.3647 -1.0488  1.1930
  388TMC3    C2 5849   3.215   2.849  10.009 -0.5581 -0.9400  0.0661
  388TMC3    C3 5850   3.308   2.871  10.109 -0.5483  0.2303  0.0101
  388TMC3    C4 5851   3.318   2.637   9.964 -0.5455  0.3034  0.2109
  388TMC3    C5 5852   3.414   2.671  10.058  0.0152  0.0816  0.1850
  388TMC3    C6 5853   3.413   2.792  10.123  0.5389 -0.5010 -0.3093
  388TMC3     C 5854   3.118   2.681   9.854  0.6329  0.7892 -0.5343
  388TMC3     O 5855   3.057   2.766   9.790 -0.2943 -0.6985  0.1956
  388TMC3     H 5856   3.130   2.907   9.974  0.3477  0.7893  0.7554
  388TMC3    H1 5857   3.330   2.553   9.897 -1.0214 -0.3135  0.9000
  388TMC3    H2 5858   3.480   2.811  10.207  2.0040 -1.6325 -1.2206
  388TMC3    C7 5859   3.491   2.558  10.107 -0.6319 -0.3495  0.5537
  388TMC3    C8 5860   3.295   2.994  10.181  0.8604  0.1955 -0.3771
  388TMC3    O1 5861   3.600   2.579  10.156  0.4147  0.5947 -0.5428
  388TMC3    O2 5862   3.406   3.035  10.215 -0.4275  0.2500  0.0982
  389MPD2     C 5863   2.716   0.726  11.150 -0.0037 -0.3212  0.4086
  389MPD2    C1 5864   2.628   0.650  11.071  0.1895 -0.2685 -0.4248
  389MPD2    C2 5865   2.552   0.552  11.134  0.4692  0.1807  0.4010
  389MPD2    C3 5866   2.558   0.539  11.274 -0.6591 -0.9410  0.0000
  389MPD2    C4 5867   2.639   0.617  11.353  0.3042 -0.5232  0.4652
  389MPD2    C5 5868   2.716   0.709  11.287  0.8486 -0.4592 -0.7754
  389MPD2     H 5869   2.494   0.485  11.072 -0.8913  3.4312 -1.8844
  389MPD2    H1 5870   2.648   0.596  11.459 -0.0261  1.0408  0.7973
  389MPD2    H2 5871   2.786   0.791  11.099 -0.6834 -0.4644 -0.6975
  389MPD2    H3 5872   2.785   0.775  11.339 -1.5113  1.2737  0.1686
  389MPD2     N 5873   2.473   0.440  11.341  0.5800 -0.6500  0.2336
  389MPD2    H5 5874   2.477   0.450  11.442  0.5525  0.3464  0.1399
  389MPD2    N1 5875   2.616   0.682  10.931  0.4049 -0.5382  0.1298
  389MPD2    H7 5876   2.663   0.770  10.911 -0.1494 -0.2723 -0.0122
  390TMC3    C1 5877   2.301   0.293  11.383 -0.6530  0.0167  0.3595
  390TMC3    C2 5878   2.287   0.158  11.385 -0.3880  0.0342 -0.4939
  390TMC3    C3 5879   2.245   0.114  11.506 -0.4319  0.3726  0.2407
  390TMC3    C4 5880   2.264   0.378  11.482  0.6869 -0.0375  0.5996
  390TMC3    C5 5881   2.218   0.324  11.596 -0.1105  0.0000 -0.3190
  390TMC3    C6 5882   2.218   0.195  11.610  0.5182 -0.0886 -0.3368
  390TMC3     C 5883   2.383   0.344  11.285 -0.2790 -0.2099 -0.3702
  390TMC3     O 5884   2.376   0.294  11.175  0.1150  0.0982 -0.1693
  390TMC3     H 5885   2.315   0.087  11.309 -0.5738 -2.0699  1.4104
  390TMC3    H1 5886   2.275   0.485  11.489  0.7132 -0.1178  1.8017
  390TMC3    H2 5887   2.174   0.156  11.701  1.5226 -2.1155 -0.7238
  390TMC3    C7 5888   2.154   0.412  11.687 -0.3708 -0.2138 -0.5598
  390TMC3    C8 5889   2.183   4.707  11.503  0.2412  0.0980 -0.0906
  390TMC3    O1 5890   2.226   0.498  11.735  0.7710  0.1258 -0.2054
  390TMC3    O2 5891   2.137   4.665  11.397 -0.1523 -0.0670  0.3947
  391MPD2     C 5892   1.494   1.970  11.038  0.0138  0.1995  0.0861
  391MPD2    C1 5893   1.601   2.051  11.030 -0.7799  0.9499  0.8024
  391MPD2    C2 5894   1.621   2.134  10.919  0.2524 -0.5436 -0.4402
  391MPD2    C3 5895   1.532   2.140  10.811  0.7769 -0.2188  0.3234
  391MPD2    C4 5896   1.424   2.055  10.818  0.1265  0.9096 -0.0498
  391MPD2    C5 5897   1.408   1.975  10.931  0.5992 -0.1878 -0.3616
  391MPD2     H 5898   1.710   2.196  10.920  0.1439 -0.3850 -0.8736
  391MPD2    H1 5899   1.369   2.038  10.726 -0.7168  0.1364  0.5985
  391MPD2    H2 5900   1.477   1.908  11.125  0.6759 -2.5370 -1.7485
  391MPD2    H3 5901   1.319   1.915  10.919  0.4909 -0.1108  0.0815
  391MPD2     N 5902   1.559   2.234  10.703 -0.4886  0.7719 -0.3191
  391MPD2    H5 5903   1.648   2.281  10.717  0.4696 -0.6330 -1.6760
  391MPD2    N1 5904   1.681   2.054  11.145  0.0686 -0.5287  0.0269
  391MPD2    H7 5905   1.656   2.002  11.229 -0.1697 -0.9659 -0.3168
  392TMC3    C1 5906   1.533   2.344  10.496  0.4097 -0.4924 -0.7888
  392TMC3    C2 5907   1.464   2.349  10.380 -0.9782 -0.7034 -0.7911
  392TMC3    C3 5908   1.524   2.405  10.273 -0.6595 -0.9327 -0.5993
  392TMC3    C4 5909   1.664   2.390  10.509  0.0853  0.2879  0.3490
  392TMC3    C5 5910   1.723   2.446  10.399  0.1289 -0.1889 -0.7220
  392TMC3    C6 5911   1.653   2.452  10.282  0.8322 -0.3404  0.1475
  392TMC3     C 5912   1.471   2.269  10.605 -0.0188 -0.2897  0.5346
  392TMC3     O 5913   1.359   2.220  10.586  0.0224  0.2438 -0.0409
  392TMC3     H 5914   1.362   2.313  10.379 -1.6007  1.0744 -1.2314
  392TMC3    H1 5915   1.718   2.388  10.602 -0.0909 -1.1431  0.4238
  392TMC3    H2 5916   1.689   2.514  10.201 -1.1342 -1.2657 -1.4257
  392TMC3    C7 5917   1.852   2.502  10.432  0.1313 -0.5214  0.2347
  392TMC3    C8 5918   1.450   2.409  10.152  0.4815 -0.7936 -0.0746
  392TMC3    O1 5919   1.922   2.460  10.525 -0.4006  0.0702  0.4570
  392TMC3    O2 5920   1.336   2.371  10.165 -0.2936 -0.2099 -0.4132
  393TMC3    C1 5921   0.291   0.010  11.350  0.3288  0.2542  0.9154
  393TMC3    C2 5922   0.190   4.656  11.311 -0.5514 -0.1729  0.3232
  393TMC3    C3 5923   0.191   4.535  11.377 -0.0144  0.0558 -0.0631
  393TMC3    C4 5924   0.393   4.714  11.436  0.2281 -0.0607  0.9393
  393TMC3    C5 5925   0.393   4.588  11.487  0.2899 -0.2033  0.8867
  393TMC3    C6 5926   0.290   4.498  11.464 -0.0515  0.4049  0.2571
  393TMC3     C 5927   0.303   0.138  11.284 -0.3267  0.3194  0.6452
  393TMC3     O 5928   0.236   0.156  11.183  0.1850  0.3298  0.4052
  393TMC3     H 5929   0.107   4.680  11.247 -0.6030  1.2312  0.9203
  393TMC3    H1 5930   0.468   0.054  11.464 -0.8961  0.9244  1.3819
  393TMC3    H2 5931   0.287   4.399  11.509  1.4865 -0.0061 -0.5595
  393TMC3    C7 5932   0.511   4.543  11.558 -0.0492  0.1319  0.2047
  393TMC3    C8 5933   0.128   4.426  11.312  0.3214  0.2232 -0.1445
  393TMC3    O1 5934   0.515   4.431  11.612 -0.4927 -0.1183 -0.2077
  393TMC3    O2 5935   0.031   4.466  11.247 -0.9331 -0.4724  0.4589
  394TMC3    C1 5936   2.536   0.728  10.737 -0.2449 -0.2433 -0.4281
  394TMC3    C2 5937   2.432   0.731  10.649  0.5679  0.2120  0.6411
  394TMC3    C3 5938   2.433   0.821  10.552  0.2950 -0.0608  0.7667
  394TMC3    C4 5939   2.656   0.797  10.719  0.6323  0.5044 -0.1240
  394TMC3    C5 5940   2.650   0.888  10.612 -0.2120 -0.2074 -0.5076
  394TMC3    C6 5941   2.541   0.908  10.533 -0.3225  0.2832  0.9001
  394TMC3     C 5942   2.536   0.632  10.840 -0.0345 -0.5731 -0.8342
  394TMC3     O 5943   2.444   0.553  10.845 -0.6237 -0.0139 -0.0735
  394TMC3     H 5944   2.342   0.671  10.651  0.7242 -0.0737 -1.1776
  394TMC3    H1 5945   2.750   0.780  10.770 -0.6581 -0.7049  1.8192
  394TMC3    H2 5946   2.524   0.985  10.459  1.1225  0.2262  0.5187
  394TMC3    C7 5947   2.753   0.985  10.591 -0.8398  0.6309  0.2624
  394TMC3    C8 5948   2.324   0.821  10.454  0.2726 -0.1112  0.3746
  394TMC3    O1 5949   2.716   1.083  10.530 -1.1146 -0.5042  0.5115
  394TMC3    O2 5950   2.295   0.932  10.411 -0.1299 -0.0126 -0.3378
  395TMC3    C1 5951   2.533   1.958  14.891  0.8342 -0.1271 -0.0928
  395TMC3    C2 5952   2.415   1.997  14.829 -0.4341 -0.6409  0.4111
  395TMC3    C3 5953   2.415   2.087  14.732 -0.0387  0.1187  0.0806
  395TMC3    C4 5954   2.652   2.015  14.855 -0.4654  0.4831  0.0541
  395TMC3    C5 5955   2.647   2.116  14.759 -0.9779  0.4620  0.1068
  395TMC3    C6 5956   2.530   2.155  14.696 -0.4350  0.6322 -0.6384
  395TMC3     C 5957   2.530   1.864  15.002  0.2413 -0.1892 -0.0423
  395TMC3     O 5958   2.636   1.807  15.025 -0.5306  0.4866 -0.6589
  395TMC3     H 5959   2.323   1.956  14.869 -0.8461 -0.8875 -0.7841
  395TMC3    H1 5960   2.746   1.987  14.901 -0.6845 -0.1388  0.1242
  395TMC3    H2 5961   2.530   2.231  14.618  1.0242  1.4130  0.1275
  395TMC3    C7 5962   2.774   2.189  14.742  0.0729 -0.0438 -0.1504
  395TMC3    C8 5963   2.295   2.123  14.660 -0.3821 -0.2835  0.7123
  395TMC3    O1 5964   2.860   2.185  14.829 -0.0750  0.8125  0.0420
  395TMC3    O2 5965   2.303   2.235  14.608  0.0846 -0.3285  0.5643
  396MPD2     C 5966   2.051   3.125  16.911  0.5136 -0.1327  0.1851
  396MPD2    C1 5967   2.171   3.150  16.982 -0.0607 -0.2904 -0.1683
  396MPD2    C2 5968   2.239   3.263  16.930  0.3288  0.3145  0.2170
  396MPD2    C3 5969   2.197   3.345  16.824 -0.0703 -0.1024 -0.0136
  396MPD2    C4 5970   2.084   3.313  16.755 -0.3292 -0.6760 -0.3245
  396MPD2    C5 5971   2.017   3.206  16.801 -0.6491  0.4846  0.0113
  396MPD2     H 5972   2.330   3.291  16.982  1.1085  0.8415 -1.4392
  396MPD2    H1 5973   2.059   3.355  16.658  1.0436  0.3475 -0.2260
  396MPD2    H2 5974   1.991   3.043  16.950 -1.2534  0.2129 -1.7705
  396MPD2    H3 5975   1.937   3.162  16.744 -1.9414 -1.3343  3.2484
  396MPD2     N 5976   2.285   3.450  16.788  0.5809  0.2314 -0.0536
  396MPD2    H5 5977   2.376   3.462  16.830  0.8960 -3.3513  0.2991
  396MPD2    N1 5978   2.194   3.085  17.100 -0.2549  0.9100 -0.0238
  396MPD2    H7 5979   2.132   3.006  17.116  1.6454 -1.0656 -2.3844
  397TMC3    C1 5980   2.263   3.051  17.319  0.2553 -0.2955  0.6112
  397TMC3    C2 5981   2.385   3.000  17.360 -0.3153 -0.3809  0.4242
  397TMC3    C3 5982   2.392   2.862  17.375 -0.1488  0.1696 -0.0739
  397TMC3    C4 5983   2.149   2.971  17.322  0.3397 -0.1474  0.2706
  397TMC3    C5 5984   2.162   2.841  17.360  0.2451  0.3456 -0.3101
  397TMC3    C6 5985   2.281   2.782  17.386 -0.1295 -0.6705  0.1163
  397TMC3     C 5986   2.286   3.124  17.193 -0.3750 -0.0747 -0.5771
  397TMC3     O 5987   2.381   3.202  17.178 -0.1424  0.2167 -0.8196
  397TMC3     H 5988   2.471   3.063  17.342  0.2326 -1.9787 -2.4034
  397TMC3    H1 5989   2.052   3.014  17.300  0.5663 -0.0063 -0.4517
  397TMC3    H2 5990   2.288   2.675  17.400  1.6142 -0.8521 -2.0664
  397TMC3    C7 5991   2.039   2.771  17.372 -0.9667 -0.4972  0.3546
  397TMC3    C8 5992   2.518   2.788  17.402 -0.6957 -0.1026  0.4883
  397TMC3    O1 5993   1.942   2.810  17.312 -0.3360  0.4470  0.2429
  397TMC3    O2 5994   2.516   2.702  17.486  0.1023  0.5085 -0.1803
  398MPD2     C 5995   0.265   4.061  17.424 -0.5648 -0.2085 -0.0391
  398MPD2    C1 5996   0.360   3.966  17.465 -0.4373  0.1652 -0.4363
  398MPD2    C2 5997   0.447   4.009  17.561  0.4336  0.2051  0.4114
  398MPD2    C3 5998   0.447   4.139  17.614  0.3945 -0.9125  0.0208
  398MPD2    C4 5999   0.345   4.226  17.580  0.4240  0.6876  0.0094
  398MPD2    C5 6000   0.261   4.183  17.485 -0.0215  0.7506  0.1163
  398MPD2     H 6001   0.532   3.945  17.581 -1.0079 -1.4728  1.1926
  398MPD2    H1 6002   0.332   4.324  17.623  0.9118  0.4736  0.6522
  398MPD2    H2 6003   0.189   4.048  17.348 -0.7558  1.8982 -0.1936
  398MPD2    H3 6004   0.179   4.252  17.464 -1.9298 -0.7843  2.5138
  398MPD2     N 6005   0.548   4.170  17.704  0.8215  0.1851  0.4753
  398MPD2    H5 6006   0.609   4.091  17.721  0.2798  0.0537  1.8719
  398MPD2    N1 6007   0.375   3.843  17.407  0.3195  0.7717 -0.0837
  398MPD2    H7 6008   0.449   3.782  17.440  0.2311  0.9222  0.3948
  399TMC3    C1 6009   0.311   3.647  17.324  0.0952 -0.7904  0.9629
  399TMC3    C2 6010   0.436   3.613  17.350  0.8575  0.0265  0.3910
  399TMC3    C3 6011   0.461   3.481  17.388 -0.1559 -0.2353 -0.4166
  399TMC3    C4 6012   0.204   3.565  17.364  0.0256  0.2914 -0.1492
  399TMC3    C5 6013   0.236   3.438  17.398 -0.5537  0.8484 -0.4179
  399TMC3    C6 6014   0.361   3.395  17.421 -0.1153  0.0217  0.5149
  399TMC3     C 6015   0.289   3.789  17.324 -0.4137 -0.4973  0.2418
  399TMC3     O 6016   0.176   3.822  17.292 -0.1821  0.9477  0.4921
  399TMC3     H 6017   0.518   3.675  17.314  1.3669 -0.7533  0.2111
  399TMC3    H1 6018   0.105   3.603  17.344 -0.1327  0.6516  1.3455
  399TMC3    H2 6019   0.380   3.296  17.460  2.5168 -0.1686 -1.2584
  399TMC3    C7 6020   0.130   3.344  17.445  0.7925 -0.0260  0.2008
  399TMC3    C8 6021   0.594   3.445  17.427 -0.2356 -0.0225 -0.3693
  399TMC3    O1 6022   0.168   3.226  17.435  0.4090 -0.4261  0.4428
  399TMC3    O2 6023   0.665   3.540  17.450 -0.0361  0.7936  0.1205
  400TMC3    C1 6024   3.576   2.599  16.652  1.0245  0.1675  0.6949
  400TMC3    C2 6025   3.458   2.598  16.590  0.7538 -0.8448  0.5939
  400TMC3    C3 6026   3.380   2.714  16.607  0.5935 -0.2541 -0.4830
  400TMC3    C4 6027   3.632   2.713  16.713 -0.5497 -0.5132  0.6777
  400TMC3    C5 6028   3.549   2.822  16.723 -0.7681 -0.4125  0.7884
  400TMC3    C6 6029   3.414   2.829  16.678 -0.5465  0.0717 -0.0462
  400TMC3     C 6030   3.614   2.465  16.691  0.0666  0.0757  0.6671
  400TMC3     O 6031   3.535   2.373  16.669 -0.5448 -0.6628  0.1304
  400TMC3     H 6032   3.420   2.505  16.551 -0.5380 -1.4544  3.2939
  400TMC3    H1 6033   3.733   2.706  16.752  0.3922  1.8577 -1.3359
  400TMC3    H2 6034   3.351   2.915  16.693 -2.9510 -1.8719  0.9658
  400TMC3    C7 6035   3.625   2.942  16.765  0.3661  0.5042  0.1354
  400TMC3    C8 6036   3.241   2.704  16.569  0.3296  0.3761 -1.1064
  400TMC3    O1 6037   3.747   2.943  16.753  0.1479  0.0208  0.9345
  400TMC3    O2 6038   3.165   2.785  16.622  0.1151 -0.7548  0.2975
  401MPD2     C 6039   1.796   1.298   0.295 -0.2695  0.0371 -0.0057
  401MPD2    C1 6040   1.831   1.246   0.420 -0.6710  0.0679  0.2896
  401MPD2    C2 6041   1.860   1.108   0.436 -0.7242  0.3210 -0.4854
  401MPD2    C3 6042   1.872   1.021   0.323 -0.3063  0.0113  0.3778
  401MPD2    C4 6043   1.841   1.075   0.201 -0.3994  0.2784  0.0925
  401MPD2    C5 6044   1.798   1.206   0.191  0.2632  0.5183 -0.1377
  401MPD2     H 6045   1.889   1.069   0.532 -1.6124 -0.6954 -0.6252
  401MPD2    H1 6046   1.856   1.020   0.109 -0.5313 -0.0979  0.2946
  401MPD2    H2 6047   1.767   1.399   0.270 -2.9136 -0.7178 -0.0678
  401MPD2    H3 6048   1.783   1.239   0.089  1.6211  0.5393 -0.3248
  401MPD2     N 6049   1.918   0.890   0.347  0.6774  0.4182 -0.8054
  401MPD2    H5 6050   1.922   0.862   0.444  2.2212 -1.8087 -1.5316
  401MPD2    N1 6051   1.824   1.323   0.539  0.0123  0.6720  0.7678
  401MPD2    H7 6052   1.818   1.286   0.633  1.6800 -0.4427  0.4305
  402TMC3    C1 6053   1.999   0.667   0.306 -0.2403  0.3754 -0.4541
  402TMC3    C2 6054   1.934   0.607   0.407 -0.4013  0.4188  0.4097
  402TMC3    C3 6055   1.943   0.471   0.411  0.1493  0.2819  0.2139
  402TMC3    C4 6056   2.085   0.603   0.214  0.1235  0.0301 -0.0861
  402TMC3    C5 6057   2.097   0.466   0.243 -0.8823 -0.5599 -0.3935
  402TMC3    C6 6058   2.022   0.394   0.326 -0.1973 -0.1424 -0.1207
  402TMC3     C 6059   1.950   0.793   0.254  0.3373 -0.2936 -0.1583
  402TMC3     O 6060   1.952   0.800   0.133 -0.0608  0.3025 -0.1875
  402TMC3     H 6061   1.886   0.663   0.486 -1.3356 -2.8789  2.1933
  402TMC3    H1 6062   2.145   0.649   0.137  2.2743 -2.4259  0.1196
  402TMC3    H2 6063   2.028   0.286   0.330 -0.0561 -0.0998  0.9347
  402TMC3    C7 6064   2.229   0.405   0.197  0.4565 -0.5101 -0.4230
  402TMC3    C8 6065   1.945   0.421   0.545 -0.4722  0.4143  0.6319
  402TMC3    O1 6066   2.278   0.442   0.095  0.0637  0.3962 -0.1704
  402TMC3    O2 6067   2.037   0.349   0.572 -0.0401  0.1269  0.7205
  403MPD2     C 6068   0.274   4.647  13.066  0.2461 -1.0010  1.0127
  403MPD2    C1 6069   0.292   4.528  13.127  0.1690 -0.6266 -0.1062
  403MPD2    C2 6070   0.411   4.504  13.207  0.6105 -0.1113  0.4259
  403MPD2    C3 6071   0.505   4.606  13.226  0.1839 -0.2148  0.0895
  403MPD2    C4 6072   0.484   4.722  13.155 -0.3222  0.9823 -0.0160
  403MPD2    C5 6073   0.370   0.016  13.079 -0.4938  0.3847 -0.1177
  403MPD2     H 6074   0.434   4.406  13.246 -0.3861 -0.0669  1.1220
  403MPD2    H1 6075   0.555   0.072  13.158  0.2302  0.5464 -1.3162
  403MPD2    H2 6076   0.183   4.661  13.009  0.0738 -0.6211  1.3776
  403MPD2    H3 6077   0.354   0.111  13.030 -1.0542  0.7531  0.8009
  403MPD2     N 6078   0.621   4.589  13.307  0.1401 -0.4979 -0.7201
  403MPD2    H5 6079   0.642   4.493  13.331  3.1316  0.0911 -0.9761
  403MPD2    N1 6080   0.189   4.432  13.113  0.2676  0.2037 -0.0126
  403MPD2    H7 6081   0.112   4.459  13.052 -1.3429 -0.4900  1.7186
  404TMC3    C1 6082   0.067   4.239  13.144 -0.0624 -0.4195  0.4403
  404TMC3    C2 6083   0.009   4.157  13.234  0.2570 -0.1366  0.8694
  404TMC3    C3 6084   4.638   4.084  13.184  0.4950  0.3100 -0.2492
  404TMC3    C4 6085   0.036   4.243  13.011 -0.4229 -0.4768  0.2534
  404TMC3    C5 6086   4.659   4.172  12.961 -0.2537  0.0733 -0.4689
  404TMC3    C6 6087   4.591   4.090  13.052 -0.1097  0.7380 -0.6757
  404TMC3     C 6088   0.174   4.320  13.187 -0.1558  0.4511 -0.5007
  404TMC3     O 6089   0.235   4.287  13.292  0.2535  0.4235  0.0796
  404TMC3     H 6090   0.049   4.158  13.334  2.2049  0.6826  0.0785
  404TMC3    H1 6091   0.086   4.310  12.942 -1.8652  0.3184 -0.0134
  404TMC3    H2 6092   4.509   4.031  13.012  0.7305  0.2991 -1.7489
  404TMC3    C7 6093   4.612   4.194  12.828 -0.6506 -0.4811 -0.2487
  404TMC3    C8 6094   4.628   3.949  13.248 -0.3474  0.6829  0.1242
  404TMC3    O1 6095   4.690   4.258  12.760 -0.5953  0.8738 -0.4029
  404TMC3    O2 6096   4.599   3.852  13.175  0.4541 -0.0402 -0.2488
  405MPD2     C 6097   0.758   4.706  14.780  0.8557 -0.0351 -0.0209
  405MPD2    C1 6098   0.682   4.597  14.741  0.0914  0.3967  0.2051
  405MPD2    C2 6099   0.608   4.608  14.625 -0.1647  0.1365  0.1852
  405MPD2    C3 6100   0.604   0.003  14.560  0.8625  1.1107  0.1330
  405MPD2    C4 6101   0.673   0.110  14.605 -0.0547  0.2738  0.0869
  405MPD2    C5 6102   0.757   0.093  14.706  0.6409  0.6531  0.5355
  405MPD2     H 6103   0.544   4.524  14.601  0.0644 -0.6334  2.2137
  405MPD2    H1 6104   0.678   0.202  14.548 -0.4489  0.2790  0.0648
  405MPD2    H2 6105   0.826   4.713  14.864 -0.2791  0.5150  0.8438
  405MPD2    H3 6106   0.822   0.175  14.731  1.2864  0.2606  0.1316
  405MPD2     N 6107   0.510   0.004  14.454  0.0713  0.7408  0.5051
  405MPD2    H5 6108   0.478   4.644  14.427 -0.3042  0.9179  0.3471
  405MPD2    N1 6109   0.668   4.474  14.805 -0.2378  0.3610  0.1882
  405MPD2    H7 6110   0.592   4.412  14.779 -0.9211  1.5818 -0.7140
  406TMC3    C1 6111   0.239   0.083  14.086  0.3457  0.2777 -0.1581
  406TMC3    C2 6112   0.165   4.710  14.117  0.0322  0.1093 -0.5612
  406TMC3    C3 6113   0.195   4.633  14.230 -0.5622 -0.3698  0.0914
  406TMC3    C4 6114   0.348   0.123  14.161 -0.1812  0.2783 -0.2181
  406TMC3    C5 6115   0.369   0.054  14.276  0.0457 -0.0115 -0.1023
  406TMC3    C6 6116   0.283   4.682  14.321  0.3024 -0.2333  0.0071
  406TMC3     C 6117   0.171   0.197  14.028  0.1081 -0.2217 -0.3236
  406TMC3     O 6118   0.237   0.284  13.971  0.0761  0.1360  0.2839
  406TMC3     H 6119   0.074   4.683  14.064  0.2594 -2.6437  0.4427
  406TMC3    H1 6120   0.412   0.207  14.137  0.2193  0.3941  1.2514
  406TMC3    H2 6121   0.302   4.644  14.420  1.0370 -0.7488 -0.3304
  406TMC3    C7 6122   0.477   0.097  14.360 -0.2643 -0.0984  0.1626
  406TMC3    C8 6123   0.128   4.506  14.257  0.3785 -0.4119  0.0812
  406TMC3    O1 6124   0.519   0.212  14.342 -0.3090  0.5033  0.0195
  406TMC3    O2 6125   0.013   4.483  14.217 -0.4447  0.3950 -0.0164
  407MPD2     C 6126   2.364   2.034   9.909  0.7540  0.7359 -0.2344
  407MPD2    C1 6127   2.434   2.088   9.802 -0.0880 -0.8795  0.9130
  407MPD2    C2 6128   2.468   2.224   9.807  0.2261  0.0981  0.1360
  407MPD2    C3 6129   2.431   2.306   9.914  0.3069 -0.1125 -0.0037
  407MPD2    C4 6130   2.353   2.249  10.012 -0.5497  0.3596 -0.1477
  407MPD2    C5 6131   2.328   2.114  10.012  0.5508 -0.3440 -0.3499
  407MPD2     H 6132   2.524   2.270   9.726 -1.0321  1.4448  0.0159
  407MPD2    H1 6133   2.311   2.310  10.091  0.9682 -2.1936  2.5994
  407MPD2    H2 6134   2.351   1.926   9.913  2.9044  0.4214 -2.2738
  407MPD2    H3 6135   2.270   2.072  10.094  0.7750  2.5551  1.3018
  407MPD2     N 6136   2.495   2.435   9.929  0.8060  0.6529 -0.0718
  407MPD2    H5 6137   2.540   2.466   9.843  2.7296  0.0090  0.7002
  407MPD2    N1 6138   2.476   2.014   9.688 -0.2501  0.3736  0.1850
  407MPD2    H7 6139   2.548   2.051   9.627 -1.0034 -1.1613 -1.6236
  408TMC3    C1 6140   2.516   1.857   9.533  0.3892 -0.1714 -0.6949
  408TMC3    C2 6141   2.615   1.755   9.551 -0.5013  0.3400 -0.4162
  408TMC3    C3 6142   2.729   1.769   9.477 -0.2712  0.6916 -0.0244
  408TMC3    C4 6143   2.534   1.965   9.449 -0.0631 -0.0182 -0.3601
  408TMC3    C5 6144   2.649   1.968   9.375 -0.3152  0.2299 -0.8464
  408TMC3    C6 6145   2.748   1.875   9.397  0.5640 -0.9637  0.2597
  408TMC3     C 6146   2.443   1.885   9.656  0.2771 -0.4623  0.0223
  408TMC3     O 6147   2.378   1.804   9.720  0.3964  0.0925  0.2045
  408TMC3     H 6148   2.606   1.668   9.615 -1.2339  0.6803 -0.0662
  408TMC3    H1 6149   2.464   2.048   9.450 -1.4594 -1.2142  2.6797
  408TMC3    H2 6150   2.832   1.875   9.329  0.0836 -0.1969 -0.3454
  408TMC3    C7 6151   2.699   2.086   9.316 -0.3340 -0.0438 -0.0746
  408TMC3    C8 6152   2.839   1.683   9.508 -0.1273 -0.1024 -0.1938
  408TMC3    O1 6153   2.818   2.092   9.296 -0.2645  0.1594  0.2342
  408TMC3    O2 6154   2.813   1.566   9.540 -0.1253  0.0252 -0.1581
  409MPD2     C 6155   2.186   2.405  17.356  0.0393  0.3178 -0.3037
  409MPD2    C1 6156   2.320   2.359  17.365 -0.1137 -0.1211 -0.5915
  409MPD2    C2 6157   2.413   2.408  17.278  0.4457  0.5945  0.1682
  409MPD2    C3 6158   2.387   2.491  17.179  0.0495  0.1991 -0.5477
  409MPD2    C4 6159   2.257   2.526  17.155 -0.8302 -0.2569  0.4541
  409MPD2    C5 6160   2.161   2.479  17.240 -0.0499 -0.1783 -0.0536
  409MPD2     H 6161   2.512   2.364  17.280 -0.3526 -1.1901  0.1971
  409MPD2    H1 6162   2.228   2.583  17.068  1.2303 -0.0058 -0.0800
  409MPD2    H2 6163   2.106   2.381  17.424  1.6412  1.6257  2.0530
  409MPD2    H3 6164   2.061   2.511  17.212 -0.5790  0.5241  2.5670
  409MPD2     N 6165   2.487   2.538  17.088 -0.1283 -0.3465  0.4958
  409MPD2    H5 6166   2.451   2.587  17.007 -1.0321  1.4071  1.9546
  409MPD2    N1 6167   2.354   2.256  17.461 -0.2338 -0.7787 -0.6281
  409MPD2    H7 6168   2.450   2.224  17.461 -0.0798 -0.3173 -0.9773
  410TMC3    C1 6169   2.703   2.577  16.998  0.3489 -0.4399 -0.5408
  410TMC3    C2 6170   2.835   2.599  17.027  0.1881 -0.6494 -0.0483
  410TMC3    C3 6171   2.908   2.665  16.935 -0.2758  1.2894 -0.7445
  410TMC3    C4 6172   2.649   2.636  16.889 -0.3372 -0.7503  0.0544
  410TMC3    C5 6173   2.724   2.709  16.800  0.3157  0.2785 -1.6056
  410TMC3    C6 6174   2.854   2.735  16.830  0.0032  0.3903  0.0150
  410TMC3     C 6175   2.622   2.518  17.103  0.3181  0.4545  0.2109
  410TMC3     O 6176   2.686   2.477  17.198  0.1502 -0.1111 -0.1382
  410TMC3     H 6177   2.889   2.562  17.113 -2.3317  1.2548  2.3049
  410TMC3    H1 6178   2.548   2.618  16.854 -0.1439  0.4393 -1.1032
  410TMC3    H2 6179   2.912   2.804  16.770  0.5219 -0.3165 -0.2996
  410TMC3    C7 6180   2.647   2.761  16.684  0.1418 -0.3338  0.0269
  410TMC3    C8 6181   3.049   2.680  16.964 -0.4409 -0.1517  0.0385
  410TMC3    O1 6182   2.528   2.729  16.673  0.1538 -0.0161 -1.1210
  410TMC3    O2 6183   3.083   2.798  16.985  0.3210 -0.8944  0.1127
  411MPD2     C 6184   2.853   2.935  14.282  0.2754 -0.2104  0.1308
  411MPD2    C1 6185   2.828   3.048  14.202 -0.3240 -0.1728 -0.1276
  411MPD2    C2 6186   2.860   3.035  14.064  0.6677 -0.6674  0.1364
  411MPD2    C3 6187   2.888   2.908  14.007  0.0317  0.3670 -0.6901
  411MPD2    C4 6188   2.904   2.798  14.090  0.2105 -0.0449 -0.4603
  411MPD2    C5 6189   2.905   2.822  14.227  0.8246  0.1206  0.8983
  411MPD2     H 6190   2.846   3.119  13.995  0.5252 -1.4918 -0.8399
  411MPD2    H1 6191   2.941   2.704  14.051 -0.3495 -0.0748 -0.9157
  411MPD2    H2 6192   2.834   2.934  14.388  0.3806  2.6764  0.1669
  411MPD2    H3 6193   2.923   2.737  14.293  1.0056 -0.8445 -0.3951
  411MPD2     N 6194   2.916   2.888  13.869  0.0810  0.6793  0.4106
  411MPD2    H5 6195   2.951   2.794  13.851  0.7344  1.1499 -0.7851
  411MPD2    N1 6196   2.753   3.160  14.262 -0.6891 -0.1287 -0.0024
  411MPD2    H7 6197   2.722   3.160  14.358  0.1161  0.2088  0.2594
  412TMC3    C1 6198   2.943   2.924  13.636  0.1845  0.2828 -0.4742
  412TMC3    C2 6199   3.032   2.821  13.637 -0.4590 -0.1095  0.0799
  412TMC3    C3 6200   3.120   2.826  13.527  0.3691 -0.9057 -0.3969
  412TMC3    C4 6201   2.923   3.019  13.534  0.2290  0.1082  0.2645
  412TMC3    C5 6202   3.005   3.008  13.428 -0.5414  0.5563 -0.4687
  412TMC3    C6 6203   3.108   2.919  13.427 -0.9567 -0.2392  0.8897
  412TMC3     C 6204   2.883   2.971  13.764  0.4059  0.3252  0.5719
  412TMC3     O 6205   2.822   3.080  13.768  0.2547  0.3263 -0.0740
  412TMC3     H 6206   3.048   2.737  13.703 -1.2267  0.0809  0.5051
  412TMC3    H1 6207   2.835   3.082  13.532 -0.4549 -0.8333  0.3434
  412TMC3    H2 6208   3.174   2.914  13.341  0.5111  1.9033  1.8761
  412TMC3    C7 6209   2.926   2.993  13.309 -0.4004 -0.3060 -0.0156
  412TMC3    C8 6210   3.163   2.698  13.480  0.1171  0.0937  0.3416
  412TMC3    O1 6211   2.956   2.887  13.250 -0.0378  0.2252 -0.6047
  412TMC3    O2 6212   3.195   2.609  13.558  0.2319  0.2659 -0.1852
  413MPD2     C 6213   4.585   1.489  15.207  0.1583 -0.9836 -0.3505
  413MPD2    C1 6214   4.508   1.402  15.131  0.4036  0.6769  0.0425
  413MPD2    C2 6215   4.569   1.290  15.078 -0.2628 -1.0579 -0.2075
  413MPD2    C3 6216   4.702   1.269  15.107  0.8504 -0.4389 -0.1776
  413MPD2    C4 6217   0.043   1.357  15.179  0.6478  0.4292  0.2520
  413MPD2    C5 6218   4.726   1.478  15.227  0.7803  0.0392 -0.5029
  413MPD2     H 6219   4.503   1.221  15.027 -1.1178  1.8988 -3.1098
  413MPD2    H1 6220   0.149   1.341  15.196  0.8828  0.5153 -1.1176
  413MPD2    H2 6221   4.538   1.578  15.249 -0.0201 -0.6893 -1.1756
  413MPD2    H3 6222   0.058   1.542  15.287  0.0155  1.8749 -1.6710
  413MPD2     N 6223   0.026   1.144  15.063  0.1077  0.4543  0.1545
  413MPD2    H5 6224   4.712   1.089  14.992 -2.9385  1.1782  1.5544
  413MPD2    N1 6225   4.367   1.423  15.116  0.1013 -0.4133  0.3428
  413MPD2    H7 6226   4.321   1.494  15.171  1.2434  1.1913 -0.7928
  414TMC3    C1 6227   0.172   0.955  15.067  0.0255 -0.1104 -0.0445
  414TMC3    C2 6228   0.240   0.865  15.145  0.1494  1.2659 -0.2887
  414TMC3    C3 6229   0.300   0.761  15.082 -0.1710 -0.2203 -0.3385
  414TMC3    C4 6230   0.177   0.952  14.929  0.2719  0.4925  0.2409
  414TMC3    C5 6231   0.232   0.844  14.870  0.1578 -0.3626 -0.8264
  414TMC3    C6 6232   0.279   0.745  14.948  0.2275 -0.6812 -0.6431
  414TMC3     C 6233   0.131   1.078  15.129  0.5278 -0.4825  0.2765
  414TMC3     O 6234   0.180   1.091  15.241  0.3383 -0.9906 -0.1206
  414TMC3     H 6235   0.252   0.863  15.253  0.5192  3.6232 -0.2986
  414TMC3    H1 6236   0.130   1.032  14.873  1.9626 -0.2198 -2.2217
  414TMC3    H2 6237   0.294   0.647  14.904 -0.2507 -0.1921 -1.8702
  414TMC3    C7 6238   0.234   0.846  14.720  0.0398 -0.7694  0.2967
  414TMC3    C8 6239   0.335   0.639  15.163  0.5708 -0.4364  0.4712
  414TMC3    O1 6240   0.155   0.920  14.671 -0.5255  0.2995  0.4616
  414TMC3    O2 6241   0.333   0.541  15.090  0.0565  0.4648  0.3828
  415TMC3    C1 6242   0.709   4.284  10.129 -0.4524  0.1418  0.5181
  415TMC3    C2 6243   0.693   4.372  10.023 -0.6422  0.0573  0.4368
  415TMC3    C3 6244   0.752   4.330   9.903 -0.4717  0.1022  0.4134
  415TMC3    C4 6245   0.761   4.157  10.110 -0.2721 -0.5184 -0.2602
  415TMC3    C5 6246   0.814   4.122   9.989 -0.1508  0.1352 -0.2183
  415TMC3    C6 6247   0.817   4.211   9.890  0.1753  0.8909 -0.0024
  415TMC3     C 6248   0.645   4.314  10.262  0.4377  0.1223 -0.2345
  415TMC3     O 6249   0.640   4.216  10.336 -0.0873  0.2241  0.4044
  415TMC3     H 6250   0.630   4.460  10.033 -0.7758  0.2338 -2.2150
  415TMC3    H1 6251   0.765   4.089  10.195 -0.3388 -1.0734 -0.7039
  415TMC3    H2 6252   0.849   4.182   9.791 -0.1328  0.7922 -0.0704
  415TMC3    C7 6253   0.831   3.977   9.958 -0.0752  0.9926 -0.1270
  415TMC3    C8 6254   0.741   4.419   9.783  0.3543 -0.2807 -0.5005
  415TMC3    O1 6255   0.917   3.960   9.876 -0.5117  0.8920 -0.2799
  415TMC3    O2 6256   0.762   4.371   9.673 -0.2925  0.1906  0.3774
  416MPD2     C 6257   2.105   3.493  10.824 -0.3097 -0.3471  0.9809
  416MPD2    C1 6258   2.036   3.411  10.910 -0.2049  0.6617  0.1470
  416MPD2    C2 6259   2.016   3.277  10.875 -0.4517 -0.0516  0.0214
  416MPD2    C3 6260   2.053   3.237  10.752 -0.7597 -0.3115 -0.1634
  416MPD2    C4 6261   2.109   3.322  10.657  0.2662 -0.9362  0.2132
  416MPD2    C5 6262   2.147   3.445  10.698 -1.3887  0.3798  0.6090
  416MPD2     H 6263   1.979   3.205  10.947  0.2931  0.3549  0.8178
  416MPD2    H1 6264   2.154   3.289  10.564 -0.0901 -0.1720 -0.2347
  416MPD2    H2 6265   2.124   3.599  10.841 -2.0720  0.3043 -1.0790
  416MPD2    H3 6266   2.192   3.519  10.633 -0.8245 -1.0366 -0.6041
  416MPD2     N 6267   2.023   3.109  10.703 -0.0953 -0.1439  0.6452
  416MPD2    H5 6268   2.023   3.100  10.602 -0.4764 -0.4619  0.6733
  416MPD2    N1 6269   1.984   3.469  11.027  0.0847 -0.2081  0.1678
  416MPD2    H7 6270   2.017   3.565  11.028  0.8751 -0.4611 -1.1076
  417TMC3    C1 6271   1.876   3.506  11.222  0.1234  0.9180  0.0292
  417TMC3    C2 6272   1.854   3.467  11.350  0.0246  0.3429 -0.1295
  417TMC3    C3 6273   1.775   3.542  11.425  0.2815  0.1134 -0.2794
  417TMC3    C4 6274   1.814   3.622  11.178  0.0312 -0.1749  0.0177
  417TMC3    C5 6275   1.737   3.692  11.267  0.1719  0.7485 -0.4393
  417TMC3    C6 6276   1.720   3.655  11.394  0.1653  0.5412 -0.4188
  417TMC3     C 6277   1.916   3.406  11.127 -0.0663  0.2333 -0.1054
  417TMC3     O 6278   1.899   3.290  11.156  0.3599 -0.5086  0.0542
  417TMC3     H 6279   1.904   3.383  11.396  0.2340  0.2354 -0.5494
  417TMC3    H1 6280   1.796   3.634  11.072 -2.2954  0.0168  0.4317
  417TMC3    H2 6281   1.667   3.711  11.470  0.1143  0.6759 -0.5534
  417TMC3    C7 6282   1.621   3.754  11.204 -0.0514 -0.4552  0.4563
  417TMC3    C8 6283   1.733   3.501  11.552  0.4433  0.0622 -0.5077
  417TMC3    O1 6284   1.635   3.843  11.123 -0.9023 -0.4478 -0.1247
  417TMC3    O2 6285   1.660   3.404  11.568 -0.1972  0.2578  0.1100
  418TMC3    C1 6286   0.925   4.320   0.057  0.8265 -0.0076  0.0307
  418TMC3    C2 6287   0.795   4.367   0.045 -0.0232 -0.3986  0.2493
  418TMC3    C3 6288   0.694   4.299   0.104 -0.1925 -0.8213 -0.2160
  418TMC3    C4 6289   0.953   4.206   0.129 -0.0024  0.0714 -0.0750
  418TMC3    C5 6290   0.851   4.146   0.194 -0.2993  0.1786  0.2159
  418TMC3    C6 6291   0.720   4.183   0.169  0.2095  0.4557 -0.0731
  418TMC3     C 6292   1.003   4.351  17.673  0.0152 -0.4738  0.1930
  418TMC3     O 6293   0.990   4.453  17.611  0.3362  0.1249 -0.0870
  418TMC3     H 6294   0.770   4.434  17.691 -0.1626 -0.0329  0.5910
  418TMC3    H1 6295   1.057   4.184   0.154 -0.1836 -1.4906 -0.7160
  418TMC3    H2 6296   0.641   4.114   0.196  0.0887  0.2186 -1.0182
  418TMC3    C7 6297   0.869   4.008   0.249 -0.1502 -0.3821 -0.8143
  418TMC3    C8 6298   0.570   4.298   0.033 -0.1985  0.6998  0.4184
  418TMC3    O1 6299   0.795   3.921   0.218 -0.0515  0.0379  0.3879
  418TMC3    O2 6300   0.531   4.403  17.720  0.0261 -0.4207  0.7633
  419MPD2     C 6301   3.876   2.841  12.165  0.0448  0.5423 -0.4117
  419MPD2    C1 6302   3.831   2.967  12.195 -0.1832  0.1135  1.2129
  419MPD2    C2 6303   3.777   2.988  12.322  0.4495  0.5589  0.0328
  419MPD2    C3 6304   3.759   2.888  12.414  0.6486 -0.5113  0.2778
  419MPD2    C4 6305   3.805   2.766  12.385  0.3113  0.5338 -0.0729
  419MPD2    C5 6306   3.869   2.740  12.263 -0.0138 -0.2699 -0.9176
  419MPD2     H 6307   3.738   3.087  12.341 -1.8592 -0.3651  0.1205
  419MPD2    H1 6308   3.809   2.687  12.459  0.5093 -0.2702 -0.9318
  419MPD2    H2 6309   3.921   2.811  12.071  1.0682  3.6433 -0.9255
  419MPD2    H3 6310   3.916   2.644  12.245  0.8485 -0.3589  1.8532
  419MPD2     N 6311   3.690   2.915  12.538 -0.3810  0.6084  1.0723
  419MPD2    H5 6312   3.638   3.002  12.549 -2.4920 -0.5262 -0.1140
  419MPD2    N1 6313   3.830   3.077  12.108 -0.2158 -0.0095 -0.1864
  419MPD2    H7 6314   3.821   3.169  12.149 -2.2631  0.7431 -2.3498
  420TMC3    C1 6315   3.640   2.910  12.766  0.0043 -0.0399  0.4614
  420TMC3    C2 6316   3.531   2.994  12.746 -0.0203 -0.8360 -0.3442
  420TMC3    C3 6317   3.498   3.073  12.848 -0.0825 -0.0957  0.5237
  420TMC3    C4 6318   3.708   2.908  12.886 -0.8352 -0.3161  0.5451
  420TMC3    C5 6319   3.672   2.994  12.983 -0.3095 -0.0938 -0.1010
  420TMC3    C6 6320   3.559   3.069  12.972 -0.2594  0.9376  0.5585
  420TMC3     C 6321   3.699   2.846  12.651  0.6433  0.3313  0.0332
  420TMC3     O 6322   3.738   2.735  12.672 -0.5421 -0.2122 -0.1255
  420TMC3     H 6323   3.496   3.003  12.643 -0.8906  0.7114  0.1005
  420TMC3    H1 6324   3.804   2.858  12.897 -1.4098 -1.7816 -0.8903
  420TMC3    H2 6325   3.521   3.135  13.049 -0.2950  0.3004  1.0790
  420TMC3    C7 6326   3.718   2.959  13.115 -0.3396  0.3116 -0.8797
  420TMC3    C8 6327   3.406   3.183  12.825  0.5287  0.4864 -0.3549
  420TMC3    O1 6328   3.780   2.856  13.132 -0.3907  0.4021 -0.6957
  420TMC3    O2 6329   3.442   3.302  12.845  0.1001  0.0260 -0.1629
  421TMC3    C1 6330   0.819   4.637  13.419 -0.5075  0.8295  0.2340
  421TMC3    C2 6331   0.870   4.713  13.521  0.1945 -1.4216  0.2004
  421TMC3    C3 6332   0.969   4.650  13.590  0.0883 -0.4958  0.3273
  421TMC3    C4 6333   0.860   4.507  13.391  0.1390  0.5066  1.0605
  421TMC3    C5 6334   0.971   4.465  13.456 -0.1285  0.5858 -0.1343
  421TMC3    C6 6335   1.024   4.535  13.562 -0.8946 -0.4380 -0.1910
  421TMC3     C 6336   0.700   4.687  13.355  0.0992 -0.2636  0.2949
  421TMC3     O 6337   0.680   0.078  13.356 -0.2018  0.4117 -0.2355
  421TMC3     H 6338   0.823   0.074  13.550  1.3006 -0.4308 -1.2265
  421TMC3    H1 6339   0.813   4.450  13.312  0.6491 -0.0544  1.1664
  421TMC3    H2 6340   1.113   4.497  13.610 -1.6166 -1.0612  0.6692
  421TMC3    C7 6341   1.035   4.338  13.438 -1.0110  0.4776  0.0190
  421TMC3    C8 6342   0.980   4.693  13.725  0.4019  0.3959 -0.8304
  421TMC3    O1 6343   1.159   4.342  13.432 -0.2847 -0.1446 -0.1223
  421TMC3    O2 6344   0.963   0.077  13.749  0.8834  0.4961  0.1984
  422TMC3    C1 6345   2.906   1.150  12.568  0.3143 -0.5177 -0.3143
  422TMC3    C2 6346   2.854   1.281  12.586  0.3102  0.6156 -0.5480
  422TMC3    C3 6347   2.793   1.311  12.700 -0.1514  0.1468 -0.3029
  422TMC3    C4 6348   2.880   1.048  12.656 -0.0015  0.1981 -0.5385
  422TMC3    C5 6349   2.807   1.087  12.767  0.0604  0.5278  0.0197
  422TMC3    C6 6350   2.774   1.217  12.797  0.2557  1.1162  0.1471
  422TMC3     C 6351   2.996   1.137  12.452  0.0871 -0.6710 -0.9428
  422TMC3     O 6352   3.074   1.227  12.439 -0.4278 -0.0714  0.4674
  422TMC3     H 6353   2.873   1.346  12.502  3.0450 -0.3017 -0.6681
  422TMC3    H1 6354   2.906   0.944  12.640 -1.5050 -0.0902 -1.0887
  422TMC3    H2 6355   2.739   1.243  12.896 -2.7810 -0.4933 -0.4848
  422TMC3    C7 6356   2.732   0.981  12.829  0.0242  0.4205  0.0972
  422TMC3    C8 6357   2.810   1.451  12.720 -0.8404  0.0465 -0.2942
  422TMC3    O1 6358   2.773   0.867  12.826 -0.4175 -0.0328  0.0558
  422TMC3    O2 6359   2.902   1.505  12.654  0.0614  0.1969  0.4335
  423MPD2     C 6360   3.856   2.041   0.362  0.5449 -0.5110  0.5518
  423MPD2    C1 6361   3.933   1.948   0.434  0.4313  0.0707 -0.2608
  423MPD2    C2 6362   3.999   1.846   0.357  0.0154 -0.6019 -0.3197
  423MPD2    C3 6363   3.985   1.845   0.216 -0.1049  0.0849 -0.0374
  423MPD2    C4 6364   3.911   1.942   0.150 -0.4851  0.3508  0.0812
  423MPD2    C5 6365   3.849   2.045   0.224  0.0739  0.3152 -0.3856
  423MPD2     H 6366   4.047   1.760   0.404  1.9707  0.6878  0.0184
  423MPD2    H1 6367   3.901   1.943   0.042  1.7491 -1.0673 -0.1282
  423MPD2    H2 6368   3.791   2.111   0.413  1.0560 -0.4373  1.1098
  423MPD2    H3 6369   3.790   2.119   0.171  2.2202  2.2380 -0.0713
  423MPD2     N 6370   4.033   1.741   0.132 -0.2513 -0.4855 -0.2233
  423MPD2    H5 6371   4.014   1.758   0.033  1.5498  1.2121 -0.2876
  423MPD2    N1 6372   3.944   1.938   0.575 -0.2709  0.2432  0.2300
  423MPD2    H7 6373   3.989   1.853   0.608 -1.9292 -1.0634 -0.8482
  424TMC3    C1 6374   3.927   1.999   0.806  0.8130  0.0877  0.3707
  424TMC3    C2 6375   3.948   1.862   0.843 -0.2387  0.6883  0.1194
  424TMC3    C3 6376   3.907   1.826   0.972  0.2070 -0.4509 -0.1383
  424TMC3    C4 6377   3.845   2.077   0.889  0.2285 -0.0432  0.0735
  424TMC3    C5 6378   3.793   2.034   1.009  0.2667 -0.1018  0.1811
  424TMC3    C6 6379   3.823   1.908   1.049  0.0329 -0.1083 -0.1763
  424TMC3     C 6380   3.931   2.042   0.662 -0.6972 -0.0353 -0.3964
  424TMC3     O 6381   3.910   2.153   0.628  0.2680  0.1086  0.2896
  424TMC3     H 6382   3.996   1.793   0.774 -0.3159  1.3839 -0.6346
  424TMC3    H1 6383   3.815   2.176   0.858  1.3686  1.5312  4.0096
  424TMC3    H2 6384   3.786   1.879   1.146 -2.4430 -0.0940 -1.1229
  424TMC3    C7 6385   3.679   2.102   1.073 -0.9012 -0.3106 -0.6038
  424TMC3    C8 6386   3.881   1.686   0.988  0.3621 -0.5504 -0.6293
  424TMC3    O1 6387   3.665   2.221   1.080 -0.0239  0.1100 -0.4136
  424TMC3    O2 6388   3.961   1.601   0.957 -0.7137  0.1735 -0.1591
  425MPD2     C 6389   3.431   1.210  17.373  0.5219 -0.3117 -0.1521
  425MPD2    C1 6390   3.341   1.114  17.393 -0.4503 -0.7607  0.2730
  425MPD2    C2 6391   3.210   1.141  17.443 -0.9314 -0.0444 -0.3902
  425MPD2    C3 6392   3.173   1.265  17.467 -0.2131 -0.2769 -0.2126
  425MPD2    C4 6393   3.265   1.367  17.453 -0.0059  0.2772 -0.1751
  425MPD2    C5 6394   3.392   1.342  17.405 -0.1289  0.1963 -0.0257
  425MPD2     H 6395   3.136   1.062  17.450  0.3414 -1.2182 -0.2280
  425MPD2    H1 6396   3.243   1.469  17.481 -0.2230  0.3178 -0.4922
  425MPD2    H2 6397   3.535   1.185  17.356  0.0792 -2.0332 -0.2708
  425MPD2    H3 6398   3.460   1.425  17.392 -0.1613  0.4464  1.3331
  425MPD2     N 6399   3.045   1.285  17.511 -0.2310 -0.2994  0.1920
  425MPD2    H5 6400   2.988   1.201  17.517 -0.9923  0.2744  1.0724
  425MPD2    N1 6401   3.375   0.977  17.373 -0.0729  0.0779  0.1296
  425MPD2    H7 6402   3.447   0.961  17.304 -0.7209  0.1702 -0.5717
  426TMC3    C1 6403   3.352   0.749  17.384  0.9491  0.0166  0.3610
  426TMC3    C2 6404   3.404   0.738  17.260  0.5603  0.5704  1.1491
  426TMC3    C3 6405   3.394   0.611  17.197 -0.2149  0.7881  0.4330
  426TMC3    C4 6406   3.302   0.646  17.459 -0.4092 -0.0355 -0.9076
  426TMC3    C5 6407   3.286   0.530  17.390  0.3036 -0.6072 -0.1272
  426TMC3    C6 6408   3.330   0.514  17.261  0.4728  0.0727 -0.8128
  426TMC3     C 6409   3.311   0.875  17.433  0.3109  0.5497 -0.8324
  426TMC3     O 6410   3.236   0.877  17.528 -0.2062 -0.0028  0.0499
  426TMC3     H 6411   3.454   0.820  17.210  0.5163  0.2475  0.5819
  426TMC3    H1 6412   3.273   0.663  17.562  1.4701  0.7029 -0.4946
  426TMC3    H2 6413   3.324   0.418  17.212  0.0559 -0.6140  0.5812
  426TMC3    C7 6414   3.241   0.410  17.452  0.0916  0.4473  0.8402
  426TMC3    C8 6415   3.415   0.594  17.060 -0.2754  0.1787 -0.9518
  426TMC3    O1 6416   3.274   0.307  17.397  0.4015 -0.1278 -0.1525
  426TMC3    O2 6417   3.472   0.498  17.014  0.4138  0.0812 -0.0235
  427MPD2     C 6418   2.030   3.136  14.589 -0.1175  0.2831 -0.1885
  427MPD2    C1 6419   1.976   3.061  14.693 -0.2524  0.5893  1.1632
  427MPD2    C2 6420   1.841   3.061  14.711  0.4793 -0.1071  0.1085
  427MPD2    C3 6421   1.754   3.145  14.643 -0.6683  0.4687 -0.2104
  427MPD2    C4 6422   1.809   3.231  14.549  0.6473  0.0406  0.8484
  427MPD2    C5 6423   1.943   3.217  14.512 -0.0801 -0.0825 -0.0698
  427MPD2     H 6424   1.805   2.994  14.787  1.0791 -0.1627  0.3444
  427MPD2    H1 6425   1.750   3.305  14.495  1.0017 -0.7322 -0.5849
  427MPD2    H2 6426   2.134   3.145  14.560  0.3252 -0.7955  1.0660
  427MPD2    H3 6427   1.995   3.265  14.430  0.9476 -0.0192  0.6015
  427MPD2     N 6428   1.614   3.153  14.655 -0.3948 -0.2883 -0.3362
  427MPD2    H5 6429   1.568   3.219  14.593 -0.1759  2.1176  2.0073
  427MPD2    N1 6430   2.063   2.975  14.774 -0.0031 -0.1579  0.4348
  427MPD2    H7 6431   2.022   2.929  14.854 -2.6276 -1.6146 -1.7445
  428TMC3    C1 6432   2.255   2.902  14.880 -0.2347  0.7283 -0.2222
  428TMC3    C2 6433   2.177   2.812  14.949  0.4600 -0.7934 -0.0994
  428TMC3    C3 6434   2.222   2.773  15.076  0.5834 -0.3191 -0.7599
  428TMC3    C4 6435   2.382   2.942  14.926 -0.2111  0.7280 -0.3702
  428TMC3    C5 6436   2.420   2.895  15.048 -0.1622  0.5162  0.0881
  428TMC3    C6 6437   2.338   2.813  15.129 -0.0239 -0.2640 -0.1893
  428TMC3     C 6438   2.199   2.969  14.764 -0.1159 -0.1839 -0.0927
  428TMC3     O 6439   2.270   3.030  14.689  0.0206 -0.0905 -0.3422
  428TMC3     H 6440   2.085   2.784  14.900 -0.0956 -1.4182  1.2985
  428TMC3    H1 6441   2.446   3.004  14.865 -0.0451 -1.2399 -2.1867
  428TMC3    H2 6442   2.373   2.768  15.222  0.8466  1.0406  0.1048
  428TMC3    C7 6443   2.548   2.937  15.105 -0.1942  1.2778 -0.0538
  428TMC3    C8 6444   2.142   2.684  15.154 -0.9900 -0.3373 -0.0787
  428TMC3    O1 6445   2.555   2.968  15.223  0.3341 -0.8899 -0.3324
  428TMC3    O2 6446   2.190   2.643  15.258  0.2486 -0.6603 -0.2228
  429MPD2     C 6447   2.759   3.200   0.155  0.4308 -0.1839  0.0791
  429MPD2    C1 6448   2.878   3.136   0.114 -0.0992  0.8076 -0.3229
  429MPD2    C2 6449   2.924   3.166  17.717  0.1108  0.1975  0.2159
  429MPD2    C3 6450   2.877   3.282  17.652 -0.7185 -0.2977  0.2530
  429MPD2    C4 6451   2.783   3.358  17.714  0.0540 -0.0023 -0.4952
  429MPD2    C5 6452   2.712   3.305   0.089 -0.0748 -0.3163  0.6358
  429MPD2     H 6453   3.004   3.112  17.667 -2.6636 -2.2904 -1.5018
  429MPD2    H1 6454   2.741   3.449  17.671  0.9594  0.1543 -1.0580
  429MPD2    H2 6455   2.692   3.159   0.229  0.5907 -1.1516 -0.3044
  429MPD2    H3 6456   2.619   3.352   0.120 -0.4934 -0.2191 -0.7361
  429MPD2     N 6457   2.933   3.311  17.526 -0.2619  0.2365  0.3630
  429MPD2    H5 6458   3.004   3.249  17.487 -1.5344  1.1149 -3.3813
  429MPD2    N1 6459   2.932   3.026   0.181  0.1601 -0.0746  0.1142
  429MPD2    H7 6460   3.014   2.985   0.138  0.2245  2.7783 -2.5006
  430TMC3    C1 6461   2.996   3.421  17.331  0.0949  0.1080  0.1585
  430TMC3    C2 6462   2.963   3.512  17.238 -0.0289 -0.1434 -0.8993
  430TMC3    C3 6463   3.062   3.568  17.170 -0.1641 -0.5749  0.1603
  430TMC3    C4 6464   3.124   3.370  17.350  0.3261 -0.3257  0.7162
  430TMC3    C5 6465   3.219   3.425  17.260  0.1554 -0.1887  0.6849
  430TMC3    C6 6466   3.195   3.532  17.173 -0.1265 -0.0285 -0.8825
  430TMC3     C 6467   2.905   3.420  17.446 -0.2748  0.1823 -0.2434
  430TMC3     O 6468   2.833   3.514  17.463 -0.0020 -0.1032  0.1831
  430TMC3     H 6469   2.861   3.547  17.230 -0.2003 -0.6368 -0.8879
  430TMC3    H1 6470   3.167   3.302  17.423 -1.1081 -1.5571  0.4190
  430TMC3    H2 6471   3.258   3.575  17.096  0.1413 -1.5770 -1.5438
  430TMC3    C7 6472   3.321   3.331  17.209 -0.4986 -0.2732  0.4309
  430TMC3    C8 6473   3.027   3.620  17.035 -0.2681 -0.6630  0.1316
  430TMC3    O1 6474   3.293   3.213  17.214  0.5343 -0.0652 -0.5268
  430TMC3    O2 6475   2.933   3.571  16.975  0.0281  0.5557  0.0905
  431MPD2     C 6476   3.565   3.607  12.574  0.2285 -0.5441 -0.6278
  431MPD2    C1 6477   3.629   3.687  12.487 -0.0191 -0.2465  0.7673
  431MPD2    C2 6478   3.666   3.637  12.367  0.3874  0.2118 -0.2949
  431MPD2    C3 6479   3.639   3.513  12.326  1.1750 -0.3030 -0.5989
  431MPD2    C4 6480   3.575   3.428  12.415 -0.2884 -0.0186 -0.0349
  431MPD2    C5 6481   3.542   3.477  12.540  0.4124  0.6657  0.0675
  431MPD2     H 6482   3.720   3.704  12.301  0.4715  1.7484  1.3451
  431MPD2    H1 6483   3.538   3.332  12.379  0.6829  0.6029 -2.6458
  431MPD2    H2 6484   3.532   3.630  12.674 -0.3011  1.4388 -1.2518
  431MPD2    H3 6485   3.498   3.405  12.608  1.2648  0.7692  0.7296
  431MPD2     N 6486   3.679   3.459  12.196 -0.5705  0.3321  0.1218
  431MPD2    H5 6487   3.634   3.370  12.178 -0.5385  0.1297  1.0438
  431MPD2    N1 6488   3.656   3.817  12.515  0.3842  0.6300 -0.0130
  431MPD2    H7 6489   3.694   3.872  12.438 -1.8024  1.3525 -0.5860
  432TMC3    C1 6490   3.796   3.440  11.996 -0.1352 -0.0833 -0.7481
  432TMC3    C2 6491   3.887   3.492  11.918 -0.2202 -0.5002  0.2798
  432TMC3    C3 6492   3.968   3.404  11.856  0.2240 -0.1517 -0.1605
  432TMC3    C4 6493   3.779   3.304  12.005 -0.5415 -0.6793 -0.5479
  432TMC3    C5 6494   3.855   3.219  11.933  0.7150  0.0356 -0.7190
  432TMC3    C6 6495   3.959   3.267  11.860 -0.4439  0.3868 -0.2886
  432TMC3     C 6496   3.756   3.525  12.105  0.6052  0.1514 -0.4175
  432TMC3     O 6497   3.800   3.640  12.103  0.0134  0.4398  0.2061
  432TMC3     H 6498   3.909   3.597  11.901 -1.8989 -0.6719 -2.8908
  432TMC3    H1 6499   3.698   3.262  12.063  0.3278 -0.0403  1.1454
  432TMC3    H2 6500   4.029   3.204  11.806 -1.0285 -0.9286  0.4777
  432TMC3    C7 6501   3.882   3.082  11.983  0.1404 -1.1227 -0.6961
  432TMC3    C8 6502   4.079   3.469  11.794 -0.4619 -0.3435 -0.2597
  432TMC3    O1 6503   3.946   2.999  11.922 -0.6796 -0.6690 -0.3073
  432TMC3    O2 6504   4.061   3.581  11.743 -0.4741  0.0201  0.3297
  433MPD2     C 6505   2.684   2.612  10.562 -0.0043  0.8658  0.1484
  433MPD2    C1 6506   2.669   2.493  10.632  0.1132  0.0288 -0.2548
  433MPD2    C2 6507   2.716   2.490  10.766  0.5270  0.6865  0.4551
  433MPD2    C3 6508   2.776   2.596  10.825  0.0643 -0.3797  0.1428
  433MPD2    C4 6509   2.809   2.701  10.740 -0.0741 -0.8490  0.1649
  433MPD2    C5 6510   2.752   2.712  10.617 -0.3110 -0.3265 -0.7148
  433MPD2     H 6511   2.718   2.398  10.823  0.1282 -0.4114 -1.2996
  433MPD2    H1 6512   2.880   2.771  10.784  1.0372 -0.2772 -2.5627
  433MPD2    H2 6513   2.642   2.614  10.463  2.4043  0.7812 -0.8919
  433MPD2    H3 6514   2.783   2.797  10.557  0.6111 -0.3387 -0.2531
  433MPD2     N 6515   2.830   2.581  10.960 -0.0450  0.5356  0.2821
  433MPD2    H5 6516   2.799   2.497  11.008  0.3586  0.0586 -0.2860
  433MPD2    N1 6517   2.620   2.382  10.569 -0.1604 -0.0255  0.7662
  433MPD2    H7 6518   2.596   2.393  10.471  0.1622  3.8023  1.0924
  434TMC3    C1 6519   2.592   2.142  10.544 -0.3608  0.3237 -0.0802
  434TMC3    C2 6520   2.699   2.055  10.544  0.2776 -0.2766 -0.1023
  434TMC3    C3 6521   2.676   1.918  10.559 -0.1213 -0.2254  0.9488
  434TMC3    C4 6522   2.464   2.090  10.539  1.1364  0.1370 -0.1140
  434TMC3    C5 6523   2.452   1.952  10.545  0.2905  0.8315 -1.1601
  434TMC3    C6 6524   2.554   1.861  10.559 -0.5458  1.0367 -0.4222
  434TMC3     C 6525   2.618   2.254  10.629  0.4282  0.0061 -0.4610
  434TMC3     O 6526   2.630   2.224  10.747 -0.2522 -1.0118 -0.7256
  434TMC3     H 6527   2.800   2.088  10.566 -0.1061  1.3629 -0.7738
  434TMC3    H1 6528   2.373   2.148  10.536  0.6776 -0.7022 -2.2030
  434TMC3    H2 6529   2.528   1.756  10.559  0.0308  0.9005  0.2532
  434TMC3    C7 6530   2.325   1.894  10.493 -0.5934 -0.0004  0.7315
  434TMC3    C8 6531   2.786   1.833  10.597  0.7155  0.1791 -0.5340
  434TMC3    O1 6532   2.278   1.958  10.401  0.0929  0.3076  0.1442
  434TMC3    O2 6533   2.897   1.878  10.610  0.2215  0.2266  0.1911
  435MPD2     C 6534   0.252   1.821  15.333 -0.0184 -0.0966 -0.2744
  435MPD2    C1 6535   0.180   1.787  15.444 -0.0496 -0.2389 -0.1703
  435MPD2    C2 6536   0.248   1.740  15.552  0.8470 -0.2241  0.2354
  435MPD2    C3 6537   0.388   1.733  15.554 -0.1074  0.6040 -0.3377
  435MPD2    C4 6538   0.463   1.780  15.444 -1.1393  0.1623 -0.2358
  435MPD2    C5 6539   0.392   1.818  15.335 -0.3964  0.3113 -0.2092
  435MPD2     H 6540   0.186   1.722  15.639 -1.1029 -1.8800 -1.5262
  435MPD2    H1 6541   0.571   1.773  15.435 -0.7969  2.3675  2.0888
  435MPD2    H2 6542   0.200   1.849  15.243 -0.4708 -2.6563 -0.8089
  435MPD2    H3 6543   0.437   1.854  15.243 -0.2297 -3.3295 -1.5173
  435MPD2     N 6544   0.446   1.677  15.672  0.1103 -0.0435 -0.1421
  435MPD2    H5 6545   0.385   1.657  15.750 -0.3905  1.0310 -0.2565
  435MPD2    N1 6546   0.043   1.794  15.455 -0.3665 -0.1990 -0.9244
  435MPD2    H7 6547   0.017   1.747  15.542 -1.4558  0.7632 -0.7315
  436TMC3    C1 6548   4.416   1.970  15.594  0.3113 -0.0534 -0.2901
  436TMC3    C2 6549   4.544   1.927  15.554 -0.4870  0.3183 -1.2703
  436TMC3    C3 6550   4.555   1.877  15.427  0.9089  0.0524 -0.1358
  436TMC3    C4 6551   4.302   1.976  15.519  0.0653 -0.5235  0.6132
  436TMC3    C5 6552   4.318   1.923  15.394 -0.5231 -0.0952  0.1347
  436TMC3    C6 6553   4.442   1.879  15.351 -0.4444 -0.0802 -0.3757
  436TMC3     C 6554   4.417   2.021  15.728  0.2995 -0.5439 -0.5110
  436TMC3     O 6555   4.526   2.019  15.788  0.5052  0.8648 -0.1816
  436TMC3     H 6556   4.632   1.942  15.616 -2.1210  0.0457  1.1049
  436TMC3    H1 6557   4.208   2.020  15.550 -0.1152  0.0218 -0.7328
  436TMC3    H2 6558   4.444   1.828  15.255  0.6993 -0.9826  0.1203
  436TMC3    C7 6559   4.197   1.873  15.329  0.6986 -0.6465 -0.2561
  436TMC3    C8 6560   4.681   1.844  15.368  0.0740 -0.7128  0.1183
  436TMC3    O1 6561   4.101   1.882  15.401 -0.0832  0.3546  0.1077
  436TMC3    O2 6562   4.698   1.887  15.254  0.8566 -0.5528 -0.1207
  437TMC3    C1 6563   3.233   4.701  12.561  0.2010 -0.3216  0.1498
  437TMC3    C2 6564   3.132   4.704  12.464 -0.2759 -0.0593  0.4642
  437TMC3    C3 6565   3.175   4.704  12.335  0.1498 -0.2362 -0.7038
  437TMC3    C4 6566   3.369   4.718  12.526 -0.1175  0.2912  0.2591
  437TMC3    C5 6567   3.408   4.717  12.393  0.5922 -0.1404 -0.1988
  437TMC3    C6 6568   3.308   4.705  12.298  0.2517 -0.0561  0.4605
  437TMC3     C 6569   3.188   4.672  12.695 -0.0752 -0.3205  0.5578
  437TMC3     O 6570   3.073   4.691  12.728 -0.3724 -0.3536  0.2233
  437TMC3     H 6571   3.036   4.660  12.490  0.1536 -1.9183 -1.0989
  437TMC3    H1 6572   3.443   4.722  12.605  1.0883  0.1096 -0.8849
  437TMC3    H2 6573   3.335   4.703  12.193 -3.0795  0.5689 -0.4244
  437TMC3    C7 6574   3.543   4.701  12.346  0.3068 -0.2263  0.6138
  437TMC3    C8 6575   3.071   4.684  12.240  0.1492  0.5788 -0.6449
  437TMC3    O1 6576   3.557   0.019  12.236 -0.2010 -0.0598 -0.0729
  437TMC3    O2 6577   3.098   4.614  12.147  0.3592 -0.0306  0.6085
  438MPD2     C 6578   1.321   4.341  16.460 -0.3730 -0.7015 -0.0229
  438MPD2    C1 6579   1.413   4.278  16.536 -0.1222  0.3423  0.1153
  438MPD2    C2 6580   1.383   4.229  16.660  0.4531 -0.4564 -0.3483
  438MPD2    C3 6581   1.254   4.243  16.712 -0.0150 -0.6893  0.0391
  438MPD2    C4 6582   1.164   4.326  16.650  0.1707 -0.8880  0.7680
  438MPD2    C5 6583   1.196   4.372  16.521  0.3027  0.3436  0.4922
  438MPD2     H 6584   1.457   4.179  16.721  0.5822  1.5899  1.1641
  438MPD2    H1 6585   1.062   4.331  16.687 -0.2355  0.4279 -0.5133
  438MPD2    H2 6586   1.333   4.390  16.364  0.6395 -1.0116 -0.0517
  438MPD2    H3 6587   1.133   4.437  16.461  0.6159  0.7355  0.5907
  438MPD2     N 6588   1.207   4.186  16.831  0.0783  0.2907 -0.3607
  438MPD2    H5 6589   1.115   4.213  16.863  0.0030 -0.8081  0.3774
  438MPD2    N1 6590   1.545   4.261  16.496 -1.1143  0.5098  0.7262
  438MPD2    H7 6591   1.622   4.227  16.551 -2.1200 -1.4025  0.9457
  439TMC3    C1 6592   1.720   4.247  16.336  0.3834  0.1836 -0.2385
  439TMC3    C2 6593   1.742   4.182  16.216  0.3452 -0.4121  0.0130
  439TMC3    C3 6594   1.850   4.096  16.201  0.0124  0.2718 -0.0818
  439TMC3    C4 6595   1.809   4.241  16.440 -0.3581  0.8193 -0.3151
  439TMC3    C5 6596   1.921   4.163  16.421  0.4449 -0.1683 -0.5063
  439TMC3    C6 6597   1.942   4.082  16.311 -0.2681  0.4588  0.7209
  439TMC3     C 6598   1.582   4.278  16.362 -0.0011 -0.1176  0.7097
  439TMC3     O 6599   1.507   4.270  16.270  0.3823  0.5453  0.3118
  439TMC3     H 6600   1.674   4.198  16.133  2.9312  2.1011 -1.6153
  439TMC3    H1 6601   1.808   4.304  16.528 -1.0842 -0.6360  0.7103
  439TMC3    H2 6602   2.016   4.004  16.311  0.2165  0.9184  0.5399
  439TMC3    C7 6603   2.023   4.187  16.512 -0.2974  0.0155 -0.3543
  439TMC3    C8 6604   1.895   4.039  16.080 -0.4428  0.2801  0.1400
  439TMC3    O1 6605   2.001   4.212  16.628  0.1682 -0.0319 -0.2029
  439TMC3    O2 6606   2.004   3.984  16.082  0.2755 -0.4556 -0.4585
  440MPD2     C 6607   0.136   4.715  14.628 -0.2559  0.4402 -0.5244
  440MPD2    C1 6608   0.198   0.082  14.711  0.1707 -0.2484  0.1015
  440MPD2    C2 6609   0.266   0.045  14.824 -0.5338  0.0031 -0.0907
  440MPD2    C3 6610   0.271   4.644  14.867  0.2180 -0.5220 -0.3939
  440MPD2    C4 6611   0.211   4.550  14.787 -0.1386  0.2222 -0.3541
  440MPD2    C5 6612   0.140   4.593  14.675  0.3394  0.3592  0.2336
  440MPD2     H 6613   0.296   0.124  14.891 -1.3071  0.9461 -0.8643
  440MPD2    H1 6614   0.231   4.445  14.803  1.0298  0.2395 -1.6702
  440MPD2    H2 6615   0.073   0.009  14.544 -0.6367  0.3177 -0.2800
  440MPD2    H3 6616   0.093   4.518  14.612  0.3415  0.4872  0.0768
  440MPD2     N 6617   0.326   4.609  14.988  0.0607 -0.0781  0.6131
  440MPD2    H5 6618   0.296   4.517  15.018 -0.8066 -0.1559 -0.4911
  440MPD2    N1 6619   0.181   0.221  14.689  0.0995 -0.2959 -0.0478
  440MPD2    H7 6620   0.208   0.282  14.765  0.4167 -0.8856  0.3088
  441TMC3    C1 6621   0.465   4.630  15.183 -0.2468  0.2112 -0.1982
  441TMC3    C2 6622   0.545   4.717  15.259 -0.1727 -0.1897  0.4300
  441TMC3    C3 6623   0.550   4.697  15.394 -0.1745 -0.0024  0.1671
  441TMC3    C4 6624   0.389   4.533  15.244  0.7810 -0.6628  0.7115
  441TMC3    C5 6625   0.405   4.507  15.373 -0.3582 -0.1148  0.0598
  441TMC3    C6 6626   0.491   4.588  15.447 -0.3049  0.5212 -0.0816
  441TMC3     C 6627   0.416   4.686  15.056  0.6267 -0.3386  0.5149
  441TMC3     O 6628   0.474   0.055  15.019  0.1843 -0.2682 -0.3526
  441TMC3     H 6629   0.604   0.064  15.215 -2.4921  0.5036 -1.4000
  441TMC3    H1 6630   0.312   4.479  15.191 -0.7781  2.7449 -0.4637
  441TMC3    H2 6631   0.480   4.580  15.555 -0.7099  2.1948 -0.0007
  441TMC3    C7 6632   0.298   4.433  15.443  0.1395 -0.2773  0.6760
  441TMC3    C8 6633   0.518   0.085  15.475  0.0824  0.6812 -0.0508
  441TMC3    O1 6634   0.185   4.448  15.399  0.0613  0.1511  0.6632
  441TMC3    O2 6635   0.494   0.059  15.593 -0.3266  0.5476  0.1013
  442MPD2     C 6636   3.143   0.946  16.426  0.1754 -0.1866 -0.4992
  442MPD2    C1 6637   3.074   0.847  16.489  0.5359 -1.0004 -0.1646
  442MPD2    C2 6638   3.067   0.719  16.432 -0.0133 -0.6125 -0.0337
  442MPD2    C3 6639   3.140   0.696  16.314 -0.0748 -0.0214  0.8178
  442MPD2    C4 6640   3.217   0.793  16.261  0.0573 -0.0092 -0.8104
  442MPD2    C5 6641   3.216   0.923  16.317 -0.0062  0.1226 -0.2917
  442MPD2     H 6642   3.010   0.645  16.487 -0.5215 -0.7369 -0.7171
  442MPD2    H1 6643   3.292   0.779  16.184 -0.4158  2.7976 -1.8007
  442MPD2    H2 6644   3.155   1.047  16.463 -0.2579 -0.1108 -0.5634
  442MPD2    H3 6645   3.274   0.995  16.260 -0.2375  2.4950  2.4851
  442MPD2     N 6646   3.141   0.575  16.245  0.6673 -0.5214 -0.2310
  442MPD2    H5 6647   3.208   0.560  16.171  1.4203  0.1058  0.3135
  442MPD2    N1 6648   3.001   0.871  16.608 -0.3526 -0.2325  0.8099
  442MPD2    H7 6649   2.957   0.789  16.650 -2.8796  0.4370 -0.5351
  443TMC3    C1 6650   2.899   0.985  16.780 -1.3462  0.0472  0.5364
  443TMC3    C2 6651   2.800   1.082  16.794 -0.5361  0.1776 -0.3652
  443TMC3    C3 6652   2.696   1.052  16.877  0.3112 -0.0041 -0.2000
  443TMC3    C4 6653   2.891   0.862  16.847 -0.4062  0.3190  0.0563
  443TMC3    C5 6654   2.790   0.841  16.939  0.0090  0.1949  0.7643
  443TMC3    C6 6655   2.696   0.942  16.951  0.9418  0.1965 -0.9416
  443TMC3     C 6656   2.981   0.996  16.668 -0.6758 -0.1551 -0.2203
  443TMC3     O 6657   3.006   1.112  16.631 -0.2279 -0.4228  0.4209
  443TMC3     H 6658   2.807   1.171  16.732  0.4706 -0.4333 -1.1363
  443TMC3    H1 6659   2.950   0.772  16.836  2.5704  2.3155 -0.1883
  443TMC3    H2 6660   2.602   0.917  17.000  1.6490  0.1221  0.3743
  443TMC3    C7 6661   2.747   0.708  16.973  0.6114  0.6109  0.5863
  443TMC3    C8 6662   2.577   1.047  16.793 -0.0266  0.5660  0.1672
  443TMC3    O1 6663   2.800   0.617  16.911  0.2498 -0.2171 -0.8745
  443TMC3    O2 6664   2.470   1.078  16.844 -0.0596  0.5059  0.4439
  444MPD2     C 6665   3.090   0.492  16.859 -0.7805  0.0540 -0.1046
  444MPD2    C1 6666   3.069   0.359  16.899 -0.4166 -0.1085 -0.1834
  444MPD2    C2 6667   3.106   0.257  16.815  0.6198  0.2436 -0.5726
  444MPD2    C3 6668   3.163   0.282  16.689 -0.2715  0.6449 -0.3190
  444MPD2    C4 6669   3.168   0.412  16.645 -0.4028 -0.6884 -0.6096
  444MPD2    C5 6670   3.127   0.516  16.729  0.3412  0.0171  0.7310
  444MPD2     H 6671   3.098   0.157  16.856  2.8711  0.7039  0.9402
  444MPD2    H1 6672   3.216   0.437  16.550  1.9611 -3.1672 -0.0629
  444MPD2    H2 6673   3.060   0.573  16.925 -0.7791  0.5362 -0.6990
  444MPD2    H3 6674   3.138   0.618  16.697  0.2800 -0.0668  0.4395
  444MPD2     N 6675   3.201   0.173  16.617 -0.3546  0.0323  0.3040
  444MPD2    H5 6676   3.198   0.084  16.665  3.6023 -1.5495 -2.4692
  444MPD2    N1 6677   3.017   0.320  17.029  0.3573  0.2759  0.0475
  444MPD2    H7 6678   3.000   0.220  17.032  0.0271  0.3413  0.3614
  445TMC3    C1 6679   3.311   0.036  16.470  0.4050  0.3229 -0.7958
  445TMC3    C2 6680   3.294   4.724  16.339  0.4362 -0.3473  0.4143
  445TMC3    C3 6681   3.341   4.597  16.314 -0.2513  0.1657 -0.4559
  445TMC3    C4 6682   3.397   4.711  16.556  0.6627  0.1237  0.2149
  445TMC3    C5 6683   3.453   4.596  16.521 -0.6630  0.1433 -0.4842
  445TMC3    C6 6684   3.412   4.526  16.409 -0.0724  0.4247  0.2910
  445TMC3     C 6685   3.266   0.174  16.494 -0.0342 -0.7683  0.2043
  445TMC3     O 6686   3.291   0.261  16.411 -0.0271 -0.0196 -0.0668
  445TMC3     H 6687   3.225   0.049  16.278  0.4770 -0.1555  0.5485
  445TMC3    H1 6688   3.412   0.020  16.655 -0.4196 -0.1483  0.4875
  445TMC3    H2 6689   3.441   4.423  16.401 -0.8437  0.3034 -1.1066
  445TMC3    C7 6690   3.579   4.560  16.589  0.0251  0.6595 -0.1590
  445TMC3    C8 6691   3.284   4.528  16.190  0.0399 -0.0350  0.2257
  445TMC3    O1 6692   3.606   4.621  16.694  0.3455  0.5853  0.1699
  445TMC3    O2 6693   3.212   4.594  16.119  0.1153 -0.1661 -1.1632
  446MPD2     C 6694   2.440   1.750  10.924  0.2478 -0.0862  0.4175
  446MPD2    C1 6695   2.416   1.885  10.915 -0.7143  0.1261 -0.6326
  446MPD2    C2 6696   2.520   1.972  10.904  0.6526  0.8800 -0.6976
  446MPD2    C3 6697   2.651   1.930  10.918 -0.1070  1.0306  0.1826
  446MPD2    C4 6698   2.674   1.797  10.930  0.6123  0.0198  0.0165
  446MPD2    C5 6699   2.569   1.711  10.927  0.5240 -0.1981 -0.7193
  446MPD2     H 6700   2.493   2.075  10.880 -1.1389 -0.1480 -3.0970
  446MPD2    H1 6701   2.774   1.755  10.933  0.3730 -0.5724 -0.2325
  446MPD2    H2 6702   2.366   1.672  10.912  0.0702 -0.1077  1.7198
  446MPD2    H3 6703   2.587   1.604  10.925 -1.7522 -0.5465 -1.7079
  446MPD2     N 6704   2.753   2.028  10.924  0.3364  0.2534  0.1937
  446MPD2    H5 6705   2.728   2.126  10.919 -0.9462 -0.0852 -0.0239
  446MPD2    N1 6706   2.281   1.940  10.903  0.4223  0.6249 -0.6300
  446MPD2    H7 6707   2.274   2.035  10.868 -1.2919  0.3861 -0.9533
  447TMC3    C1 6708   2.968   2.130  10.941  0.0816  0.2366 -0.0859
  447TMC3    C2 6709   2.961   2.197  10.826  0.8893 -0.3984 -0.7216
  447TMC3    C3 6710   3.058   2.294  10.798 -0.4814  0.0174  1.4941
  447TMC3    C4 6711   3.071   2.155  11.028  0.8493  0.3202  0.2596
  447TMC3    C5 6712   3.155   2.258  11.000 -0.3772 -0.2890  0.8243
  447TMC3    C6 6713   3.153   2.330  10.892 -0.1130 -0.2125 -0.2589
  447TMC3     C 6714   2.883   2.005  10.965 -0.0903 -0.6160  0.3737
  447TMC3     O 6715   2.944   1.905  11.002  0.1575  0.2232  0.4576
  447TMC3     H 6716   2.878   2.166  10.763  0.3126 -0.1372 -0.0972
  447TMC3    H1 6717   3.100   2.084  11.105  0.9138  0.8560  0.7251
  447TMC3    H2 6718   3.223   2.412  10.880  0.9839 -0.9206  1.2375
  447TMC3    C7 6719   3.292   2.240  11.052 -0.3519 -0.0490  0.4115
  447TMC3    C8 6720   3.047   2.363  10.681  0.7392 -1.1168 -0.1688
  447TMC3    O1 6721   3.393   2.274  10.992 -0.1077  0.5746  0.0038
  447TMC3    O2 6722   2.972   2.317  10.596 -0.4731 -0.0826  0.5661
  448TMC3    C1 6723   1.838   1.209  16.476 -0.5827 -0.1271  0.1453
  448TMC3    C2 6724   1.720   1.144  16.494 -0.4192  0.5171 -0.4507
  448TMC3    C3 6725   1.695   1.062  16.603 -0.1508  0.1038 -1.2206
  448TMC3    C4 6726   1.943   1.195  16.563  1.0303  0.9889  0.0680
  448TMC3    C5 6727   1.920   1.117  16.670 -0.9317 -0.3275 -0.5839
  448TMC3    C6 6728   1.798   1.053  16.695  0.2280  0.3498  0.2197
  448TMC3     C 6729   1.848   1.294  16.361  0.5449 -0.2240  0.3187
  448TMC3     O 6730   1.739   1.317  16.309 -0.5153  0.0266 -0.3072
  448TMC3     H 6731   1.642   1.160  16.421 -0.5420  1.3345 -0.1455
  448TMC3    H1 6732   2.041   1.240  16.552  0.8543  1.3740  0.1070
  448TMC3    H2 6733   1.778   1.011  16.793 -1.1976 -1.3189 -0.7811
  448TMC3    C7 6734   2.036   1.047  16.730 -0.3843  0.1971  0.3563
  448TMC3    C8 6735   1.604   0.945  16.594 -0.0315 -0.1822 -0.0740
  448TMC3    O1 6736   2.139   1.113  16.754  0.1262  0.5379 -0.0744
  448TMC3    O2 6737   1.623   0.859  16.680  0.0859  0.2750 -0.1901
  449MPD2     C 6738   2.444   0.125  13.912  0.2960  0.1703 -1.5662
  449MPD2    C1 6739   2.340   0.177  13.843  0.2782 -0.3482 -0.2698
  449MPD2    C2 6740   2.232   0.092  13.814  0.2782  0.4481  0.0547
  449MPD2    C3 6741   2.225   4.700  13.859  0.3884  0.1718 -1.0519
  449MPD2    C4 6742   2.323   4.652  13.938 -0.2346 -0.3687 -0.2408
  449MPD2    C5 6743   2.432   0.002  13.966  0.6392  0.2585  0.4594
  449MPD2     H 6744   2.153   0.138  13.756 -1.8887 -1.8384  1.2119
  449MPD2    H1 6745   2.310   4.561  13.995 -1.3751 -0.7621 -1.1174
  449MPD2    H2 6746   2.537   0.179  13.926 -0.1555  0.3532  0.8306
  449MPD2    H3 6747   2.513   4.705  14.031  0.8696  0.7153  0.3813
  449MPD2     N 6748   2.110   4.628  13.821 -0.5340  0.1300  0.4363
  449MPD2    H5 6749   2.032   4.681  13.781 -1.7774 -2.3715 -0.4425
  449MPD2    N1 6750   2.339   0.309  13.787  0.4482  0.0439 -0.3603
  449MPD2    H7 6751   2.249   0.340  13.752  0.0509 -0.3195  0.3417
  450TMC3    C1 6752   2.397   0.532  13.750  0.4599 -0.5994 -0.0882
  450TMC3    C2 6753   2.461   0.551  13.631  0.1376 -0.3867 -0.3041
  450TMC3    C3 6754   2.382   0.565  13.524  0.0300  0.4755  0.0193
  450TMC3    C4 6755   2.256   0.535  13.753 -0.1142 -0.1341 -0.2493
  450TMC3    C5 6756   2.173   0.557  13.636 -0.4800 -0.7995 -0.4091
  450TMC3    C6 6757   2.243   0.573  13.523 -1.0071  0.0631 -1.0089
  450TMC3     C 6758   2.440   0.399  13.792  0.2879  0.1362 -0.5569
  450TMC3     O 6759   2.560   0.379  13.805 -0.2682  0.1271  0.1983
  450TMC3     H 6760   2.569   0.545  13.630  0.3288  2.3126  1.7686
  450TMC3    H1 6761   2.210   0.507  13.847  0.1383  0.9748  0.1992
  450TMC3    H2 6762   2.193   0.581  13.428 -1.3633 -0.5137 -0.8727
  450TMC3    C7 6763   2.053   0.468  13.624 -0.1928  0.0884 -0.6015
  450TMC3    C8 6764   2.435   0.535  13.394 -0.8466  0.0079 -0.0804
  450TMC3    O1 6765   2.044   0.388  13.716  0.2256  0.5889  0.4105
  450TMC3    O2 6766   2.371   0.566  13.293  0.0845 -0.2202 -0.0647
  451MPD2     C 6767   3.467   2.685   1.511 -0.7293  0.9169  0.8398
  451MPD2    C1 6768   3.543   2.762   1.426  0.1104 -0.3925 -0.0043
  451MPD2    C2 6769   3.587   2.701   1.306  0.1070 -0.0838  0.0270
  451MPD2    C3 6770   3.547   2.582   1.266 -0.0407 -0.2604 -0.6562
  451MPD2    C4 6771   3.466   2.511   1.345  0.4624  0.1133  0.4830
  451MPD2    C5 6772   3.430   2.563   1.468 -0.2945 -0.7157  0.8204
  451MPD2     H 6773   3.649   2.755   1.235  0.5340  2.2868  2.1751
  451MPD2    H1 6774   3.443   2.414   1.301 -0.6907  0.8346 -0.4889
  451MPD2    H2 6775   3.426   2.715   1.607 -1.7281 -0.3635  0.8152
  451MPD2    H3 6776   3.373   2.504   1.538  0.3667 -1.9428  0.3380
  451MPD2     N 6777   3.598   2.523   1.143  0.3228 -0.4355 -0.1282
  451MPD2    H5 6778   3.565   2.429   1.122  0.3843 -0.1360 -1.5773
  451MPD2    N1 6779   3.574   2.889   1.474  0.1028  0.0187 -0.3184
  451MPD2    H7 6780   3.521   2.926   1.553  0.7990  2.7255 -1.1157
  452TMC3    C1 6781   3.724   2.490   0.932 -0.0365 -0.5003  0.0342
  452TMC3    C2 6782   3.635   2.398   0.880 -0.5029 -0.1927 -0.0524
  452TMC3    C3 6783   3.646   2.359   0.748  0.4970  0.1148 -0.1008
  452TMC3    C4 6784   3.829   2.536   0.858 -0.0593  0.6260 -0.2927
  452TMC3    C5 6785   3.842   2.479   0.727 -0.3067  0.5300 -0.1139
  452TMC3    C6 6786   3.750   2.399   0.673  0.0413  0.4370  0.5038
  452TMC3     C 6787   3.701   2.568   1.063  0.4715 -0.0409  0.4988
  452TMC3     O 6788   3.774   2.668   1.070 -0.4517 -0.2933  0.1756
  452TMC3     H 6789   3.556   2.368   0.948  0.4981 -3.1322 -0.1654
  452TMC3    H1 6790   3.890   2.617   0.896  0.4473  0.3171 -0.4510
  452TMC3    H2 6791   3.756   2.365   0.570 -3.1703 -0.7639  0.7042
  452TMC3    C7 6792   3.947   2.542   0.645 -0.0245 -0.2413 -0.2940
  452TMC3    C8 6793   3.563   2.253   0.693  0.1874  0.0069  0.5826
  452TMC3    O1 6794   3.971   2.664   0.645  0.5275  0.4669 -0.4745
  452TMC3    O2 6795   3.584   2.224   0.576  0.6636 -1.0522  0.4447
  453TMC3    C1 6796   0.195   0.882  11.608 -0.8634 -0.7747  0.2998
  453TMC3    C2 6797   0.097   0.788  11.626 -0.2581 -1.0609  0.7644
  453TMC3    C3 6798   4.706   0.841  11.649  0.4975  0.2841 -0.0147
  453TMC3    C4 6799   0.176   1.019  11.611  0.0923 -0.3699  0.1785
  453TMC3    C5 6800   0.052   1.067  11.638  0.1046  1.0026  0.0816
  453TMC3    C6 6801   4.686   0.980  11.664  0.2666  0.6006 -0.0693
  453TMC3     C 6802   0.340   0.833  11.612  0.0970 -0.1616 -0.2231
  453TMC3     O 6803   0.423   0.918  11.582 -0.1662  0.0501 -0.0138
  453TMC3     H 6804   0.122   0.685  11.606 -0.4424 -1.1381  0.9311
  453TMC3    H1 6805   0.255   1.086  11.581 -0.6615  1.1497  1.5862
  453TMC3    H2 6806   4.583   1.007  11.683  0.2510  1.6668 -1.7074
  453TMC3    C7 6807   0.022   1.199  11.600 -0.1567 -0.1526  0.0727
  453TMC3    C8 6808   4.595   0.756  11.694 -0.8049 -0.3772 -0.1254
  453TMC3    O1 6809   0.097   1.261  11.528 -0.0153  0.3089 -0.1137
  453TMC3    O2 6810   4.480   0.789  11.684  0.6410  0.4260  0.0338
  454MPD2     C 6811   3.976   4.586  16.263 -0.2780  0.3533 -0.1499
  454MPD2    C1 6812   3.974   4.680  16.158  0.7623 -0.2407  0.0651
  454MPD2    C2 6813   3.985   0.078  16.190 -0.2038  0.3693  0.6304
  454MPD2    C3 6814   3.982   0.125  16.320 -0.5523 -0.6351 -1.3756
  454MPD2    C4 6815   3.983   0.031  16.421  0.5227 -0.5922  0.1325
  454MPD2    C5 6816   3.989   4.631  16.392  0.2066 -0.8190  0.0399
  454MPD2     H 6817   3.992   0.146  16.105 -0.1485  0.9892  1.1297
  454MPD2    H1 6818   3.989   0.058  16.526  0.4461  0.5828 -0.1667
  454MPD2    H2 6819   3.978   4.480  16.238 -0.3775  0.4549 -0.5812
  454MPD2    H3 6820   3.999   4.559  16.473  0.2808 -0.0923  0.6740
  454MPD2     N 6821   3.942   0.259  16.351  0.0343 -0.5526 -0.3006
  454MPD2    H5 6822   3.921   0.280  16.447  0.3446  0.6988 -0.4947
  454MPD2    N1 6823   3.960   4.653  16.024 -0.1422  0.0694 -0.7138
  454MPD2    H7 6824   3.955   0.004  15.966 -2.1180  1.1546  1.0080
  455TMC3    C1 6825   3.807   0.429  16.289 -0.0286  0.2514  0.0193
  455TMC3    C2 6826   3.794   0.491  16.414  0.0653 -0.6436  0.3021
  455TMC3    C3 6827   3.664   0.527  16.448 -0.2326 -0.4821 -0.1264
  455TMC3    C4 6828   3.710   0.379  16.216 -0.7753  0.1223  0.0157
  455TMC3    C5 6829   3.583   0.410  16.255 -0.6680  0.0343  0.2867
  455TMC3    C6 6830   3.560   0.485  16.368 -0.1284 -0.7558  0.8249
  455TMC3     C 6831   3.926   0.362  16.261 -0.5358  0.2450 -0.0917
  455TMC3     O 6832   3.969   0.374  16.147  0.0997  0.3084  0.0419
  455TMC3     H 6833   3.882   0.510  16.475  0.5909  0.8913 -0.9323
  455TMC3    H1 6834   3.736   0.334  16.121 -2.4185  2.2525 -1.4519
  455TMC3    H2 6835   3.458   0.510  16.394 -0.7446 -0.8791 -1.4997
  455TMC3    C7 6836   3.474   0.379  16.166  0.4305  0.1426 -0.0475
  455TMC3    C8 6837   3.632   0.584  16.580  0.4244 -0.5984 -0.1907
  455TMC3    O1 6838   3.399   0.475  16.152 -0.5678  0.3160 -0.5008
  455TMC3    O2 6839   3.680   0.536  16.684  0.4030  0.0800 -0.4605
  456MPD2     C 6840   1.671   4.439  15.858  0.3247 -0.4034  0.1403
  456MPD2    C1 6841   1.770   4.423  15.950  0.0462  0.1754 -0.1055
  456MPD2    C2 6842   1.761   4.483  16.076 -0.5959  0.3759  0.2038
  456MPD2    C3 6843   1.644   4.552  16.113  0.3517 -0.1751  0.0003
  456MPD2    C4 6844   1.543   4.557  16.014 -0.1765  0.2740 -0.5807
  456MPD2    C5 6845   1.557   4.504  15.887  0.5959  0.4058  0.2994
  456MPD2     H 6846   1.846   4.478  16.143 -0.5146  0.3032  0.0933
  456MPD2    H1 6847   1.449   4.603  16.040  0.6340  1.1187  0.8242
  456MPD2    H2 6848   1.674   4.398  15.758  0.4613 -1.3929  0.5543
  456MPD2    H3 6849   1.473   4.506  15.818  1.3566 -2.0243 -0.6968
  456MPD2     N 6850   1.642   4.620  16.243  0.1008  0.2479 -0.6365
  456MPD2    H5 6851   1.716   4.600  16.310 -0.6041  0.8904  0.3299
  456MPD2    N1 6852   1.884   4.362  15.897  0.3110  0.4081 -0.1992
  456MPD2    H7 6853   1.888   4.345  15.797 -0.0577 -0.8744  0.0050
  457TMC3    C1 6854   1.575   0.050  16.404  0.3076 -0.7519  0.6020
  457TMC3    C2 6855   1.547   0.179  16.394 -0.0190 -0.2704  0.2993
  457TMC3    C3 6856   1.595   0.262  16.494  0.2768 -0.0206  0.1334
  457TMC3    C4 6857   1.638   4.723  16.511 -0.5608 -0.1586  0.2781
  457TMC3    C5 6858   1.683   0.077  16.608  0.3410 -0.0932 -0.6749
  457TMC3    C6 6859   1.665   0.216  16.597 -0.1113 -0.5673 -0.3620
  457TMC3     C 6860   1.537   4.694  16.293  0.4940 -0.5749  0.1307
  457TMC3     O 6861   1.436   4.714  16.238  0.2061  0.2550 -0.2285
  457TMC3     H 6862   1.498   0.227  16.310 -0.3760 -2.3456 -0.6718
  457TMC3    H1 6863   1.667   4.618  16.512 -1.5543 -0.4291 -1.0449
  457TMC3    H2 6864   1.688   0.288  16.675 -0.0135 -1.7382  0.6967
  457TMC3    C7 6865   1.799   0.037  16.682 -0.3999 -0.3428 -0.1036
  457TMC3    C8 6866   1.554   0.410  16.504 -0.7067 -0.1182 -0.1669
  457TMC3    O1 6867   1.803   4.652  16.717 -0.4689  0.1638 -0.3609
  457TMC3    O2 6868   1.574   0.465  16.611 -0.2328  0.2604  0.1093
  458MPD2     C 6869   4.044   4.624  12.406 -0.2364 -0.4751 -0.4858
  458MPD2    C1 6870   3.988   4.597  12.526  0.2679 -0.0911 -0.5501
  458MPD2    C2 6871   3.849   4.610  12.541 -0.7638  0.8407  0.8967
  458MPD2    C3 6872   3.768   4.642  12.432 -0.1729 -0.4140 -0.8794
  458MPD2    C4 6873   3.828   4.653  12.309  0.1499 -0.1962 -0.3789
  458MPD2    C5 6874   3.965   4.645  12.298 -0.2429 -0.4373  0.0284
  458MPD2     H 6875   3.796   4.601  12.635 -3.1543  0.3983 -0.4734
  458MPD2    H1 6876   3.778   4.696  12.223  0.1048 -2.1292 -1.3166
  458MPD2    H2 6877   4.152   4.623  12.396 -0.0751 -0.7975  1.2276
  458MPD2    H3 6878   4.008   4.653  12.198  0.5438  0.5541  0.4419
  458MPD2     N 6879   3.628   4.662  12.450  0.2545 -0.5217  0.2105
  458MPD2    H5 6880   3.588   4.635  12.539  1.3126 -3.8587 -0.3090
  458MPD2    N1 6881   4.078   4.580  12.631 -0.2354 -0.2538  0.2694
  458MPD2    H7 6882   4.178   4.587  12.613 -0.0981 -2.1275  0.3470
  459TMC3    C1 6883   4.142   4.514  12.856 -0.4813 -0.6999  0.4712
  459TMC3    C2 6884   4.267   4.565  12.833  0.7880 -0.1237 -0.4793
  459TMC3    C3 6885   4.381   4.507  12.884  0.6572  0.1360  0.4633
  459TMC3    C4 6886   4.121   4.411  12.939  0.2374 -1.3915 -0.5684
  459TMC3    C5 6887   4.235   4.366  12.995 -0.1011 -0.4974 -0.1630
  459TMC3    C6 6888   4.359   4.409  12.971 -0.1307 -0.0823  0.0574
  459TMC3     C 6889   4.040   4.538  12.758  0.3056 -0.2154  0.3289
  459TMC3     O 6890   3.928   4.508  12.800 -0.3872  0.0575  0.2908
  459TMC3     H 6891   4.267   4.658  12.777  1.5292  0.2262  0.1039
  459TMC3    H1 6892   4.021   4.372  12.954 -0.6680  1.5715  1.1455
  459TMC3    H2 6893   4.449   4.366  13.012  1.1727  1.5452 -1.1002
  459TMC3    C7 6894   4.225   4.246  13.085 -0.3211  0.9646  0.6762
  459TMC3    C8 6895   4.503   4.587  12.883 -0.1562 -0.1422  0.2936
  459TMC3    O1 6896   4.317   4.161  13.083  0.6909 -0.2808  0.6912
  459TMC3    O2 6897   4.614   4.542  12.918 -0.4739  0.2071  0.0541
  460MPD2     C 6898   3.125   2.730  10.632  0.2886  0.6118 -0.3207
  460MPD2    C1 6899   3.070   2.603  10.604 -0.1728  0.3913 -0.0358
  460MPD2    C2 6900   3.003   2.594  10.482 -0.0459 -0.2326  0.1863
  460MPD2    C3 6901   2.983   2.704  10.395  0.4459  0.2783  0.1019
  460MPD2    C4 6902   3.031   2.829  10.434  0.0501  1.2949  0.1221
  460MPD2    C5 6903   3.102   2.838  10.551  0.7225 -0.0061  0.1744
  460MPD2     H 6904   2.965   2.496  10.455  1.4552 -0.2668 -1.7684
  460MPD2    H1 6905   3.000   2.923  10.389 -2.1552 -0.3839 -1.8558
  460MPD2    H2 6906   3.168   2.751  10.729  2.9173  1.2798 -1.6288
  460MPD2    H3 6907   3.130   2.936  10.590  1.5623 -0.2959  0.2939
  460MPD2     N 6908   2.902   2.687  10.288  0.2288 -0.3864 -0.4410
  460MPD2    H5 6909   2.871   2.593  10.265  1.3537 -0.7966 -0.2559
  460MPD2    N1 6910   3.100   2.491  10.688  0.1921  0.0164  0.6727
  460MPD2    H7 6911   3.172   2.510  10.757 -1.0587  1.9362  1.4358
  461TMC3    C1 6912   2.791   2.732  10.080  0.0944  0.2575  0.1234
  461TMC3    C2 6913   2.690   2.646  10.115 -0.4894 -0.2230 -0.5401
  461TMC3    C3 6914   2.593   2.624  10.018  0.0281  0.1480  0.5160
  461TMC3    C4 6915   2.802   2.784   9.958 -0.4298 -0.2683 -0.4100
  461TMC3    C5 6916   2.711   2.757   9.861  0.1456  0.1037  0.0745
  461TMC3    C6 6917   2.601   2.681   9.893  0.2127 -0.2696 -0.2814
  461TMC3     C 6918   2.882   2.780  10.177  0.0826 -0.1260 -0.2236
  461TMC3     O 6919   2.937   2.892  10.166  0.0501  0.1111  0.8803
  461TMC3     H 6920   2.674   2.595  10.209 -1.9042  1.8774  0.3549
  461TMC3    H1 6921   2.882   2.856   9.948 -0.2712 -0.6201 -1.6178
  461TMC3    H2 6922   2.523   2.650   9.824  1.2456 -0.0442 -1.5475
  461TMC3    C7 6923   2.700   2.844   9.742 -0.0033  0.0356  0.0640
  461TMC3    C8 6924   2.498   2.521  10.038  0.4301 -0.3147 -0.2237
  461TMC3    O1 6925   2.591   2.867   9.695 -0.5145  0.3302 -0.0597
  461TMC3    O2 6926   2.472   2.495  10.158  0.4886 -0.6733 -0.0565
  462TMC3    C1 6927   3.226   2.768  17.677 -0.4115 -0.8673  0.2282
  462TMC3    C2 6928   3.199   2.718  17.553 -0.3642  0.3232 -0.1175
  462TMC3    C3 6929   3.200   2.582  17.533  0.4916 -0.5368 -0.7198
  462TMC3    C4 6930   3.259   2.685   0.052 -0.0438  0.0804 -0.2385
  462TMC3    C5 6931   3.280   2.551   0.023 -0.2906  0.4150  0.5774
  462TMC3    C6 6932   3.258   2.502  17.626 -0.0125  0.1701 -0.1291
  462TMC3     C 6933   3.222   2.909  17.710 -0.3205 -0.7857 -0.3129
  462TMC3     O 6934   3.195   2.940   0.096  0.3187  0.2867 -0.1738
  462TMC3     H 6935   3.152   2.780  17.478 -0.5005  0.3880  0.0199
  462TMC3    H1 6936   3.282   2.721   0.152  1.5270 -0.5595 -0.3722
  462TMC3    H2 6937   3.247   2.395  17.617  0.3148  0.1504 -0.2942
  462TMC3    C7 6938   3.289   2.460   0.139 -0.5069 -0.3657  1.0274
  462TMC3    C8 6939   3.118   2.527  17.420  0.8280  0.1464  0.5394
  462TMC3    O1 6940   3.258   2.340   0.127  0.3964 -0.3876 -0.0650
  462TMC3    O2 6941   3.028   2.596  17.373  0.0101 -0.3932  0.0320
  463MPD2     C 6942   3.870   1.969   1.375  0.3528 -0.2546 -0.4636
  463MPD2    C1 6943   3.750   1.940   1.441 -0.2701 -0.5108 -0.8044
  463MPD2    C2 6944   3.689   2.034   1.523  0.7816 -0.5141 -0.3985
  463MPD2    C3 6945   3.744   2.161   1.539  0.0247  0.0321 -0.5175
  463MPD2    C4 6946   3.863   2.194   1.473 -0.2665  0.5847  0.5245
  463MPD2    C5 6947   3.923   2.094   1.395  0.2988 -0.4735  0.4902
  463MPD2     H 6948   3.599   2.000   1.574  0.4181 -0.3700 -0.9374
  463MPD2    H1 6949   3.911   2.290   1.491  0.7364  0.6502 -2.3918
  463MPD2    H2 6950   3.919   1.897   1.310  3.3468  1.0203  0.3990
  463MPD2    H3 6951   4.024   2.105   1.357  0.8216  0.0125  2.0081
  463MPD2     N 6952   3.689   2.265   1.617  0.0840 -0.6910  0.2447
  463MPD2    H5 6953   3.730   2.358   1.608 -2.1469  0.1405 -1.6124
  463MPD2    N1 6954   3.689   1.811   1.433 -0.0831  0.1952  0.0691
  463MPD2    H7 6955   3.597   1.816   1.478 -1.0039 -1.6343 -1.6330
  464TMC3    C1 6956   3.655   1.577   1.422  0.0104 -0.3729  0.1556
  464TMC3    C2 6957   3.525   1.607   1.385  0.0227  0.0696 -0.6457
  464TMC3    C3 6958   3.422   1.516   1.414  0.0849 -0.0821  0.3102
  464TMC3    C4 6959   3.696   1.469   1.483  0.1666 -0.1723 -0.3248
  464TMC3    C5 6960   3.591   1.375   1.504  0.0021 -0.0948 -0.3051
  464TMC3    C6 6961   3.457   1.398   1.474  0.1975  0.2936 -0.4230
  464TMC3     C 6962   3.748   1.690   1.408 -0.0291 -0.0874  0.8529
  464TMC3     O 6963   3.869   1.666   1.402  0.1068  0.3752  0.2165
  464TMC3     H 6964   3.505   1.699   1.331 -0.8369  0.4559  0.3404
  464TMC3    H1 6965   3.797   1.435   1.500  0.9754  2.1905 -0.5053
  464TMC3    H2 6966   3.384   1.324   1.503 -0.5818  0.5546 -1.6810
  464TMC3    C7 6967   3.636   1.242   1.548 -0.2392 -1.0252  0.3166
  464TMC3    C8 6968   3.290   1.538   1.361 -0.0982  0.2916 -0.3399
  464TMC3    O1 6969   3.751   1.223   1.587 -0.1754  0.4969 -0.2271
  464TMC3    O2 6970   3.285   1.596   1.251 -0.0371  0.0878 -0.0631
  465MPD2     C 6971   0.660   4.495  16.442 -0.0978 -0.0616  0.4145
  465MPD2    C1 6972   0.537   4.484  16.482 -0.0945 -0.2670 -0.0989
  465MPD2    C2 6973   0.441   4.561  16.413  0.0684  0.3603 -0.4685
  465MPD2    C3 6974   0.473   4.652  16.316  0.1136 -0.5428 -0.1916
  465MPD2    C4 6975   0.604   4.664  16.282  0.0450  0.8977  0.1788
  465MPD2    C5 6976   0.693   4.583  16.341  0.3883 -0.4206  0.0491
  465MPD2     H 6977   0.335   4.542  16.430 -0.3543  1.0391 -2.3080
  465MPD2    H1 6978   0.642   4.717  16.196 -1.4820  1.4229 -0.1684
  465MPD2    H2 6979   0.742   4.440  16.486  2.1233  3.0372  0.1236
  465MPD2    H3 6980   0.794   4.581  16.302  1.3370  0.0074  2.4863
  465MPD2     N 6981   0.375   0.002  16.258  0.1133  0.1901 -0.1669
  465MPD2    H5 6982   0.278   4.722  16.285 -0.0733  0.1253 -0.8724
  465MPD2    N1 6983   0.490   4.396  16.583 -0.6500 -0.0739  0.3897
  465MPD2    H7 6984   0.391   4.394  16.605 -0.6547  2.1871  0.5171
  466TMC3    C1 6985   0.037   0.186  16.174 -0.6549 -0.0926  0.4752
  466TMC3    C2 6986   0.060   0.321  16.145 -0.5249  0.2584  0.2754
  466TMC3    C3 6987   0.170   0.359  16.078  0.1710  0.7633 -0.0988
  466TMC3    C4 6988   0.146   0.103  16.172  0.1714 -0.0020 -0.2969
  466TMC3    C5 6989   0.267   0.145  16.118  0.4316 -0.1885  0.4136
  466TMC3    C6 6990   0.271   0.269  16.066 -0.0159  0.3425  0.7640
  466TMC3     C 6991   4.679   0.156  16.286 -0.2461 -0.2749  0.8773
  466TMC3     O 6992   4.706   0.052  16.347 -0.5819 -0.1374 -0.3873
  466TMC3     H 6993   4.718   0.398  16.164 -0.2119  0.4828  0.6030
  466TMC3    H1 6994   0.135   4.727  16.181  4.5469 -0.4908 -1.1113
  466TMC3    H2 6995   0.363   0.303  16.019  0.8595 -2.1925  0.6819
  466TMC3    C7 6996   0.392   0.087  16.151 -0.0117 -0.1809  0.0319
  466TMC3    C8 6997   0.200   0.498  16.058 -0.3153  0.4601  0.1253
  466TMC3    O1 6998   0.491   0.134  16.101  0.3139 -0.6904 -0.3443
  466TMC3    O2 6999   0.236   0.520  15.944 -0.1373 -0.0726  0.1740
  467TMC3    C1 7000   1.258   3.223  13.577 -0.5275  0.2883 -0.6681
  467TMC3    C2 7001   1.160   3.277  13.497 -0.4793  0.1471  0.4468
  467TMC3    C3 7002   1.050   3.331  13.553 -0.5726  0.1396 -0.4701
  467TMC3    C4 7003   1.240   3.200  13.712 -0.0501 -0.6190 -0.0671
  467TMC3    C5 7004   1.119   3.239  13.765  0.2961  1.1547  0.2262
  467TMC3    C6 7005   1.027   3.315  13.686 -0.7583  0.6868  0.1965
  467TMC3     C 7006   1.399   3.230  13.535 -0.2795  0.9081  0.0991
  467TMC3     O 7007   1.479   3.147  13.577 -0.1364  0.1512 -0.9530
  467TMC3     H 7008   1.181   3.294  13.392  1.2964 -0.8761  0.6411
  467TMC3    H1 7009   1.316   3.150  13.771 -2.7116 -1.3631  2.7449
  467TMC3    H2 7010   0.936   3.347  13.735  0.0746  1.3007  1.3518
  467TMC3    C7 7011   1.108   3.220  13.907 -0.4443 -0.0744  0.0437
  467TMC3    C8 7012   1.048   3.469  13.515 -0.3569 -0.4195  0.0711
  467TMC3    O1 7013   1.200   3.171  13.967  0.5418 -0.4744  0.1164
  467TMC3    O2 7014   1.101   3.548  13.587  0.3079  0.1771  1.0475
  468MPD2     C 7015   4.180   2.472  10.679 -0.1104  1.2300 -0.3403
  468MPD2    C1 7016   4.316   2.477  10.701 -0.0595  0.3258 -0.3000
  468MPD2    C2 7017   4.395   2.362  10.696  0.5783  0.5736 -0.1873
  468MPD2    C3 7018   4.336   2.237  10.682 -0.0050 -0.6735 -0.1886
  468MPD2    C4 7019   4.196   2.231  10.668 -0.4779 -0.0619  0.2100
  468MPD2    C5 7020   4.119   2.345  10.667  0.3231 -0.1316  0.6561
  468MPD2     H 7021   4.501   2.361  10.717 -0.1017 -1.3310  3.1650
  468MPD2    H1 7022   4.143   2.137  10.661  2.4183 -1.7201  1.2366
  468MPD2    H2 7023   4.113   2.557  10.675  0.2772  1.6762  2.7099
  468MPD2    H3 7024   4.012   2.335  10.662  0.3385 -0.2393  0.5558
  468MPD2     N 7025   4.403   2.110  10.684 -0.4594  0.5812 -0.5211
  468MPD2    H5 7026   4.348   2.025  10.689 -0.7145  0.7211 -0.9421
  468MPD2    N1 7027   4.383   2.597  10.754  0.1493  0.0076 -0.1531
  468MPD2    H7 7028   4.483   2.587  10.767  0.0144 -1.5139 -0.2512
  469TMC3    C1 7029   4.397   2.802  10.875  0.7383 -0.2291 -1.0470
  469TMC3    C2 7030   4.535   2.804  10.858  0.0943  0.0794 -0.4247
  469TMC3    C3 7031   4.611   2.887  10.931 -0.3252 -0.3559  0.5632
  469TMC3    C4 7032   4.327   2.886  10.962  0.2717 -0.8664 -0.8160
  469TMC3    C5 7033   4.413   2.954  11.042 -1.1628  0.2306 -0.2735
  469TMC3    C6 7034   4.550   2.952  11.037 -0.0851  0.2510 -0.9141
  469TMC3     C 7035   4.315   2.706  10.799 -0.1693 -0.5825 -0.0153
  469TMC3     O 7036   4.194   2.731  10.794 -0.2078  0.5550  0.3214
  469TMC3     H 7037   4.570   2.757  10.767 -0.3509 -0.8824 -0.1070
  469TMC3    H1 7038   4.223   2.867  10.983  0.5823 -1.7450 -0.0882
  469TMC3    H2 7039   4.609   3.019  11.098 -0.1241  0.4385 -1.0817
  469TMC3    C7 7040   4.358   2.993  11.170  0.2449  0.1746  0.3960
  469TMC3    C8 7041   0.020   2.864  10.963  0.0564  0.1152 -0.5833
  469TMC3    O1 7042   4.237   3.023  11.170 -0.1840 -0.4291  0.3266
  469TMC3    O2 7043   0.057   2.909  11.072  0.1269  0.1887 -0.1718
  470TMC3    C1 7044   2.147   2.205   0.988 -0.2978 -0.0550 -0.0333
  470TMC3    C2 7045   2.264   2.275   1.017 -0.2910 -0.0168 -0.3138
  470TMC3    C3 7046   2.292   2.307   1.145 -1.0979  0.3659  0.2508
  470TMC3    C4 7047   2.056   2.171   1.095 -0.6625 -0.8034  0.3256
  470TMC3    C5 7048   2.078   2.223   1.218  0.1141  0.2758 -0.8025
  470TMC3    C6 7049   2.196   2.297   1.244 -0.2367  0.7883  0.3765
  470TMC3     C 7050   2.137   2.143   0.860  0.5536 -0.0322 -0.2416
  470TMC3     O 7051   2.232   2.131   0.783 -0.1749  0.5065  0.0431
  470TMC3     H 7052   2.337   2.270   0.937  1.1892 -0.3261  1.0549
  470TMC3    H1 7053   1.969   2.111   1.070  0.4462 -1.5134 -1.8787
  470TMC3    H2 7054   2.214   2.329   1.346 -0.1897  0.3087  0.5188
  470TMC3    C7 7055   1.978   2.195   1.321 -0.5334  0.3138  0.1260
  470TMC3    C8 7056   2.380   2.411   1.173 -0.3552 -1.1587 -0.6584
  470TMC3    O1 7057   1.895   2.112   1.286  0.3903  0.0217 -0.3276
  470TMC3    O2 7058   2.335   2.497   1.243 -0.3488  0.4621  0.2184
  471MPD2     C 7059   3.137   3.865  16.597  0.7493  0.9524  0.3884
  471MPD2    C1 7060   3.080   3.742  16.615 -0.1997 -0.1464  0.0845
  471MPD2    C2 7061   3.079   3.696  16.747  0.0078  0.1239  0.1252
  471MPD2    C3 7062   3.123   3.769  16.858  0.3636  0.6211  0.8087
  471MPD2    C4 7063   3.177   3.893  16.835  0.0198  0.6309  0.5696
  471MPD2    C5 7064   3.172   3.940  16.706  0.4080 -0.7650 -0.4225
  471MPD2     H 7065   3.027   3.603  16.768  1.0948 -0.1115  1.7037
  471MPD2    H1 7066   3.228   3.956  16.908  1.6113  0.1369 -0.1322
  471MPD2    H2 7067   3.156   3.912  16.502 -1.3454 -0.9996 -0.9996
  471MPD2    H3 7068   3.209   4.041  16.695  1.6849 -0.9422  2.2875
  471MPD2     N 7069   3.107   3.729  16.992 -0.0419 -0.2882 -0.3027
  471MPD2    H5 7070   3.162   3.781  17.059 -0.1514  1.0121 -1.2147
  471MPD2    N1 7071   3.043   3.659  16.504 -0.0315 -0.2841  0.5708
  471MPD2    H7 7072   2.997   3.571  16.527  2.9347 -1.8684  0.4771
  472TMC3    C1 7073   2.982   3.586  16.292  0.1817 -1.1944 -0.7192
  472TMC3    C2 7074   2.914   3.620  16.181  0.0975 -0.6565  0.0130
  472TMC3    C3 7075   2.863   3.525  16.098  0.2697 -0.0752  0.0350
  472TMC3    C4 7076   3.003   3.457  16.328 -0.2957 -0.6834 -0.6746
  472TMC3    C5 7077   2.964   3.359  16.246 -0.1621 -0.6104  0.4194
  472TMC3    C6 7078   2.902   3.395  16.125 -0.2557  0.5290  0.6956
  472TMC3     C 7079   3.035   3.694  16.373  0.5815 -0.5678  0.3913
  472TMC3     O 7080   3.077   3.801  16.320 -0.2162 -0.5027 -0.2377
  472TMC3     H 7081   2.898   3.727  16.170  1.1684 -0.4996  0.0186
  472TMC3    H1 7082   3.062   3.441  16.418 -0.8687  0.7300 -0.0417
  472TMC3    H2 7083   2.876   3.309  16.066 -0.4091 -0.4328  2.1549
  472TMC3    C7 7084   2.923   3.241  16.319 -0.0078  0.3873 -0.4233
  472TMC3    C8 7085   2.719   3.537  16.065  0.0535  0.0863 -0.0913
  472TMC3    O1 7086   2.990   3.206  16.413 -0.0185 -0.0036 -0.2670
  472TMC3    O2 7087   2.687   3.553  15.949 -0.1693 -0.2587  0.2603
  473MPD2     C 7088   3.027   1.009  14.020 -0.3719 -0.2616 -0.2158
  473MPD2    C1 7089   2.995   1.114  13.931  0.1032  0.7031  0.5384
  473MPD2    C2 7090   3.073   1.230  13.940 -0.3422  0.7061 -0.5384
  473MPD2    C3 7091   3.177   1.247  14.021 -0.4636 -0.5382 -0.2006
  473MPD2    C4 7092   3.201   1.147  14.114  0.0430  0.3299 -0.0421
  473MPD2    C5 7093   3.128   1.032  14.113 -0.5619 -0.4374 -0.3335
  473MPD2     H 7094   3.062   1.310  13.868 -0.1346  0.3453 -0.9815
  473MPD2    H1 7095   3.276   1.162  14.191 -0.5714  0.8712  0.4518
  473MPD2    H2 7096   2.969   0.917  14.019 -0.7830  0.0021 -0.5362
  473MPD2    H3 7097   3.148   0.958  14.190  0.5561  0.7252  0.4820
  473MPD2     N 7098   3.243   1.375  14.043 -0.2726  0.3122  0.2896
  473MPD2    H5 7099   3.307   1.380  14.122  1.1756  2.2135 -0.9641
  473MPD2    N1 7100   2.885   1.111  13.843 -0.6554 -0.8313 -0.3628
  473MPD2    H7 7101   2.870   1.199  13.795  2.6819  1.4342  2.6289
  474TMC3    C1 7102   3.260   1.609  14.037  0.5061  0.0041 -0.1167
  474TMC3    C2 7103   3.192   1.723  13.999  0.0804 -0.4700  0.9031
  474TMC3    C3 7104   3.235   1.841  14.052  0.5091  0.8361  0.3737
  474TMC3    C4 7105   3.372   1.607  14.119 -0.4244  0.3068 -0.0790
  474TMC3    C5 7106   3.410   1.729  14.164 -0.1597  0.1029  0.4147
  474TMC3    C6 7107   3.349   1.846  14.132 -0.0126 -0.3388  0.3220
  474TMC3     C 7108   3.214   1.494  13.980 -0.0719 -0.0269 -0.8550
  474TMC3     O 7109   3.121   1.513  13.902 -0.5525 -1.1631 -0.2979
  474TMC3     H 7110   3.101   1.726  13.939 -0.1264  4.6571  1.4145
  474TMC3    H1 7111   3.429   1.517  14.139  0.8217  0.7314 -1.7445
  474TMC3    H2 7112   3.381   1.942  14.171  1.3313 -0.2515 -1.0018
  474TMC3    C7 7113   3.540   1.741  14.230 -0.7568  0.1541 -0.1445
  474TMC3    C8 7114   3.213   1.959  13.966 -0.5964  0.1317  0.6041
  474TMC3    O1 7115   3.625   1.658  14.220  0.2271 -0.3139  0.1508
  474TMC3    O2 7116   3.192   1.928  13.852 -0.1192 -0.1853  0.1200
  475MPD2     C 7117   0.980   4.604  11.729 -0.5797  0.1802 -0.1126
  475MPD2    C1 7118   0.979   4.665  11.612  0.1278 -0.0612 -0.3713
  475MPD2    C2 7119   0.855   4.669  11.548  0.0228 -0.4409 -0.2531
  475MPD2    C3 7120   0.738   4.608  11.600  0.0564 -0.0871  0.1011
  475MPD2    C4 7121   0.751   4.533  11.714  0.1479  0.8289  0.0085
  475MPD2    C5 7122   0.869   4.536  11.775 -0.0579 -0.6655 -0.1791
  475MPD2     H 7123   0.853   4.708  11.447 -1.1362 -1.9541 -0.8233
  475MPD2    H1 7124   0.670   4.485  11.768  1.8299 -0.7025  1.1450
  475MPD2    H2 7125   1.069   4.593  11.789 -0.2369  2.4604 -0.2133
  475MPD2    H3 7126   0.881   4.471  11.861 -0.9904  0.1635  0.5743
  475MPD2     N 7127   0.616   4.633  11.537 -0.3378 -0.1762  0.3513
  475MPD2    H5 7128   0.615   4.696  11.457 -0.3648 -1.0938 -0.3867
  475MPD2    N1 7129   1.093   4.731  11.557  0.0868 -0.1109 -0.2330
  475MPD2    H7 7130   1.179   4.712  11.609  1.9523  3.5768 -2.0341
  476TMC3    C1 7131   1.220   0.134  11.422  0.0522 -0.8216 -0.0991
  476TMC3    C2 7132   1.237   0.178  11.293 -0.0860  0.9003 -0.6794
  476TMC3    C3 7133   1.350   0.254  11.272 -0.4614  0.1873 -0.2657
  476TMC3    C4 7134   1.298   0.174  11.524  0.0897  0.0421 -0.1983
  476TMC3    C5 7135   1.403   0.253  11.504  0.0457  0.4452  0.5748
  476TMC3    C6 7136   1.432   0.295  11.381 -0.3602 -0.3292 -0.4199
  476TMC3     C 7137   1.093   0.077  11.446  0.0690 -0.1414  0.1309
  476TMC3     O 7138   1.008   0.106  11.362 -0.1624 -0.5879  0.3805
  476TMC3     H 7139   1.164   0.158  11.215 -2.7737  0.7562  1.9220
  476TMC3    H1 7140   1.279   0.153  11.629 -0.8798 -2.1384 -0.8066
  476TMC3    H2 7141   1.530   0.331  11.354  0.3347 -1.4400  0.6514
  476TMC3    C7 7142   1.437   0.344  11.604 -0.0726  0.2036 -0.3124
  476TMC3    C8 7143   1.326   0.383  11.200  0.4395  0.0854  0.4755
  476TMC3    O1 7144   1.427   0.316  11.726  0.2523  0.1933 -0.0655
  476TMC3    O2 7145   1.348   0.484  11.262 -0.0025 -0.3450 -1.1604
  477MPD2     C 7146   3.629   1.561  11.650 -0.0888  0.2925 -0.1541
  477MPD2    C1 7147   3.563   1.461  11.582 -0.4869  0.0591 -0.1704
  477MPD2    C2 7148   3.567   1.334  11.627  0.5730 -0.3954 -0.4553
  477MPD2    C3 7149   3.614   1.301  11.753 -0.2552  0.3854  0.2412
  477MPD2    C4 7150   3.669   1.401  11.829  0.0614 -0.7650 -0.0898
  477MPD2    C5 7151   3.682   1.525  11.775 -0.0204  0.2835 -0.3069
  477MPD2     H 7152   3.509   1.268  11.564  1.5257 -3.4290  1.8690
  477MPD2    H1 7153   3.707   1.377  11.927 -0.5681 -0.2951  0.2703
  477MPD2    H2 7154   3.620   1.665  11.622  1.0657  0.5479  0.3930
  477MPD2    H3 7155   3.718   1.596  11.849  0.2560  1.0736 -1.2087
  477MPD2     N 7156   3.598   1.168  11.805  0.5718  0.1513 -0.0119
  477MPD2    H5 7157   3.557   1.107  11.735  2.0746 -1.3952  0.4539
  477MPD2    N1 7158   3.487   1.512  11.478  0.6870 -0.3596 -0.3277
  477MPD2    H7 7159   3.483   1.613  11.472  1.5950 -0.2003  1.9928
  478TMC3    C1 7160   3.332   1.519  11.307  1.0124  0.0521  0.5833
  478TMC3    C2 7161   3.292   1.641  11.358  0.1035 -0.2509  0.7487
  478TMC3    C3 7162   3.208   1.706  11.273 -0.5443 -0.2041  0.0451
  478TMC3    C4 7163   3.284   1.456  11.195 -0.0248  0.0503 -0.0418
  478TMC3    C5 7164   3.197   1.533  11.124  0.0107  0.4224 -0.1818
  478TMC3    C6 7165   3.159   1.661  11.150  0.2891 -0.4073 -0.7467
  478TMC3     C 7166   3.416   1.438  11.386 -0.0554 -0.0880 -0.3074
  478TMC3     O 7167   3.420   1.317  11.366  0.3783 -0.3822 -0.2348
  478TMC3     H 7168   3.322   1.689  11.450 -1.3256  1.7431  0.1930
  478TMC3    H1 7169   3.330   1.369  11.150 -0.3413  0.0600 -0.3824
  478TMC3    H2 7170   3.095   1.720  11.085  1.9707  0.3208 -1.7450
  478TMC3    C7 7171   3.156   1.467  11.000 -0.0264 -0.8350  0.2180
  478TMC3    C8 7172   3.153   1.829  11.315  1.1918  0.0069  0.0349
  478TMC3    O1 7173   3.176   1.347  10.982 -0.1160 -0.3965  0.7967
  478TMC3    O2 7174   3.126   1.910  11.231 -0.0697 -0.0793 -0.1558
  479MPD2     C 7175   2.845   3.040  14.908  0.1489 -0.2528  0.0438
  479MPD2    C1 7176   2.773   3.014  15.022 -0.0225 -0.1209 -0.1735
  479MPD2    C2 7177   2.832   3.032  15.144 -0.0222 -0.2937 -0.0112
  479MPD2    C3 7178   2.960   3.092  15.156  0.3360  0.2483  0.3663
  479MPD2    C4 7179   3.031   3.115  15.040 -0.1137  0.3662  0.4206
  479MPD2    C5 7180   2.968   3.093  14.920 -0.6579  0.0976 -0.0727
  479MPD2     H 7181   2.790   2.988  15.234 -3.9791  1.1151 -1.1756
  479MPD2    H1 7182   3.120   3.177  15.035  0.2255 -0.2993 -1.6317
  479MPD2    H2 7183   2.808   3.025  14.808  0.6004  1.3492 -0.3558
  479MPD2    H3 7184   3.021   3.131  14.834  0.9917  0.4979  1.1291
  479MPD2     N 7185   3.013   3.133  15.278 -0.2943 -0.0995 -0.9638
  479MPD2    H5 7186   3.109   3.165  15.283 -1.7948  4.1705  0.4350
  479MPD2    N1 7187   2.647   2.951  15.011 -0.0266 -0.4196  0.2067
  479MPD2    H7 7188   2.612   2.930  14.918  0.0908 -0.9444  0.2800
  480TMC3    C1 7189   2.636   3.130  15.569 -0.5723 -0.9042 -0.3280
  480TMC3    C2 7190   2.565   3.239  15.528 -0.0328 -0.2111 -0.1794
  480TMC3    C3 7191   2.615   3.295  15.408  0.3531 -0.6392 -0.1683
  480TMC3    C4 7192   2.758   3.094  15.516  0.1505 -0.5004 -0.3079
  480TMC3    C5 7193   2.808   3.157  15.410 -0.3099 -0.4241 -0.0182
  480TMC3    C6 7194   2.740   3.258  15.346  0.0668  0.8520  0.1422
  480TMC3     C 7195   2.583   3.045  15.670 -0.4598  0.3375 -0.1894
  480TMC3     O 7196   2.651   2.948  15.706  0.3696 -0.4044 -0.2901
  480TMC3     H 7197   2.459   3.252  15.545  0.4530  1.6924  1.4221
  480TMC3    H1 7198   2.823   3.027  15.570  0.5391 -0.3269 -0.5633
  480TMC3    H2 7199   2.789   3.305  15.262  0.8864 -0.4472 -0.1127
  480TMC3    C7 7200   2.948   3.143  15.403  0.1876  0.2329 -0.4082
  480TMC3    C8 7201   2.515   3.318  15.306 -0.0388 -0.0519 -0.1969
  480TMC3    O1 7202   3.000   3.171  15.508 -0.0238 -0.2471  0.2201
  480TMC3    O2 7203   2.412   3.374  15.337 -0.9665  0.0563 -0.1604
  481MPD2     C 7204   4.487   2.657  13.999 -0.4490  0.0368  0.7644
  481MPD2    C1 7205   4.370   2.627  14.056 -0.1676  0.0769 -0.5306
  481MPD2    C2 7206   4.360   2.617  14.192  0.1784  1.0370 -0.0046
  481MPD2    C3 7207   4.473   2.636  14.265  0.4861 -0.2178 -0.3605
  481MPD2    C4 7208   4.593   2.660  14.207  0.3892 -0.6022 -1.0143
  481MPD2    C5 7209   4.603   2.675  14.071  0.1660  0.1934  0.1547
  481MPD2     H 7210   4.266   2.590  14.238 -0.3663 -0.0497 -1.7361
  481MPD2    H1 7211   4.682   2.669  14.268  0.8309 -0.1132 -1.7316
  481MPD2    H2 7212   4.502   2.648  13.892  1.0497 -1.7926  1.1312
  481MPD2    H3 7213   4.693   2.704  14.019  0.0885 -2.5372 -1.5334
  481MPD2     N 7214   4.472   2.623  14.407  0.3508  0.6121 -0.0808
  481MPD2    H5 7215   4.553   2.647  14.462  2.2186 -0.4825 -2.3771
  481MPD2    N1 7216   4.259   2.604  13.968 -0.7886  0.3512 -0.0944
  481MPD2    H7 7217   4.261   2.633  13.871  0.8034 -1.3816 -0.5905
  482TMC3    C1 7218   4.027   2.556  13.918 -0.1910  0.1690 -0.0906
  482TMC3    C2 7219   3.973   2.439  13.866  1.2702  0.0289 -0.0053
  482TMC3    C3 7220   3.872   2.444  13.774 -0.3167 -0.9574 -0.0548
  482TMC3    C4 7221   3.991   2.676  13.872  0.1382  0.2964 -0.3241
  482TMC3    C5 7222   3.895   2.678  13.781 -0.4451  0.1747 -0.4499
  482TMC3    C6 7223   3.828   2.572  13.739 -0.4012 -0.1725 -0.0357
  482TMC3     C 7224   4.141   2.547  14.010  0.0460 -0.0331  0.0839
  482TMC3     O 7225   4.113   2.480  14.109  0.1311  0.0087 -0.1332
  482TMC3     H 7226   4.007   2.341  13.899  0.4793 -0.9596 -2.1155
  482TMC3    H1 7227   4.041   2.767  13.905 -1.4981  1.4998 -1.1636
  482TMC3    H2 7228   3.752   2.583  13.663 -0.9906 -1.1815  0.4128
  482TMC3    C7 7229   3.856   2.811  13.736 -0.4965  0.2921  0.5941
  482TMC3    C8 7230   3.819   2.324  13.717 -0.5434  0.1525 -0.2785
  482TMC3    O1 7231   3.883   2.907  13.805 -0.6877 -0.1684  0.3262
  482TMC3    O2 7232   3.887   2.221  13.737 -0.2068 -0.1165  0.3592
  483TMC3    C1 7233   1.841   1.520   0.676  0.2545 -0.2529  0.7660
  483TMC3    C2 7234   1.917   1.639   0.704 -0.1930 -0.4306 -0.7020
  483TMC3    C3 7235   1.963   1.647   0.835 -0.4615  0.0981 -0.1564
  483TMC3    C4 7236   1.784   1.456   0.784  0.3016  0.3949 -0.3794
  483TMC3    C5 7237   1.819   1.483   0.913  0.1297 -0.1580 -0.0070
  483TMC3    C6 7238   1.924   1.566   0.941  0.0988 -0.3224 -0.3189
  483TMC3     C 7239   1.830   1.458   0.538  0.1060 -0.7686 -0.3586
  483TMC3     O 7240   1.870   1.530   0.442  0.3247 -0.0293 -0.7886
  483TMC3     H 7241   1.967   1.697   0.628 -0.1148 -0.9234 -1.0248
  483TMC3    H1 7242   1.725   1.367   0.762  1.4302 -1.1895  3.0973
  483TMC3    H2 7243   1.965   1.580   1.040 -0.4447 -0.9154 -0.0101
  483TMC3    C7 7244   1.780   1.384   1.013  0.3066  0.5173  0.4456
  483TMC3    C8 7245   2.089   1.725   0.848 -0.0126 -0.3292  0.9553
  483TMC3    O1 7246   1.846   1.384   1.118  0.2758  0.3692 -0.2691
  483TMC3    O2 7247   2.164   1.714   0.752  0.5688  0.0628  0.0064
  484MPD2     C 7248   4.549   0.214  12.815 -0.1304 -0.1580  0.2725
  484MPD2    C1 7249   4.585   0.079  12.830  0.1595  0.3134  0.3901
  484MPD2    C2 7250   4.720   0.049  12.801 -0.2241 -0.3495 -0.2088
  484MPD2    C3 7251   0.087   0.139  12.803 -1.2256 -0.6321  0.2143
  484MPD2    C4 7252   0.045   0.269  12.797 -0.4240 -0.0350 -0.2528
  484MPD2    C5 7253   4.647   0.303  12.790 -0.0538 -0.0158 -0.1516
  484MPD2     H 7254   0.014   4.676  12.812  2.4196  0.3720  0.3215
  484MPD2    H1 7255   0.124   0.341  12.777  0.2421 -0.7543 -0.2403
  484MPD2    H2 7256   4.452   0.249  12.849  0.0062  1.3674 -0.9369
  484MPD2    H3 7257   4.627   0.409  12.794  0.7389  0.1977 -1.8925
  484MPD2     N 7258   0.229   0.109  12.789 -0.2763 -0.1696  0.1439
  484MPD2    H5 7259   0.289   0.186  12.761 -1.4446  0.5224 -0.4901
  484MPD2    N1 7260   4.476   4.717  12.861  0.5517  0.6443  0.3526
  484MPD2    H7 7261   4.382   0.022  12.861  0.5975  0.7672 -2.2401
  485TMC3    C1 7262   0.427   4.727  12.748 -0.5557  0.7428 -0.3984
  485TMC3    C2 7263   0.486   4.604  12.779 -0.2528  0.6788  0.4963
  485TMC3    C3 7264   0.615   4.602  12.834 -0.5774 -0.4296 -0.7634
  485TMC3    C4 7265   0.496   0.115  12.773  1.0015 -0.3997  0.0759
  485TMC3    C5 7266   0.619   0.112  12.822 -0.3477  0.6696 -0.5809
  485TMC3    C6 7267   0.676   4.724  12.857  0.5900  1.2321 -0.1657
  485TMC3     C 7268   0.278   4.717  12.748  0.4479 -0.2757 -0.2830
  485TMC3     O 7269   0.218   4.608  12.719 -0.6948  0.8779  0.0730
  485TMC3     H 7270   0.428   4.513  12.776  1.5178 -0.4192 -0.3314
  485TMC3    H1 7271   0.466   0.212  12.737  0.5455  0.3912  2.6180
  485TMC3    H2 7272   0.777   4.719  12.897  0.0795  2.7820  1.3430
  485TMC3    C7 7273   0.715   0.205  12.764 -0.0613  0.0183  0.5944
  485TMC3    C8 7274   0.718   4.520  12.764  0.4282 -0.0362 -0.3102
  485TMC3    O1 7275   0.674   0.314  12.727  0.2035 -0.1397 -0.2223
  485TMC3    O2 7276   0.816   4.582  12.720  0.6335  0.1966 -0.2221
  486MPD2     C 7277   2.203   3.326  12.469 -0.0597  0.4653 -0.9836
  486MPD2    C1 7278   2.083   3.328  12.403  0.0280  0.1336 -0.1290
  486MPD2    C2 7279   1.993   3.426  12.422  0.7600 -0.9911  0.6523
  486MPD2    C3 7280   2.018   3.528  12.520 -0.5970  0.4990 -0.1194
  486MPD2    C4 7281   2.137   3.521  12.598 -0.1860  0.5146  0.2907
  486MPD2    C5 7282   2.225   3.425  12.562  0.6927 -0.6809  0.7869
  486MPD2     H 7283   1.904   3.427  12.360  0.2423 -0.5628  1.3957
  486MPD2    H1 7284   2.152   3.592  12.679  2.8885  0.1935 -0.0064
  486MPD2    H2 7285   2.269   3.244  12.443  1.3874  1.8104 -1.5322
  486MPD2    H3 7286   2.319   3.426  12.616  1.1721  1.8695 -0.0741
  486MPD2     N 7287   1.914   3.623  12.529  0.9241  0.1556  0.0517
  486MPD2    H5 7288   1.845   3.612  12.456  0.6419 -1.1334  0.5198
  486MPD2    N1 7289   2.052   3.216  12.324 -0.1861 -0.5111  0.0663
  486MPD2    H7 7290   2.111   3.135  12.339 -0.0169 -0.2144  0.9672
  487TMC3    C1 7291   1.904   3.071  12.214  0.0055  0.3805 -0.1301
  487TMC3    C2 7292   1.801   3.012  12.276  0.4268 -0.1372  0.5460
  487TMC3    C3 7293   1.831   2.883  12.310  0.2644  0.1853 -0.1738
  487TMC3    C4 7294   2.023   3.010  12.167 -0.2364  0.3371  0.3635
  487TMC3    C5 7295   2.031   2.875  12.173  0.1307 -0.2320 -0.2731
  487TMC3    C6 7296   1.952   2.820  12.264  0.5478  0.2538 -0.5731
  487TMC3     C 7297   1.938   3.208  12.245  0.2124  1.0415 -0.1433
  487TMC3     O 7298   1.876   3.298  12.188 -0.1263 -0.2094 -0.2368
  487TMC3     H 7299   1.719   3.074  12.310  1.1022  1.7006 -1.1534
  487TMC3    H1 7300   2.097   3.062  12.108 -0.4178 -0.0344 -0.1970
  487TMC3    H2 7301   1.961   2.716  12.294  0.9628  1.3142  2.9151
  487TMC3    C7 7302   2.149   2.802  12.137 -0.5660  0.2154  0.1699
  487TMC3    C8 7303   1.759   2.843  12.434  0.5951 -0.3615 -0.4214
  487TMC3    O1 7304   2.199   2.822  12.032  0.6190  0.0061 -0.2828
  487TMC3    O2 7305   1.714   2.939  12.496  0.1449  0.2004 -0.2337
  488MPD2     C 7306   2.511   4.684  16.251  0.4323 -0.2922 -0.3494
  488MPD2    C1 7307   2.576   0.058  16.316  0.4450  0.1706 -0.0636
  488MPD2    C2 7308   2.599   0.046  16.453  0.9248  0.4801 -0.7635
  488MPD2    C3 7309   2.552   4.676  16.533 -0.0561  0.0105  0.2282
  488MPD2    C4 7310   2.491   4.571  16.472  0.3313 -0.0670 -0.6392
  488MPD2    C5 7311   2.488   4.571  16.335 -0.0242 -0.2491 -0.3199
  488MPD2     H 7312   2.655   0.125  16.501 -1.2547  0.8493  1.1825
  488MPD2    H1 7313   2.455   4.483  16.524 -1.0150  0.5624 -0.4908
  488MPD2    H2 7314   2.500   4.669  16.144 -1.9553 -0.5306 -0.0653
  488MPD2    H3 7315   2.448   4.485  16.283  0.5810 -0.5947 -0.2072
  488MPD2     N 7316   2.563   4.679  16.671 -0.3738 -0.2103  0.0530
  488MPD2    H5 7317   2.629   0.017  16.702 -0.7807  0.2908 -0.2187
  488MPD2    N1 7318   2.609   0.183  16.257 -0.2886  0.2937  0.4445
  488MPD2    H7 7319   2.636   0.254  16.324  1.9928  0.9607 -1.2050
  489TMC3    C1 7320   2.550   4.602  16.893  0.8014 -0.7855  0.2932
  489TMC3    C2 7321   2.606   4.722  16.922 -0.4732 -0.4619  0.2315
  489TMC3    C3 7322   2.614   0.025  17.052 -0.2880  0.1914  0.2120
  489TMC3    C4 7323   2.482   4.530  16.986  1.0254 -0.1812 -0.5413
  489TMC3    C5 7324   2.487   4.577  17.112  0.1445 -0.2309 -0.3938
  489TMC3    C6 7325   2.555   4.681  17.150  0.5591  0.5085 -0.2983
  489TMC3     C 7326   2.501   4.594  16.761 -0.3388 -0.0832  0.6581
  489TMC3     O 7327   2.412   4.512  16.743 -0.1464 -0.6474 -0.0130
  489TMC3     H 7328   2.675   0.041  16.856 -2.0198 -0.2097 -1.1863
  489TMC3    H1 7329   2.448   4.430  16.961  1.0569 -0.1945 -0.5316
  489TMC3    H2 7330   2.579   4.685  17.256 -0.4938 -1.0270 -0.0059
  489TMC3    C7 7331   2.434   4.490  17.215 -0.0919  0.2600 -0.0422
  489TMC3    C8 7332   2.651   0.167  17.068 -0.3646 -0.1959 -0.1580
  489TMC3    O1 7333   2.472   4.501  17.333  0.0748 -0.1928 -0.1473
  489TMC3    O2 7334   2.710   0.226  16.979  0.2084  0.3434  0.3015
  490MPD2     C 7335   3.574   3.745  17.621 -0.0541  0.2243 -0.3524
  490MPD2    C1 7336   3.481   3.795  17.711 -0.2127 -0.0541  0.1515
  490MPD2    C2 7337   3.521   3.893   0.076 -0.1153 -0.1769  0.0712
  490MPD2    C3 7338   3.652   3.919   0.093 -0.7577 -0.1962  0.2894
  490MPD2    C4 7339   3.743   3.854   0.014  0.4230  1.2144  0.6184
  490MPD2    C5 7340   3.709   3.766  17.638 -0.3258  0.0089 -0.5056
  490MPD2     H 7341   3.442   3.934   0.138  1.2516  0.6091  1.2872
  490MPD2    H1 7342   3.851   3.866   0.020  0.3809  0.6592  2.3832
  490MPD2    H2 7343   3.548   3.681  17.538  0.7944 -1.4017  0.6261
  490MPD2    H3 7344   3.785   3.724  17.572  0.3627  0.3225  0.0958
  490MPD2     N 7345   3.695   4.026   0.173  0.1285  0.3116 -0.3918
  490MPD2    H5 7346   3.796   4.038   0.172  0.1989  0.0357  2.9020
  490MPD2    N1 7347   3.345   3.761  17.697  0.5083 -0.4857 -0.1198
  490MPD2    H7 7348   3.288   3.805   0.040  1.2827 -0.9633  0.7966
  491TMC3    C1 7349   3.145   3.715  17.594 -0.0616  0.1570  0.2163
  491TMC3    C2 7350   3.091   3.672  17.711 -0.3489  0.8316  0.2356
  491TMC3    C3 7351   2.956   3.686   0.011 -0.7099  0.1364  0.4007
  491TMC3    C4 7352   3.074   3.780  17.497  0.7022 -0.6755 -0.4275
  491TMC3    C5 7353   2.940   3.795  17.527  0.0722  0.1820 -0.7760
  491TMC3    C6 7354   2.879   3.750  17.641 -0.8006  0.0454  0.3982
  491TMC3     C 7355   3.286   3.699  17.580  0.3775  0.1876 -0.0012
  491TMC3     O 7356   3.330   3.690  17.464 -0.0799  0.8465  0.5911
  491TMC3     H 7357   3.158   3.619   0.050 -0.9624  1.0075  0.9993
  491TMC3    H1 7358   3.122   3.800  17.402 -0.5556 -0.4181 -1.0047
  491TMC3    H2 7359   2.772   3.764  17.654 -0.7550  0.5026  0.2920
  491TMC3    C7 7360   2.853   3.828  17.414 -0.0176  0.1208 -0.1149
  491TMC3    C8 7361   2.902   3.649   0.143  0.0788  0.1381 -0.1259
  491TMC3    O1 7362   2.739   3.780  17.398 -0.7040 -0.2364  0.4201
  491TMC3    O2 7363   2.789   3.689   0.177  0.0267  0.7851 -0.3244
  492MPD2     C 7364   3.100   0.055  11.242 -0.3906 -0.0622 -0.2447
  492MPD2    C1 7365   3.045   4.669  11.197 -0.2548 -0.4724 -0.3810
  492MPD2    C2 7366   2.978   4.584  11.282 -0.2441 -0.2877  0.0942
  492MPD2    C3 7367   2.978   4.610  11.416 -0.1091 -0.2672 -0.1762
  492MPD2    C4 7368   3.033   0.000  11.463 -0.7669 -0.1269 -0.1541
  492MPD2    C5 7369   3.087   0.096  11.377 -0.4898 -0.3371 -0.2256
  492MPD2     H 7370   2.948   4.486  11.246 -0.8825 -0.5278  1.2765
  492MPD2    H1 7371   3.053   0.025  11.567  2.3125  0.0536 -0.7729
  492MPD2    H2 7372   3.147   0.121  11.170  1.7114 -1.4998 -0.1734
  492MPD2    H3 7373   3.120   0.190  11.417  0.9566 -2.5043  3.6439
  492MPD2     N 7374   2.927   4.526  11.518  0.4206 -0.1134  0.3343
  492MPD2    H5 7375   2.921   4.561  11.612  5.2077  0.3091  0.4722
  492MPD2    N1 7376   3.052   4.649  11.059 -0.1981  0.2185 -0.3316
  492MPD2    H7 7377   3.104   4.723  11.012 -1.6316  1.6719  0.3611
  493TMC3    C1 7378   3.040   4.570  10.836  0.1937  0.3665 -0.0992
  493TMC3    C2 7379   3.157   4.631  10.817 -0.3917  0.3985  0.5960
  493TMC3    C3 7380   3.172   4.712  10.707  0.1772 -0.3396 -0.5266
  493TMC3    C4 7381   2.931   4.572  10.752  0.6067  0.2462 -0.3832
  493TMC3    C5 7382   2.945   4.653  10.645 -0.1145 -0.2890 -1.1161
  493TMC3    C6 7383   3.063   4.725  10.620 -0.0252  0.6792 -0.2152
  493TMC3     C 7384   3.002   4.548  10.976  0.4479  0.5623  0.0750
  493TMC3     O 7385   2.902   4.477  10.999  0.0085 -0.1816  0.2636
  493TMC3     H 7386   3.244   4.613  10.879  0.4735 -0.6061 -0.9298
  493TMC3    H1 7387   2.828   4.551  10.780  1.2098 -1.2691  0.6944
  493TMC3    H2 7388   3.072   0.059  10.535  0.9099  0.9835  0.1196
  493TMC3    C7 7389   2.854   4.635  10.537  0.2743 -0.0956 -0.2149
  493TMC3    C8 7390   3.220   0.107  10.755  0.7638 -0.1760 -0.1589
  493TMC3    O1 7391   2.863   4.713  10.442 -0.0818 -0.4673 -0.6373
  493TMC3    O2 7392   3.217   0.114  10.878  0.4390  0.0228 -0.5769
  494TMC3    C1 7393   3.534   1.170   0.313  0.4166  1.0448 -0.3852
  494TMC3    C2 7394   3.619   1.082   0.376  0.0754  0.2710 -0.1733
  494TMC3    C3 7395   3.742   1.053   0.329 -0.1642  0.4237 -0.5999
  494TMC3    C4 7396   3.581   1.245   0.212  0.3591 -0.2297 -0.0992
  494TMC3    C5 7397   3.706   1.216   0.169 -0.0883 -0.2484  0.6268
  494TMC3    C6 7398   3.793   1.120   0.222 -0.0186 -0.4544 -1.0007
  494TMC3     C 7399   3.401   1.188   0.358  0.3215  0.6271  0.5744
  494TMC3     O 7400   3.382   1.154   0.478 -0.2903  0.0342  0.1272
  494TMC3     H 7401   3.593   1.035   0.470  0.2489  0.2812 -0.1205
  494TMC3    H1 7402   3.525   1.332   0.181 -0.6588 -0.8988 -0.1303
  494TMC3    H2 7403   3.890   1.107   0.175  0.7761  0.3851  0.3894
  494TMC3    C7 7404   3.764   1.286   0.053  0.5251  0.1566 -0.5075
  494TMC3    C8 7405   3.782   0.922   0.348  0.5389 -0.5579  0.3416
  494TMC3    O1 7406   3.836   1.229  17.697 -0.0622 -0.1329 -0.2691
  494TMC3    O2 7407   3.697   0.854   0.409  0.2096 -0.2300  0.4364
  495TMC3    C1 7408   2.674   3.381  14.286  0.0068 -0.3598  0.2856
  495TMC3    C2 7409   2.557   3.435  14.248  0.5885 -0.2468 -0.3308
  495TMC3    C3 7410   2.455   3.461  14.336  0.2833 -0.4203  0.7827
  495TMC3    C4 7411   2.698   3.361  14.421 -0.0691 -0.2180  0.6802
  495TMC3    C5 7412   2.594   3.391  14.507  0.0999 -0.1998  0.1690
  495TMC3    C6 7413   2.477   3.443  14.467  0.2397 -0.1834 -0.0714
  495TMC3     C 7414   2.730   3.279  14.193 -0.9305  0.7233  0.7278
  495TMC3     O 7415   2.738   3.310  14.073 -0.2629  0.3662 -0.3480
  495TMC3     H 7416   2.538   3.433  14.141 -0.3508 -0.7457 -0.1542
  495TMC3    H1 7417   2.794   3.322  14.453  0.5641  0.5679 -0.2601
  495TMC3    H2 7418   2.404   3.485  14.535  1.7210  0.5371  1.0493
  495TMC3    C7 7419   2.604   3.351  14.646 -0.3206  0.3065  0.0908
  495TMC3    C8 7420   2.324   3.454  14.288  0.8393  0.2056  0.2216
  495TMC3    O1 7421   2.717   3.334  14.692  0.5599  0.2045  1.3254
  495TMC3    O2 7422   2.245   3.391  14.365 -0.6646  0.2167 -0.2747
  496MPD2     C 7423   4.215   3.149  15.702  0.0350  0.7796  0.2366
  496MPD2    C1 7424   4.345   3.158  15.667  0.4545  0.3006  0.4096
  496MPD2    C2 7425   4.441   3.181  15.765  0.3087  0.7983  0.9329
  496MPD2    C3 7426   4.412   3.195  15.903 -0.4665 -0.7152 -0.4838
  496MPD2    C4 7427   4.275   3.204  15.932 -0.3873 -0.3022  0.6410
  496MPD2    C5 7428   4.183   3.172  15.836  0.2857 -0.2419  0.3975
  496MPD2     H 7429   4.547   3.173  15.743  0.3120  0.2200  1.1379
  496MPD2    H1 7430   4.242   3.203  16.035 -0.3629  2.1992  0.6614
  496MPD2    H2 7431   4.137   3.124  15.632  1.4380  1.2083 -1.5081
  496MPD2    H3 7432   4.080   3.172  15.869 -0.1411 -1.3701 -0.9007
  496MPD2     N 7433   4.518   3.216  15.992  0.0620  0.5330 -0.2536
  496MPD2    H5 7434   4.608   3.185  15.956 -0.6158 -1.6447 -0.0617
  496MPD2    N1 7435   4.380   3.128  15.535  0.2178  0.1745  0.4420
  496MPD2    H7 7436   4.312   3.106  15.464  1.8516 -0.1569 -1.0147
  497TMC3    C1 7437   4.634   3.248  16.193 -0.5289  0.0559  0.4632
  497TMC3    C2 7438   0.012   3.233  16.116  0.0821  0.3584  0.7182
  497TMC3    C3 7439   0.127   3.200  16.179  0.7861  0.2752 -0.4102
  497TMC3    C4 7440   4.632   3.228  16.329 -0.3922  0.3180  0.3290
  497TMC3    C5 7441   0.019   3.197  16.388 -0.0768  0.7262 -0.6048
  497TMC3    C6 7442   0.131   3.182  16.313 -1.0632 -0.8711  0.4960
  497TMC3     C 7443   4.509   3.258  16.124  0.6553  0.4180 -0.0385
  497TMC3     O 7444   4.410   3.281  16.191  0.1345  0.2606  0.6347
  497TMC3     H 7445   0.016   3.276  16.017  1.0411  1.9769  1.4466
  497TMC3    H1 7446   4.538   3.234  16.382 -0.8801 -2.4330 -0.2546
  497TMC3    H2 7447   0.228   3.160  16.357 -1.4576 -0.1324  1.7509
  497TMC3    C7 7448   0.014   3.170  16.534 -0.3835 -0.8370 -0.1688
  497TMC3    C8 7449   0.245   3.239  16.107  0.5623  0.2795  0.6738
  497TMC3    O1 7450   4.644   3.205  16.587  0.0420  0.1530 -0.3609
  497TMC3    O2 7451   0.235   3.223  15.987  0.7915 -0.2101 -0.0353
  498MPD2     C 7452   0.650   0.152   9.582 -0.2859 -0.7750  0.1843
  498MPD2    C1 7453   0.648   0.155   9.714 -0.0109  0.1560  0.3714
  498MPD2    C2 7454   0.661   0.040   9.791  0.3386  0.7484  0.0551
  498MPD2    C3 7455   0.676   4.649   9.735  1.0823 -0.3204  0.4209
  498MPD2    C4 7456   0.677   4.640   9.599 -0.7523  0.3356 -0.4694
  498MPD2    C5 7457   0.656   0.030   9.531  0.0797  0.2358 -0.5022
  498MPD2     H 7458   0.640   0.047   9.898  1.5951 -0.7526  0.4055
  498MPD2    H1 7459   0.679   4.554   9.534  0.5838 -0.1808  0.2533
  498MPD2    H2 7460   0.642   0.232   9.509  0.1037 -0.8738  0.0368
  498MPD2    H3 7461   0.671   0.033   9.423 -4.5232 -1.0083 -1.1639
  498MPD2     N 7462   0.696   4.543   9.821  0.0466 -0.1450 -0.7244
  498MPD2    H5 7463   0.696   4.562   9.920 -1.2324  1.2595 -1.0027
  498MPD2    N1 7464   0.609   0.263   9.788  0.0533  0.1681  0.1798
  498MPD2    H7 7465   0.599   0.253   9.888  0.2193 -1.0098  0.0789
  499TMC3    C1 7466   0.594   0.482   9.862 -0.0494 -0.0455 -0.3538
  499TMC3    C2 7467   0.647   0.456   9.986 -0.1134  0.5775  0.0251
  499TMC3    C3 7468   0.619   0.542  10.091  0.8334  0.6513  0.3136
  499TMC3    C4 7469   0.526   0.596   9.841 -0.0023 -0.0664  0.1590
  499TMC3    C5 7470   0.483   0.676   9.948 -1.0792 -0.7483 -0.2392
  499TMC3    C6 7471   0.525   0.645  10.071 -0.2066  0.2118 -0.7024
  499TMC3     C 7472   0.623   0.395   9.747  0.3926 -0.2523  0.8729
  499TMC3     O 7473   0.624   0.441   9.634  0.1123 -0.1455 -0.3152
  499TMC3     H 7474   0.731   0.389   9.997  0.0169  1.0120  1.6958
  499TMC3    H1 7475   0.496   0.624   9.741  0.1887 -0.0197  0.1155
  499TMC3    H2 7476   0.520   0.717  10.151 -0.1641 -0.5660 -0.0025
  499TMC3    C7 7477   0.432   0.810   9.911  0.5443  0.6110 -0.3058
  499TMC3    C8 7478   0.679   0.524  10.215 -0.1125 -0.4182  0.0750
  499TMC3    O1 7479   0.429   0.848   9.793 -0.0257  0.1134  0.0637
  499TMC3    O2 7480   0.686   0.623  10.286  0.2756 -0.4930 -0.5159
  500MPD2     C 7481   1.929   0.807  10.454  0.0712  0.0035 -0.0403
  500MPD2    C1 7482   1.859   0.897  10.530 -0.6700  1.1103  0.3130
  500MPD2    C2 7483   1.739   0.944  10.486  0.7743 -0.1168  0.1279
  500MPD2    C3 7484   1.684   0.903  10.363 -0.4816  0.0514  0.1014
  500MPD2    C4 7485   1.763   0.826  10.292  0.1330 -0.2733  0.2583
  500MPD2    C5 7486   1.876   0.772  10.335 -0.2917  0.0271  1.3197
  500MPD2     H 7487   1.690   1.023  10.543  1.6553 -0.9988  2.1024
  500MPD2    H1 7488   1.731   0.780  10.199 -1.3608  3.4925 -1.0962
  500MPD2    H2 7489   2.027   0.771  10.482  0.5114 -0.1861 -1.8135
  500MPD2    H3 7490   1.933   0.704  10.273 -1.3193 -1.3532  1.8903
  500MPD2     N 7491   1.560   0.930  10.303  0.0816  0.3668 -0.8484
  500MPD2    H5 7492   1.538   0.887  10.213  1.0086 -1.1217 -0.3720
  500MPD2    N1 7493   1.910   0.947  10.652 -0.2059 -0.0401 -0.2528
  500MPD2    H7 7494   1.850   1.013  10.702 -1.0586 -0.8795 -0.1602
  501TMC3    C1 7495   2.082   1.029  10.799  0.0907  0.1212  0.3262
  501TMC3    C2 7496   2.029   1.153  10.799  0.4936 -0.3068 -0.6880
  501TMC3    C3 7497   2.077   1.244  10.887 -0.4910 -0.3519 -0.2448
  501TMC3    C4 7498   2.190   0.992  10.874  0.0356  0.1846  0.2461
  501TMC3    C5 7499   2.230   1.086  10.971  0.2461  0.0390 -0.2278
  501TMC3    C6 7500   2.171   1.208  10.978  0.1651  0.5162 -0.3120
  501TMC3     C 7501   2.037   0.930  10.699 -0.0666  0.0649  0.6192
  501TMC3     O 7502   2.110   0.836  10.674 -0.8139  0.5251 -0.9882
  501TMC3     H 7503   1.962   1.188  10.721  1.5115  1.4306 -0.7974
  501TMC3    H1 7504   2.241   0.897  10.862  2.9730  1.5741  1.7439
  501TMC3    H2 7505   2.201   1.287  11.047  2.5526 -0.7888  0.1511
  501TMC3    C7 7506   2.371   1.087  11.002  0.3779  0.1096 -0.0055
  501TMC3    C8 7507   2.115   1.374  10.840 -0.2529  0.2429 -0.0546
  501TMC3    O1 7508   2.432   0.986  11.003 -0.0314  0.2338 -0.2958
  501TMC3    O2 7509   2.214   1.430  10.890 -0.1157 -0.4202 -0.4806
  502TMC3    C1 7510   2.240   4.432  14.918  0.5030 -0.2887 -0.4730
  502TMC3    C2 7511   2.183   4.552  14.898 -0.7824  0.0336 -0.0606
  502TMC3    C3 7512   2.051   4.557  14.914 -0.1300 -0.1440 -0.6077
  502TMC3    C4 7513   2.163   4.321  14.953 -0.5164 -0.0718 -0.1304
  502TMC3    C5 7514   2.026   4.325  14.957 -0.0889 -0.3761  0.5842
  502TMC3    C6 7515   1.968   4.447  14.938  0.8720  0.5240  0.7008
  502TMC3     C 7516   2.367   4.438  14.985 -0.8635 -0.4681 -0.3151
  502TMC3     O 7517   2.446   4.529  14.960  0.3828 -0.1208 -0.4608
  502TMC3     H 7518   2.250   4.637  14.889 -1.3267  0.3605 -1.0162
  502TMC3    H1 7519   2.215   4.226  14.963 -1.2095 -0.4435 -0.1044
  502TMC3    H2 7520   1.864   4.456  14.964  0.3399  1.0074 -1.5452
  502TMC3    C7 7521   1.968   4.212  15.036 -0.0934 -0.2712 -0.5245
  502TMC3    C8 7522   1.994   4.672  14.861 -0.5908 -0.0663  0.3319
  502TMC3    O1 7523   2.044   4.168  15.118  0.4415  0.4874  0.1438
  502TMC3    O2 7524   2.055   0.003  14.774  0.4890 -0.3096 -0.0106
  503MPD2     C 7525   4.145   0.383  16.608  0.3339  0.9536 -0.0459
  503MPD2    C1 7526   4.104   0.350  16.738  0.2442  0.0777  0.0929
  503MPD2    C2 7527   4.154   0.231  16.792 -0.0097 -0.2566 -0.2092
  503MPD2    C3 7528   4.239   0.141  16.717  0.3199  0.3885  1.0834
  503MPD2    C4 7529   4.270   0.175  16.588  0.4097 -0.6684  0.0238
  503MPD2    C5 7530   4.222   0.293  16.531 -0.1542 -0.1569  0.1150
  503MPD2     H 7531   4.114   0.190  16.884 -0.1613 -0.6129 -0.4320
  503MPD2    H1 7532   4.339   0.123  16.523  0.0438 -0.4184 -0.5661
  503MPD2    H2 7533   4.124   0.480  16.563 -3.1343 -0.1810 -0.8389
  503MPD2    H3 7534   4.261   0.319  16.433  1.2962 -0.0370  0.7288
  503MPD2     N 7535   4.277   0.023  16.782  0.6310 -0.2635  0.3733
  503MPD2    H5 7536   4.230   4.726  16.866  0.9661 -0.0594  0.6319
  503MPD2    N1 7537   4.030   0.435  16.826 -0.7970 -0.3440 -0.0070
  503MPD2    H7 7538   4.009   0.412  16.922  1.9812  0.1087  0.7333
  504TMC3    C1 7539   4.381   4.541  16.827  0.3362  0.1190  0.3216
  504TMC3    C2 7540   4.396   4.574  16.960 -0.1659 -0.0531 -0.0954
  504TMC3    C3 7541   4.459   4.492  17.045 -0.4673  0.3770 -0.7232
  504TMC3    C4 7542   4.450   4.434  16.778 -0.3621 -0.3932  0.9496
  504TMC3    C5 7543   4.534   4.362  16.865 -0.3451  0.1028 -0.4553
  504TMC3    C6 7544   4.540   4.396  16.997 -0.8308 -0.2560  0.3926
  504TMC3     C 7545   4.347   4.645  16.728 -0.2948  0.0744  0.3867
  504TMC3     O 7546   4.395   4.637  16.618 -0.3376 -0.2357 -0.0116
  504TMC3     H 7547   4.354   4.667  16.996  0.4693 -0.1268  0.8234
  504TMC3    H1 7548   4.456   4.406  16.674  0.9452 -1.0074  1.1978
  504TMC3    H2 7549   4.621   4.354  17.056  0.6895 -0.1633 -1.5988
  504TMC3    C7 7550   4.651   4.292  16.811  0.4131 -0.6820  0.0956
  504TMC3    C8 7551   4.456   4.527  17.185  0.0684 -0.8686  0.2460
  504TMC3    O1 7552   4.688   4.323  16.699  0.2343  0.4981  0.9893
  504TMC3    O2 7553   4.427   4.643  17.215  0.2128 -0.2768  0.5640
  505MPD2     C 7554   4.719   3.781  10.352 -0.0775  0.0777 -0.0592
  505MPD2    C1 7555   0.063   3.723  10.449  0.4342 -0.2322 -0.2634
  505MPD2    C2 7556   0.090   3.795  10.562  0.1017  0.8296 -0.4805
  505MPD2    C3 7557   0.051   3.920  10.590  0.0123  0.3393  0.4675
  505MPD2    C4 7558   4.697   3.981  10.497 -0.3712  0.7163  0.2950
  505MPD2    C5 7559   4.671   3.911  10.383 -0.1291 -0.2687 -0.6293
  505MPD2     H 7560   0.154   3.748  10.637 -1.6686  0.1498  0.6121
  505MPD2    H1 7561   4.672   4.085  10.509  0.2900  0.7094  1.6747
  505MPD2    H2 7562   4.687   3.728  10.263 -1.2703 -1.4900  1.3137
  505MPD2    H3 7563   4.611   3.966  10.311  0.0847 -1.5109 -1.7752
  505MPD2     N 7564   0.102   3.976  10.703 -0.4328  0.1938  0.2512
  505MPD2    H5 7565   0.154   3.911  10.760  0.2541  3.1169  2.9605
  505MPD2    N1 7566   0.111   3.594  10.418 -0.7215  0.4565 -0.4004
  505MPD2    H7 7567   0.071   3.549  10.337  2.1873 -0.0282 -1.5684
  506TMC3    C1 7568   0.253   3.398  10.453  0.1442 -0.1000 -0.0937
  506TMC3    C2 7569   0.326   3.405  10.338 -0.3926 -0.2529  0.8735
  506TMC3    C3 7570   0.437   3.325  10.333 -0.3536 -0.3765 -0.5396
  506TMC3    C4 7571   0.286   3.311  10.557  0.0670  0.5913 -0.3073
  506TMC3    C5 7572   0.412   3.248  10.549  0.4251  0.1965 -0.1269
  506TMC3    C6 7573   0.479   3.247  10.430  0.5156 -0.7490 -0.9611
  506TMC3     C 7574   0.184   3.513  10.506 -0.6336  0.1339  0.4765
  506TMC3     O 7575   0.218   3.547  10.622 -1.3112  0.6168 -0.3245
  506TMC3     H 7576   0.297   3.479  10.264  2.5438  0.9082  0.8857
  506TMC3    H1 7577   0.236   3.304  10.653  1.8480  0.8830  0.6370
  506TMC3    H2 7578   0.584   3.221  10.421  0.4696 -1.0408 -0.6590
  506TMC3    C7 7579   0.509   3.271  10.654  0.1854  0.0778 -0.2900
  506TMC3    C8 7580   0.549   3.354  10.235 -0.1156 -0.4725  0.3015
  506TMC3    O1 7581   0.625   3.240  10.635 -0.9301 -0.0492 -0.2486
  506TMC3    O2 7582   0.608   3.257  10.198 -0.4561 -0.1600  0.1367
  507TMC3    C1 7583   0.525   4.239  15.099  0.3800  0.1785 -0.5431
  507TMC3    C2 7584   0.460   4.189  14.991  0.0287 -0.5778  0.4028
  507TMC3    C3 7585   0.519   4.194  14.870 -0.2467  1.0200 -0.2346
  507TMC3    C4 7586   0.650   4.297  15.082  0.3941  0.0545 -0.5421
  507TMC3    C5 7587   0.700   4.306  14.958  0.0694  0.1221 -0.0550
  507TMC3    C6 7588   0.643   4.245  14.855  0.6347 -0.0689 -0.2055
  507TMC3     C 7589   0.480   4.209  15.233  0.4464 -0.6095  0.0687
  507TMC3     O 7590   0.558   4.212  15.328  0.4819 -0.1311  0.1358
  507TMC3     H 7591   0.367   4.135  15.001 -0.4609 -0.2179 -2.3372
  507TMC3    H1 7592   0.703   4.361  15.151  0.5416 -1.3938  0.6740
  507TMC3    H2 7593   0.692   4.232  14.760 -0.5453 -0.8886 -0.6935
  507TMC3    C7 7594   0.743   4.437  14.915  0.0849 -0.0014 -0.0627
  507TMC3    C8 7595   0.431   4.229  14.755  0.2210 -0.6414  1.0587
  507TMC3    O1 7596   0.830   4.484  14.983 -0.3977 -0.2589 -0.7090
  507TMC3    O2 7597   0.495   4.297  14.675 -0.1301  0.0820  0.2409
  508MPD2     C 7598   1.311   1.712  15.818  0.7434  0.7525 -0.1594
  508MPD2    C1 7599   1.409   1.780  15.890  0.3252 -0.6951 -1.0264
  508MPD2    C2 7600   1.433   1.914  15.854  0.1157 -0.4105 -0.0800
  508MPD2    C3 7601   1.375   1.971  15.742  0.5313 -0.1642  0.3213
  508MPD2    C4 7602   1.274   1.906  15.672 -0.3652  0.7290 -0.6060
  508MPD2    C5 7603   1.244   1.769  15.709  0.7410 -0.5212  0.3472
  508MPD2     H 7604   1.503   1.970  15.914  1.0837 -1.2514 -0.4287
  508MPD2    H1 7605   1.210   1.949  15.597 -1.9870  0.3878  0.5702
  508MPD2    H2 7606   1.274   1.615  15.851 -0.7948  1.5631  0.5176
  508MPD2    H3 7607   1.157   1.719  15.668  2.0373 -2.6096  0.1225
  508MPD2     N 7608   1.389   2.111  15.717 -0.0590 -0.0023  0.7346
  508MPD2    H5 7609   1.442   2.166  15.784 -0.3004  0.5040  0.5086
  508MPD2    N1 7610   1.482   1.723  16.002  0.1946  0.1641 -0.5968
  508MPD2    H7 7611   1.559   1.778  16.037 -0.7900  0.4512  1.1652
  509TMC3    C1 7612   1.339   2.542  15.564  0.9470  0.4642  0.1107
  509TMC3    C2 7613   1.468   2.577  15.608 -0.1702 -0.3204 -0.1396
  509TMC3    C3 7614   1.550   2.478  15.656 -0.6412  0.6578 -0.3271
  509TMC3    C4 7615   1.299   2.409  15.559  0.0999  0.2444  0.1681
  509TMC3    C5 7616   1.376   2.319  15.621  0.6321  0.0549 -1.0913
  509TMC3    C6 7617   1.498   2.350  15.672 -0.6449  0.3148 -0.0782
  509TMC3     C 7618   1.230   2.634  15.562  0.3080  0.5208  0.0099
  509TMC3     O 7619   1.149   2.632  15.651 -0.4826  0.3506 -0.7228
  509TMC3     H 7620   1.508   2.676  15.592  0.4354 -0.4542  0.5722
  509TMC3    H1 7621   1.198   2.392  15.524  0.9420 -2.7289 -0.7700
  509TMC3    H2 7622   1.563   2.273  15.710 -0.1766  0.8167  0.1291
  509TMC3    C7 7623   1.334   2.180  15.615 -0.5567 -0.2014 -0.3989
  509TMC3    C8 7624   1.660   2.507  15.748  0.6493 -0.6920  0.0133
  509TMC3    O1 7625   1.254   2.150  15.531  0.4836  0.4151 -0.3876
  509TMC3    O2 7626   1.706   2.413  15.810 -0.8927 -0.2405 -0.4097
  510MPD2     C 7627   3.779   3.738  14.414 -0.0040  0.0483  0.2830
  510MPD2    C1 7628   3.861   3.672  14.491  0.7439 -0.2332  0.4064
  510MPD2    C2 7629   3.990   3.655  14.452  0.1677  0.2915 -0.0459
  510MPD2    C3 7630   4.033   3.694  14.323  0.1223  0.9458  0.8716
  510MPD2    C4 7631   3.943   3.759  14.242  0.0867  0.4796 -0.0238
  510MPD2    C5 7632   3.813   3.775  14.288  0.0727  0.3974 -0.6139
  510MPD2     H 7633   4.063   3.622  14.526  0.1478 -0.0039 -0.1575
  510MPD2    H1 7634   3.964   3.787  14.140 -2.6098  2.7476  0.0325
  510MPD2    H2 7635   3.675   3.740  14.446  1.0064 -0.6748  3.5691
  510MPD2    H3 7636   3.735   3.815  14.224 -1.2827 -1.4585 -0.0901
  510MPD2     N 7637   4.169   3.677  14.292 -0.7396 -0.1141  0.0377
  510MPD2    H5 7638   4.227   3.631  14.362 -0.1483  0.4341 -0.0918
  510MPD2    N1 7639   3.828   3.629  14.626  0.3747  0.0944 -0.0451
  510MPD2    H7 7640   3.910   3.582  14.663  0.6177 -0.2380 -0.9918
  511TMC3    C1 7641   3.732   3.610  14.838 -0.6764 -0.4000 -0.1809
  511TMC3    C2 7642   3.651   3.662  14.933  0.9838 -0.2663 -0.2984
  511TMC3    C3 7643   3.646   3.597  15.049 -0.0654  0.6048  0.2138
  511TMC3    C4 7644   3.806   3.496  14.861 -0.8576  0.0110  0.3189
  511TMC3    C5 7645   3.795   3.434  14.983 -0.2520 -0.2039  0.1029
  511TMC3    C6 7646   3.717   3.486  15.087  0.0281 -0.4563  0.3036
  511TMC3     C 7647   3.717   3.662  14.709  0.8786  0.6635 -0.5683
  511TMC3     O 7648   3.621   3.735  14.684 -0.3050  0.3018 -0.0122
  511TMC3     H 7649   3.603   3.757  14.913 -0.3170 -1.2130 -1.6739
  511TMC3    H1 7650   3.865   3.454  14.780 -1.1426 -0.0687  0.1516
  511TMC3    H2 7651   3.697   3.418  15.169  1.8287  3.3101  3.8239
  511TMC3    C7 7652   3.848   3.298  15.006 -0.2606 -0.3582 -0.1190
  511TMC3    C8 7653   3.588   3.671  15.157  0.3873  0.8228 -0.6362
  511TMC3    O1 7654   3.857   3.269  15.125 -0.7542  0.5221 -0.4734
  511TMC3    O2 7655   3.542   3.782  15.140  0.1864  0.3037  0.3209
  512TMC3    C1 7656   2.764   3.333  12.774 -0.1802  0.7232  1.2768
  512TMC3    C2 7657   2.875   3.326  12.852  0.0683 -0.1599  0.6170
  512TMC3    C3 7658   2.908   3.201  12.896  0.5398 -0.5240 -0.2019
  512TMC3    C4 7659   2.708   3.237  12.710 -0.0503  0.3091 -0.0436
  512TMC3    C5 7660   2.753   3.112  12.749  0.5164  0.2763  0.5328
  512TMC3    C6 7661   2.846   3.089  12.840  0.5381 -0.2066 -0.2976
  512TMC3     C 7662   2.692   3.455  12.785 -1.3591  0.3667 -0.1235
  512TMC3     O 7663   2.752   3.556  12.828 -0.6809  0.1788 -0.4042
  512TMC3     H 7664   2.920   3.413  12.900  2.2237 -0.5667 -0.6923
  512TMC3    H1 7665   2.633   3.248  12.632  0.8927  1.5599 -0.7604
  512TMC3    H2 7666   2.851   2.998  12.898  0.1755  0.1752  0.3316
  512TMC3    C7 7667   2.722   3.003  12.657 -0.1821  0.1381 -0.6946
  512TMC3    C8 7668   3.010   3.165  12.991 -0.2381 -0.6989 -0.1732
  512TMC3    O1 7669   2.620   3.017  12.591 -0.3784 -0.9931 -0.3033
  512TMC3    O2 7670   3.068   3.053  12.979 -0.4627  0.5806 -0.6377
  513MPD2     C 7671   4.626   2.917  13.019  0.1119  0.2555  0.5558
  513MPD2    C1 7672   4.633   2.786  13.023  0.1961 -0.4384  0.1729
  513MPD2    C2 7673   4.693   2.724  13.132 -0.3653 -0.0751  0.2594
  513MPD2    C3 7674   0.026   2.794  13.223 -0.4235 -0.6145 -0.6389
  513MPD2    C4 7675   0.028   2.930  13.216 -0.1379  0.1889  0.1054
  513MPD2    C5 7676   4.689   2.994  13.113 -0.3491 -0.2598  0.5054
  513MPD2     H 7677   4.704   2.616  13.126  2.3493  0.2077  0.4529
  513MPD2    H1 7678   0.087   2.982  13.291 -1.0939  0.9651  0.3056
  513MPD2    H2 7679   4.574   2.969  12.940 -0.5080 -1.2848 -0.0311
  513MPD2    H3 7680   4.675   3.101  13.115  1.0116 -0.0551 -0.2977
  513MPD2     N 7681   0.095   2.715  13.312  0.5141  0.5996  0.6788
  513MPD2    H5 7682   0.082   2.615  13.297 -1.4478  0.3453  4.0826
  513MPD2    N1 7683   4.573   2.698  12.924  0.2563 -0.3168  0.1938
  513MPD2    H7 7684   4.583   2.600  12.947  0.7582 -0.9266 -2.5625
  514TMC3    C1 7685   4.541   2.619  12.714  0.4622  0.0110 -0.2256
  514TMC3    C2 7686   4.634   2.631  12.611 -0.5704 -0.1954 -0.2933
  514TMC3    C3 7687   0.003   2.541  12.591 -0.8889 -0.3572  0.0190
  514TMC3    C4 7688   4.529   2.497  12.778  0.1550 -0.2909  0.1684
  514TMC3    C5 7689   4.625   2.406  12.756 -0.2444 -0.2947  0.7110
  514TMC3    C6 7690   4.729   2.428  12.674  0.2928 -0.0004  0.2809
  514TMC3     C 7691   4.531   2.735  12.801  0.0930 -0.1301 -0.0553
  514TMC3     O 7692   4.517   2.846  12.745 -0.3457 -0.0117  0.3934
  514TMC3     H 7693   4.643   2.730  12.568 -0.2441 -0.1408 -0.1031
  514TMC3    H1 7694   4.455   2.477  12.855 -0.9680  1.6423 -0.3991
  514TMC3    H2 7695   0.086   2.366  12.671 -0.1813 -0.7131  1.3520
  514TMC3    C7 7696   4.662   2.339  12.885  0.5674  0.1171  0.4828
  514TMC3    C8 7697   0.132   2.573  12.525  0.2612 -0.6366 -0.3962
  514TMC3    O1 7698   4.627   2.396  12.986 -0.2182 -0.1982 -0.2741
  514TMC3    O2 7699   0.220   2.491  12.534  0.0829  0.7700  0.3101
  515MPD2     C 7700   2.859   0.242  15.029 -0.4063 -0.4532  0.2537
  515MPD2    C1 7701   2.891   0.263  14.897 -0.4706 -0.0765 -0.0614
  515MPD2    C2 7702   2.973   0.371  14.867  0.2605 -0.0812  0.2277
  515MPD2    C3 7703   3.027   0.451  14.961 -0.0801  0.0796  0.2055
  515MPD2    C4 7704   3.003   0.428  15.093 -0.5171  0.0272 -0.3603
  515MPD2    C5 7705   2.911   0.327  15.125 -0.5219  0.1987 -0.1217
  515MPD2     H 7706   2.998   0.376  14.762  1.9513  2.1051  0.7398
  515MPD2    H1 7707   3.062   0.487  15.162 -0.8474 -0.4047  0.3021
  515MPD2    H2 7708   2.792   0.161  15.057 -1.3241  1.3831  3.2415
  515MPD2    H3 7709   2.900   0.310  15.231 -0.5058  0.4546 -0.0780
  515MPD2     N 7710   3.124   0.557  14.935 -0.0869 -0.2450  0.2489
  515MPD2    H5 7711   3.158   0.597  15.021  0.3706  0.5347 -0.2932
  515MPD2    N1 7712   2.856   0.169  14.799  0.0910 -0.6694  0.0570
  515MPD2    H7 7713   2.877   0.189  14.702  1.6715 -0.2732  0.4885
  516TMC3    C1 7714   2.735   4.715  14.702 -0.5715  0.2300  0.2502
  516TMC3    C2 7715   2.734   0.037  14.575 -0.1177 -0.2987 -0.3014
  516TMC3    C3 7716   2.722   4.684  14.469 -0.0769  0.4310 -0.7491
  516TMC3    C4 7717   2.715   4.581  14.717  0.0540  0.7912  1.1163
  516TMC3    C5 7718   2.703   4.502  14.609 -0.2937 -0.2146  0.1437
  516TMC3    C6 7719   2.699   4.550  14.484  0.9278 -0.1535 -0.5440
  516TMC3     C 7720   2.788   0.049  14.818 -0.4215  0.5383  0.9712
  516TMC3     O 7721   2.774   4.720  14.924  0.1944  0.2479  0.0007
  516TMC3     H 7722   2.766   0.141  14.566 -1.1823  0.0772  0.2827
  516TMC3    H1 7723   2.698   4.533  14.812 -0.1564  2.3860  1.8850
  516TMC3    H2 7724   2.683   4.492  14.394 -1.2284 -1.6708  0.8290
  516TMC3    C7 7725   2.688   4.359  14.636  0.1847 -0.0821 -0.7275
  516TMC3    C8 7726   2.648   0.014  14.353 -0.2976 -0.1736  0.0943
  516TMC3    O1 7727   2.680   4.315  14.751  0.1209 -0.0119 -0.1147
  516TMC3    O2 7728   2.576   4.668  14.290 -0.0278  0.2835 -0.4309
  517MPD2     C 7729   2.404   1.703   0.146 -0.2013  0.2357 -0.4803
  517MPD2    C1 7730   2.538   1.686   0.152  0.1805 -1.0058  0.1317
  517MPD2    C2 7731   2.612   1.764   0.243 -0.2836 -0.0145 -0.4988
  517MPD2    C3 7732   2.547   1.854   0.331 -0.3134 -0.0849 -0.2887
  517MPD2    C4 7733   2.411   1.867   0.318 -0.2684 -0.0288  0.3629
  517MPD2    C5 7734   2.338   1.792   0.223  0.0903  0.1661  0.3530
  517MPD2     H 7735   2.719   1.745   0.243 -0.2645  0.1160 -1.3362
  517MPD2    H1 7736   2.357   1.935   0.383 -0.7328  0.6331 -0.7041
  517MPD2    H2 7737   2.339   1.652   0.075  0.3917  0.1361 -0.9564
  517MPD2    H3 7738   2.233   1.803   0.200  0.2561  0.1148 -0.4344
  517MPD2     N 7739   2.616   1.924   0.434 -0.2100  0.1630 -0.1847
  517MPD2    H5 7740   2.556   1.973   0.499  2.6227  2.1343  0.9650
  517MPD2    N1 7741   2.606   1.595   0.070 -0.3006  0.0129 -0.2599
  517MPD2    H7 7742   2.707   1.599   0.068 -0.3304  0.4838 -0.7317
  518TMC3    C1 7743   2.650   1.413  17.660  0.1909 -0.2076 -0.0462
  518TMC3    C2 7744   2.600   1.287  17.623 -0.5485 -0.3191 -0.3640
  518TMC3    C3 7745   2.669   1.216  17.523  0.2542 -0.7070 -0.6956
  518TMC3    C4 7746   2.771   1.466  17.615  0.0262  0.0045 -0.0593
  518TMC3    C5 7747   2.841   1.383  17.536  0.1778  0.2467 -0.4641
  518TMC3    C6 7748   2.787   1.267  17.479 -0.5398 -0.8254 -1.6595
  518TMC3     C 7749   2.549   1.497   0.002 -0.1253 -0.1406  0.4910
  518TMC3     O 7750   2.431   1.460   0.008 -1.1681 -0.1706 -0.5684
  518TMC3     H 7751   2.514   1.247  17.676  1.7576 -2.4528  1.7860
  518TMC3    H1 7752   2.803   1.567  17.641  1.3474 -0.3585 -0.2723
  518TMC3    H2 7753   2.848   1.221  17.402  0.9525  0.2382 -1.1166
  518TMC3    C7 7754   2.984   1.406  17.530 -0.2528 -0.0193  0.5275
  518TMC3    C8 7755   2.670   1.071  17.512  0.3743  0.6061 -0.1319
  518TMC3    O1 7756   3.018   1.520  17.528  0.6064 -0.1609  0.2437
  518TMC3    O2 7757   2.779   1.031  17.477  0.4740  0.2115 -0.2183
  519MPD2     C 7758   4.381   0.205  13.937 -0.2024  0.5571 -0.4266
  519MPD2    C1 7759   4.263   0.183  14.001  0.0994 -0.5791  1.3075
  519MPD2    C2 7760   4.246   0.076  14.083  0.7452  0.0243  0.6020
  519MPD2    C3 7761   4.342   4.710  14.078 -0.0874 -0.8509 -0.8427
  519MPD2    C4 7762   4.458   4.727  14.009 -0.3040  0.5090 -0.2708
  519MPD2    C5 7763   4.480   0.115  13.942  0.6878  0.3211 -0.4611
  519MPD2     H 7764   4.156   0.046  14.135 -0.7628  0.1203 -1.9589
  519MPD2    H1 7765   4.541   4.658  14.006  0.5593  1.5225  0.3053
  519MPD2    H2 7766   4.399   0.297  13.884 -1.8249 -0.2127 -2.3264
  519MPD2    H3 7767   4.575   0.136  13.894  0.8667  1.5406  0.4437
  519MPD2     N 7768   4.315   4.579  14.126 -0.1022 -0.3456  0.4870
  519MPD2    H5 7769   4.390   4.512  14.114  1.3996  1.6691 -1.3596
  519MPD2    N1 7770   4.165   0.279  13.982 -0.6333 -0.3343  0.6187
  519MPD2    H7 7771   4.196   0.365  13.938 -0.3199 -1.2941 -1.0324
  520TMC3    C1 7772   4.211   4.395  14.243  1.0290 -0.6089  0.3868
  520TMC3    C2 7773   4.084   4.336  14.252  0.1211  0.6106 -0.5008
  520TMC3    C3 7774   4.086   4.198  14.258 -0.0376 -0.8942  0.8570
  520TMC3    C4 7775   4.322   4.321  14.242  0.3622  0.3123 -0.1180
  520TMC3    C5 7776   4.316   4.185  14.254 -0.0669  0.1335 -0.5718
  520TMC3    C6 7777   4.199   4.124  14.270  0.8118  0.5111 -0.4608
  520TMC3     C 7778   4.212   4.539  14.208 -0.1185 -0.5632  0.3626
  520TMC3     O 7779   4.112   4.589  14.252 -0.2335  0.1174  0.6662
  520TMC3     H 7780   3.995   4.394  14.230  0.1685  1.5155  1.6343
  520TMC3    H1 7781   4.421   4.360  14.221  0.9471 -1.5276 -0.7933
  520TMC3    H2 7782   4.190   4.016  14.270  1.3630  0.4643 -1.4114
  520TMC3    C7 7783   4.429   4.100  14.248  0.3477 -0.8878 -0.8450
  520TMC3    C8 7784   3.977   4.127  14.186 -0.4482  0.5736 -0.5150
  520TMC3    O1 7785   4.448   4.016  14.334  0.1749  0.0150  0.2201
  520TMC3    O2 7786   4.014   4.048  14.104  0.2057  0.3297 -0.3508
  521MPD2     C 7787   0.002   2.221  17.205 -0.4710 -0.0093  0.1889
  521MPD2    C1 7788   4.716   2.219  17.066 -0.7097  0.4782 -0.4633
  521MPD2    C2 7789   0.083   2.165  16.993  0.1849 -0.0025  0.6086
  521MPD2    C3 7790   0.205   2.134  17.042 -0.6331  0.0509  0.5691
  521MPD2    C4 7791   0.219   2.145  17.183 -0.2280  0.5753 -0.5168
  521MPD2    C5 7792   0.113   2.191  17.263 -0.6207  0.8696 -0.4040
  521MPD2     H 7793   0.071   2.158  16.885  0.9590 -0.4506  0.5566
  521MPD2    H1 7794   0.320   2.139  17.222 -0.7846  1.4847  1.0967
  521MPD2    H2 7795   4.664   2.265  17.275  0.3116  2.4835 -0.5948
  521MPD2    H3 7796   0.124   2.194  17.371 -3.2703  1.1971 -0.1532
  521MPD2     N 7797   0.309   2.100  16.945  0.2123 -0.7547  0.2273
  521MPD2    H5 7798   0.287   2.121  16.848 -1.4856 -0.7643  0.6082
  521MPD2    N1 7799   4.587   2.258  17.019  0.0142  0.6470 -0.3790
  521MPD2    H7 7800   4.517   2.258  17.091  1.2311 -0.4747  0.7976
  522TMC3    C1 7801   0.517   2.001  16.868  0.5874 -0.6555  0.8621
  522TMC3    C2 7802   0.620   1.920  16.901 -0.0547  0.2173 -0.6234
  522TMC3    C3 7803   0.729   1.922  16.820  0.6464 -0.0977 -0.6298
  522TMC3    C4 7804   0.523   2.097  16.767  0.0696 -0.6030 -0.1798
  522TMC3    C5 7805   0.633   2.098  16.684 -0.1033  0.1284  0.3861
  522TMC3    C6 7806   0.739   2.016  16.714 -0.0152  0.1610  0.2799
  522TMC3     C 7807   0.421   2.031  16.978  0.1331  0.0075 -0.8942
  522TMC3     O 7808   0.440   1.975  17.088  0.2417 -0.1419 -0.0206
  522TMC3     H 7809   0.619   1.849  16.983 -2.0286  0.1266 -0.7021
  522TMC3    H1 7810   0.449   2.176  16.759 -0.4351 -1.3603 -3.1824
  522TMC3    H2 7811   0.819   2.007  16.642 -0.8797 -0.2847 -0.6141
  522TMC3    C7 7812   0.636   2.192  16.572 -0.1302  0.1304 -0.1103
  522TMC3    C8 7813   0.834   1.819  16.846 -0.2523 -0.2349 -0.1812
  522TMC3    O1 7814   0.743   2.195  16.522 -0.8668 -0.0781  0.5136
  522TMC3    O2 7815   0.813   1.739  16.940 -0.1263 -0.0970  0.0229
  523MPD2     C 7816   2.974   3.019   9.563 -0.4496 -0.2178 -0.1393
  523MPD2    C1 7817   2.846   3.005   9.611  1.1995  0.3978 -0.2633
  523MPD2    C2 7818   2.740   3.082   9.558  0.6233  0.4584  0.2693
  523MPD2    C3 7819   2.767   3.180   9.456  0.5320 -0.4138 -0.7916
  523MPD2    C4 7820   2.895   3.193   9.419  0.5175 -0.1652  0.3927
  523MPD2    C5 7821   2.996   3.123   9.471 -0.2597 -0.8430 -0.4364
  523MPD2     H 7822   2.637   3.070   9.589  0.7897 -0.6670  0.3834
  523MPD2    H1 7823   2.921   3.263   9.340 -0.5235  0.0601  0.2581
  523MPD2    H2 7824   3.053   2.950   9.589 -2.4962 -2.1411  0.9326
  523MPD2    H3 7825   3.095   3.131   9.427  0.7557 -1.8485  1.6936
  523MPD2     N 7826   2.673   3.256   9.382 -0.3605  0.3914 -0.1756
  523MPD2    H5 7827   2.718   3.303   9.304  2.5332 -0.4943  0.9761
  523MPD2    N1 7828   2.822   2.905   9.709  0.3244  0.2529  0.0312
  523MPD2    H7 7829   2.905   2.857   9.742  1.9657  0.9089 -3.1878
  524TMC3    C1 7830   2.471   3.358   9.315 -0.2402  0.5323 -0.2351
  524TMC3    C2 7831   2.353   3.328   9.258 -0.3494 -0.1328  0.7288
  524TMC3    C3 7832   2.306   3.414   9.163 -0.7512  0.3006  0.5242
  524TMC3    C4 7833   2.547   3.462   9.264 -0.3797 -0.1202  0.5815
  524TMC3    C5 7834   2.487   3.557   9.182  0.3830  0.2381 -0.4161
  524TMC3    C6 7835   2.360   3.532   9.135  0.0691 -0.5698  0.0888
  524TMC3     C 7836   2.536   3.254   9.395  0.0898 -0.1950  0.3203
  524TMC3     O 7837   2.468   3.162   9.449  0.4093 -0.2034  0.0712
  524TMC3     H 7838   2.317   3.228   9.278 -0.4165 -0.5832 -1.6700
  524TMC3    H1 7839   2.638   3.485   9.318  0.6708 -1.0308 -0.7799
  524TMC3    H2 7840   2.311   3.612   9.079  1.1692 -1.8378 -2.6726
  524TMC3    C7 7841   2.560   3.681   9.166  0.1066 -0.3169 -0.4317
  524TMC3    C8 7842   2.163   3.405   9.129 -0.0658  0.5526 -0.0934
  524TMC3    O1 7843   2.670   3.682   9.223 -0.7232  0.6733  0.0031
  524TMC3    O2 7844   2.123   3.492   9.053  0.5695 -0.4178 -0.0822
  525MPD2     C 7845   0.820   4.193  14.526 -0.1328 -0.3579 -0.2476
  525MPD2    C1 7846   0.945   4.160  14.576  0.7836 -0.4526  0.4647
  525MPD2    C2 7847   1.037   4.258  14.586 -0.3082  0.3817 -0.2255
  525MPD2    C3 7848   1.013   4.395  14.551 -0.2018  0.2002 -0.2464
  525MPD2    C4 7849   0.887   4.428  14.512  0.1747 -0.1355 -0.3727
  525MPD2    C5 7850   0.794   4.324  14.492 -0.1753  0.1223 -0.6560
  525MPD2     H 7851   1.135   4.229  14.623 -0.2246  1.1214  0.1290
  525MPD2    H1 7852   0.858   4.532  14.499  0.9622  0.0247 -0.8411
  525MPD2    H2 7853   0.739   4.122  14.514  1.7259 -2.5382 -0.1700
  525MPD2    H3 7854   0.690   4.346  14.472 -0.4183 -0.0760  0.4283
  525MPD2     N 7855   1.109   4.501  14.571 -0.0735 -0.7069  0.3203
  525MPD2    H5 7856   1.076   4.596  14.583 -1.3976 -1.0897 -0.4044
  525MPD2    N1 7857   0.986   4.029  14.613  0.1700  0.4279  0.6741
  525MPD2    H7 7858   1.085   4.005  14.612  0.4400  1.5386  0.4679
  526TMC3    C1 7859   0.964   3.809  14.697  0.4628 -0.7906 -0.8408
  526TMC3    C2 7860   0.928   3.768  14.819 -0.2706 -0.1523  0.1539
  526TMC3    C3 7861   1.020   3.678  14.884 -0.3159 -0.8988 -0.1276
  526TMC3    C4 7862   1.082   3.775  14.631  0.1231  1.0079 -0.7082
  526TMC3    C5 7863   1.168   3.690  14.700  0.8386  0.3164  0.0638
  526TMC3    C6 7864   1.137   3.638  14.824 -0.2329  0.2988 -0.2890
  526TMC3     C 7865   0.894   3.926  14.648 -0.3791 -0.9444  0.9563
  526TMC3     O 7866   0.770   3.933  14.659  0.5253  0.2626 -0.2683
  526TMC3     H 7867   0.850   3.820  14.874  0.9282  2.7826 -0.9300
  526TMC3    H1 7868   1.088   3.809  14.528  0.8163  2.2070 -0.2722
  526TMC3    H2 7869   1.202   3.575  14.884 -0.8540 -0.2862 -0.2331
  526TMC3    C7 7870   1.298   3.658  14.642 -0.1764  0.4960 -0.2389
  526TMC3    C8 7871   1.006   3.681  15.026  0.5527 -0.2064  0.2344
  526TMC3    O1 7872   1.368   3.579  14.697 -0.6432 -0.1046  0.6877
  526TMC3    O2 7873   1.111   3.663  15.089 -0.1898  0.5984 -0.4274
  527MPD2     C 7874   3.262   2.032   1.360 -0.1064 -0.0585 -0.0073
  527MPD2    C1 7875   3.256   1.943   1.252  0.2824  0.0143 -0.5885
  527MPD2    C2 7876   3.363   1.935   1.167 -0.2701  0.5672  0.2197
  527MPD2    C3 7877   3.474   2.020   1.182 -0.4374 -0.2989  0.1828
  527MPD2    C4 7878   3.475   2.116   1.280  0.1489 -0.2517 -0.5100
  527MPD2    C5 7879   3.370   2.120   1.370  0.2864  0.2605  0.4716
  527MPD2     H 7880   3.356   1.865   1.085  0.5785 -0.2135  0.8156
  527MPD2    H1 7881   3.559   2.178   1.308  1.2758 -1.8929 -0.2728
  527MPD2    H2 7882   3.185   2.048   1.434  0.8550  0.8800  0.7849
  527MPD2    H3 7883   3.377   2.192   1.450 -2.0322 -0.4427  1.2936
  527MPD2     N 7884   3.580   2.009   1.096  1.2023  0.6882  0.0319
  527MPD2    H5 7885   3.583   1.922   1.045 -1.2294  0.4387  0.3004
  527MPD2    N1 7886   3.141   1.868   1.215  0.2295 -0.3456  0.4716
  527MPD2    H7 7887   3.152   1.812   1.131  0.0773  1.3013 -0.6323
  528TMC3    C1 7888   2.911   1.793   1.240  0.7498  0.4840  0.2203
  528TMC3    C2 7889   2.913   1.778   1.108  0.4422  0.3570 -0.2594
  528TMC3    C3 7890   2.798   1.740   1.042  0.1645 -0.0394 -0.2452
  528TMC3    C4 7891   2.798   1.796   1.311  0.6908  0.4340  0.3343
  528TMC3    C5 7892   2.686   1.757   1.243 -0.9391 -0.2591  0.3413
  528TMC3    C6 7893   2.682   1.728   1.113 -0.4039 -0.3807  0.3819
  528TMC3     C 7894   3.027   1.867   1.293 -0.0539 -0.2014 -0.3572
  528TMC3     O 7895   3.020   1.912   1.409  0.2021  0.2125 -0.4239
  528TMC3     H 7896   3.001   1.799   1.049 -0.1472  0.4009 -1.1217
  528TMC3    H1 7897   2.788   1.830   1.413  0.1184  1.5595 -0.0951
  528TMC3    H2 7898   2.585   1.731   1.066  0.4817  2.7294 -1.2365
  528TMC3    C7 7899   2.564   1.731   1.311 -0.1059  0.2710  0.1799
  528TMC3    C8 7900   2.802   1.750   0.897  0.1544  0.0065  0.2127
  528TMC3    O1 7901   2.551   1.792   1.414  0.0552  0.6032 -0.7936
  528TMC3    O2 7902   2.894   1.816   0.854 -0.2423 -0.0182 -0.1096
  529MPD2     C 7903   1.993   0.038   0.245 -0.4292  0.2680 -0.1160
  529MPD2    C1 7904   1.863   0.071   0.209  0.1903 -0.0079 -0.2298
  529MPD2    C2 7905   1.835   0.125   0.085 -0.6382  0.5969 -0.2622
  529MPD2    C3 7906   1.945   0.162   0.002  0.0593 -0.4998  0.0988
  529MPD2    C4 7907   2.073   0.135   0.044 -0.2511  0.4274  0.1672
  529MPD2    C5 7908   2.098   0.075   0.163  0.1868 -0.4388  0.0885
  529MPD2     H 7909   1.737   0.170   0.074 -1.2117 -0.4050  0.7547
  529MPD2    H1 7910   2.162   0.166  17.719 -0.6676 -0.6642 -1.1605
  529MPD2    H2 7911   2.019   4.723   0.339 -1.1225 -1.2942 -0.7064
  529MPD2    H3 7912   2.202   0.057   0.189  0.1718 -1.1240 -0.3468
  529MPD2     N 7913   1.928   0.218  17.602 -0.1499  0.4982 -0.9312
  529MPD2    H5 7914   2.008   0.250  17.550 -0.3812  1.8573 -0.4471
  529MPD2    N1 7915   1.753   0.064   0.297  0.7274  0.2600  0.4097
  529MPD2    H7 7916   1.663   0.079   0.253  1.5731  1.1100 -1.0431
  530TMC3    C1 7917   1.645   0.064   0.508 -0.2935  0.7030 -0.7994
  530TMC3    C2 7918   1.664   0.064   0.640  0.2999 -0.2009 -0.1325
  530TMC3    C3 7919   1.560   0.026   0.719  0.2938  0.0400 -0.2540
  530TMC3    C4 7920   1.528   0.020   0.452 -0.6182  0.3400  0.2279
  530TMC3    C5 7921   1.423   4.720   0.532  0.2775 -0.1200 -0.1812
  530TMC3    C6 7922   1.434   4.732   0.665  0.0937 -0.7303  0.4566
  530TMC3     C 7923   1.768   0.065   0.435  0.1448 -0.2417  0.3693
  530TMC3     O 7924   1.869   0.086   0.501  0.0415 -0.2005 -0.3972
  530TMC3     H 7925   1.757   0.075   0.695  0.7999 -0.5113 -0.9080
  530TMC3    H1 7926   1.523   4.728   0.346  1.1134 -2.2982  0.7406
  530TMC3    H2 7927   1.351   4.709   0.730 -0.2474  1.1361  0.6787
  530TMC3    C7 7928   1.309   4.643   0.474 -0.2842  0.4874  0.4229
  530TMC3    C8 7929   1.571   0.011   0.860  0.2836 -0.3400  0.4533
  530TMC3    O1 7930   1.316   4.632   0.348  0.2476 -0.2614 -0.7145
  530TMC3    O2 7931   1.468   0.029   0.928  0.8517 -0.2630 -0.1155
  531MPD2     C 7932   0.290   2.088  13.126 -0.2919 -0.8587 -1.1938
  531MPD2    C1 7933   0.212   2.189  13.172  0.7399  0.0912 -0.7257
  531MPD2    C2 7934   0.120   2.240  13.086  0.6488 -0.0634 -0.5373
  531MPD2    C3 7935   0.110   2.190  12.958  0.0306 -0.8782 -0.3725
  531MPD2    C4 7936   0.184   2.077  12.921 -0.5198  0.9890  0.1806
  531MPD2    C5 7937   0.282   2.028  13.003  0.3226  0.0323 -0.1877
  531MPD2     H 7938   0.070   2.334  13.104  0.2633 -0.0013 -1.8964
  531MPD2    H1 7939   0.155   2.043  12.822  0.2181 -2.2123  1.0372
  531MPD2    H2 7940   0.371   2.053  13.189 -0.7013 -0.3666 -0.3804
  531MPD2    H3 7941   0.345   1.947  12.970  2.9561  1.1547  2.0946
  531MPD2     N 7942   0.017   2.237  12.869 -0.0235  0.0982 -0.4576
  531MPD2    H5 7943   0.026   2.199  12.776  0.3178 -1.1066  0.0607
  531MPD2    N1 7944   0.241   2.249  13.299 -0.1493  0.8711 -0.1958
  531MPD2    H7 7945   0.326   2.223  13.348 -0.4376  2.6992  1.2997
  532TMC3    C1 7946   0.198   2.409  13.479  0.0541  0.5411 -0.2074
  532TMC3    C2 7947   0.134   2.529  13.486  0.2675 -0.2625 -0.3896
  532TMC3    C3 7948   0.207   2.640  13.505  0.0701 -0.1091 -0.5268
  532TMC3    C4 7949   0.328   2.398  13.516  0.1968  0.4913 -0.2124
  532TMC3    C5 7950   0.399   2.517  13.553  0.3170 -0.5398 -0.0618
  532TMC3    C6 7951   0.336   2.642  13.544 -0.0141  0.5636  0.3373
  532TMC3     C 7952   0.150   2.338  13.356 -0.6543  0.2038  0.3449
  532TMC3     O 7953   0.037   2.373  13.320  0.2863 -0.6592  0.2970
  532TMC3     H 7954   0.030   2.531  13.454  0.0277  0.4529  0.4493
  532TMC3    H1 7955   0.364   2.296  13.522  0.4502  0.5074 -1.3734
  532TMC3    H2 7956   0.392   2.734  13.547 -0.4813  0.9005 -1.4565
  532TMC3    C7 7957   0.528   2.519  13.616  0.0243 -0.3927 -0.2484
  532TMC3    C8 7958   0.167   2.754  13.425  0.9849  0.2683  0.0821
  532TMC3    O1 7959   0.585   2.625  13.650 -0.7666 -0.0842  0.0634
  532TMC3    O2 7960   0.188   2.865  13.468  0.1387  0.0093  0.4482
  533TMC3    C1 7961   1.304   4.618  14.639 -0.1644 -0.2617  0.5001
  533TMC3    C2 7962   1.442   4.622  14.625 -0.5036  0.0687 -0.0833
  533TMC3    C3 7963   1.502   4.727  14.688  0.5330 -0.2425  0.0832
  533TMC3    C4 7964   1.236   4.706  14.727  0.2517  0.2046  0.1289
  533TMC3    C5 7965   1.307   0.078  14.781 -0.0276 -0.2672  0.3514
  533TMC3    C6 7966   1.439   0.087  14.765  0.7580  0.0394 -0.1581
  533TMC3     C 7967   1.247   4.486  14.592 -0.2973  0.5161  0.1657
  533TMC3     O 7968   1.324   4.396  14.569  0.0449 -0.1463  0.3480
  533TMC3     H 7969   1.497   4.553  14.562  0.9148 -0.6412  1.9172
  533TMC3    H1 7970   1.129   4.710  14.740  0.5156  1.4325  1.7937
  533TMC3    H2 7971   1.482   0.169  14.823 -1.5541  0.3156  1.1767
  533TMC3    C7 7972   1.278   0.081  14.924 -0.1403 -0.1654 -0.3917
  533TMC3    C8 7973   1.615   0.051  14.613  0.0957  0.5553 -0.3866
  533TMC3    O1 7974   1.365   0.053  15.001  0.2036 -0.0874 -0.0547
  533TMC3    O2 7975   1.621   0.172  14.624 -0.3186  0.0095  0.4174
  534MPD2     C 7976   3.652   0.944   1.591  0.1440  0.5119 -0.1327
  534MPD2    C1 7977   3.548   1.012   1.529  0.5771 -0.5955  0.0786
  534MPD2    C2 7978   3.443   0.930   1.485  0.6838  0.2559  0.3686
  534MPD2    C3 7979   3.433   0.794   1.495  0.6602  0.3191  0.4193
  534MPD2    C4 7980   3.540   0.730   1.549  0.1255 -0.0507  0.7616
  534MPD2    C5 7981   3.645   0.805   1.601 -0.3361  0.1489  0.0427
  534MPD2     H 7982   3.356   0.980   1.444 -1.3825 -3.9306 -0.2505
  534MPD2    H1 7983   3.548   0.622   1.553  0.6451 -0.0330  0.3029
  534MPD2    H2 7984   3.739   0.999   1.623  1.7444 -1.4926 -1.0102
  534MPD2    H3 7985   3.732   0.755   1.641 -1.0685  0.8692  2.5184
  534MPD2     N 7986   3.323   0.709   1.455 -0.2737  0.4452  0.0172
  534MPD2    H5 7987   3.340   0.611   1.477 -0.1863  0.4493 -0.0342
  534MPD2    N1 7988   3.540   1.154   1.520  0.5588  0.0373 -0.6656
  534MPD2    H7 7989   3.454   1.198   1.489  0.8335  0.2869 -1.0665
  535TMC3    C1 7990   3.113   0.662   1.351 -0.2693 -0.2223 -0.0162
  535TMC3    C2 7991   3.101   0.550   1.430 -0.3972 -0.3001 -0.3457
  535TMC3    C3 7992   3.064   0.432   1.367  0.2910 -0.3438  0.2504
  535TMC3    C4 7993   3.064   0.670   1.224 -0.7088  0.4323  0.6055
  535TMC3    C5 7994   3.019   0.554   1.171  0.3002  0.1765  0.1555
  535TMC3    C6 7995   3.027   0.435   1.235 -0.1239  0.6260  0.0422
  535TMC3     C 7996   3.216   0.760   1.386  0.1098 -0.2148 -0.4374
  535TMC3     O 7997   3.215   0.869   1.325 -0.1224 -0.0066  0.1538
  535TMC3     H 7998   3.127   0.544   1.535 -1.0893  2.0077 -0.0471
  535TMC3    H1 7999   3.059   0.763   1.168  0.6136 -0.1046 -0.3907
  535TMC3    H2 8000   2.987   0.345   1.188 -0.4312  0.1527  1.2041
  535TMC3    C7 8001   2.971   0.550   1.031  0.2355 -0.1904 -0.6563
  535TMC3    C8 8002   3.015   0.331   1.455  0.4773  0.0639 -1.3881
  535TMC3    O1 8003   3.042   0.471   0.970  0.3312 -0.1986  0.0786
  535TMC3    O2 8004   3.002   0.223   1.400 -0.2586 -0.6982 -0.1829
  536MPD2     C 8005   2.830   3.966  16.286 -0.3868  0.2796  0.0494
  536MPD2    C1 8006   2.702   3.919  16.298 -0.1534 -0.2419  0.3290
  536MPD2    C2 8007   2.639   3.896  16.175  0.2174  0.8772 -0.7123
  536MPD2    C3 8008   2.701   3.920  16.055  0.1532  0.1753 -0.0306
  536MPD2    C4 8009   2.833   3.958  16.054  0.2910 -0.2379 -0.8542
  536MPD2    C5 8010   2.892   3.998  16.166  0.8617 -0.7590 -0.1908
  536MPD2     H 8011   2.533   3.878  16.185  0.6613 -1.4656 -0.3349
  536MPD2    H1 8012   2.883   3.979  15.960  3.2448  2.4820  1.3206
  536MPD2    H2 8013   2.883   4.000  16.375 -0.1326  0.9673 -0.3663
  536MPD2    H3 8014   2.998   4.023  16.171  0.7838 -0.4891  0.1666
  536MPD2     N 8015   2.636   3.902  15.932  0.3604 -0.6023  0.1587
  536MPD2    H5 8016   2.694   3.924  15.851 -1.0389 -1.3282 -1.0426
  536MPD2    N1 8017   2.636   3.900  16.425  0.0314  0.4969  0.7726
  536MPD2    H7 8018   2.684   3.916  16.513  2.2505  3.6429 -1.0245
  537TMC3    C1 8019   2.471   3.812  16.571  0.1587 -0.2667  0.1962
  537TMC3    C2 8020   2.534   3.857  16.682 -0.7518  0.4835  0.2847
  537TMC3    C3 8021   2.509   3.796  16.808 -0.5344  0.5008 -1.1740
  537TMC3    C4 8022   2.380   3.711  16.577 -0.7398  0.1867 -0.0077
  537TMC3    C5 8023   2.376   3.644  16.688 -0.1842 -0.3141  0.1890
  537TMC3    C6 8024   2.434   3.684  16.807 -0.1886  0.3037  0.1202
  537TMC3     C 8025   2.507   3.847  16.435  0.0808 -1.1352 -0.7801
  537TMC3     O 8026   2.417   3.844  16.355  0.1982 -0.5590 -0.1739
  537TMC3     H 8027   2.592   3.949  16.683  0.0374  0.0022 -0.9397
  537TMC3    H1 8028   2.341   3.677  16.482 -1.8817  0.0022  0.5256
  537TMC3    H2 8029   2.436   3.622  16.896  0.0804 -1.7274 -1.3097
  537TMC3    C7 8030   2.274   3.536  16.686 -0.0090 -0.1650 -0.2237
  537TMC3    C8 8031   2.584   3.816  16.932  0.3981  0.0674 -0.3822
  537TMC3    O1 8032   2.178   3.556  16.611 -0.1260 -0.1981 -0.2456
  537TMC3    O2 8033   2.536   3.775  17.041 -0.5819 -0.0208  0.1273
  538TMC3    C1 8034   3.450   3.020  11.366 -0.0408  0.2136 -0.9415
  538TMC3    C2 8035   3.533   2.922  11.327  0.5465  0.0055 -0.2268
  538TMC3    C3 8036   3.536   2.909  11.193 -0.0166  0.1846 -0.2506
  538TMC3    C4 8037   3.380   3.106  11.289 -0.5613 -0.5186 -0.3732
  538TMC3    C5 8038   3.383   3.085  11.155  0.3310 -0.7650  0.1756
  538TMC3    C6 8039   3.464   2.988  11.103  0.4931 -0.6898  0.0030
  538TMC3     C 8040   3.420   3.029  11.513  1.0133  1.0295 -0.5601
  538TMC3     O 8041   3.347   3.122  11.558  0.0694 -0.2888 -0.3158
  538TMC3     H 8042   3.582   2.851  11.393  0.6545 -0.0208 -0.3344
  538TMC3    H1 8043   3.313   3.172  11.343 -1.5581 -1.9107  0.0663
  538TMC3    H2 8044   3.445   2.962  10.999 -0.0291 -0.0764 -0.0548
  538TMC3    C7 8045   3.251   3.102  11.089  0.3203 -0.1102  1.1814
  538TMC3    C8 8046   3.604   2.796  11.140  0.1395  0.5996 -0.1295
  538TMC3    O1 8047   3.155   3.098  11.162 -0.0135  0.0548 -0.1667
  538TMC3    O2 8048   3.603   2.696  11.215  0.0010 -0.0925 -0.3885
  539MPD2     C 8049   3.039   1.929  11.655  0.4306 -0.1300  0.0460
  539MPD2    C1 8050   3.076   1.948  11.523  0.9786  0.0020  0.0619
  539MPD2    C2 8051   3.046   2.069  11.465  0.4807 -0.1595 -0.3401
  539MPD2    C3 8052   2.996   2.172  11.545 -0.4907 -0.5660 -0.9773
  539MPD2    C4 8053   2.965   2.145  11.682 -0.6777  0.4387  0.1777
  539MPD2    C5 8054   2.977   2.019  11.733  0.6579 -0.3118  0.1833
  539MPD2     H 8055   3.070   2.088  11.361 -0.5062  0.9689 -0.3717
  539MPD2    H1 8056   2.936   2.228  11.746  0.3703  1.6084 -0.8547
  539MPD2    H2 8057   3.051   1.827  11.692 -1.8377 -0.9804 -1.5988
  539MPD2    H3 8058   2.953   2.004  11.838  2.4663  0.9378  0.7699
  539MPD2     N 8059   2.965   2.306  11.498  0.5136  0.8157  0.0743
  539MPD2    H5 8060   2.911   2.366  11.560 -0.4899  0.1158 -0.1413
  539MPD2    N1 8061   3.130   1.836  11.454 -0.0964  0.1045  0.4315
  539MPD2    H7 8062   3.139   1.747  11.503 -1.8722  0.2396  0.9995
  540TMC3    C1 8063   2.927   2.473  11.338  0.7373  0.8561  0.1968
  540TMC3    C2 8064   2.937   2.512  11.206 -0.0959  0.1849  0.6215
  540TMC3    C3 8065   2.896   2.636  11.184  0.1519  0.4768  0.6724
  540TMC3    C4 8066   2.890   2.555  11.441 -0.6452  0.2828  0.1788
  540TMC3    C5 8067   2.864   2.678  11.404 -0.7823 -0.0182 -0.5004
  540TMC3    C6 8068   2.871   2.726  11.278  0.0943 -0.1444 -0.0617
  540TMC3     C 8069   2.997   2.350  11.373 -0.3764  0.6109 -0.5869
  540TMC3     O 8070   3.065   2.297  11.286 -0.0639 -0.6711 -0.4730
  540TMC3     H 8071   2.960   2.436  11.132 -1.0865  0.8951 -0.4132
  540TMC3    H1 8072   2.890   2.523  11.545 -1.2756  1.1829  0.4513
  540TMC3    H2 8073   2.826   2.822  11.253 -0.0671 -0.2108 -0.0246
  540TMC3    C7 8074   2.795   2.755  11.504  0.3854 -0.4032  0.6407
  540TMC3    C8 8075   2.878   2.687  11.042 -0.0820  0.2862  0.2776
  540TMC3    O1 8076   2.735   2.700  11.592 -0.0065  0.1761 -0.3967
  540TMC3    O2 8077   2.877   2.804  11.016  0.4054  0.6340 -0.1170
  541MPD2     C 8078   1.321   3.424  12.911  0.2358  0.3414 -0.1274
  541MPD2    C1 8079   1.330   3.292  12.864 -0.5674 -0.3080  0.0905
  541MPD2    C2 8080   1.326   3.267  12.732 -0.2015 -0.1118  0.0662
  541MPD2    C3 8081   1.315   3.367  12.635 -0.1333 -0.3641 -0.0026
  541MPD2    C4 8082   1.313   3.493  12.683 -0.0569 -0.5290 -0.2284
  541MPD2    C5 8083   1.309   3.525  12.819  0.1080  0.2802  0.6275
  541MPD2     H 8084   1.340   3.162  12.709  2.0859  0.1819  0.1787
  541MPD2    H1 8085   1.311   3.572  12.609  0.2704  1.0550  1.4571
  541MPD2    H2 8086   1.321   3.436  13.018  0.8293  0.3241 -0.1252
  541MPD2    H3 8087   1.303   3.628  12.852 -0.0650  0.5956 -0.3972
  541MPD2     N 8088   1.286   3.352  12.497  0.1846 -0.1621 -0.5094
  541MPD2    H5 8089   1.274   3.436  12.442  2.4519  1.8865  2.0748
  541MPD2    N1 8090   1.344   3.174  12.948 -0.0074  0.1423  0.0442
  541MPD2    H7 8091   1.346   3.086  12.897  0.5934  1.7018 -2.6484
  542TMC3    C1 8092   1.258   3.267  12.284 -0.3245  0.5003 -0.7641
  542TMC3    C2 8093   1.335   3.359  12.213 -0.5812 -0.4940  0.0969
  542TMC3    C3 8094   1.312   3.378  12.078 -0.6508 -0.3309  0.0556
  542TMC3    C4 8095   1.189   3.165  12.218 -0.1383  0.8206  0.6557
  542TMC3    C5 8096   1.165   3.184  12.087 -0.2125 -0.3686  0.9754
  542TMC3    C6 8097   1.231   3.281  12.015 -0.6617  0.8385 -0.5403
  542TMC3     C 8098   1.263   3.238  12.432  0.3346 -0.0951 -0.0004
  542TMC3     O 8099   1.247   3.119  12.464 -0.6885  0.1752 -0.1239
  542TMC3     H 8100   1.392   3.428  12.275 -0.4765  1.3352 -2.0180
  542TMC3    H1 8101   1.144   3.083  12.272  2.5052 -0.6123  0.6931
  542TMC3    H2 8102   1.225   3.293  11.907  0.7222 -1.1316 -0.8451
  542TMC3    C7 8103   1.116   3.071  12.007  0.1741 -0.3765  0.8995
  542TMC3    C8 8104   1.401   3.455  11.985 -0.1995  0.0184  0.5227
  542TMC3    O1 8105   1.105   2.962  12.061  0.3567  0.3751 -0.3009
  542TMC3    O2 8106   1.374   3.456  11.868  0.7741 -0.2689  0.1754
  543TMC3    C1 8107   1.188   4.018  16.999 -0.2394 -0.1435 -0.7340
  543TMC3    C2 8108   1.230   3.894  17.036  0.8235  0.1381 -0.4856
  543TMC3    C3 8109   1.187   3.841  17.156  0.1793  0.1531 -0.0106
  543TMC3    C4 8110   1.092   4.089  17.067  0.1879 -0.4998 -0.5304
  543TMC3    C5 8111   1.055   4.033  17.186  0.9523 -0.2126  0.0555
  543TMC3    C6 8112   1.095   3.907  17.235 -0.0882  0.2000 -0.3837
  543TMC3     C 8113   1.273   4.092  16.909 -0.1103 -0.2448  0.7757
  543TMC3     O 8114   1.391   4.067  16.909 -0.6654  0.0592  0.7733
  543TMC3     H 8115   1.298   3.829  16.982 -0.1054 -1.1049 -0.1645
  543TMC3    H1 8116   1.043   4.178  17.030 -0.2594  0.4766  2.3884
  543TMC3    H2 8117   1.072   3.870  17.334  0.1392 -0.4700 -0.5774
  543TMC3    C7 8118   0.970   4.109  17.278  0.7682  0.3011 -0.6497
  543TMC3    C8 8119   1.244   3.713  17.190  0.2529  0.0228 -0.2548
  543TMC3    O1 8120   0.904   4.048  17.359  0.0169 -0.5346  0.2640
  543TMC3    O2 8121   1.353   3.681  17.140 -0.5005 -0.3820 -0.4254
  544MPD2     C 8122   1.260   3.282  17.470 -0.5185 -0.2342  0.3760
  544MPD2    C1 8123   1.303   3.295  17.342  1.0562 -0.5344  0.5785
  544MPD2    C2 8124   1.288   3.415  17.273  0.1161 -0.5775  0.2788
  544MPD2    C3 8125   1.208   3.514  17.334 -0.5064 -0.2086  0.3268
  544MPD2    C4 8126   1.161   3.498  17.462  0.5909  0.2837  0.0057
  544MPD2    C5 8127   1.200   3.387  17.532 -0.7282 -0.2765  0.1734
  544MPD2     H 8128   1.321   3.424  17.170 -1.9326  0.9224 -0.2636
  544MPD2    H1 8129   1.102   3.575  17.511  0.0698 -1.0093  1.4340
  544MPD2    H2 8130   1.258   3.193  17.531 -0.1777 -0.3833  0.1628
  544MPD2    H3 8131   1.188   3.382  17.640  1.8747  1.8129  0.5594
  544MPD2     N 8132   1.176   3.640  17.284 -0.2475  0.6617  0.1948
  544MPD2    H5 8133   1.101   3.692  17.328 -2.4665  1.4792 -4.5236
  544MPD2    N1 8134   1.340   3.173  17.282  0.1997 -0.2282 -0.2405
  544MPD2    H7 8135   1.334   3.090  17.340 -1.3915 -0.6014 -0.9351
  545TMC3    C1 8136   1.373   3.014  17.116 -0.1283 -0.3531  0.0964
  545TMC3    C2 8137   1.342   2.981  16.989  0.3592 -0.1319  0.0506
  545TMC3    C3 8138   1.351   2.846  16.952  0.5127 -0.6505 -1.8284
  545TMC3    C4 8139   1.424   2.919  17.202 -0.2161  0.1273  0.4599
  545TMC3    C5 8140   1.413   2.785  17.166 -0.1983  0.3508  0.0947
  545TMC3    C6 8141   1.387   2.749  17.037 -0.1035 -0.2906  0.3166
  545TMC3     C 8142   1.375   3.154  17.148 -0.9632  0.1367  0.0213
  545TMC3     O 8143   1.377   3.232  17.056 -0.2247 -0.1431  0.8377
  545TMC3     H 8144   1.324   3.062  16.920  0.4234  0.4041  0.6665
  545TMC3    H1 8145   1.448   2.945  17.305  0.0924  0.7785  0.2223
  545TMC3    H2 8146   1.385   2.644  17.011 -1.0335  0.0135 -0.8940
  545TMC3    C7 8147   1.385   2.680  17.254  1.0478 -0.3138 -0.3340
  545TMC3    C8 8148   1.334   2.820  16.819 -0.0512  0.1361 -1.0307
  545TMC3    O1 8149   1.312   2.597  17.207  0.0205 -0.8027 -0.0481
  545TMC3    O2 8150   1.251   2.881  16.751 -0.1223  0.4752  0.4361
  546MPD2     C 8151   2.730   4.336  17.655 -1.1893  0.9279  0.2634
  546MPD2    C1 8152   2.734   4.360  17.518 -0.0347  0.4229  0.3666
  546MPD2    C2 8153   2.803   4.470  17.465  0.7030 -0.3809  0.3149
  546MPD2    C3 8154   2.861   4.555  17.559 -0.2306 -0.7359 -0.1888
  546MPD2    C4 8155   2.857   4.528  17.696  0.2686  0.4130  0.1567
  546MPD2    C5 8156   2.787   4.423   0.017 -0.3366  0.0445  0.1229
  546MPD2     H 8157   2.816   4.486  17.359  2.7931 -0.2626  0.6042
  546MPD2    H1 8158   2.898   4.603   0.035 -0.3934 -0.2771  1.3455
  546MPD2    H2 8159   2.681   4.248  17.694  2.4877 -0.3717  1.9423
  546MPD2    H3 8160   2.781   4.398   0.122  1.4036 -0.9647 -0.0247
  546MPD2     N 8161   2.915   4.679  17.523  0.5420  0.2248  0.8803
  546MPD2    H5 8162   2.918   0.014  17.599  1.2234 -0.0281  1.0783
  546MPD2    N1 8163   2.662   4.265  17.435 -0.1688 -0.5249 -0.0899
  546MPD2    H7 8164   2.603   4.198  17.483 -0.2751 -0.5371 -0.2378
  547TMC3    C1 8165   2.593   4.140  17.240  0.1751 -0.5547  0.2494
  547TMC3    C2 8166   2.531   4.169  17.128 -0.2553 -0.1187 -0.2016
  547TMC3    C3 8167   2.418   4.100  17.092 -0.2298  0.1185 -0.1315
  547TMC3    C4 8168   2.541   4.048  17.328  0.2439  0.3584 -0.0734
  547TMC3    C5 8169   2.436   3.973  17.285  0.3268 -0.0877  0.4627
  547TMC3    C6 8170   2.368   4.000  17.165 -0.7352 -1.0095  0.0712
  547TMC3     C 8171   2.669   4.255  17.299 -0.0977 -0.4729 -0.2504
  547TMC3     O 8172   2.713   4.336  17.215  0.4829  0.1844  0.1059
  547TMC3     H 8173   2.576   4.242  17.061  0.0671 -0.2280 -0.1033
  547TMC3    H1 8174   2.593   4.017  17.418 -0.1543  0.1777  0.0902
  547TMC3    H2 8175   2.274   3.956  17.134 -0.9762  0.1272 -0.8253
  547TMC3    C7 8176   2.385   3.861  17.367 -0.3880  0.6156 -0.4454
  547TMC3    C8 8177   2.358   4.115  16.959 -0.3703 -0.8253 -0.4814
  547TMC3    O1 8178   2.407   3.859  17.484 -0.3518  0.0184  0.7364
  547TMC3    O2 8179   2.240   4.087  16.948  0.1980  0.1647  0.4577
  548MPD2     C 8180   2.213   0.407  12.477  0.1121 -0.1207 -0.3865
  548MPD2    C1 8181   2.163   0.283  12.501 -0.3350  0.2911 -0.3329
  548MPD2    C2 8182   2.244   0.175  12.510  0.5649 -0.3905 -0.0297
  548MPD2    C3 8183   2.383   0.189  12.505 -0.5405 -0.2675  0.1943
  548MPD2    C4 8184   2.436   0.316  12.493  0.7655 -0.1195 -0.2991
  548MPD2    C5 8185   2.349   0.429  12.475 -1.1316 -0.0932 -0.9911
  548MPD2     H 8186   2.205   0.074  12.523 -0.3342  0.0841  0.9631
  548MPD2    H1 8187   2.540   0.345  12.485  0.7453  0.2741  0.9489
  548MPD2    H2 8188   2.142   0.487  12.456  0.8025 -0.0564 -2.4613
  548MPD2    H3 8189   2.392   0.528  12.467  3.3332 -2.0768 -1.6123
  548MPD2     N 8190   2.458   0.070  12.499  0.2281 -0.6783  0.3259
  548MPD2    H5 8191   2.403   4.717  12.490 -1.3642  0.4519 -0.6326
  548MPD2    N1 8192   2.026   0.286  12.533 -0.4320  0.3160 -0.3520
  548MPD2    H7 8193   1.973   0.370  12.513 -1.1870 -0.3288 -1.0460
  549TMC3    C1 8194   1.815   0.199  12.563  0.2068 -0.6246 -0.1700
  549TMC3    C2 8195   1.765   0.299  12.481  0.1789 -0.0391  0.7911
  549TMC3    C3 8196   1.632   0.304  12.462 -0.4683  0.1452 -0.4231
  549TMC3    C4 8197   1.727   0.113  12.623  0.5767 -0.3937  0.1520
  549TMC3    C5 8198   1.594   0.129  12.610  0.1425  0.4173  0.2323
  549TMC3    C6 8199   1.546   0.222  12.526 -0.0256 -0.5925 -0.0331
  549TMC3     C 8200   1.955   0.175  12.575 -0.3722 -0.0287  0.2421
  549TMC3     O 8201   1.986   0.066  12.614 -0.0489 -0.2203 -0.2812
  549TMC3     H 8202   1.827   0.363  12.419 -3.2840  0.2249 -2.3778
  549TMC3    H1 8203   1.767   0.042  12.695  1.9145 -1.0079 -1.2091
  549TMC3    H2 8204   1.440   0.239  12.517  0.0891  1.3648  2.4451
  549TMC3    C7 8205   1.500   0.034  12.668 -0.3476 -0.4071  0.2591
  549TMC3    C8 8206   1.562   0.420  12.405  0.2216 -0.7834 -0.4584
  549TMC3    O1 8207   1.392   0.081  12.702  0.1348  0.4022 -0.2378
  549TMC3    O2 8208   1.455   0.400  12.350 -0.5929 -0.8479 -0.7028
  550TMC3    C1 8209   0.937   3.149  12.763  0.1961  0.1821 -0.0144
  550TMC3    C2 8210   0.863   3.187  12.872 -0.5142  0.3162 -0.7342
  550TMC3    C3 8211   0.848   3.323  12.889 -0.7371 -0.4578  0.1922
  550TMC3    C4 8212   0.992   3.236  12.678  0.3397 -0.0834 -0.6311
  550TMC3    C5 8213   0.965   3.367  12.690  0.8146  1.3673  0.0974
  550TMC3    C6 8214   0.885   3.413  12.796 -0.2569  0.6311 -0.6144
  550TMC3     C 8215   0.903   3.024  12.714 -0.6544 -0.1481 -0.4838
  550TMC3     O 8216   0.907   2.927  12.793  0.5124 -0.3417 -0.4385
  550TMC3     H 8217   0.815   3.121  12.943  1.2415  2.3787  2.3730
  550TMC3    H1 8218   1.059   3.198  12.601  3.2946 -0.2206  2.0233
  550TMC3    H2 8219   0.854   3.517  12.797 -2.8499 -0.1644  0.7228
  550TMC3    C7 8220   0.889   3.394  12.574 -0.2285  0.1878 -0.1329
  550TMC3    C8 8221   0.730   3.373  12.956 -0.1827 -0.5431  0.3348
  550TMC3    O1 8222   0.862   3.299  12.501  0.8769  0.4336 -0.4256
  550TMC3    O2 8223   0.723   3.490  12.976 -0.3349 -0.1697  0.4137
  551TMC3    C1 8224   3.332   0.687  13.069  0.2340  0.7842  0.4465
  551TMC3    C2 8225   3.434   0.607  13.034  0.0316  0.7690  0.4983
  551TMC3    C3 8226   3.551   0.628  13.105  0.2938  0.2318  0.1065
  551TMC3    C4 8227   3.335   0.763  13.184 -0.0746 -0.2779  1.5470
  551TMC3    C5 8228   3.453   0.773  13.257  0.3336  0.2521  0.2524
  551TMC3    C6 8229   3.560   0.702  13.217 -0.2847 -0.0646 -0.9094
  551TMC3     C 8230   3.209   0.644  13.012 -0.5005 -0.3585  0.7172
  551TMC3     O 8231   3.114   0.710  13.045 -0.7495 -0.1040  0.0484
  551TMC3     H 8232   3.445   0.554  12.939 -0.4284  0.4711  0.6101
  551TMC3    H1 8233   3.243   0.793  13.233 -0.4396  2.6336 -0.8642
  551TMC3    H2 8234   3.659   0.710  13.262 -1.3140  0.2318  1.2923
  551TMC3    C7 8235   3.469   0.858  13.373  0.2874  0.2825  0.0253
  551TMC3    C8 8236   3.672   0.551  13.085  0.2614 -0.4602  0.2726
  551TMC3    O1 8237   3.558   0.827  13.447  0.4074  0.0571 -0.1139
  551TMC3    O2 8238   3.692   0.474  13.176 -0.3167 -0.6968 -0.4517
  552MPD2     C 8239   0.432   2.538  13.992  0.4082 -0.0314  0.4020
  552MPD2    C1 8240   0.396   2.457  14.097  0.2508 -0.3625  0.2241
  552MPD2    C2 8241   0.473   2.449  14.208  0.2767 -0.5280 -0.5535
  552MPD2    C3 8242   0.588   2.516  14.229  0.3892  0.4896  0.1410
  552MPD2    C4 8243   0.629   2.592  14.118 -0.4271  0.0355  0.0507
  552MPD2    C5 8244   0.555   2.605  13.999 -0.0308 -0.3128  0.3255
  552MPD2     H 8245   0.436   2.383  14.286 -1.4876  0.4176 -0.5748
  552MPD2    H1 8246   0.722   2.648  14.118  0.3124 -1.1545  2.6572
  552MPD2    H2 8247   0.371   2.552  13.903  1.1308 -0.9652 -0.2419
  552MPD2    H3 8248   0.582   2.673  13.919 -0.0727 -1.7609 -0.9192
  552MPD2     N 8249   0.657   2.527  14.346  0.0291 -0.2839  0.7703
  552MPD2    H5 8250   0.739   2.588  14.343  0.7356 -1.2386  0.5860
  552MPD2    N1 8251   0.285   2.369  14.076  0.3482  0.1176 -0.0707
  552MPD2    H7 8252   0.293   2.289  14.138 -1.4064  0.9509  1.2394
  553TMC3    C1 8253   0.200   2.201  13.949 -0.6431 -0.5277  0.0439
  553TMC3    C2 8254   0.247   2.160  13.831  0.2610 -0.4210  0.0775
  553TMC3    C3 8255   0.350   2.075  13.832 -0.3964  0.4131  1.0215
  553TMC3    C4 8256   0.249   2.141  14.063  0.0191 -0.1830 -0.4146
  553TMC3    C5 8257   0.364   2.068  14.059 -0.0461 -0.1792  0.3566
  553TMC3    C6 8258   0.422   2.044  13.937  0.1088 -0.1536  0.1907
  553TMC3     C 8259   0.221   2.346  13.959  0.0151 -0.2337 -0.6818
  553TMC3     O 8260   0.200   2.417  13.861 -0.0196 -0.3286  0.0662
  553TMC3     H 8261   0.204   2.209  13.745 -0.7025  1.0481  1.3902
  553TMC3    H1 8262   0.205   2.155  14.161 -0.2130  0.2985 -0.5851
  553TMC3    H2 8263   0.517   1.992  13.938 -1.0160 -2.2105 -1.3547
  553TMC3    C7 8264   0.447   2.072  14.170  0.0576 -0.5248  0.3357
  553TMC3    C8 8265   0.400   2.040  13.704  1.3474 -0.3959 -0.0193
  553TMC3    O1 8266   0.395   2.056  14.279 -0.6847  0.6147  0.2468
  553TMC3    O2 8267   0.521   2.022  13.692 -0.0195  0.2031  0.9590
  554TMC3    C1 8268   1.863   2.033  11.516 -0.2091  0.3623  0.2009
  554TMC3    C2 8269   1.810   2.027  11.389 -0.1165 -0.1417 -0.0492
  554TMC3    C3 8270   1.836   2.131  11.306  0.2499  0.7176 -0.7003
  554TMC3    C4 8271   1.937   2.139  11.563  0.5466 -0.4388 -0.4751
  554TMC3    C5 8272   1.961   2.239  11.467 -0.0271 -0.3740 -0.0084
  554TMC3    C6 8273   1.904   2.238  11.346  0.2791 -0.6368 -0.2992
  554TMC3     C 8274   1.825   1.940  11.624  0.2073 -0.1452  0.4365
  554TMC3     O 8275   1.705   1.919  11.636 -0.1656 -0.3779  0.5010
  554TMC3     H 8276   1.751   1.940  11.361  1.9288 -1.2382 -0.9317
  554TMC3    H1 8277   1.969   2.146  11.666  0.0304  0.1230 -0.3552
  554TMC3    H2 8278   1.922   2.322  11.280 -2.0006 -2.1071 -2.7990
  554TMC3    C7 8279   2.059   2.338  11.498 -0.2397 -0.1303  0.7985
  554TMC3    C8 8280   1.790   2.138  11.167 -0.1403 -0.4944  0.3249
  554TMC3    O1 8281   2.093   2.335  11.615  0.0481  0.4304 -0.2334
  554TMC3    O2 8282   1.825   2.229  11.095  0.1000 -0.3850 -0.1303
  555TMC3    C1 8283   1.503   1.228  15.099 -0.3012  0.1053 -0.3655
  555TMC3    C2 8284   1.522   1.277  15.225  0.9695  0.0021 -0.2779
  555TMC3    C3 8285   1.527   1.188  15.332  0.4880  0.1100 -0.3502
  555TMC3    C4 8286   1.493   1.092  15.077 -0.3513  0.1659 -0.3253
  555TMC3    C5 8287   1.506   1.002  15.191 -0.0086 -0.6977 -0.3592
  555TMC3    C6 8288   1.519   1.050  15.322  0.2891  0.5512  0.1871
  555TMC3     C 8289   1.520   1.317  14.983 -0.2118 -0.6312 -0.5886
  555TMC3     O 8290   1.576   1.421  15.014  0.2591 -0.0598 -0.1263
  555TMC3     H 8291   1.526   1.384  15.245 -0.5771 -0.2628  1.4998
  555TMC3    H1 8292   1.498   1.049  14.978 -1.5732  2.2586 -1.2937
  555TMC3    H2 8293   1.516   0.990  15.412  3.1458 -2.3088 -1.6281
  555TMC3    C7 8294   1.475   0.861  15.185  0.6587 -0.0214 -0.7018
  555TMC3    C8 8295   1.536   1.247  15.465  0.6379  0.1085  0.1714
  555TMC3    O1 8296   1.466   0.804  15.292  0.2960  0.0005 -0.6900
  555TMC3    O2 8297   1.493   1.364  15.476  0.2203 -0.3940 -0.1971
  556MPD2     C 8298   4.530   3.264  10.889 -0.2624  0.5212 -0.0762
  556MPD2    C1 8299   4.394   3.256  10.891 -0.6298 -0.7116 -0.0777
  556MPD2    C2 8300   4.331   3.184  10.787 -0.0896  0.1419 -0.0002
  556MPD2    C3 8301   4.404   3.113  10.696 -0.4264  0.0498  0.0967
  556MPD2    C4 8302   4.540   3.128  10.700 -0.5459 -0.3198 -0.5932
  556MPD2    C5 8303   4.607   3.198  10.799 -1.0664  0.1699  0.6421
  556MPD2     H 8304   4.228   3.152  10.803  0.3176 -0.8277  0.6477
  556MPD2    H1 8305   4.602   3.067  10.634  2.2676  1.3926  0.4785
  556MPD2    H2 8306   4.590   3.302  10.970  0.8151  0.4778 -0.8578
  556MPD2    H3 8307   4.715   3.206  10.809 -0.6578 -5.3823  0.7805
  556MPD2     N 8308   4.331   3.042  10.595 -0.5185 -0.3309  0.2992
  556MPD2    H5 8309   4.230   3.049  10.598 -0.7096 -1.5227 -3.3855
  556MPD2    N1 8310   4.319   3.324  10.987  0.0954  0.1015 -0.2102
  556MPD2    H7 8311   4.220   3.305  10.987  0.5803 -2.3775  0.0070
  557TMC3    C1 8312   4.257   2.854  10.472 -0.2985 -0.7498  0.8528
  557TMC3    C2 8313   4.284   2.735  10.412 -0.3129  0.1530 -0.3476
  557TMC3    C3 8314   4.173   2.666  10.371 -0.0335  0.5673  0.2276
  557TMC3    C4 8315   4.126   2.892  10.499 -0.4415 -0.0632 -0.2165
  557TMC3    C5 8316   4.025   2.805  10.469  0.6503  0.0916 -0.2315
  557TMC3    C6 8317   4.044   2.689  10.407 -0.3390 -0.6525 -0.1315
  557TMC3     C 8318   4.377   2.946  10.512 -0.4950 -0.8057  0.2811
  557TMC3     O 8319   4.490   2.919  10.471 -0.4223  0.5995 -0.1437
  557TMC3     H 8320   4.388   2.704  10.401  0.0708  1.3951 -0.2010
  557TMC3    H1 8321   4.097   2.981  10.552  0.3136 -0.4508  0.8594
  557TMC3    H2 8322   3.960   2.627  10.379 -1.4664  0.5703  0.5516
  557TMC3    C7 8323   3.925   2.809  10.569 -0.2593 -0.2844  0.0003
  557TMC3    C8 8324   4.201   2.541  10.306  0.0997 -0.8114  0.4816
  557TMC3    O1 8325   3.913   2.918  10.629  0.1809  0.2521  0.2485
  557TMC3    O2 8326   4.319   2.507  10.317  0.1281  0.9970  0.3182
  558TMC3    C1 8327   1.334   0.977  10.308  0.4705  0.0257 -0.2461
  558TMC3    C2 8328   1.234   0.948  10.392 -0.5272 -0.5545  0.5691
  558TMC3    C3 8329   1.118   1.003  10.354  0.1382 -0.0743 -0.2341
  558TMC3    C4 8330   1.324   1.056  10.193  0.0015 -0.4874 -0.4209
  558TMC3    C5 8331   1.201   1.097  10.149  0.0370 -0.2145  0.0588
  558TMC3    C6 8332   1.096   1.075  10.236 -0.5452 -1.0520  0.0779
  558TMC3     C 8333   1.459   0.980  10.379 -0.2982 -0.0126  0.4596
  558TMC3     O 8334   1.461   1.011  10.496 -0.1948 -0.3149  0.0897
  558TMC3     H 8335   1.244   0.873  10.469  2.6184 -3.0308 -2.2497
  558TMC3    H1 8336   1.411   1.085  10.137  0.6866  0.1576  0.9747
  558TMC3    H2 8337   0.999   1.120  10.217  0.4175  1.1063  0.2549
  558TMC3    C7 8338   1.203   1.225  10.083 -0.4140  0.6494  0.3887
  558TMC3    C8 8339   1.029   1.017  10.466  1.1309  0.6773  0.5693
  558TMC3    O1 8340   1.310   1.281  10.075 -0.0969 -0.1727  0.3576
  558TMC3    O2 8341   0.913   1.047  10.441  0.4204  0.2695  0.5296
  559MPD2     C 8342   1.521   2.068  10.193 -0.2675  0.1052  0.1662
  559MPD2    C1 8343   1.458   2.017  10.303  0.1146  0.9005 -0.4758
  559MPD2    C2 8344   1.526   1.989  10.418  0.0673  0.3220  0.3723
  559MPD2    C3 8345   1.665   1.994  10.426 -0.3596  0.4464  0.2608
  559MPD2    C4 8346   1.728   2.048  10.317  0.0638 -0.8242  0.0181
  559MPD2    C5 8347   1.658   2.090  10.202 -0.0305  0.2624  0.3388
  559MPD2     H 8348   1.472   1.957  10.506 -0.4191 -0.8126 -0.3413
  559MPD2    H1 8349   1.836   2.062  10.326 -0.2984  1.7929  0.4389
  559MPD2    H2 8350   1.468   2.100  10.103 -2.1326 -0.7470  0.9751
  559MPD2    H3 8351   1.714   2.137  10.121  1.0766 -0.0465  0.9269
  559MPD2     N 8352   1.724   1.967  10.556 -0.4933  0.0036 -0.3035
  559MPD2    H5 8353   1.664   1.932  10.629  1.8535 -1.4659  0.9245
  559MPD2    N1 8354   1.317   2.021  10.298 -0.5197 -0.0776 -0.6762
  559MPD2    H7 8355   1.265   2.068  10.225  0.8782 -0.0598 -1.6683
  560TMC3    C1 8356   1.895   1.941  10.722  0.8602  1.0066  0.4748
  560TMC3    C2 8357   1.801   1.874  10.792  0.0920 -0.1352  0.5047
  560TMC3    C3 8358   1.828   1.849  10.923  0.3679  0.1300 -0.0449
  560TMC3    C4 8359   2.013   1.977  10.773 -0.1743  0.0107  0.3987
  560TMC3    C5 8360   2.046   1.940  10.899  0.7278  0.0481 -0.3903
  560TMC3    C6 8361   1.948   1.884  10.981  0.3069 -0.3084  0.4528
  560TMC3     C 8362   1.862   1.981  10.586 -0.6320 -0.5250  0.5232
  560TMC3     O 8363   1.952   2.019  10.514 -0.3989 -0.1848 -0.5199
  560TMC3     H 8364   1.712   1.829  10.749  0.3060 -0.0680 -0.0034
  560TMC3    H1 8365   2.089   2.012  10.704  0.0862  0.1236  0.7408
  560TMC3    H2 8366   1.967   1.866  11.087 -0.0732 -0.8745  0.4275
  560TMC3    C7 8367   2.170   1.865  10.924 -0.0656 -0.0038 -0.8614
  560TMC3    C8 8368   1.759   1.733  10.974  0.5147 -0.6527  0.2029
  560TMC3    O1 8369   2.152   1.755  10.980 -0.0739 -0.9673  0.2339
  560TMC3    O2 8370   1.639   1.718  10.969 -0.2528 -0.1871  0.4881
  561TMC3    C1 8371   4.561   0.997  11.272  0.1153 -0.4795  0.4622
  561TMC3    C2 8372   4.489   0.889  11.296 -0.2974 -0.2919  0.2453
  561TMC3    C3 8373   4.371   0.895  11.370 -0.1298  0.0271  0.5064
  561TMC3    C4 8374   4.505   1.120  11.300  0.2248 -0.0170  0.0559
  561TMC3    C5 8375   4.392   1.125  11.381  0.6377  0.1754 -0.3247
  561TMC3    C6 8376   4.319   1.014  11.411 -0.0265  0.2476  0.1586
  561TMC3     C 8377   4.704   0.977  11.258  0.1973 -0.5021  0.4264
  561TMC3     O 8378   0.025   0.891  11.324  0.6242  0.0439 -0.0224
  561TMC3     H 8379   4.538   0.792  11.294 -0.9367 -0.6460  1.4564
  561TMC3    H1 8380   4.574   1.203  11.299  0.3728 -0.1604 -1.0731
  561TMC3    H2 8381   4.216   1.025  11.443 -0.7323 -2.4796 -1.1544
  561TMC3    C7 8382   4.328   1.262  11.384  0.2083 -0.3549  0.8268
  561TMC3    C8 8383   4.316   0.770  11.420 -0.3509  0.0301 -0.3091
  561TMC3    O1 8384   4.227   1.268  11.452 -0.2822  0.0503 -0.0027
  561TMC3    O2 8385   4.362   0.664  11.381 -0.1636 -0.0297 -0.0419
  562TMC3    C1 8386   1.147   1.333  16.377 -0.0653  0.7182 -0.2332
  562TMC3    C2 8387   1.117   1.468  16.376  0.4100  0.0847  0.2757
  562TMC3    C3 8388   1.059   1.523  16.259 -0.2137 -0.3307  1.0171
  562TMC3    C4 8389   1.164   1.266  16.256 -0.0827  0.1736 -0.5619
  562TMC3    C5 8390   1.112   1.323  16.145 -0.8707  0.1149  0.0273
  562TMC3    C6 8391   1.054   1.453  16.139  0.4635 -0.7243  0.8023
  562TMC3     C 8392   1.217   1.286  16.490 -0.5550  0.1860  0.0119
  562TMC3     O 8393   1.290   1.185  16.476 -0.4080 -0.1875 -0.3449
  562TMC3     H 8394   1.127   1.520  16.470 -3.2021  2.2932 -0.5731
  562TMC3    H1 8395   1.175   1.159  16.253  0.7590  0.2298  0.6727
  562TMC3    H2 8396   1.028   1.500  16.045  0.6874 -1.8305  0.1891
  562TMC3    C7 8397   1.131   1.257  16.020 -0.3037  0.9208  0.1459
  562TMC3    C8 8398   1.075   1.667  16.246 -0.2250 -0.7263 -0.0757
  562TMC3    O1 8399   1.067   1.311  15.927  0.7496  0.3685  0.1207
  562TMC3    O2 8400   1.139   1.727  16.330 -0.4155 -0.0325  0.7962
  563MPD2     C 8401   2.964   2.762  15.669 -0.4350 -0.3473  0.1804
  563MPD2    C1 8402   3.016   2.841  15.763  0.3355 -0.4930  0.4762
  563MPD2    C2 8403   3.137   2.810  15.836  0.4875  0.2804 -0.3861
  563MPD2    C3 8404   3.206   2.696  15.804 -0.3146  0.0997 -0.1526
  563MPD2    C4 8405   3.158   2.622  15.700 -0.0805  0.3333 -0.8746
  563MPD2    C5 8406   3.044   2.658  15.638  0.4834 -0.1945 -0.5115
  563MPD2     H 8407   3.170   2.861  15.926  0.1486  0.2055 -0.2200
  563MPD2    H1 8408   3.196   2.522  15.680  1.0178  0.3552  1.0520
  563MPD2    H2 8409   2.875   2.792  15.614 -1.7442 -0.7253  2.0579
  563MPD2    H3 8410   3.004   2.586  15.569  0.6407  0.5643 -1.3988
  563MPD2     N 8411   3.320   2.674  15.880 -0.4199  0.1924  0.1257
  563MPD2    H5 8412   3.337   2.732  15.962 -0.4992 -1.2641  1.1639
  563MPD2    N1 8413   2.937   2.944  15.812 -0.1591  0.6752 -0.2666
  563MPD2    H7 8414   2.841   2.935  15.781 -0.7535 -0.3061  1.8595
  564TMC3    C1 8415   2.894   3.006  16.030  0.0281 -0.6729 -0.2068
  564TMC3    C2 8416   2.774   2.953  16.004 -0.3944  0.6332 -0.3766
  564TMC3    C3 8417   2.736   2.845  16.088  0.0045  0.6056 -0.1611
  564TMC3    C4 8418   2.974   2.974  16.136 -0.8133  0.0152 -0.5930
  564TMC3    C5 8419   2.941   2.864  16.208  0.7590  0.1934 -0.2630
  564TMC3    C6 8420   2.821   2.803  16.185 -0.8102 -0.8899  0.5354
  564TMC3     C 8421   2.977   3.025  15.912  0.4897  0.1035  0.2428
  564TMC3     O 8422   3.092   3.067  15.927 -0.1898  0.2424  0.3899
  564TMC3     H 8423   2.719   2.983  15.916  0.3203  0.3411 -0.9213
  564TMC3    H1 8424   3.062   3.031  16.163 -0.2188 -1.2341  0.1151
  564TMC3    H2 8425   2.789   2.718  16.244 -1.0660  0.9311  2.9809
  564TMC3    C7 8426   3.038   2.765  16.199 -0.0133 -0.2484  1.1781
  564TMC3    C8 8427   2.655   2.734  16.037 -0.2117  0.2926 -0.0655
  564TMC3    O1 8428   3.155   2.790  16.233 -0.0667  0.2375 -0.0871
  564TMC3    O2 8429   2.621   2.653  16.120 -0.2048  0.7805 -0.8070
  565TMC3    C1 8430   3.769   0.313   9.906  0.3838  0.3563 -0.0858
  565TMC3    C2 8431   3.761   0.294  10.039  0.7359 -0.5451 -0.2784
  565TMC3    C3 8432   3.653   0.227  10.088 -0.0668 -0.3902  0.3642
  565TMC3    C4 8433   3.686   0.254   9.817  0.2219 -0.0317  0.6358
  565TMC3    C5 8434   3.575   0.185   9.865  0.4581  0.2332 -0.1321
  565TMC3    C6 8435   3.564   0.162  10.001  0.5612  0.8785 -0.4256
  565TMC3     C 8436   3.891   0.380   9.852  0.0319  0.0717 -0.0319
  565TMC3     O 8437   3.898   0.392   9.729 -0.0896 -0.5540  0.3011
  565TMC3     H 8438   3.826   0.340  10.113 -0.6795 -0.9604  1.2343
  565TMC3    H1 8439   3.707   0.264   9.711 -3.0258  2.7315  0.2617
  565TMC3    H2 8440   3.460   0.159  10.034 -0.0724 -0.3660 -2.5236
  565TMC3    C7 8441   3.453   0.192   9.788  0.6641 -0.0806 -0.5744
  565TMC3    C8 8442   3.623   0.226  10.231  0.5925  0.4035  0.3386
  565TMC3    O1 8443   3.445   0.292   9.720 -0.0971  0.0913  0.6543
  565TMC3    O2 8444   3.557   0.131  10.277 -0.4480  0.4531 -0.2048
  566MPD2     C 8445   0.523   0.598  14.225 -0.1289 -0.0484  0.7141
  566MPD2    C1 8446   0.516   0.702  14.128 -0.7747  0.0901  0.7893
  566MPD2    C2 8447   0.388   0.736  14.084  0.0958  0.2289 -0.1804
  566MPD2    C3 8448   0.277   0.654  14.105 -0.0943 -0.0767 -0.2325
  566MPD2    C4 8449   0.291   0.545  14.187  0.4344  0.1307 -0.3008
  566MPD2    C5 8450   0.409   0.519  14.244  0.3966  0.2685  0.7821
  566MPD2     H 8451   0.387   0.829  14.029  2.7616 -0.0952 -0.7942
  566MPD2    H1 8452   0.208   0.478  14.209  1.3337 -0.2245  1.9891
  566MPD2    H2 8453   0.620   0.569  14.264  0.4289 -0.0821 -0.6978
  566MPD2    H3 8454   0.417   0.433  14.310  2.1935 -0.0431  0.1540
  566MPD2     N 8455   0.146   0.682  14.052  0.5319 -0.1047  0.3912
  566MPD2    H5 8456   0.065   0.642  14.099  0.1747 -1.8711 -1.6975
  566MPD2    N1 8457   0.638   0.775  14.095 -0.4188 -0.2703  0.2859
  566MPD2    H7 8458   0.720   0.732  14.137  0.8315  0.5557 -1.2984
  567TMC3    C1 8459   0.801   0.896  13.968 -0.5737  0.0673 -0.9035
  567TMC3    C2 8460   0.828   0.966  13.853 -0.8163  0.3771  0.0273
  567TMC3    C3 8461   0.959   1.011  13.832  0.1184 -0.0529 -0.2750
  567TMC3    C4 8462   0.903   0.878  14.065  0.2192 -0.3317 -0.3963
  567TMC3    C5 8463   1.032   0.922  14.033 -0.5496  0.3448 -0.4491
  567TMC3    C6 8464   1.069   0.975  13.912 -0.4003  0.3185  0.2769
  567TMC3     C 8465   0.656   0.866  13.993  0.1604 -0.6446  0.5097
  567TMC3     O 8466   0.576   0.898  13.909  0.5439  0.1836  0.5720
  567TMC3     H 8467   0.749   0.999  13.787 -2.5580 -2.9634  0.4816
  567TMC3    H1 8468   0.883   0.830  14.161  2.0066  0.0168  0.1611
  567TMC3    H2 8469   1.170   0.997  13.881 -0.4331 -0.4861 -0.4146
  567TMC3    C7 8470   1.147   0.922  14.130  0.0963  0.6036 -0.0906
  567TMC3    C8 8471   0.978   1.075  13.705  0.0552 -0.3928  0.4430
  567TMC3    O1 8472   1.254   0.946  14.075  0.1960  0.0665  0.1770
  567TMC3    O2 8473   0.894   1.059  13.615  0.1243 -0.5373  0.0372
  568MPD2     C 8474   2.939   1.279  16.378 -0.6153  0.0250 -0.7279
  568MPD2    C1 8475   2.922   1.384  16.470  0.8044 -0.8206 -0.0776
  568MPD2    C2 8476   2.890   1.508  16.418  0.1946 -0.1693 -0.1472
  568MPD2    C3 8477   2.867   1.529  16.286  0.3657  0.1954 -0.6111
  568MPD2    C4 8478   2.890   1.426  16.196  0.1312  0.4218 -0.0625
  568MPD2    C5 8479   2.916   1.302  16.244  0.1761  0.0066  0.4008
  568MPD2     H 8480   2.870   1.591  16.484 -3.4883 -3.9531  3.4980
  568MPD2    H1 8481   2.867   1.440  16.091  1.5242  2.2236 -0.1418
  568MPD2    H2 8482   2.972   1.179  16.403 -1.9373 -0.2362 -0.0294
  568MPD2    H3 8483   2.931   1.215  16.181  3.1209  2.6804 -2.5933
  568MPD2     N 8484   2.827   1.657  16.244  0.5822  0.3449  0.1990
  568MPD2    H5 8485   2.818   1.724  16.320  0.5981  0.0168  0.4894
  568MPD2    N1 8486   2.954   1.363  16.610  0.1636 -0.0959  0.8299
  568MPD2    H7 8487   2.979   1.267  16.632  0.8408 -0.3319 -0.9628
  569TMC3    C1 8488   2.770   1.849  16.120 -1.0657  0.2393  0.8356
  569TMC3    C2 8489   2.805   1.916  16.234  0.3614  0.0601 -0.2179
  569TMC3    C3 8490   2.811   2.053  16.225  0.0673 -0.4575  0.4088
  569TMC3    C4 8491   2.752   1.908  15.999  1.0137  0.3976  0.2471
  569TMC3    C5 8492   2.765   2.043  15.999  0.0762  0.6516  0.5873
  569TMC3    C6 8493   2.802   2.118  16.103  0.2641  0.0770  0.7150
  569TMC3     C 8494   2.779   1.703  16.119 -0.0315 -0.3760 -0.4396
  569TMC3     O 8495   2.738   1.632  16.026  0.5842 -0.1407 -0.4103
  569TMC3     H 8496   2.804   1.875  16.335  0.1199  0.3034 -0.1210
  569TMC3    H1 8497   2.714   1.857  15.912  0.0172 -1.6057  1.8542
  569TMC3    H2 8498   2.830   2.223  16.097  0.7370 -0.0961 -0.0897
  569TMC3    C7 8499   2.731   2.117  15.882 -0.3138 -0.0516  0.6933
  569TMC3    C8 8500   2.835   2.134  16.345 -0.5299 -0.2371  0.9201
  569TMC3    O1 8501   2.753   2.065  15.775 -0.2468 -0.6983  0.4712
  569TMC3    O2 8502   2.764   2.112  16.442 -0.5979 -0.1961  0.1086
  570TMC3    C1 8503   2.650   0.354  16.110 -0.4815 -0.1886  0.0857
  570TMC3    C2 8504   2.725   0.374  16.001 -0.4256  0.0846 -0.9633
  570TMC3    C3 8505   2.801   0.490  16.000  0.6970  0.0878 -0.5815
  570TMC3    C4 8506   2.618   0.441  16.206  0.0225 -0.2884 -0.3164
  570TMC3    C5 8507   2.680   0.559  16.188  0.4146  0.2152 -0.1891
  570TMC3    C6 8508   2.773   0.585  16.094  0.1354 -0.1068  0.3388
  570TMC3     C 8509   2.617   0.212  16.127  0.2116  0.4378  0.6763
  570TMC3     O 8510   2.607   0.135  16.031 -0.4861 -0.6498  0.4138
  570TMC3     H 8511   2.729   0.303  15.919  0.4267 -2.8685  1.6208
  570TMC3    H1 8512   2.559   0.414  16.293  1.4635  0.6006  0.9461
  570TMC3    H2 8513   2.809   0.687  16.105  2.4549 -0.5755 -3.0531
  570TMC3    C7 8514   2.662   0.666  16.278  0.9406 -0.4185  0.8719
  570TMC3    C8 8515   2.883   0.530  15.885 -0.6984 -0.3032 -0.0511
  570TMC3    O1 8516   2.761   0.712  16.332  0.4487  0.3915 -0.2061
  570TMC3    O2 8517   2.949   0.630  15.904 -0.2374  0.0515  0.3692
  571MPD2     C 8518   4.498   1.477   0.172 -0.0996 -0.2640  0.4902
  571MPD2    C1 8519   4.485   1.596   0.105 -0.0151 -0.2683  0.1152
  571MPD2    C2 8520   4.442   1.708   0.172  0.2671 -0.5663 -0.0499
  571MPD2    C3 8521   4.420   1.707   0.310  0.5563 -0.5682 -0.8735
  571MPD2    C4 8522   4.435   1.587   0.379 -0.2558  0.1148 -0.2804
  571MPD2    C5 8523   4.478   1.472   0.311 -0.3825 -0.7762  0.2952
  571MPD2     H 8524   4.439   1.804   0.122  1.9809 -1.4949 -1.9328
  571MPD2    H1 8525   4.426   1.587   0.487 -1.2377  4.2428 -0.3547
  571MPD2    H2 8526   4.538   1.392   0.119  0.1527  0.8947 -1.1894
  571MPD2    H3 8527   4.498   1.384   0.369 -1.5999 -2.4203 -1.7528
  571MPD2     N 8528   4.392   1.833   0.375  0.1680 -0.1720  0.4065
  571MPD2    H5 8529   4.390   1.828   0.476 -3.4424 -2.4810  0.2241
  571MPD2    N1 8530   4.523   1.603  17.693 -0.1547  0.2637  0.8881
  571MPD2    H7 8531   4.546   1.512  17.653  3.1032  0.2539  2.8123
  572TMC3    C1 8532   4.331   2.066   0.400  0.3700 -0.0172 -0.6519
  572TMC3    C2 8533   4.307   2.071   0.535  0.2782 -0.0072  0.3530
  572TMC3    C3 8534   4.326   2.187   0.603 -0.4716  0.4217  0.5046
  572TMC3    C4 8535   4.387   2.175   0.339 -0.2044 -0.1641  0.3862
  572TMC3    C5 8536   4.416   2.290   0.411  0.0568 -0.8065 -0.2047
  572TMC3    C6 8537   4.388   2.297   0.543  0.2890 -0.3635 -0.5520
  572TMC3     C 8538   4.332   1.945   0.316 -0.2055  0.1056  0.0950
  572TMC3     O 8539   4.309   1.963   0.199 -0.6098  0.2016  0.3866
  572TMC3     H 8540   4.239   2.001   0.582  0.9954 -1.6952 -1.1645
  572TMC3    H1 8541   4.428   2.170   0.239  1.9607  4.0736  1.0520
  572TMC3    H2 8542   4.424   2.376   0.608  0.3576  0.0696 -1.1181
  572TMC3    C7 8543   4.489   2.391   0.341  0.2906 -0.3872 -0.0327
  572TMC3    C8 8544   4.274   2.203   0.742 -0.5974 -0.8449  0.0160
  572TMC3    O1 8545   4.499   2.378   0.219  0.5357 -0.4099 -0.1818
  572TMC3    O2 8546   4.243   2.094   0.790  0.0978 -0.2770 -0.7896
  573MPD2     C 8547   1.225   3.014   1.016 -0.4964  0.3578 -0.1352
  573MPD2    C1 8548   1.363   2.991   1.028  0.2528  0.4555 -0.1511
  573MPD2    C2 8549   1.424   2.922   0.927  0.3791 -0.6597  0.0456
  573MPD2    C3 8550   1.363   2.892   0.811  0.0643  0.0325 -0.7582
  573MPD2    C4 8551   1.233   2.928   0.794  0.1245  0.8139  0.4458
  573MPD2    C5 8552   1.165   2.985   0.894 -0.3272 -0.8021  0.2657
  573MPD2     H 8553   1.528   2.894   0.940  0.9942  0.5818 -2.3257
  573MPD2    H1 8554   1.180   2.906   0.702  0.2585 -0.0136  0.5695
  573MPD2    H2 8555   1.159   3.064   1.086  0.4467  0.5302  0.6293
  573MPD2    H3 8556   1.059   3.003   0.880  0.0711 -1.1957 -3.2322
  573MPD2     N 8557   1.421   2.821   0.706 -0.5070  0.7791 -0.2717
  573MPD2    H5 8558   1.361   2.817   0.624  0.3559 -3.7970 -0.6345
  573MPD2    N1 8559   1.431   3.027   1.144  0.1510  0.0658  0.1417
  573MPD2    H7 8560   1.381   3.070   1.221  0.4552  0.8299 -0.0958
  574TMC3    C1 8561   1.595   2.739   0.562  0.2322 -0.3594 -0.0221
  574TMC3    C2 8562   1.509   2.694   0.460 -0.2826  0.3646 -0.1744
  574TMC3    C3 8563   1.557   2.661   0.346 -0.0629  0.0464 -0.6770
  574TMC3    C4 8564   1.737   2.745   0.538  0.0701  0.1130  0.5713
  574TMC3    C5 8565   1.781   2.702   0.415  0.0560 -0.4627 -0.1754
  574TMC3    C6 8566   1.691   2.656   0.316  0.3949  0.6641 -0.0475
  574TMC3     C 8567   1.549   2.778   0.693  0.1641 -0.0563  0.2603
  574TMC3     O 8568   1.633   2.771   0.784  0.4895  0.1179  0.7399
  574TMC3     H 8569   1.402   2.684   0.474 -0.2546 -1.3379 -1.1995
  574TMC3    H1 8570   1.801   2.779   0.618 -1.7096 -0.2612  2.1619
  574TMC3    H2 8571   1.728   2.629   0.218  0.8228  2.0179 -0.2567
  574TMC3    C7 8572   1.928   2.694   0.391  0.1970  0.3597 -0.1028
  574TMC3    C8 8573   1.475   2.587   0.244 -0.6957  0.5047 -0.5214
  574TMC3    O1 8574   1.962   2.665   0.280 -0.1778  0.2067 -0.6358
  574TMC3    O2 8575   1.373   2.524   0.282 -0.1433  0.2353  0.6654
  575TMC3    C1 8576   3.517   4.671  11.074 -0.0108  0.6574  0.0858
  575TMC3    C2 8577   3.544   4.538  11.063  0.0252 -0.4501  0.1110
  575TMC3    C3 8578   3.569   4.492  10.939  0.0041 -0.5279 -0.1308
  575TMC3    C4 8579   3.516   0.023  10.967 -0.0343  0.5979  0.2722
  575TMC3    C5 8580   3.550   4.707  10.846 -0.2428  0.2546 -0.3876
  575TMC3    C6 8581   3.562   4.571  10.829 -0.7998  0.7080 -0.5986
  575TMC3     C 8582   3.475   4.730  11.199 -0.5103 -0.3401  0.1482
  575TMC3     O 8583   3.489   0.118  11.217  0.4220  0.1132 -0.6982
  575TMC3     H 8584   3.565   4.476  11.150  3.3600  2.3644  1.2849
  575TMC3    H1 8585   3.502   0.130  10.979  0.6213  0.8550 -1.1752
  575TMC3    H2 8586   3.584   4.526  10.733  4.0543  0.2997  0.6869
  575TMC3    C7 8587   3.572   0.058  10.736 -0.0762 -0.3514 -0.3660
  575TMC3    C8 8588   3.577   4.352  10.913  0.0158  0.4223  0.0618
  575TMC3    O1 8589   3.562   4.725  10.633  0.4107  0.4373 -0.3956
  575TMC3    O2 8590   3.618   4.314  10.804 -0.1894  0.5585  1.0586
  576MPD2     C 8591   3.378   0.763  12.523  0.0075 -0.2663 -0.7260
  576MPD2    C1 8592   3.385   0.884  12.457 -0.6916  0.1013 -0.1457
  576MPD2    C2 8593   3.317   0.992  12.518  0.6287 -0.3396  0.1168
  576MPD2    C3 8594   3.258   0.989  12.645 -0.0046 -0.8564  0.2252
  576MPD2    C4 8595   3.256   0.867  12.705  1.0756 -0.0945 -0.1839
  576MPD2    C5 8596   3.303   0.756  12.639  0.1647 -0.5128  0.2974
  576MPD2     H 8597   3.322   1.090  12.470 -0.2464 -0.7802 -0.8786
  576MPD2    H1 8598   3.209   0.861  12.803 -1.1091 -1.3723 -1.3140
  576MPD2    H2 8599   3.410   0.670  12.478  0.1575  0.3950 -1.9842
  576MPD2    H3 8600   3.280   0.664  12.691  1.2191  0.1704  1.9537
  576MPD2     N 8601   3.217   1.116  12.698  0.0086  0.7483 -0.3275
  576MPD2    H5 8602   3.218   1.191  12.631 -2.0690  0.4823 -0.6423
  576MPD2    N1 8603   3.451   0.890  12.332  0.2330 -0.2937  0.2137
  576MPD2    H7 8604   3.456   0.988  12.304 -0.5018 -0.3754 -0.1961
  577TMC3    C1 8605   3.559   0.836  12.128 -0.5712  0.0029 -0.6031
  577TMC3    C2 8606   3.610   0.740  12.047  0.0479 -0.1475 -0.3714
  577TMC3    C3 8607   3.660   0.774  11.931  0.0912 -0.1764  0.3179
  577TMC3    C4 8608   3.538   0.967  12.087 -0.0820  0.0608 -0.2072
  577TMC3    C5 8609   3.579   0.997  11.958 -0.7949 -0.2778 -0.0108
  577TMC3    C6 8610   3.648   0.900  11.883  0.7261  0.0307 -0.4799
  577TMC3     C 8611   3.511   0.791  12.260 -0.3503 -0.1159  0.0370
  577TMC3     O 8612   3.541   0.677  12.296 -0.3362 -0.3238 -0.2626
  577TMC3     H 8613   3.619   0.638  12.082 -1.1805 -1.0886 -2.8158
  577TMC3    H1 8614   3.481   1.039  12.144  0.8138  1.8203 -1.5532
  577TMC3    H2 8615   3.689   0.920  11.785 -1.9828  2.4866 -1.1060
  577TMC3    C7 8616   3.619   1.132  11.938  0.2361  0.0135  0.0680
  577TMC3    C8 8617   3.769   0.691  11.887 -0.2166 -0.3403  0.4995
  577TMC3    O1 8618   3.659   1.184  12.038  0.0383 -0.2336 -0.1337
  577TMC3    O2 8619   3.780   0.581  11.936  0.1380  0.3020  0.4111
  578MPD2     C 8620   1.699   0.429   0.830 -1.0305 -0.0576 -0.2824
  578MPD2    C1 8621   1.814   0.408   0.761  0.2565 -0.1199  0.0825
  578MPD2    C2 8622   1.911   0.338   0.829 -0.1030 -0.9254  0.4775
  578MPD2    C3 8623   1.902   0.302   0.962 -0.2119  0.0102  0.4521
  578MPD2    C4 8624   1.783   0.326   1.024 -0.3054  0.1573 -1.0674
  578MPD2    C5 8625   1.681   0.378   0.955  0.1906  1.0314 -0.0455
  578MPD2     H 8626   2.001   0.316   0.774  1.3942  1.6487  1.9083
  578MPD2    H1 8627   1.759   0.297   1.126 -1.7427 -1.0177 -1.7235
  578MPD2    H2 8628   1.621   0.488   0.781  0.4681  1.5369 -0.7528
  578MPD2    H3 8629   1.586   0.388   1.007  0.0068 -3.4282  0.4983
  578MPD2     N 8630   2.012   0.243   1.021 -0.5023 -0.2512  0.0623
  578MPD2    H5 8631   2.091   0.212   0.965  0.0135 -0.5218  0.9288
  578MPD2    N1 8632   1.838   0.453   0.627 -0.1184  0.1410  0.8214
  578MPD2    H7 8633   1.757   0.499   0.586 -0.4487 -0.3933  0.8771
  579TMC3    C1 8634   2.147   0.138   1.186 -0.6040 -0.3868  0.3854
  579TMC3    C2 8635   2.197   0.169   1.309  0.3132 -0.0951 -0.3167
  579TMC3    C3 8636   2.311   0.098   1.342 -0.9036  0.2240  0.0886
  579TMC3    C4 8637   2.196   0.044   1.098  1.1930  0.0031 -0.2001
  579TMC3    C5 8638   2.304   4.707   1.139  0.8784 -0.1486  0.5809
  579TMC3    C6 8639   2.369   0.001   1.261 -0.1881 -0.5975 -0.0631
  579TMC3     C 8640   2.024   0.216   1.156 -0.1062 -0.9076 -0.3003
  579TMC3     O 8641   1.953   0.241   1.255 -0.1554  0.4091 -0.1140
  579TMC3     H 8642   2.165   0.253   1.370  0.8766  0.1567 -0.3636
  579TMC3    H1 8643   2.124   0.021   1.021  1.0678  0.4128 -0.2088
  579TMC3    H2 8644   2.463   4.689   1.289 -0.4753 -0.6867  0.7823
  579TMC3    C7 8645   2.373   4.622   1.046  0.6489 -0.7674 -0.4555
  579TMC3    C8 8646   2.381   0.136   1.463  0.3393 -0.0195  0.0293
  579TMC3    O1 8647   2.472   4.567   1.087 -0.1035  0.2488 -0.0742
  579TMC3    O2 8648   2.309   0.182   1.549  0.1257  0.3562 -0.0703
  580TMC3    C1 8649   1.625   4.697  12.095 -0.0775 -0.2745 -0.0074
  580TMC3    C2 8650   1.535   0.000  11.996 -0.2402  0.7401 -0.3672
  580TMC3    C3 8651   1.523   4.661  11.889  0.1840 -0.0089  0.0585
  580TMC3    C4 8652   1.684   4.581  12.094  0.5680 -0.6376 -0.0329
  580TMC3    C5 8653   1.652   4.495  11.994 -0.4050  0.3366 -0.9853
  580TMC3    C6 8654   1.571   4.534  11.890 -0.4628 -0.2611 -0.3970
  580TMC3     C 8655   1.700   0.077  12.142  0.5660 -0.0484 -0.3793
  580TMC3     O 8656   1.649   0.187  12.128 -0.3905  0.1550  0.2204
  580TMC3     H 8657   1.485   0.096  11.995  0.2616  1.0042 -0.0740
  580TMC3    H1 8658   1.752   4.547  12.172  0.7077 -1.1607 -0.3844
  580TMC3    H2 8659   1.544   4.475  11.803 -0.5457  0.4174 -0.8357
  580TMC3    C7 8660   1.654   4.357  12.032 -0.0780  0.0228  0.0920
  580TMC3    C8 8661   1.553   4.724  11.761 -0.0211  0.2302  0.0022
  580TMC3    O1 8662   1.716   4.338  12.135  0.3035 -0.0071 -0.0952
  580TMC3    O2 8663   1.500   4.682  11.659  0.2601  0.0723 -0.0243
  581MPD2     C 8664   4.270   4.280  15.108  0.6243 -1.2640 -0.4755
  581MPD2    C1 8665   4.218   4.188  15.016 -0.6826 -0.3340  0.4068
  581MPD2    C2 8666   4.101   4.223  14.948 -0.2037 -0.0719  1.0684
  581MPD2    C3 8667   4.047   4.357  14.957 -0.0659  0.6544  0.5463
  581MPD2    C4 8668   4.113   4.439  15.047 -0.1884  0.3931 -0.7862
  581MPD2    C5 8669   4.209   4.398  15.131 -0.0139 -0.2238  0.2187
  581MPD2     H 8670   4.050   4.144  14.895 -0.1039  1.5245 -1.3652
  581MPD2    H1 8671   4.072   4.538  15.064  0.3112  0.3696  0.5622
  581MPD2    H2 8672   4.360   4.262  15.167  0.7185  0.1488 -0.1919
  581MPD2    H3 8673   4.253   4.461  15.208 -1.0126  0.9372 -0.1742
  581MPD2     N 8674   3.932   4.392  14.888  0.5390 -0.4028 -0.2105
  581MPD2    H5 8675   3.903   4.324  14.819  0.1980  0.8060 -1.2507
  581MPD2    N1 8676   4.262   4.055  15.005 -0.1512  0.3095 -0.3916
  581MPD2    H7 8677   4.211   3.999  14.937  1.4630  0.5750 -1.8476
  582TMC3    C1 8678   4.372   3.861  15.080  0.5108  0.2236 -0.7832
  582TMC3    C2 8679   4.398   3.826  15.206  0.1400  0.1851  0.7384
  582TMC3    C3 8680   4.301   3.773  15.287 -0.1983  0.5768 -0.1023
  582TMC3    C4 8681   4.257   3.810  15.026  0.0152  0.5964  0.8447
  582TMC3    C5 8682   4.160   3.761  15.105  0.3279  0.2752 -0.3976
  582TMC3    C6 8683   4.174   3.758  15.238 -0.1864  0.0960  0.3765
  582TMC3     C 8684   4.381   4.005  15.065 -0.5999  0.1060 -0.7992
  582TMC3     O 8685   4.460   4.057  15.141 -0.3745 -0.0264  0.0419
  582TMC3     H 8686   4.497   3.835  15.248 -0.2657  0.1818  1.7035
  582TMC3    H1 8687   4.242   3.820  14.919 -0.3307 -1.4823  0.7107
  582TMC3    H2 8688   4.086   3.734  15.297  0.0219  0.7431  0.9521
  582TMC3    C7 8689   4.029   3.793  15.056  0.6387 -0.3376 -0.2789
  582TMC3    C8 8690   4.322   3.795  15.430  0.0364 -0.7430  0.1844
  582TMC3    O1 8691   3.996   3.748  14.949  0.3354  0.0229 -0.3969
  582TMC3    O2 8692   4.224   3.827  15.502 -0.2064 -0.8497 -1.1614
  583MPD2     C 8693   4.292   0.857  16.613  0.1990  0.1778  1.0791
  583MPD2    C1 8694   4.266   0.978  16.548  0.6028 -0.1785  0.0795
  583MPD2    C2 8695   4.187   1.077  16.603 -0.7941  0.4331  0.2656
  583MPD2    C3 8696   4.129   1.052  16.726 -0.7370  0.3791  0.2993
  583MPD2    C4 8697   4.144   0.928  16.781  0.2919 -0.6265 -0.8619
  583MPD2    C5 8698   4.221   0.827  16.730 -0.2079  0.4399 -0.1701
  583MPD2     H 8699   4.175   1.172  16.552  0.6103  2.2656  3.3106
  583MPD2    H1 8700   4.086   0.914  16.872  0.6639  0.5945 -0.4439
  583MPD2    H2 8701   4.359   0.780  16.577 -0.1536 -0.1404  1.1027
  583MPD2    H3 8702   4.221   0.732  16.782 -0.3310  0.0846 -0.8300
  583MPD2     N 8703   4.053   1.159  16.789 -0.4342 -0.1433 -0.2264
  583MPD2    H5 8704   4.040   1.236  16.725  1.4065 -1.0173 -1.6694
  583MPD2    N1 8705   4.334   1.006  16.420  0.0452  0.3710  0.1514
  583MPD2    H7 8706   4.308   1.098  16.384  0.0944  0.4734  0.3725
  584TMC3    C1 8707   3.920   1.273  16.958  0.6412  0.4796 -0.4256
  584TMC3    C2 8708   3.856   1.353  16.870 -0.3171 -0.6806  0.0106
  584TMC3    C3 8709   3.807   1.474  16.924  0.1585  0.1162  0.0744
  584TMC3    C4 8710   3.936   1.306  17.092  0.2857 -0.5079 -0.1565
  584TMC3    C5 8711   3.889   1.422  17.140 -0.1696 -0.6986  0.0747
  584TMC3    C6 8712   3.825   1.514  17.052  0.2369 -0.2213 -0.3186
  584TMC3     C 8713   3.992   1.149  16.914  0.5351 -0.1831  0.0430
  584TMC3     O 8714   4.013   1.068  17.007  0.5407 -0.4483  0.0371
  584TMC3     H 8715   3.856   1.335  16.763 -0.5582  3.1415 -0.5996
  584TMC3    H1 8716   4.005   1.253  17.157  1.1851 -1.0412 -1.5342
  584TMC3    H2 8717   3.780   1.610  17.078 -2.8016 -1.8864  0.5297
  584TMC3    C7 8718   3.895   1.439  17.286  0.2174 -0.4256  0.1811
  584TMC3    C8 8719   3.770   1.570  16.826 -0.1753  0.8516  0.2866
  584TMC3    O1 8720   3.939   1.342  17.348 -0.2736  0.3295 -0.4298
  584TMC3    O2 8721   3.720   1.528  16.721 -0.2959  0.6788  0.0956
  585MPD2     C 8722   3.192   0.108   0.540  0.3897 -0.6935 -0.5056
  585MPD2    C1 8723   3.265   0.154   0.433 -0.0800 -0.4236  0.2179
  585MPD2    C2 8724   3.346   0.060   0.369 -0.1260 -0.1281 -0.1235
  585MPD2    C3 8725   3.364   4.670   0.429 -0.2479  0.4935 -0.1523
  585MPD2    C4 8726   3.288   4.638   0.542  0.3327  0.9374 -0.2961
  585MPD2    C5 8727   3.204   4.725   0.593  0.2271 -0.7781 -0.2808
  585MPD2     H 8728   3.413   0.089   0.290  0.2480 -1.0138 -0.1247
  585MPD2    H1 8729   3.297   4.538   0.583  0.0458  1.2147  0.4375
  585MPD2    H2 8730   3.129   0.175   0.598 -1.6176 -1.5663 -1.6613
  585MPD2    H3 8731   3.148   4.707   0.684  0.6562  1.2528  0.3753
  585MPD2     N 8732   3.445   4.568   0.371  0.2412 -0.1813 -0.0727
  585MPD2    H5 8733   3.456   4.485   0.427  1.3154  1.1017  1.6153
  585MPD2    N1 8734   3.259   0.290   0.401  0.0108 -0.3915  0.0039
  585MPD2    H7 8735   3.189   0.340   0.455  1.4034  1.3528  0.2204
  586TMC3    C1 8736   3.629   4.473   0.255 -0.2775  0.2861  0.8839
  586TMC3    C2 8737   3.748   4.503   0.207 -0.5345  0.7635  0.9588
  586TMC3    C3 8738   3.833   4.398   0.184  0.0195  0.4221  0.1771
  586TMC3    C4 8739   3.588   4.348   0.277  0.5554  0.1343 -0.0644
  586TMC3    C5 8740   3.677   4.247   0.254  0.1848 -0.0523  0.3345
  586TMC3    C6 8741   3.803   4.266   0.205  0.3182 -0.3630  0.3963
  586TMC3     C 8742   3.543   4.586   0.273 -0.4317  0.2027 -0.6201
  586TMC3     O 8743   3.581   4.691   0.212  0.2191 -0.1534 -0.4301
  586TMC3     H 8744   3.784   4.605   0.198 -1.2742  0.9105 -0.2436
  586TMC3    H1 8745   3.486   4.332   0.309  0.5628 -1.2909 -0.7484
  586TMC3    H2 8746   3.875   4.186   0.203 -0.3380 -0.9526  0.1861
  586TMC3    C7 8747   3.610   4.118   0.236  0.5748 -0.5155  0.0314
  586TMC3    C8 8748   3.949   4.420   0.107 -0.3048 -0.5274  0.0339
  586TMC3    O1 8749   3.495   4.102   0.275 -0.8252  0.6855  0.0349
  586TMC3    O2 8750   4.037   4.343   0.135  0.0128  0.3876  0.6179
  587TMC3    C1 8751   1.145   3.172  16.457 -0.5016 -0.1383 -0.8696
  587TMC3    C2 8752   1.153   3.308  16.479 -0.1908  0.8791  1.0391
  587TMC3    C3 8753   1.274   3.366  16.502 -0.3840  0.2829 -0.1462
  587TMC3    C4 8754   1.255   3.089  16.476  0.1988  0.1574  0.1878
  587TMC3    C5 8755   1.380   3.154  16.503 -0.3780  0.0947  0.6539
  587TMC3    C6 8756   1.392   3.287  16.511 -0.2894 -0.6242  0.8597
  587TMC3     C 8757   1.013   3.113  16.446 -0.8114  0.4002 -0.1508
  587TMC3     O 8758   0.914   3.154  16.509 -0.4108  0.5224  0.4277
  587TMC3     H 8759   1.062   3.361  16.454 -1.1116 -1.6478 -0.9310
  587TMC3    H1 8760   1.262   2.981  16.484 -0.4590  0.1788  1.0786
  587TMC3    H2 8761   1.488   3.337  16.524  0.6404 -1.4471 -2.9943
  587TMC3    C7 8762   1.491   3.063  16.536  0.3623 -0.4401  0.8256
  587TMC3    C8 8763   1.286   3.509  16.513 -0.1698  0.2908  0.4284
  587TMC3    O1 8764   1.506   2.968  16.459 -0.1840  0.1227  0.0538
  587TMC3    O2 8765   1.388   3.555  16.558 -0.1987 -0.5064 -0.4471
  588TMC3    C1 8766   2.956   1.910   9.853  0.6180 -0.0821 -0.0482
  588TMC3    C2 8767   2.896   1.787   9.857  0.1132  0.7922  0.4863
  588TMC3    C3 8768   2.969   1.687   9.914  0.3011 -0.1433  0.6380
  588TMC3    C4 8769   3.080   1.935   9.897 -0.3630  0.5123 -0.1396
  588TMC3    C5 8770   3.144   1.833   9.963  0.4342 -0.6419  0.4840
  588TMC3    C6 8771   3.087   1.710   9.974 -0.3531 -0.7434  0.5662
  588TMC3     C 8772   2.876   2.015   9.799 -0.4749  0.7911  0.3690
  588TMC3     O 8773   2.805   1.993   9.704  0.5281  0.4865  0.0375
  588TMC3     H 8774   2.797   1.776   9.814  1.6239 -1.1253 -2.5378
  588TMC3    H1 8775   3.118   2.033   9.872 -1.1263  1.1155  1.0645
  588TMC3    H2 8776   3.150   1.639  10.026  0.9096 -0.6103 -0.7953
  588TMC3    C7 8777   3.270   1.861  10.035  0.6113 -0.0448 -0.5837
  588TMC3    C8 8778   2.905   1.557   9.916 -0.4657  0.1987  0.0421
  588TMC3    O1 8779   3.353   1.773  10.060  0.3192  0.8841 -0.4954
  588TMC3    O2 8780   2.785   1.548   9.887 -0.0542 -0.7932 -0.7328
  589TMC3    C1 8781   2.431   3.236   1.204  0.2239 -0.2044 -0.3518
  589TMC3    C2 8782   2.489   3.274   1.322  0.6522  0.2222  0.5711
  589TMC3    C3 8783   2.587   3.196   1.385 -0.1444 -0.7272 -0.2264
  589TMC3    C4 8784   2.477   3.117   1.151 -0.8581  0.4253  0.8997
  589TMC3    C5 8785   2.584   3.051   1.214  0.1415 -1.0462 -0.2406
  589TMC3    C6 8786   2.638   3.080   1.336 -0.0452  1.1998  0.2161
  589TMC3     C 8787   2.327   3.292   1.126 -0.1826  0.3978  0.4754
  589TMC3     O 8788   2.283   3.227   1.031 -0.0960 -0.2322 -0.0485
  589TMC3     H 8789   2.468   3.373   1.362  0.0963  0.6247 -0.7286
  589TMC3    H1 8790   2.441   3.090   1.052  2.4897  1.2100 -0.5230
  589TMC3    H2 8791   2.705   3.022   1.398 -1.9983 -2.6377 -1.3080
  589TMC3    C7 8792   2.585   2.907   1.180 -0.3323 -0.4561  0.4125
  589TMC3    C8 8793   2.667   3.282   1.469  0.5426 -0.0589 -0.4630
  589TMC3    O1 8794   2.479   2.873   1.124  0.1894  0.0075 -0.4067
  589TMC3    O2 8795   2.609   3.363   1.545  0.8231  0.7207 -0.0979
  590MPD2     C 8796   2.128   1.804  16.543  0.0046 -0.5370 -0.0777
  590MPD2    C1 8797   2.045   1.828  16.437  0.1907 -0.9192  0.2544
  590MPD2    C2 8798   2.086   1.935  16.356  0.4840 -0.0320 -0.1665
  590MPD2    C3 8799   2.192   2.016  16.381  0.8924 -0.1941 -0.0836
  590MPD2    C4 8800   2.268   1.982  16.487  0.6167 -0.4834  0.5870
  590MPD2    C5 8801   2.240   1.877  16.567  1.3383  0.2342  0.2819
  590MPD2     H 8802   2.021   1.964  16.274 -0.7817  1.4402  1.3579
  590MPD2    H1 8803   2.365   2.027  16.506  0.6107 -0.2371  0.0321
  590MPD2    H2 8804   2.107   1.721  16.609 -2.9456  0.3473  0.0585
  590MPD2    H3 8805   2.290   1.857  16.661  1.2249  0.3558  0.3683
  590MPD2     N 8806   2.215   2.117  16.287 -0.0071 -0.0237 -0.7197
  590MPD2    H5 8807   2.161   2.120  16.201 -1.3774  0.4320  0.1473
  590MPD2    N1 8808   1.924   1.747  16.414 -0.0424 -0.0311 -0.0457
  590MPD2    H7 8809   1.907   1.681  16.490  1.0485 -0.7833 -0.4492
  591TMC3    C1 8810   2.305   2.309  16.201  1.1167 -0.1539  0.0380
  591TMC3    C2 8811   2.296   2.251  16.082 -0.1598  0.2649 -0.1665
  591TMC3    C3 8812   2.305   2.330  15.970 -0.5702  0.4043  0.1205
  591TMC3    C4 8813   2.301   2.445  16.222 -0.0152  0.9133  0.3460
  591TMC3    C5 8814   2.308   2.520  16.111  0.2973 -0.1672 -0.3510
  591TMC3    C6 8815   2.310   2.467  15.984  0.6628  0.3215  0.0151
  591TMC3     C 8816   2.302   2.221  16.316  0.5407  0.4027 -0.2580
  591TMC3     O 8817   2.365   2.259  16.415 -0.0408  0.5008 -0.5311
  591TMC3     H 8818   2.313   2.144  16.070  1.7635  0.5286  0.2376
  591TMC3    H1 8819   2.297   2.492  16.320  1.0059  1.5672  0.0646
  591TMC3    H2 8820   2.334   2.531  15.900 -0.6346 -0.9929 -1.3548
  591TMC3    C7 8821   2.310   2.667  16.129 -0.0187  0.1204 -0.7322
  591TMC3    C8 8822   2.343   2.264  15.850  0.1135 -0.8839  0.5187
  591TMC3    O1 8823   2.296   2.711  16.241 -0.4940  0.0319  0.6486
  591TMC3    O2 8824   2.375   2.149  15.853  0.5664 -0.0809  0.2534
  592MPD2     C 8825   2.520   4.411  11.349 -0.4276  0.2045 -0.2144
  592MPD2    C1 8826   2.486   4.471  11.472 -0.5195  0.0274  0.1980
  592MPD2    C2 8827   2.385   4.405  11.546 -0.2557 -0.3922  0.6130
  592MPD2    C3 8828   2.322   4.289  11.514 -0.4940  0.5486  0.6876
  592MPD2    C4 8829   2.356   4.241  11.386 -0.6887 -0.1298  0.5209
  592MPD2    C5 8830   2.444   4.301  11.306  0.7511  0.6608  1.0131
  592MPD2     H 8831   2.369   4.451  11.644  0.6983 -1.1208  1.1020
  592MPD2    H1 8832   2.319   4.146  11.350  0.0218 -0.2516  0.1119
  592MPD2    H2 8833   2.591   4.460  11.284  0.8951 -2.6283 -0.8931
  592MPD2    H3 8834   2.478   4.241  11.222  0.8840  1.6687  0.3458
  592MPD2     N 8835   2.221   4.224  11.592  0.5852  0.4089  0.2145
  592MPD2    H5 8836   2.217   4.258  11.687  1.4183  0.5928  0.1871
  592MPD2    N1 8837   2.553   4.588  11.499 -0.0633  0.0627 -0.6623
  592MPD2    H7 8838   2.580   4.643  11.418 -2.4008  0.9747 -0.8116
  593TMC3    C1 8839   2.613   0.048  11.609 -0.1581  0.4766 -0.2068
  593TMC3    C2 8840   2.586   0.125  11.712  0.1836 -0.4168  0.0596
  593TMC3    C3 8841   2.656   0.242  11.725  0.2710 -1.0927  0.1737
  593TMC3    C4 8842   2.690   0.083  11.507 -0.0068 -0.0839  0.4167
  593TMC3    C5 8843   2.750   0.207  11.515  0.3962 -0.7291 -0.1622
  593TMC3    C6 8844   2.742   0.290  11.626 -0.6210  0.2710 -0.3702
  593TMC3     C 8845   2.562   4.644  11.620 -0.2301 -0.0028 -1.1403
  593TMC3     O 8846   2.535   4.601  11.732 -0.7508  0.0380  0.1511
  593TMC3     H 8847   2.532   0.093  11.801 -1.1999  1.2942 -0.1509
  593TMC3    H1 8848   2.731   0.008  11.440  1.4212  1.8783 -0.9208
  593TMC3    H2 8849   2.780   0.391  11.636  1.0314 -0.4745  0.6750
  593TMC3    C7 8850   2.818   0.268  11.401 -0.6750 -0.1311  0.1331
  593TMC3    C8 8851   2.639   0.301  11.856 -0.6029  0.3789  0.1264
  593TMC3    O1 8852   2.885   0.364  11.431 -0.0752  0.3210 -0.5417
  593TMC3    O2 8853   2.526   0.302  11.898 -0.0180  0.5481  0.3268
  594MPD2     C 8854   1.402   2.445  14.653 -0.4265  0.2761  0.1955
  594MPD2    C1 8855   1.312   2.545  14.630  0.7973 -0.5687  0.8675
  594MPD2    C2 8856   1.360   2.655  14.568  0.4504  0.0244  0.1052
  594MPD2    C3 8857   1.491   2.682  14.534  0.0880 -0.4183  0.2587
  594MPD2    C4 8858   1.581   2.577  14.553  0.0190  0.4238  0.6334
  594MPD2    C5 8859   1.536   2.464  14.620  0.4960  0.4965 -0.0977
  594MPD2     H 8860   1.288   2.736  14.557  0.0298 -0.3259  0.2631
  594MPD2    H1 8861   1.688   2.583  14.532 -0.1027  2.7771  0.7115
  594MPD2    H2 8862   1.378   2.359  14.714  0.8978  0.7600  1.4015
  594MPD2    H3 8863   1.606   2.386  14.646  1.8049  1.6162 -0.2469
  594MPD2     N 8864   1.524   2.807  14.469 -0.1271  0.3824  0.1273
  594MPD2    H5 8865   1.448   2.869  14.444 -2.3656 -1.6491  1.9446
  594MPD2    N1 8866   1.174   2.509  14.653 -0.3760 -0.2248 -0.3253
  594MPD2    H7 8867   1.155   2.417  14.692  2.2221  0.1493  1.8502
  595TMC3    C1 8868   1.794   3.086  14.209 -0.2747  0.2024 -0.0671
  595TMC3    C2 8869   1.779   2.970  14.278 -0.4319 -0.3353  0.9087
  595TMC3    C3 8870   1.662   2.950  14.345  0.0077  0.7884  0.1653
  595TMC3    C4 8871   1.703   3.188  14.207 -0.5013  0.1805 -0.3379
  595TMC3    C5 8872   1.595   3.165  14.287 -0.1513  0.1635  0.2561
  595TMC3    C6 8873   1.575   3.051  14.354 -0.2962 -0.3549 -0.6083
  595TMC3     C 8874   1.928   3.122  14.160 -0.1562  0.3628  0.9465
  595TMC3     O 8875   2.035   3.083  14.205 -0.2824  0.3229  0.4909
  595TMC3     H 8876   1.840   2.884  14.254 -0.3292  0.0380 -0.1603
  595TMC3    H1 8877   1.718   3.288  14.169  0.5832 -0.1364 -0.7622
  595TMC3    H2 8878   1.490   3.039  14.420 -0.0590  0.2540 -0.1982
  595TMC3    C7 8879   1.503   3.273  14.326  0.3348  0.2113  0.2267
  595TMC3    C8 8880   1.658   2.837  14.443  0.5033  0.0215  0.3258
  595TMC3    O1 8881   1.456   3.261  14.439 -0.2100  0.3843  0.5128
  595TMC3    O2 8882   1.762   2.774  14.453 -0.1331 -0.2420  0.2412
  596MPD2     C 8883   0.334   0.847  16.732 -0.2925 -0.2930  0.5928
  596MPD2    C1 8884   0.362   0.967  16.677 -0.1933  0.3922  0.1202
  596MPD2    C2 8885   0.414   0.967  16.547 -0.2244 -0.5724  0.5651
  596MPD2    C3 8886   0.430   0.850  16.473  0.2322  0.4943  0.5459
  596MPD2    C4 8887   0.418   0.732  16.541 -0.4690 -0.0840  0.0898
  596MPD2    C5 8888   0.373   0.732  16.669  0.3249 -0.1471 -0.2325
  596MPD2     H 8889   0.443   1.062  16.504 -2.4048 -1.0065 -1.8476
  596MPD2    H1 8890   0.451   0.637  16.501  0.1054  1.0620 -2.1464
  596MPD2    H2 8891   0.303   0.837  16.835 -0.3280  1.6141  0.7710
  596MPD2    H3 8892   0.368   0.637  16.721 -0.1923  0.2518  0.4438
  596MPD2     N 8893   0.474   0.845  16.341  0.0471  0.3486  0.2391
  596MPD2    H5 8894   0.486   0.752  16.302  0.1030  1.3639 -2.1484
  596MPD2    N1 8895   0.349   1.090  16.746 -0.2155 -0.0797 -0.6152
  596MPD2    H7 8896   0.388   1.173  16.703  0.8575 -0.2545  0.0145
  597TMC3    C1 8897   0.239   1.252  16.890 -0.3312  0.0695  0.4558
  597TMC3    C2 8898   0.291   1.353  16.804  0.3714 -0.6520  0.9155
  597TMC3    C3 8899   0.215   1.466  16.799 -0.0544  0.5194 -0.1583
  597TMC3    C4 8900   0.129   1.268  16.961 -0.0280  0.4300 -0.6322
  597TMC3    C5 8901   0.050   1.373  16.936 -0.4749  0.0893 -0.6110
  597TMC3    C6 8902   0.092   1.474  16.855 -0.2647  0.7756  0.0981
  597TMC3     C 8903   0.278   1.115  16.859  0.5711 -0.8799  0.8539
  597TMC3     O 8904   0.218   1.033  16.932  0.4701 -0.4554 -0.0191
  597TMC3     H 8905   0.377   1.333  16.741  0.4674  2.5039  0.0730
  597TMC3    H1 8906   0.081   1.186  17.013  0.9006  0.0978 -0.3123
  597TMC3    H2 8907   0.028   1.562  16.856 -1.1157  0.1298  3.3949
  597TMC3    C7 8908   4.664   1.383  17.016 -0.1759  0.0229 -0.1620
  597TMC3    C8 8909   0.252   1.580  16.713 -0.7749  0.1927 -1.2600
  597TMC3    O1 8910   4.657   1.328  17.123 -0.2612 -0.1586  0.0293
  597TMC3    O2 8911   0.157   1.643  16.670 -0.6914 -0.9768  0.7534
  598TMC3    C1 8912   3.645   2.675  15.433 -0.0015  0.1358 -0.4749
  598TMC3    C2 8913   3.525   2.610  15.440  0.3967  0.0675  0.2185
  598TMC3    C3 8914   3.478   2.560  15.320 -0.2159 -0.0795 -0.6065
  598TMC3    C4 8915   3.711   2.688  15.313 -0.7652 -0.0251  0.4246
  598TMC3    C5 8916   3.661   2.628  15.201  0.3650  0.3353  0.2654
  598TMC3    C6 8917   3.539   2.572  15.198  0.4149 -0.5287  0.5433
  598TMC3     C 8918   3.683   2.772  15.540  0.0111 -0.2700 -0.3001
  598TMC3     O 8919   3.792   2.820  15.524  0.8097 -0.0248  0.6474
  598TMC3     H 8920   3.459   2.600  15.526 -1.4366 -0.6085 -1.2660
  598TMC3    H1 8921   3.804   2.743  15.309 -0.9686  0.1732 -1.7152
  598TMC3    H2 8922   3.498   2.534  15.105 -0.2296  0.0421  0.5969
  598TMC3    C7 8923   3.716   2.671  15.074 -0.0167  0.1896  0.3027
  598TMC3    C8 8924   3.358   2.476  15.319  0.3236 -0.4641  0.1926
  598TMC3    O1 8925   3.699   2.599  14.980  0.0532  0.1178  0.1418
  598TMC3    O2 8926   3.306   2.469  15.210  0.2723  0.1710  0.2721
  599MPD2     C 8927   3.672   0.341  15.725 -0.1599 -0.1623  0.3422
  599MPD2    C1 8928   3.604   0.218  15.723 -0.2625 -1.1477  0.4657
  599MPD2    C2 8929   3.469   0.212  15.752 -0.4240 -0.3099 -0.7138
  599MPD2    C3 8930   3.406   0.336  15.784 -0.7241 -0.3676 -0.1142
  599MPD2    C4 8931   3.477   0.455  15.794 -0.2538 -1.3219  0.4933
  599MPD2    C5 8932   3.610   0.457  15.769 -0.6834  0.0038 -0.2323
  599MPD2     H 8933   3.412   0.120  15.745 -0.3765 -0.5090  1.4517
  599MPD2    H1 8934   3.436   0.539  15.848  0.0317 -1.2287  0.5679
  599MPD2    H2 8935   3.780   0.345  15.715 -0.3216 -1.2449 -1.7768
  599MPD2    H3 8936   3.670   0.546  15.787 -0.6484 -0.5029  2.1748
  599MPD2     N 8937   3.276   0.336  15.847 -0.2474 -0.2973 -0.0036
  599MPD2    H5 8938   3.241   0.426  15.878  1.7085 -0.1511  1.8014
  599MPD2    N1 8939   3.691   0.105  15.703 -0.7125  0.1218  0.0325
  599MPD2    H7 8940   3.790   0.124  15.692 -0.3809 -1.2906  0.6737
  600TMC3    C1 8941   3.091   0.270  15.972 -0.0012  0.1693 -0.3505
  600TMC3    C2 8942   3.010   0.162  16.004 -0.3980  0.0904  0.6707
  600TMC3    C3 8943   2.961   0.157  16.128 -0.1342  0.1982  0.1424
  600TMC3    C4 8944   3.118   0.367  16.062 -0.1132 -0.1398  0.5554
  600TMC3    C5 8945   3.072   0.357  16.194  0.0748  0.2346 -0.6836
  600TMC3    C6 8946   2.975   0.257  16.220 -0.0971  0.2636 -0.0459
  600TMC3     C 8947   3.190   0.235  15.864  0.2827  0.1579  0.6314
  600TMC3     O 8948   3.201   0.119  15.821 -0.4275  0.7212  0.4167
  600TMC3     H 8949   3.009   0.077  15.935  1.8074 -0.6135  1.5042
  600TMC3    H1 8950   3.181   0.453  16.037  0.1161 -0.2451  0.7707
  600TMC3    H2 8951   2.934   0.248  16.320  1.7187 -1.0743  0.5642
  600TMC3    C7 8952   3.058   0.471  16.281  0.3099 -0.3432  1.0338
  600TMC3    C8 8953   2.917   0.023  16.163 -0.4068 -0.3453  0.4411
  600TMC3    O1 8954   2.969   0.462  16.367 -0.2685  0.4257  0.0475
  600TMC3    O2 8955   2.933   4.723  16.278 -0.0940  0.3802  0.3398
  601MPD2     C 8956   0.151   2.730   0.316  1.1620  0.1636 -0.2705
  601MPD2    C1 8957   0.063   2.683   0.221 -0.7704  0.3668  0.1816
  601MPD2    C2 8958   4.689   2.601   0.257 -0.1303  0.2487  0.0628
  601MPD2    C3 8959   4.671   2.556   0.385  0.1950  0.1772 -0.3125
  601MPD2    C4 8960   0.042   2.573   0.472  0.7303  0.3189 -0.3042
  601MPD2    C5 8961   0.139   2.669   0.441  0.1649  0.2830 -0.6144
  601MPD2     H 8962   4.607   2.582   0.189  1.0977  1.6619 -1.8038
  601MPD2    H1 8963   0.052   2.527   0.570  0.9497 -1.1693 -1.0323
  601MPD2    H2 8964   0.223   2.809   0.295  0.4196  0.7165 -0.7637
  601MPD2    H3 8965   0.219   2.680   0.513  0.4248 -0.0885 -0.8454
  601MPD2     N 8966   4.572   2.464   0.426  0.6973 -0.4785  0.2978
  601MPD2    H5 8967   4.574   2.435   0.523  1.1250 -0.8319  0.1821
  601MPD2    N1 8968   0.078   2.733   0.087 -0.2466 -0.5763  0.1634
  601MPD2    H7 8969   0.008   2.704   0.020 -1.2588  0.0381  0.9746
  602TMC3    C1 8970   0.176   2.835  17.624  0.8981 -0.2543 -0.4270
  602TMC3    C2 8971   0.294   2.881  17.570  0.2607  0.0293  0.0124
  602TMC3    C3 8972   0.282   2.910  17.438 -0.2248  0.3008 -0.6275
  602TMC3    C4 8973   0.059   2.840  17.566 -0.3009 -0.0143 -1.2528
  602TMC3    C5 8974   0.051   2.893  17.433 -1.0523 -0.8581  0.3513
  602TMC3    C6 8975   0.165   2.902  17.365  0.3528  0.2334  0.9494
  602TMC3     C 8976   0.186   2.802   0.036  0.8628  0.4284  0.9191
  602TMC3     O 8977   0.295   2.818   0.085 -0.7064 -0.1586  0.0479
  602TMC3     H 8978   0.392   2.890  17.616 -0.0337  2.1693  0.2420
  602TMC3    H1 8979   4.697   2.816  17.615 -0.9833  1.4536 -1.8390
  602TMC3    H2 8980   0.165   2.918  17.258  0.3580  0.5111  0.9919
  602TMC3    C7 8981   4.658   2.943  17.376 -0.7725  0.4564 -0.7113
  602TMC3    C8 8982   0.402   2.954  17.371  0.2119  0.5355 -0.1042
  602TMC3    O1 8983   4.548   2.905  17.416  0.5209  0.3419  0.3293
  602TMC3    O2 8984   0.508   2.900  17.388  0.2711  0.0552 -0.5700
  603TMC3    C1 8985   2.941   3.937  10.887  0.0747 -0.2884 -0.7442
  603TMC3    C2 8986   3.004   3.880  10.994  0.1344  0.4609 -0.3102
  603TMC3    C3 8987   3.115   3.943  11.039  0.4537 -0.2490 -0.7219
  603TMC3    C4 8988   2.995   4.035  10.811  0.6556 -0.5551 -0.0421
  603TMC3    C5 8989   3.120   4.083  10.850  0.0020 -0.0749 -0.4008
  603TMC3    C6 8990   3.180   4.039  10.966  0.3240 -0.0104 -0.5269
  603TMC3     C 8991   2.808   3.900  10.867 -0.0178  0.0072 -0.2520
  603TMC3     O 8992   2.738   3.867  10.960  0.4343 -0.3391 -0.2711
  603TMC3     H 8993   2.961   3.813  11.067 -2.0373  0.1566 -1.8832
  603TMC3    H1 8994   2.941   4.082  10.729  0.8122  1.1987  0.8584
  603TMC3    H2 8995   3.268   4.092  11.001  0.0132 -0.7208  1.3656
  603TMC3    C7 8996   3.177   4.201  10.787  0.2867  0.4248  0.1858
  603TMC3    C8 8997   3.162   3.908  11.173  0.0725  0.5354  0.3843
  603TMC3    O1 8998   3.242   4.266  10.871  0.8773  0.2856  0.3034
  603TMC3    O2 8999   3.165   3.788  11.201  0.0410  0.2856 -0.2401
  604MPD2     C 9000   4.225   2.231  16.163  0.3522 -0.0926 -0.3762
  604MPD2    C1 9001   4.115   2.178  16.088 -0.0274  0.0653 -0.1921
  604MPD2    C2 9002   4.145   2.128  15.956 -0.7778  0.0328  0.2275
  604MPD2    C3 9003   4.277   2.119  15.912  0.7332  0.2938  0.1910
  604MPD2    C4 9004   4.378   2.173  15.985 -0.3518  0.1818 -0.0910
  604MPD2    C5 9005   4.353   2.224  16.112 -0.1721  0.0798  0.5800
  604MPD2     H 9006   4.066   2.094  15.890 -0.1707  0.3837 -0.6872
  604MPD2    H1 9007   4.478   2.177  15.944  0.0465  1.9657  1.0596
  604MPD2    H2 9008   4.219   2.271  16.263 -1.6156 -0.4258 -0.3643
  604MPD2    H3 9009   4.437   2.273  16.159 -1.1680  0.6109  1.8110
  604MPD2     N 9010   4.291   2.056  15.778 -0.3490  0.2839 -0.7787
  604MPD2    H5 9011   4.205   2.020  15.737 -0.9709  0.1763  0.6277
  604MPD2    N1 9012   3.985   2.189  16.144 -1.0387 -0.0304  0.3163
  604MPD2    H7 9013   3.984   2.226  16.239 -0.4579 -0.3936  0.4571
  605TMC3    C1 9014   3.755   2.175  16.160 -0.1212  0.9773 -0.4258
  605TMC3    C2 9015   3.795   2.157  16.296 -0.4034  0.0471 -0.9225
  605TMC3    C3 9016   3.749   2.243  16.387 -0.6592 -0.2752 -0.1655
  605TMC3    C4 9017   3.657   2.259  16.128 -0.1394 -0.3432  0.5160
  605TMC3    C5 9018   3.599   2.336  16.228  0.2757  0.8932 -0.0758
  605TMC3    C6 9019   3.639   2.323  16.361  0.1081 -0.2561 -0.3737
  605TMC3     C 9020   3.869   2.169  16.077  0.1685 -0.4406 -0.1812
  605TMC3     O 9021   3.859   2.123  15.965  0.2761  0.0689 -0.4336
  605TMC3     H 9022   3.871   2.087  16.329 -1.1914  0.1599  1.1360
  605TMC3    H1 9023   3.618   2.276  16.028  3.9789  0.7078 -0.8833
  605TMC3    H2 9024   3.593   2.377  16.443  0.8479 -0.9622  0.5047
  605TMC3    C7 9025   3.471   2.403  16.218 -0.0605 -0.3675 -0.0729
  605TMC3    C8 9026   3.861   2.323  16.431  0.3893 -0.0230 -0.5482
  605TMC3    O1 9027   3.435   2.476  16.311 -0.3171 -0.0518  0.4549
  605TMC3    O2 9028   3.973   2.275  16.417  0.4712  0.0275 -0.4614
  606TMC3    C1 9029   0.985   0.277  16.556 -0.0701 -0.1881  0.0741
  606TMC3    C2 9030   1.125   0.262  16.560  0.2567  0.3560 -0.0480
  606TMC3    C3 9031   1.176   0.135  16.578  0.3737  0.9530  0.7260
  606TMC3    C4 9032   0.899   0.171  16.572  0.2051  0.2602 -0.5552
  606TMC3    C5 9033   0.953   0.051  16.584 -0.0216 -0.7229  0.4713
  606TMC3    C6 9034   1.087   0.031  16.590  0.0364 -0.3438  0.3053
  606TMC3     C 9035   0.918   0.408  16.533  0.1884 -0.4731 -0.3113
  606TMC3     O 9036   0.801   0.411  16.487  0.0970 -0.0831 -0.3264
  606TMC3     H 9037   1.196   0.343  16.551  0.5934  0.4275  3.5523
  606TMC3    H1 9038   0.793   0.187  16.559 -0.0602 -1.7437 -0.8833
  606TMC3    H2 9039   1.128   4.663  16.584  2.7672  0.6352  2.4763
  606TMC3    C7 9040   0.882   4.681  16.656 -0.2346  0.2901 -0.4558
  606TMC3    C8 9041   1.301   0.123  16.654 -0.5385  0.1876 -0.3006
  606TMC3    O1 9042   0.949   4.590  16.705 -0.1121 -0.1208 -0.5227
  606TMC3    O2 9043   1.352   0.225  16.688 -0.5681  0.4012 -0.2998
  607MPD2     C 9044   2.337   3.918  11.743  0.3010 -0.0361 -0.5086
  607MPD2    C1 9045   2.421   3.974  11.833  0.1172 -0.7708  0.4707
  607MPD2    C2 9046   2.409   3.938  11.963 -0.1183  0.3109  0.1060
  607MPD2    C3 9047   2.310   3.863  12.016  0.3031 -0.3956  0.1192
  607MPD2    C4 9048   2.230   3.805  11.923  0.2046 -0.7094  0.0729
  607MPD2    C5 9049   2.241   3.833  11.789  0.2056 -0.1596  0.5008
  607MPD2     H 9050   2.484   3.990  12.022 -0.1229  1.5652 -0.9784
  607MPD2    H1 9051   2.158   3.730  11.952 -0.5266 -1.2744 -3.1637
  607MPD2    H2 9052   2.325   3.936  11.637  0.7355 -0.3480 -0.6102
  607MPD2    H3 9053   2.173   3.787  11.717  1.0510 -0.1569 -0.2900
  607MPD2     N 9054   2.326   3.837  12.152  0.0451  0.0002 -0.6887
  607MPD2    H5 9055   2.388   3.893  12.209 -0.6538 -0.5225  0.5911
  607MPD2    N1 9056   2.524   4.055  11.796 -0.6305 -0.1094 -0.0822
  607MPD2    H7 9057   2.583   4.101  11.865 -2.5106  2.9070 -0.4901
  608TMC3    C1 9058   2.704   4.147  11.680 -0.3525 -0.2186  0.3532
  608TMC3    C2 9059   2.772   4.146  11.799 -0.7574 -0.1941  0.1694
  608TMC3    C3 9060   2.869   4.239  11.817 -0.7600 -0.1413 -0.2572
  608TMC3    C4 9061   2.726   4.239  11.586 -0.3024  0.3469 -0.3402
  608TMC3    C5 9062   2.819   4.340  11.608  0.5316 -0.2674 -0.5944
  608TMC3    C6 9063   2.890   4.340  11.725 -0.6665 -0.5280 -0.0030
  608TMC3     C 9064   2.572   4.076  11.671 -0.1010  0.1664 -0.6106
  608TMC3     O 9065   2.532   4.040  11.562  0.1099 -0.0732  0.6864
  608TMC3     H 9066   2.778   4.054  11.857 -4.0457 -1.2200 -1.1792
  608TMC3    H1 9067   2.661   4.240  11.500 -2.6793 -0.0638  1.4609
  608TMC3    H2 9068   2.969   4.414  11.739 -0.8889  0.5099 -3.9460
  608TMC3    C7 9069   2.876   4.400  11.492  0.1641 -0.4227 -0.6691
  608TMC3    C8 9070   2.911   4.267  11.950 -0.0650 -0.3660 -0.5887
  608TMC3    O1 9071   2.863   4.335  11.389 -0.4906 -0.5733 -0.4160
  608TMC3    O2 9072   3.013   4.330  11.962  0.3234  1.0017 -0.1494
  609TMC3    C1 9073   1.496   3.636   9.197 -0.4226  0.1466 -0.2512
  609TMC3    C2 9074   1.419   3.527   9.241  0.3067  0.9403 -0.2332
  609TMC3    C3 9075   1.482   3.434   9.317 -0.5303  0.7293 -0.4898
  609TMC3    C4 9076   1.630   3.648   9.215  0.2005  0.1677 -0.0004
  609TMC3    C5 9077   1.691   3.548   9.292 -0.2906 -0.0649 -0.2834
  609TMC3    C6 9078   1.618   3.440   9.348  0.2643 -0.5866 -0.2208
  609TMC3     C 9079   1.426   3.762   9.203 -0.6552 -0.2603  0.1530
  609TMC3     O 9080   1.303   3.770   9.179  0.3891  0.1245 -0.9525
  609TMC3     H 9081   1.313   3.525   9.221 -0.0784 -0.1446  1.9095
  609TMC3    H1 9082   1.698   3.721   9.173 -0.1602  2.1248  2.7794
  609TMC3    H2 9083   1.660   3.351   9.393  0.4168 -0.1249  0.5457
  609TMC3    C7 9084   1.828   3.575   9.337  0.0765 -0.2751 -0.0917
  609TMC3    C8 9085   1.408   3.319   9.351 -0.1259 -0.8906 -0.0350
  609TMC3    O1 9086   1.869   3.689   9.306  0.1649  0.1734  0.4206
  609TMC3    O2 9087   1.289   3.335   9.348 -0.0409  0.2788 -0.4029
  610TMC3    C1 9088   3.238   3.974  12.554  0.2224 -0.2085  0.0086
  610TMC3    C2 9089   3.255   3.977  12.419  0.1085  0.1691 -0.2538
  610TMC3    C3 9090   3.280   3.848  12.369 -0.2632  0.0390  0.2089
  610TMC3    C4 9091   3.220   3.864  12.628 -0.4525 -0.4508 -1.0010
  610TMC3    C5 9092   3.227   3.742  12.570  1.0618 -0.3718 -0.2712
  610TMC3    C6 9093   3.261   3.728  12.438 -0.3260 -0.1670  0.1254
  610TMC3     C 9094   3.218   4.105  12.619  0.0539  0.3071 -0.4367
  610TMC3     O 9095   3.198   4.203  12.556  0.6250  0.4492 -0.0308
  610TMC3     H 9096   3.277   4.067  12.363  2.4797 -1.6027 -2.1317
  610TMC3    H1 9097   3.201   3.872  12.734  2.4527 -1.3973 -0.4128
  610TMC3    H2 9098   3.265   3.635  12.383 -0.8216  0.0529 -0.2764
  610TMC3    C7 9099   3.192   3.627  12.637 -0.0823  0.3883  0.8741
  610TMC3    C8 9100   3.365   3.838  12.251 -0.6211 -0.1208 -0.0616
  610TMC3    O1 9101   3.207   3.622  12.757 -0.1025  0.0770  0.0893
  610TMC3    O2 9102   3.398   3.723  12.219  0.5432  0.3969  0.2539
  611MPD2     C 9103   2.517   4.047   9.813 -0.1352  0.2743  0.3251
  611MPD2    C1 9104   2.449   4.162   9.844 -0.5942 -0.9134  0.3478
  611MPD2    C2 9105   2.518   4.267   9.898 -0.2650  0.0842  0.1033
  611MPD2    C3 9106   2.659   4.267   9.903  0.6946 -0.8727  0.6687
  611MPD2    C4 9107   2.720   4.152   9.864  0.0496  0.2956 -0.0754
  611MPD2    C5 9108   2.651   4.037   9.832 -0.7148  0.1590 -0.0075
  611MPD2     H 9109   2.464   4.356   9.926  0.1055  0.1076  0.7365
  611MPD2    H1 9110   2.827   4.158   9.847  0.2653 -0.1019  1.1431
  611MPD2    H2 9111   2.472   3.952   9.789  2.1363 -0.3448 -1.5370
  611MPD2    H3 9112   2.706   3.948   9.806 -0.4331  0.3644 -0.1150
  611MPD2     N 9113   2.736   4.382   9.929  0.0664 -0.4268  0.1010
  611MPD2    H5 9114   2.833   4.359   9.951  0.3363  1.0878  0.4970
  611MPD2    N1 9115   2.304   4.167   9.825 -0.1754 -0.2123 -0.1854
  611MPD2    H7 9116   2.253   4.246   9.864  0.7444 -0.8781  2.3963
  612TMC3    C1 9117   2.800   4.605   9.974  0.0126  0.1151 -0.0262
  612TMC3    C2 9118   2.897   4.556  10.057  0.7162  1.0603 -0.1958
  612TMC3    C3 9119   2.985   4.650  10.111 -0.1193  0.7507  0.5903
  612TMC3    C4 9120   2.779   0.003   9.951 -0.0555 -0.0767 -0.0094
  612TMC3    C5 9121   2.860   0.097  10.005 -0.1100 -0.0124  0.4653
  612TMC3    C6 9122   2.967   0.049  10.076  0.8561  0.3723 -0.2687
  612TMC3     C 9123   2.698   4.514   9.929 -0.0520  0.8652  0.0738
  612TMC3     O 9124   2.591   4.565   9.892 -0.3564  0.5962  0.2430
  612TMC3     H 9125   2.913   4.452  10.083  1.6494  0.9864 -1.0729
  612TMC3    H1 9126   2.714   0.033   9.870  1.6896 -0.5796 -1.6112
  612TMC3    H2 9127   3.050   0.119  10.082  1.2227 -0.0759 -0.1039
  612TMC3    C7 9128   2.823   0.236   9.980  0.5075 -0.0851 -0.2554
  612TMC3    C8 9129   3.094   4.608  10.194 -0.0496 -0.1640 -0.5356
  612TMC3    O1 9130   2.737   0.264   9.902 -0.0264 -0.2987 -0.3392
  612TMC3    O2 9131   3.188   4.688  10.197 -0.0823 -0.0088  0.4193
  613MPD2     C 9132   1.975   0.323  16.444 -0.3624 -0.2707 -0.3611
  613MPD2    C1 9133   1.909   0.438  16.415  0.2221  0.2419  0.4665
  613MPD2    C2 9134   1.822   0.435  16.305 -0.4586 -0.2068  0.4698
  613MPD2    C3 9135   1.808   0.317  16.236 -0.3147  0.1705 -0.0838
  613MPD2    C4 9136   1.864   0.198  16.275 -0.4509 -0.8342  0.7317
  613MPD2    C5 9137   1.952   0.203  16.380  0.6123  0.1486 -0.0160
  613MPD2     H 9138   1.769   0.523  16.271  2.1890  0.3585 -2.2276
  613MPD2    H1 9139   1.846   0.105  16.223 -1.9576 -1.6779  2.7459
  613MPD2    H2 9140   2.050   0.328  16.522 -0.6336  0.7786 -0.1701
  613MPD2    H3 9141   2.003   0.113  16.413  0.8525  1.1430  2.2639
  613MPD2     N 9142   1.749   0.327  16.109 -0.0926 -0.1448 -0.1733
  613MPD2    H5 9143   1.771   0.249  16.048 -1.7713 -0.2122 -0.6888
  613MPD2    N1 9144   1.921   0.559  16.496 -0.2299  0.5486  0.1595
  613MPD2    H7 9145   1.969   0.544  16.584 -1.7786  1.0050  1.0873
  614TMC3    C1 9146   1.914   0.735  16.325 -1.1371  0.3165  0.3175
  614TMC3    C2 9147   2.009   0.664  16.246  0.1512  0.6190  0.2647
  614TMC3    C3 9148   2.040   0.717  16.122 -0.1092  0.1093  0.0635
  614TMC3    C4 9149   1.858   0.854  16.283 -0.2975  0.0279  0.3412
  614TMC3    C5 9150   1.897   0.901  16.161 -0.2344  0.2467  0.0835
  614TMC3    C6 9151   1.981   0.831  16.073  0.0116 -0.1315  0.5460
  614TMC3     C 9152   1.880   0.692  16.462  0.3582  0.3922 -0.0805
  614TMC3     O 9153   1.864   0.776  16.546  0.1835 -0.4163  0.3693
  614TMC3     H 9154   2.062   0.575  16.278 -2.4523 -0.7724  0.6570
  614TMC3    H1 9155   1.792   0.911  16.348 -1.6590 -0.9937 -0.1521
  614TMC3    H2 9156   2.010   0.859  15.972 -1.9339  2.8019  0.8350
  614TMC3    C7 9157   1.803   0.997  16.105 -0.7993  0.3051  0.0990
  614TMC3    C8 9158   2.107   0.630  16.029 -0.1619  0.7018  0.6704
  614TMC3    O1 9159   1.715   1.029  16.182 -0.6222  0.8133 -0.3332
  614TMC3    O2 9160   2.083   0.504  16.037  0.1979 -0.4688 -0.4712
  615MPD2     C 9161   0.890   2.367  16.008  0.3397  0.0627 -0.3416
  615MPD2    C1 9162   0.964   2.426  15.903  0.3207 -0.3559  0.1131
  615MPD2    C2 9163   0.897   2.457  15.786  0.9289 -0.8882 -0.3628
  615MPD2    C3 9164   0.761   2.422  15.772 -0.0804  0.3941 -0.6998
  615MPD2    C4 9165   0.694   2.369  15.876 -0.7730 -0.0655  0.4738
  615MPD2    C5 9166   0.758   2.341  15.991  0.0940 -0.4398 -0.9597
  615MPD2     H 9167   0.948   2.522  15.716 -0.5519  0.8072  0.1468
  615MPD2    H1 9168   0.586   2.361  15.867 -0.4910 -1.3739 -1.6729
  615MPD2    H2 9169   0.932   2.324  16.098 -0.5846  1.4284  0.7553
  615MPD2    H3 9170   0.701   2.298  16.072 -0.5271 -0.4108 -1.3819
  615MPD2     N 9171   0.690   2.458  15.655 -0.3920  0.4333 -0.2021
  615MPD2    H5 9172   0.590   2.455  15.670 -0.2775  2.9510  1.0101
  615MPD2    N1 9173   1.101   2.458  15.915 -0.0272 -0.2492  0.2550
  615MPD2    H7 9174   1.144   2.492  15.830 -0.9626 -2.7813 -1.2121
  616TMC3    C1 9175   1.317   2.495  16.003  0.7136  0.8932  0.2418
  616TMC3    C2 9176   1.409   2.450  16.094 -0.1968 -0.6657 -0.1406
  616TMC3    C3 9177   1.521   2.529  16.117  0.7315  0.0790 -0.3791
  616TMC3    C4 9178   1.324   2.616  15.942 -0.5768  0.1442 -0.4029
  616TMC3    C5 9179   1.429   2.692  15.976 -0.0230  0.1970 -0.2355
  616TMC3    C6 9180   1.531   2.652  16.061  0.2541  0.1314  0.0246
  616TMC3     C 9181   1.183   2.446  16.027 -0.5086  0.2316 -0.3920
  616TMC3     O 9182   1.155   2.378  16.126 -0.1644  0.3864 -0.1983
  616TMC3     H 9183   1.404   2.358  16.151 -1.9563 -0.8335 -0.5614
  616TMC3    H1 9184   1.236   2.654  15.891  0.2685  0.5178 -1.5681
  616TMC3    H2 9185   1.626   2.703  16.067  0.3904 -0.0802 -0.3182
  616TMC3    C7 9186   1.413   2.838  15.946 -0.4412  0.3922 -0.1894
  616TMC3    C8 9187   1.639   2.466  16.177 -0.0044 -0.3410 -0.1638
  616TMC3    O1 9188   1.324   2.874  15.869 -0.0494 -0.0234  0.5698
  616TMC3    O2 9189   1.654   2.349  16.151 -0.6728 -0.0916 -0.0775
  617MPD2     C 9190   3.411   0.501  13.411 -0.5427 -0.2234  0.4878
  617MPD2    C1 9191   3.500   0.494  13.512  0.3181 -0.3667  0.6723
  617MPD2    C2 9192   3.456   0.510  13.645 -0.1031 -0.5258 -0.4066
  617MPD2    C3 9193   3.317   0.534  13.665  0.8139 -0.2603 -0.0158
  617MPD2    C4 9194   3.234   0.539  13.559  0.4270 -0.0401 -0.6360
  617MPD2    C5 9195   3.277   0.524  13.435  0.1235  0.0018 -0.3410
  617MPD2     H 9196   3.544   0.518  13.708 -0.4150 -1.7319  0.1808
  617MPD2    H1 9197   3.135   0.578  13.577 -0.1817 -0.3796 -3.1837
  617MPD2    H2 9198   3.436   0.508  13.305  1.8153  0.0545  1.0644
  617MPD2    H3 9199   3.206   0.546  13.355  1.6802 -0.5681 -1.8795
  617MPD2     N 9200   3.260   0.545  13.799  0.4944  0.0423 -0.7515
  617MPD2    H5 9201   3.159   0.560  13.805  0.0799 -2.2402 -2.0154
  617MPD2    N1 9202   3.640   0.479  13.482  0.1787  0.3736  0.1307
  617MPD2    H7 9203   3.675   0.503  13.390 -1.7613  0.2720 -0.6247
  618TMC3    C1 9204   3.873   0.489  13.543 -0.2537 -0.5112  0.1558
  618TMC3    C2 9205   3.969   0.421  13.618  0.3470  0.2072  1.0377
  618TMC3    C3 9206   4.104   0.437  13.592  1.0127  0.2558 -0.2635
  618TMC3    C4 9207   3.906   0.585  13.454  0.3724 -0.8570  0.6896
  618TMC3    C5 9208   4.042   0.600  13.430 -0.1598 -0.1001 -0.7755
  618TMC3    C6 9209   4.139   0.527  13.488  0.3979  0.1534  0.1392
  618TMC3     C 9210   3.736   0.459  13.578  0.0748 -0.8698 -1.0394
  618TMC3     O 9211   3.715   0.392  13.677  0.1798  0.1111 -0.2270
  618TMC3     H 9212   3.935   0.362  13.703 -2.2346 -0.5158 -0.5028
  618TMC3    H1 9213   3.832   0.637  13.394 -0.7390 -2.2545  0.8543
  618TMC3    H2 9214   4.241   0.534  13.453 -0.0910  1.6880 -0.9526
  618TMC3    C7 9215   4.086   0.617  13.292  0.6096 -0.7685 -0.3114
  618TMC3    C8 9216   4.175   0.312  13.600  0.2592 -0.7808  0.0732
  618TMC3    O1 9217   4.054   0.531  13.208  0.1133  0.2385  0.5492
  618TMC3    O2 9218   4.112   0.214  13.628 -0.2091 -0.4512  0.1211
  619MPD2     C 9219   0.735   1.388  13.686 -0.4033 -0.2746 -0.3955
  619MPD2    C1 9220   0.680   1.508  13.642 -0.7490 -0.5736  0.1167
  619MPD2    C2 9221   0.549   1.542  13.679  0.1506  0.5101  0.1553
  619MPD2    C3 9222   0.472   1.457  13.761  0.0276  0.3906  0.3574
  619MPD2    C4 9223   0.531   1.342  13.808  0.0679  0.9581  0.1313
  619MPD2    C5 9224   0.659   1.310  13.771  0.2412 -0.1305  0.4385
  619MPD2     H 9225   0.514   1.630  13.627  2.1832  1.6285  0.7104
  619MPD2    H1 9226   0.473   1.273  13.868 -1.9356  0.7822 -2.0152
  619MPD2    H2 9227   0.835   1.357  13.661 -0.2512  0.5272 -0.7801
  619MPD2    H3 9228   0.694   1.213  13.802 -0.1930 -0.7872 -1.0833
  619MPD2     N 9229   0.342   1.480  13.796 -0.6979  0.2468  0.1351
  619MPD2    H5 9230   0.301   1.403  13.847  1.6104 -0.9984  0.1173
  619MPD2    N1 9231   0.751   1.598  13.569 -0.0779 -0.0357 -0.7460
  619MPD2    H7 9232   0.696   1.678  13.538 -0.5078  0.1598  0.5216
  620TMC3    C1 9233   0.903   1.695  13.426  0.5464  0.1397 -0.0390
  620TMC3    C2 9234   0.813   1.739  13.329 -0.6374  0.0836  0.9512
  620TMC3    C3 9235   0.831   1.857  13.278 -0.2784 -0.4682  0.0014
  620TMC3    C4 9236   0.996   1.781  13.480 -0.4242  0.0895  0.2672
  620TMC3    C5 9237   1.009   1.904  13.427 -0.7581  0.6148  0.4523
  620TMC3    C6 9238   0.928   1.941  13.322 -0.4270 -0.2552  0.0068
  620TMC3     C 9239   0.877   1.581  13.516 -0.5021  0.3553 -0.2882
  620TMC3     O 9240   0.978   1.514  13.535 -0.4792 -0.5576 -0.1786
  620TMC3     H 9241   0.729   1.676  13.302 -0.5630  0.2992  0.2213
  620TMC3    H1 9242   1.057   1.738  13.560 -0.1559 -0.3041 -0.1466
  620TMC3    H2 9243   0.941   2.038  13.276 -1.3716  0.1086  0.5113
  620TMC3    C7 9244   1.026   2.009  13.521 -0.0842 -0.1758 -0.2106
  620TMC3    C8 9245   0.704   1.930  13.283  0.7875 -0.4062  0.9540
  620TMC3    O1 9246   1.131   2.020  13.582 -0.3068 -0.0979  0.4633
  620TMC3    O2 9247   0.712   2.036  13.343 -0.3909  0.8489  0.1487
  621MPD2     C 9248   0.786   3.949   8.917 -0.0578 -0.4273  0.2154
  621MPD2    C1 9249   0.859   3.834   8.937 -0.2401 -0.2089  0.8553
  621MPD2    C2 9250   0.941   3.820   9.048 -1.0728  0.0174  0.4303
  621MPD2    C3 9251   0.946   3.921   9.147 -0.1797  0.2754  0.0768
  621MPD2    C4 9252   0.881   4.040   9.124 -0.0333  0.0953  0.1771
  621MPD2    C5 9253   0.793   4.044   9.016  0.4217  0.3726  0.3860
  621MPD2     H 9254   0.990   3.725   9.066 -0.4983  0.2862  0.2876
  621MPD2    H1 9255   0.887   4.121   9.197 -0.4782  0.9887 -0.7769
  621MPD2    H2 9256   0.721   3.970   8.833  0.8286  0.4689 -0.2524
  621MPD2    H3 9257   0.740   4.137   8.996  1.1278  0.5393 -0.6939
  621MPD2     N 9258   1.021   3.895   9.263  1.0535  0.7036  0.2932
  621MPD2    H5 9259   1.084   3.815   9.269  0.0875  0.0331  1.5499
  621MPD2    N1 9260   0.829   3.717   8.864  0.9897 -0.3546 -0.1317
  621MPD2    H7 9261   0.884   3.637   8.893 -0.2490 -0.4647  1.9041
  622TMC3    C1 9262   0.710   3.562   8.714 -0.0978  0.1935  0.8302
  622TMC3    C2 9263   0.727   3.453   8.797  0.7586 -0.4729 -0.1997
  622TMC3    C3 9264   0.649   3.343   8.777 -0.7514  0.3455 -0.0447
  622TMC3    C4 9265   0.631   3.561   8.600  0.7916  0.4407  0.3895
  622TMC3    C5 9266   0.560   3.444   8.577 -0.0125 -0.0836 -0.2014
  622TMC3    C6 9267   0.570   3.334   8.663  0.5442  0.0663  0.0506
  622TMC3     C 9268   0.753   3.699   8.749 -0.1602 -0.4895  0.4879
  622TMC3     O 9269   0.719   3.790   8.672  0.2724  0.3924  0.6934
  622TMC3     H 9270   0.775   3.451   8.894  0.7300 -0.5035 -0.1861
  622TMC3    H1 9271   0.623   3.641   8.528  1.5324 -0.4945 -0.7277
  622TMC3    H2 9272   0.509   3.247   8.642  0.2859  0.5045 -1.0479
  622TMC3    C7 9273   0.454   3.464   8.486  0.9686 -0.0476  0.0572
  622TMC3    C8 9274   0.656   3.231   8.872  0.2971  0.0630 -0.0252
  622TMC3    O1 9275   0.488   3.507   8.376 -0.1960  0.3363 -0.3278
  622TMC3    O2 9276   0.612   3.124   8.839 -0.7480  0.0539 -0.0371
  623MPD2     C 9277   4.105   2.399  15.684 -0.2470  0.1934  0.3860
  623MPD2    C1 9278   4.062   2.501  15.775  0.2768  0.3198  0.1222
  623MPD2    C2 9279   4.165   2.560  15.848 -0.0226 -0.9742  0.1597
  623MPD2    C3 9280   4.298   2.523  15.834  0.2304 -0.1930 -0.5560
  623MPD2    C4 9281   4.334   2.425  15.745  0.0678 -0.2951  0.1053
  623MPD2    C5 9282   4.236   2.364  15.668 -0.1259  0.6993  0.2321
  623MPD2     H 9283   4.150   2.633  15.927  0.8608 -2.3164  1.5517
  623MPD2    H1 9284   4.437   2.390  15.740  0.2084  0.2659 -0.9010
  623MPD2    H2 9285   4.024   2.352  15.630 -1.8078  1.3400  1.7147
  623MPD2    H3 9286   4.267   2.302  15.585 -0.8377  0.7110 -0.0377
  623MPD2     N 9287   4.392   2.571  15.926  1.1205  0.4674  0.1219
  623MPD2    H5 9288   4.358   2.629  16.002  0.6084  0.2617  0.0463
  623MPD2    N1 9289   3.921   2.527  15.801  0.0485 -0.2833 -0.2392
  623MPD2    H7 9290   3.858   2.451  15.780 -0.0687 -0.0443 -0.7365
  624TMC3    C1 9291   4.688   2.478  16.258 -1.0908 -0.8689 -0.8583
  624TMC3    C2 9292   4.592   2.495  16.350 -0.0387  0.0800 -0.4601
  624TMC3    C3 9293   4.476   2.542  16.313  0.5621  0.2924 -0.1605
  624TMC3    C4 9294   4.674   2.493  16.124 -0.4332 -0.8784  0.8151
  624TMC3    C5 9295   4.545   2.539  16.090 -0.4980 -1.3101  0.2460
  624TMC3    C6 9296   4.444   2.557  16.185 -0.3388 -0.4603  0.4583
  624TMC3     C 9297   0.072   2.407  16.299 -0.2277 -0.0483 -0.1941
  624TMC3     O 9298   0.056   2.318  16.380  0.2505  0.6508  0.9268
  624TMC3     H 9299   4.599   2.477  16.457  2.7874  0.2509 -0.6109
  624TMC3    H1 9300   0.019   2.469  16.052 -0.7816  3.5296 -1.0102
  624TMC3    H2 9301   4.340   2.564  16.154 -0.3140  1.4023  0.7910
  624TMC3    C7 9302   4.515   2.517  15.951 -0.4932  0.5131  0.3090
  624TMC3    C8 9303   4.360   2.529  16.393 -0.1395 -0.4348  0.0782
  624TMC3    O1 9304   4.598   2.460  15.882 -0.1317  0.0553 -0.0775
  624TMC3    O2 9305   4.339   2.422  16.448  0.3395 -0.4312 -0.4270
  625MPD2     C 9306   0.251   3.406   0.025  0.3970 -0.1977 -0.7506
  625MPD2    C1 9307   0.333   3.515   0.062  0.1562  0.0130  0.3816
  625MPD2    C2 9308   0.457   3.482   0.109  0.2662 -0.0495  0.1820
  625MPD2    C3 9309   0.503   3.347   0.125  0.5359 -0.5282  0.3883
  625MPD2    C4 9310   0.425   3.245   0.075  0.1616 -0.6194  0.4140
  625MPD2    C5 9311   0.299   3.276   0.022  0.2396  0.5045  0.3976
  625MPD2     H 9312   0.521   3.562   0.144  1.6372 -1.9943  2.0810
  625MPD2    H1 9313   0.455   3.141   0.066  0.3430 -0.5118 -0.2395
  625MPD2    H2 9314   0.151   3.431  17.720  0.2323 -0.9447 -0.8205
  625MPD2    H3 9315   0.232   3.199  17.715  0.4200  0.8603 -0.7257
  625MPD2     N 9316   0.632   3.315   0.182  0.5351 -0.9475  0.6078
  625MPD2    H5 9317   0.696   3.393   0.192 -1.3277  0.4677  1.5669
  625MPD2    N1 9318   0.301   3.654   0.050  0.4471 -0.9390  0.0265
  625MPD2    H7 9319   0.367   3.724   0.080  0.3276 -0.5438 -0.6406
  626TMC3    C1 9320   0.178   3.847   0.014 -0.5126  0.3333  0.1391
  626TMC3    C2 9321   0.060   3.900  17.693 -0.5694  0.4756  0.5328
  626TMC3    C3 9322   0.032   4.034  17.724  0.3084  0.5779  0.8178
  626TMC3    C4 9323   0.261   3.916   0.107 -0.1416  0.1303  0.3613
  626TMC3    C5 9324   0.219   4.038   0.142  0.6679  0.7566 -0.4220
  626TMC3    C6 9325   0.117   4.109   0.078  0.6479  0.1228  0.2943
  626TMC3     C 9326   0.182   3.701   0.008  0.2191 -0.6585 -0.4410
  626TMC3     O 9327   0.079   3.641  17.700  0.0309 -0.3587 -0.5557
  626TMC3     H 9328   0.000   3.846  17.620  0.3204 -1.7583  1.4484
  626TMC3    H1 9329   0.343   3.874   0.166 -0.7398 -0.1752  0.9808
  626TMC3    H2 9330   0.111   4.215   0.099 -2.0188  0.3992 -1.8727
  626TMC3    C7 9331   0.283   4.096   0.257 -0.4178  0.1418 -0.2806
  626TMC3    C8 9332   4.676   4.104  17.633 -0.0035 -0.5166  0.4560
  626TMC3    O1 9333   0.399   4.067   0.287  0.4887 -0.1716 -0.2720
  626TMC3    O2 9334   4.636   4.041  17.536  0.1332 -0.7271  0.0723
  627MPD2     C 9335   3.140   4.426  14.790  0.1427 -0.5877 -0.5770
  627MPD2    C1 9336   3.257   4.348  14.782  0.0207 -0.0272 -0.1454
  627MPD2    C2 9337   3.243   4.209  14.786 -0.0785  1.1425 -0.1085
  627MPD2    C3 9338   3.117   4.151  14.812 -0.2249  0.1536  0.1406
  627MPD2    C4 9339   3.011   4.235  14.833 -0.4206  0.6555 -0.2112
  627MPD2    C5 9340   3.023   4.370  14.814  0.1761 -0.6338  0.4232
  627MPD2     H 9341   3.321   4.138  14.762 -1.1631  0.1568 -0.7396
  627MPD2    H1 9342   2.912   4.200  14.860 -1.1126  2.4685 -0.4415
  627MPD2    H2 9343   3.146   4.534  14.785 -2.1671 -0.3766  1.4495
  627MPD2    H3 9344   2.932   4.429  14.816  0.4713 -0.0858 -2.2433
  627MPD2     N 9345   3.106   4.013  14.843  0.2578  0.4288 -0.1414
  627MPD2    H5 9346   3.180   3.948  14.816  0.4560  0.4839  0.2846
  627MPD2    N1 9347   3.391   4.399  14.756 -0.0643 -0.2167  0.5025
  627MPD2    H7 9348   3.472   4.340  14.749  1.2834  1.3652  2.7963
  628TMC3    C1 9349   3.550   4.566  14.727  0.8128 -0.1950  0.0787
  628TMC3    C2 9350   3.645   4.500  14.804 -0.2522  0.1830  0.6566
  628TMC3    C3 9351   3.771   4.534  14.792  0.4986  1.0467  1.1079
  628TMC3    C4 9352   3.581   4.680  14.657  0.6644  0.9904 -0.1904
  628TMC3    C5 9353   3.720   4.707  14.642  0.5979 -0.4417  0.1177
  628TMC3    C6 9354   3.808   4.644  14.720  0.0474  0.6719 -0.1372
  628TMC3     C 9355   3.408   4.535  14.738  0.4468  0.2115 -0.3876
  628TMC3     O 9356   3.331   4.626  14.703 -0.5210  0.4178  0.4740
  628TMC3     H 9357   3.619   4.421  14.873 -0.9118  2.2160  2.7515
  628TMC3    H1 9358   3.506   4.715  14.588  0.1783 -2.1121 -1.2176
  628TMC3    H2 9359   3.915   4.660  14.705  0.6127 -1.1935  1.8674
  628TMC3    C7 9360   3.764   0.086  14.565  0.4425  0.6919  1.1452
  628TMC3    C8 9361   3.869   4.514  14.898  0.7363  0.2382 -0.4077
  628TMC3    O1 9362   3.880   0.076  14.535  0.2759  0.4942  0.2615
  628TMC3    O2 9363   3.889   4.608  14.969  0.2706  0.1002 -0.2321
  629MPD2     C 9364   2.066   2.462  16.470  0.3362  0.3595 -1.3819
  629MPD2    C1 9365   2.023   2.592  16.454  0.7034 -0.1949 -1.0309
  629MPD2    C2 9366   1.899   2.624  16.395 -0.5583  0.3652  0.3227
  629MPD2    C3 9367   1.824   2.518  16.337  0.4454 -0.3050  0.3245
  629MPD2    C4 9368   1.857   2.385  16.355 -0.0695  0.5323 -0.5972
  629MPD2    C5 9369   1.973   2.363  16.430  0.0530 -0.1598  0.8978
  629MPD2     H 9370   1.872   2.729  16.391 -0.8509  0.3258  1.3036
  629MPD2    H1 9371   1.798   2.301  16.321 -0.2773  1.1805 -1.8650
  629MPD2    H2 9372   2.156   2.431  16.522 -0.8072 -2.4189 -1.0589
  629MPD2    H3 9373   2.015   2.264  16.447  0.5881 -0.4276 -1.9039
  629MPD2     N 9374   1.716   2.552  16.257  0.4190  0.1240 -0.6173
  629MPD2    H5 9375   1.685   2.647  16.274  4.0626  1.3089 -0.6652
  629MPD2    N1 9376   2.110   2.690  16.506 -0.2771  0.5600 -0.0505
  629MPD2    H7 9377   2.181   2.660  16.572  0.1434  0.9634 -0.3248
  630TMC3    C1 9378   2.207   2.902  16.548  0.7094 -0.3187 -0.5018
  630TMC3    C2 9379   2.213   3.040  16.510  0.2994 -0.2510 -0.1379
  630TMC3    C3 9380   2.300   3.120  16.579 -0.0390  0.8968 -0.2422
  630TMC3    C4 9381   2.268   2.860  16.660 -0.2946 -0.1491 -0.1082
  630TMC3    C5 9382   2.340   2.953  16.733  0.1981 -0.2850 -0.5418
  630TMC3    C6 9383   2.361   3.084  16.698  0.8249 -0.0031  0.2370
  630TMC3     C 9384   2.098   2.827  16.476  0.0863  0.5606 -0.3454
  630TMC3     O 9385   2.034   2.885  16.391  0.3961 -0.0967  0.1533
  630TMC3     H 9386   2.177   3.070  16.412 -1.2138  2.7494  1.3426
  630TMC3    H1 9387   2.253   2.758  16.693  0.6258 -0.4728 -0.6948
  630TMC3    H2 9388   2.419   3.154  16.756  1.4213  1.4290 -2.0644
  630TMC3    C7 9389   2.409   2.908  16.862  0.1070  0.6938  0.3780
  630TMC3    C8 9390   2.362   3.244  16.521 -0.5192 -0.3268  0.7730
  630TMC3    O1 9391   2.352   2.819  16.928  0.0015  0.2774  0.1274
  630TMC3    O2 9392   2.478   3.272  16.556  0.0377 -0.0101 -0.6209
  631MPD2     C 9393   4.516   2.528  15.398  0.0341 -0.6687  0.4187
  631MPD2    C1 9394   4.583   2.623  15.316  0.4186  0.0127 -0.2025
  631MPD2    C2 9395   4.714   2.607  15.273  0.1410  0.6098 -0.5226
  631MPD2    C3 9396   0.061   2.507  15.335 -0.0031  0.3133 -0.3278
  631MPD2    C4 9397   4.728   2.416  15.417 -0.3851 -0.5196  0.1389
  631MPD2    C5 9398   4.595   2.423  15.445 -0.2388 -0.5097  0.3541
  631MPD2     H 9399   0.035   2.674  15.207  1.7275 -0.0000  0.1257
  631MPD2    H1 9400   0.040   2.322  15.449 -1.2549 -0.5336  1.3078
  631MPD2    H2 9401   4.414   2.548  15.428 -0.0706  1.8518 -1.6491
  631MPD2    H3 9402   4.572   2.347  15.519 -0.8476  0.4584  1.1555
  631MPD2     N 9403   0.197   2.497  15.294  0.0645  0.1598  0.3900
  631MPD2    H5 9404   0.223   2.552  15.214 -0.4211  3.7554  2.7131
  631MPD2    N1 9405   4.500   2.733  15.270  0.1801  0.4166  0.3821
  631MPD2    H7 9406   4.410   2.754  15.312 -0.8902  1.8408 -2.5519
  632TMC3    C1 9407   4.459   2.948  15.189 -0.3976  0.1930 -0.0428
  632TMC3    C2 9408   4.451   2.992  15.319  0.1436 -0.7557 -0.1353
  632TMC3    C3 9409   4.507   3.110  15.351 -0.5212  0.1761 -0.3222
  632TMC3    C4 9410   4.505   3.031  15.089  0.5222 -0.4023  0.2018
  632TMC3    C5 9411   4.557   3.149  15.127  0.2918 -0.2957 -0.4573
  632TMC3    C6 9412   4.560   3.192  15.260 -0.1937 -0.0026 -0.1668
  632TMC3     C 9413   4.533   2.824  15.175 -0.6864 -0.1542 -0.5793
  632TMC3     O 9414   4.628   2.822  15.097  0.4951 -0.1326 -0.9284
  632TMC3     H 9415   4.413   2.920  15.391  2.5121 -1.9611 -0.0858
  632TMC3    H1 9416   4.503   2.994  14.988 -0.0790 -2.1208  0.8415
  632TMC3    H2 9417   4.607   3.283  15.297 -2.8279  1.8365 -1.3433
  632TMC3    C7 9418   4.640   3.209  15.032  0.6585 -0.0566 -0.0793
  632TMC3    C8 9419   4.506   3.145  15.486 -0.1131  0.5582  0.7222
  632TMC3    O1 9420   4.610   3.210  14.911  0.1103  0.1624 -0.0739
  632TMC3    O2 9421   4.607   3.199  15.529 -0.1445  0.0485 -0.5200
  633MPD2     C 9422   4.394   0.737  17.139  0.3200 -0.3206 -0.6865
  633MPD2    C1 9423   4.497   0.708  17.058 -0.3364 -0.2850 -0.2305
  633MPD2    C2 9424   4.544   0.581  17.067 -0.8218 -0.6277  0.1933
  633MPD2    C3 9425   4.496   0.486  17.153  0.0470  0.0508  0.2260
  633MPD2    C4 9426   4.393   0.522  17.232  0.7730 -0.5434  0.2424
  633MPD2    C5 9427   4.335   0.644  17.220  0.5637  0.1413  0.0681
  633MPD2     H 9428   4.630   0.560  17.004  0.3476  0.8448  1.2881
  633MPD2    H1 9429   4.357   0.446  17.299  2.5100 -2.9969 -1.6019
  633MPD2    H2 9430   4.356   0.838  17.137  0.2167 -0.3245  0.5433
  633MPD2    H3 9431   4.259   0.671  17.293  2.3353  1.8185  1.3030
  633MPD2     N 9432   4.562   0.359  17.170  0.0460  0.2049  0.1260
  633MPD2    H5 9433   4.515   0.292  17.230  0.7103  0.1233  0.5506
  633MPD2    N1 9434   4.540   0.796  16.952  0.4072 -0.0353  0.2557
  633MPD2    H7 9435   4.615   0.758  16.895  0.0867 -0.2408 -0.0284
  634TMC3    C1 9436   4.563   0.992  16.823 -0.6660  0.2309 -0.0958
  634TMC3    C2 9437   4.657   0.921  16.747  0.6086 -0.0884 -0.1009
  634TMC3    C3 9438   4.725   0.988  16.645 -0.8638 -0.3048  0.1590
  634TMC3    C4 9439   4.522   1.115  16.776 -0.3622  0.3603 -0.6057
  634TMC3    C5 9440   4.596   1.178  16.676  0.1686 -0.1581 -0.4196
  634TMC3    C6 9441   4.696   1.118  16.614 -0.0694  0.3153  0.0340
  634TMC3     C 9442   4.483   0.916  16.915  0.0744 -0.0914 -0.6581
  634TMC3     O 9443   4.389   0.977  16.966  0.7077 -0.1098  0.0577
  634TMC3     H 9444   4.688   0.821  16.776  1.2931 -0.3398 -1.6800
  634TMC3    H1 9445   4.445   1.172  16.827 -0.0576  0.9220 -0.7848
  634TMC3    H2 9446   0.023   1.159  16.534  0.5997  0.1587  0.4460
  634TMC3    C7 9447   4.530   1.281  16.590  0.1503 -0.6620  0.9768
  634TMC3    C8 9448   0.032   0.899  16.535 -0.2255  0.9268  0.1928
  634TMC3    O1 9449   4.577   1.286  16.480 -0.0881 -0.1904  0.4126
  634TMC3    O2 9450   0.030   0.784  16.568  0.1233  0.4718  0.0370
  635TMC3    C1 9451   4.582   1.692  17.484 -0.4385  0.0705  0.8614
  635TMC3    C2 9452   4.543   1.762  17.374  0.1151 -0.1360 -0.0122
  635TMC3    C3 9453   4.610   1.744  17.259 -0.1194  0.7103  0.0576
  635TMC3    C4 9454   4.670   1.584  17.470  0.6123  0.0722  0.4137
  635TMC3    C5 9455   4.730   1.556  17.351 -0.0765  0.0166  0.1944
  635TMC3    C6 9456   4.699   1.641  17.247 -0.5306  0.7568 -0.5182
  635TMC3     C 9457   4.517   1.714  17.612 -0.5516 -0.1744  0.0551
  635TMC3     O 9458   4.461   1.821  17.630  0.3392 -0.5386  0.9330
  635TMC3     H 9459   4.486   1.850  17.401  1.5339  1.0357 -0.7728
  635TMC3    H1 9460   4.696   1.528  17.560 -1.4805  0.1366  1.0413
  635TMC3    H2 9461   0.006   1.625  17.147 -0.2822 -0.2891 -0.2505
  635TMC3    C7 9462   0.114   1.476  17.340  0.1624 -0.4850 -0.5818
  635TMC3    C8 9463   4.566   1.832  17.142 -0.8138 -0.9631 -0.5163
  635TMC3    O1 9464   0.140   1.399  17.434  0.2041 -0.5913 -0.4091
  635TMC3    O2 9465   4.461   1.896  17.151 -0.1956  0.6104 -0.3961
  636MPD2     C 9466   1.218   1.115  15.779 -0.4743  0.2284  0.6313
  636MPD2    C1 9467   1.271   1.088  15.903 -0.0539 -0.4435 -0.3863
  636MPD2    C2 9468   1.367   0.986  15.916 -0.1104  0.1386  0.3677
  636MPD2    C3 9469   1.414   0.915  15.802  0.1903 -0.5612  0.5607
  636MPD2    C4 9470   1.361   0.949  15.682 -0.4479 -0.6506  0.2855
  636MPD2    C5 9471   1.260   1.042  15.668 -0.1254 -0.1744  0.0332
  636MPD2     H 9472   1.410   0.951  16.009 -1.6367 -1.5471  0.4272
  636MPD2    H1 9473   1.392   0.909  15.586  0.7866 -2.0701  1.2611
  636MPD2    H2 9474   1.143   1.190  15.757 -0.8498 -0.2057  0.4352
  636MPD2    H3 9475   1.214   1.056  15.571 -0.3118 -0.1273  0.1287
  636MPD2     N 9476   1.510   0.811  15.819 -0.0354  0.2454 -0.0730
  636MPD2    H5 9477   1.542   0.789  15.913 -0.6321 -0.6278 -0.0788
  636MPD2    N1 9478   1.230   1.158  16.022 -0.3090 -0.4769 -0.0405
  636MPD2    H7 9479   1.285   1.132  16.103 -1.9534 -1.4197  0.7867
  637TMC3    C1 9480   1.643   0.629  15.766  0.5222 -0.4171 -0.4592
  637TMC3    C2 9481   1.602   0.552  15.866  0.1584 -0.2887 -0.5033
  637TMC3    C3 9482   1.673   0.446  15.915 -0.2310  0.6356 -0.6853
  637TMC3    C4 9483   1.760   0.606  15.706  0.0979 -0.3755  0.1988
  637TMC3    C5 9484   1.822   0.485  15.739 -0.2480  0.3101 -0.3177
  637TMC3    C6 9485   1.790   0.411  15.851  0.3229  0.3834 -1.0282
  637TMC3     C 9486   1.580   0.753  15.717  0.5394  0.2718  0.1362
  637TMC3     O 9487   1.608   0.798  15.606 -0.9378  0.0883  0.5337
  637TMC3     H 9488   1.505   0.564  15.913  0.2765  2.0401 -0.8725
  637TMC3    H1 9489   1.768   0.640  15.603  0.6432 -1.7520 -0.2182
  637TMC3    H2 9490   1.821   0.308  15.863  4.1713  1.7966  0.9124
  637TMC3    C7 9491   1.893   0.408  15.638  0.2726 -0.2170  0.0364
  637TMC3    C8 9492   1.683   0.444  16.057 -0.2557  0.2243 -0.3211
  637TMC3    O1 9493   1.851   0.292  15.619  0.7657  0.4172 -0.2375
  637TMC3    O2 9494   1.615   0.525  16.118  0.2249 -0.7343 -0.0231
  638MPD2     C 9495   0.977   0.121  15.114 -0.1311  0.8415  0.5844
  638MPD2    C1 9496   1.087   0.057  15.071 -0.1986 -0.5321  0.2439
  638MPD2    C2 9497   1.121   4.665  15.119  0.3684 -0.3959  0.6299
  638MPD2    C3 9498   1.037   4.591  15.204  0.8481  0.0602  0.3323
  638MPD2    C4 9499   0.919   4.656  15.240  0.8465  0.0553  0.4498
  638MPD2    C5 9500   0.891   0.055  15.203  0.1521 -0.0838 -0.6109
  638MPD2     H 9501   1.210   4.622  15.075  1.2831  2.1409  0.0500
  638MPD2    H1 9502   0.839   4.601  15.289  0.3579  0.2170 -0.1737
  638MPD2    H2 9503   0.946   0.215  15.070 -0.3878  0.5742  0.1983
  638MPD2    H3 9504   0.798   0.104  15.230  0.5917  0.1640  0.4697
  638MPD2     N 9505   1.064   4.456  15.248 -0.4595  0.0058 -0.7841
  638MPD2    H5 9506   1.148   4.411  15.213  0.0813  0.4068  0.0083
  638MPD2    N1 9507   1.149   0.105  14.955  0.7334 -0.1374  0.1509
  638MPD2    H7 9508   1.096   0.165  14.893 -0.6015  0.1174  1.5227
  639TMC3    C1 9509   1.027   4.243  15.345 -0.3802  0.3685  0.6167
  639TMC3    C2 9510   0.921   4.157  15.335  0.1795  0.7757  0.0628
  639TMC3    C3 9511   0.934   4.031  15.296 -0.5629  0.2682 -0.3539
  639TMC3    C4 9512   1.144   4.210  15.294  0.8470 -0.1057 -0.6082
  639TMC3    C5 9513   1.160   4.076  15.264 -0.3378  0.1908  0.8473
  639TMC3    C6 9514   1.061   3.985  15.276 -0.0226  0.5787  0.3173
  639TMC3     C 9515   0.990   4.382  15.338  0.3603  0.0813 -0.0473
  639TMC3     O 9516   0.899   4.416  15.406  0.4740 -0.5231 -0.8082
  639TMC3     H 9517   0.820   4.196  15.332  0.2059  0.4952 -4.4985
  639TMC3    H1 9518   1.231   4.275  15.307  0.3701  0.6428 -1.1195
  639TMC3    H2 9519   1.079   3.881  15.250  1.2907  0.8252  0.2687
  639TMC3    C7 9520   1.295   4.021  15.256 -0.3496  0.2424  0.0570
  639TMC3    C8 9521   0.847   3.984  15.188 -0.2927 -0.0176 -0.6408
  639TMC3    O1 9522   1.311   3.906  15.279  0.1197 -0.0120  0.3472
  639TMC3    O2 9523   0.898   3.968  15.079 -0.0235  0.2499  0.5239
  640MPD2     C 9524   1.399   4.583  10.156  0.0620  0.0328  0.4226
  640MPD2    C1 9525   1.365   4.669  10.050 -0.6723  0.3865 -0.1094
  640MPD2    C2 9526   1.305   0.054  10.090 -0.6730 -0.3296  0.1156
  640MPD2    C3 9527   1.288   0.093  10.221  0.8426 -0.6149  0.9511
  640MPD2    C4 9528   1.332   0.010  10.317  0.1548  0.0792  0.5932
  640MPD2    C5 9529   1.388   4.624  10.283  0.2523  0.1686  0.5311
  640MPD2     H 9530   1.268   0.118  10.011 -1.9636  0.2049  1.1597
  640MPD2    H1 9531   1.310   0.021  10.423  0.6320  0.0346  0.6989
  640MPD2    H2 9532   1.427   4.481  10.135  0.6157  0.2043  0.3280
  640MPD2    H3 9533   1.419   4.560  10.364 -1.4688 -0.0288  1.0444
  640MPD2     N 9534   1.228   0.214  10.258  0.0416 -0.1592  0.5678
  640MPD2    H5 9535   1.228   0.242  10.356  2.6327  1.2134  0.1767
  640MPD2    N1 9536   1.397   4.629   9.918 -0.1021 -0.2566 -0.4171
  640MPD2    H7 9537   1.440   4.537   9.913 -0.7442 -0.4619 -2.5125
  641TMC3    C1 9538   1.425   4.643   9.681  0.5164 -0.4984 -0.1926
  641TMC3    C2 9539   1.548   4.562   9.688  0.0647  0.8193  0.0853
  641TMC3    C3 9540   1.594   4.515   9.568  0.4741  0.3644  0.0544
  641TMC3    C4 9541   1.361   4.672   9.563 -0.1134  0.0921 -0.0064
  641TMC3    C5 9542   1.418   4.616   9.454 -0.0210  0.0439  0.5055
  641TMC3    C6 9543   1.533   4.548   9.450 -0.0993  0.8182 -0.1120
  641TMC3     C 9544   1.376   4.707   9.806 -0.1802 -0.1105  0.6804
  641TMC3     O 9545   1.308   0.074   9.795 -0.3744  0.4535  0.3509
  641TMC3     H 9546   1.598   4.535   9.780 -0.3083 -0.2247 -0.0195
  641TMC3    H1 9547   1.270   4.732   9.566  1.6237  2.7261  0.6572
  641TMC3    H2 9548   1.571   4.507   9.357 -0.5778  0.0074  0.0473
  641TMC3    C7 9549   1.359   4.635   9.323 -0.3535  0.0213  0.1378
  641TMC3    C8 9550   1.721   4.454   9.559  0.6646 -0.1425  0.1136
  641TMC3    O1 9551   1.422   4.599   9.224 -0.1274  0.0466 -0.4636
  641TMC3    O2 9552   1.744   4.381   9.463  0.1804  0.2760 -0.2359
  642TMC3    C1 9553   2.639   4.654  12.484  0.3969  0.3702 -0.1237
  642TMC3    C2 9554   2.687   4.614  12.601 -0.5702  0.4107  0.6868
  642TMC3    C3 9555   2.638   4.503  12.654  0.5342  0.0899  0.4405
  642TMC3    C4 9556   2.557   4.578  12.407  0.4111  0.3423  0.3472
  642TMC3    C5 9557   2.522   4.453  12.455 -0.2116 -0.3003  0.2702
  642TMC3    C6 9558   2.561   4.409  12.582  0.0560 -0.0825 -0.2434
  642TMC3     C 9559   2.596   0.062  12.502  0.4255  0.8717  0.2279
  642TMC3     O 9560   2.676   0.143  12.546 -0.4536 -0.5280  0.0375
  642TMC3     H 9561   2.758   4.679  12.652  0.7448  0.3400 -1.0497
  642TMC3    H1 9562   2.515   4.600  12.310  1.2917 -2.2775 -0.6279
  642TMC3    H2 9563   2.527   4.317  12.628 -1.9865  1.1298  0.6716
  642TMC3    C7 9564   2.425   4.382  12.379  0.3605  0.1093  0.7363
  642TMC3    C8 9565   2.671   4.466  12.789 -0.7741 -0.4690  0.4340
  642TMC3    O1 9566   2.420   4.412  12.261  0.3453  0.1048 -0.1702
  642TMC3    O2 9567   2.653   4.347  12.817 -0.4019 -0.5149 -0.2395
  643TMC3    C1 9568   1.800   3.474   0.201  0.5689  0.6281  0.1312
  643TMC3    C2 9569   1.726   3.592   0.200 -0.3664  1.0618  0.1315
  643TMC3    C3 9570   1.770   3.705   0.131  0.3941  0.5427 -0.2398
  643TMC3    C4 9571   1.916   3.467   0.123 -0.2029  0.2563  0.1534
  643TMC3    C5 9572   1.953   3.578   0.056  0.0403 -0.0939 -0.4484
  643TMC3    C6 9573   1.891   3.706   0.061  0.3950  0.0884 -0.6215
  643TMC3     C 9574   1.803   3.396   0.329  0.7636  0.2774  0.3336
  643TMC3     O 9575   1.703   3.343   0.368  0.3522  0.0937  0.7788
  643TMC3     H 9576   1.633   3.592   0.256 -0.9058  1.6103 -0.7716
  643TMC3    H1 9577   1.970   3.373   0.114  1.2359  1.2145 -1.3292
  643TMC3    H2 9578   1.936   3.794   0.016 -0.0158  0.2245 -0.7636
  643TMC3    C7 9579   2.076   3.582  17.700 -0.3635 -0.3801 -0.0977
  643TMC3    C8 9580   1.679   3.817   0.115  0.4446 -0.1809  0.0603
  643TMC3    O1 9581   2.142   3.684  17.721 -0.1923  0.0876  0.2370
  643TMC3    O2 9582   1.562   3.796   0.133  0.2876 -0.3825 -0.2782
  644MPD2     C 9583   2.275   0.199   9.489  0.0161  1.0692  0.0596
  644MPD2    C1 9584   2.162   0.121   9.463 -0.3992 -0.4033  1.1711
  644MPD2    C2 9585   2.039   0.152   9.523 -0.7059 -0.0380  0.4105
  644MPD2    C3 9586   2.041   0.252   9.618 -0.5581  0.1128 -0.0117
  644MPD2    C4 9587   2.152   0.331   9.649  0.4970 -0.0051  0.2094
  644MPD2    C5 9588   2.269   0.299   9.583  0.1310  0.3512  0.0773
  644MPD2     H 9589   1.951   0.089   9.526 -2.0707  1.8680  0.6862
  644MPD2    H1 9590   2.149   0.412   9.722  1.5335 -0.1666  0.4310
  644MPD2    H2 9591   2.369   0.179   9.439  0.8099  3.5192  0.5793
  644MPD2    H3 9592   2.359   0.353   9.609  0.8305 -1.2616  0.9715
  644MPD2     N 9593   1.914   0.272   9.686 -0.1698  0.6284  0.1729
  644MPD2    H5 9594   1.829   0.229   9.653  0.9581 -0.5901 -1.1023
  644MPD2    N1 9595   2.181   0.019   9.368 -0.1440  0.1995 -0.7442
  644MPD2    H7 9596   2.274   4.727   9.337  1.0534  5.1959 -1.0450
  645TMC3    C1 9597   1.747   0.375   9.817  0.2091  0.0769  0.4604
  645TMC3    C2 9598   1.652   0.356   9.721 -0.0126 -0.3622 -0.4293
  645TMC3    C3 9599   1.522   0.366   9.764 -0.4995 -0.1394 -0.9237
  645TMC3    C4 9600   1.723   0.410   9.947 -0.5165  0.4220  0.0785
  645TMC3    C5 9601   1.590   0.413   9.982 -0.6058  0.4500  0.2215
  645TMC3    C6 9602   1.483   0.388   9.898 -0.4125  0.0528 -0.5134
  645TMC3     C 9603   1.888   0.364   9.787 -0.4607 -0.1194  0.2231
  645TMC3     O 9604   1.968   0.429   9.854 -0.3536  0.1290 -0.2461
  645TMC3     H 9605   1.674   0.366   9.615  0.4285  4.7991  0.1537
  645TMC3    H1 9606   1.800   0.444  10.015  0.4324 -2.4675  0.4685
  645TMC3    H2 9607   1.380   0.401   9.930  0.0916 -3.8080  2.6471
  645TMC3    C7 9608   1.551   0.484  10.102  0.1677  1.0510  0.3255
  645TMC3    C8 9609   1.417   0.377   9.667  0.0262  0.6682  0.1335
  645TMC3    O1 9610   1.443   0.540  10.106 -0.0185 -0.2778 -0.0254
  645TMC3    O2 9611   1.312   0.433   9.699  0.3597  0.3782 -0.0387
  646MPD2     C 9612   1.148   3.412  14.373  0.2778 -0.0573 -0.6742
  646MPD2    C1 9613   1.084   3.391  14.494 -0.4755  0.1072 -0.3428
  646MPD2    C2 9614   0.966   3.459  14.521  0.5787 -0.6264 -0.0288
  646MPD2    C3 9615   0.918   3.555  14.434  0.0261 -0.2052 -0.2566
  646MPD2    C4 9616   0.987   3.575  14.316 -0.1345  0.5842  0.3322
  646MPD2    C5 9617   1.099   3.498  14.280  0.1319  0.2952 -0.8845
  646MPD2     H 9618   0.923   3.458  14.621  1.9964  0.2954  0.6025
  646MPD2    H1 9619   0.943   3.642  14.243 -1.5001  1.5270  2.0048
  646MPD2    H2 9620   1.244   3.363  14.359 -0.7263 -2.0717 -0.5778
  646MPD2    H3 9621   1.152   3.521  14.188  0.5268  1.8520 -0.2689
  646MPD2     N 9622   0.799   3.618  14.465 -0.3267 -0.2758  0.2945
  646MPD2    H5 9623   0.746   3.594  14.548 -0.9781 -0.4755 -0.1794
  646MPD2    N1 9624   1.149   3.319  14.589  0.0970  0.0518 -0.4074
  646MPD2    H7 9625   1.240   3.279  14.568 -0.9742 -2.4268 -0.3216
  647TMC3    C1 9626   1.216   3.208  14.778  0.6727 -0.0509 -0.4540
  647TMC3    C2 9627   1.152   3.105  14.833  0.0135 -0.1393  0.5568
  647TMC3    C3 9628   1.223   2.990  14.843 -0.2459  0.8494  0.6562
  647TMC3    C4 9629   1.341   3.204  14.727 -0.0643 -0.7098  0.2385
  647TMC3    C5 9630   1.402   3.081  14.738 -0.6339  0.3132 -0.6509
  647TMC3    C6 9631   1.348   2.970  14.797  0.0171 -0.3483  1.0575
  647TMC3     C 9632   1.119   3.301  14.724 -0.3231 -0.2680 -0.3805
  647TMC3     O 9633   1.024   3.330  14.794 -0.0431  0.0280 -0.1999
  647TMC3     H 9634   1.047   3.107  14.861 -0.0314  0.4422  0.3609
  647TMC3    H1 9635   1.391   3.295  14.697 -0.3757  0.2780  2.6995
  647TMC3    H2 9636   1.406   2.880  14.813 -0.1197 -0.6486 -0.1262
  647TMC3    C7 9637   1.547   3.083  14.756 -0.2230  0.4402 -0.6719
  647TMC3    C8 9638   1.195   2.901  14.958 -0.2364  0.1479  0.0339
  647TMC3    O1 9639   1.592   3.007  14.841  0.1267 -0.3608  0.1866
  647TMC3    O2 9640   1.274   2.809  14.972 -0.4949 -0.0526  0.1342
  648TMC3    C1 9641   0.513   0.916  16.118 -0.8237 -0.0357  0.7090
  648TMC3    C2 9642   0.573   0.800  16.090  0.8886 -0.1024  0.2939
  648TMC3    C3 9643   0.569   0.749  15.966  0.1822  0.1459  0.1407
  648TMC3    C4 9644   0.457   0.989  16.021  0.9045  0.1798 -0.1570
  648TMC3    C5 9645   0.461   0.940  15.900  0.5603 -0.0716  0.5950
  648TMC3    C6 9646   0.509   0.814  15.867  0.4334  0.5645 -0.4047
  648TMC3     C 9647   0.501   0.954  16.258  0.8203 -0.5281 -0.6355
  648TMC3     O 9648   0.513   1.068  16.293  0.2930  0.4587  0.3132
  648TMC3     H 9649   0.619   0.738  16.166  0.1017 -0.2101  0.6823
  648TMC3    H1 9650   0.400   1.078  16.046 -0.5340 -0.4570 -1.1881
  648TMC3    H2 9651   0.516   0.777  15.766 -1.8969  0.7148 -0.6357
  648TMC3    C7 9652   0.409   1.019  15.786 -0.1361  0.6426  0.2076
  648TMC3    C8 9653   0.590   0.605  15.956 -0.1417 -0.5552  0.2275
  648TMC3    O1 9654   0.409   0.966  15.676  0.9489 -0.7267  0.9102
  648TMC3    O2 9655   0.589   0.545  16.062 -0.4913 -0.3509  0.0492
  649TMC3    C1 9656   4.146   2.336  12.827 -0.1518 -0.1429  0.3247
  649TMC3    C2 9657   4.181   2.441  12.901 -0.5454 -0.3062  0.6022
  649TMC3    C3 9658   4.232   2.414  13.020  1.1468 -0.0274 -0.1451
  649TMC3    C4 9659   4.166   2.210  12.872 -0.1842 -0.2117 -0.2587
  649TMC3    C5 9660   4.216   2.189  12.993  0.2375 -0.1303  0.1310
  649TMC3    C6 9661   4.238   2.292  13.079  0.1920  0.4956 -0.9418
  649TMC3     C 9662   4.043   2.366  12.725  0.3816  0.7187  0.0117
  649TMC3     O 9663   3.969   2.465  12.749  0.4953 -0.7188  0.4246
  649TMC3     H 9664   4.173   2.542  12.861 -2.6857  0.0247  1.8695
  649TMC3    H1 9665   4.147   2.134  12.796  0.2468  0.4653 -1.0350
  649TMC3    H2 9666   4.253   2.275  13.185  0.1300 -0.5213 -1.0966
  649TMC3    C7 9667   4.192   2.063  13.062  0.5156  0.5725 -0.3885
  649TMC3    C8 9668   4.241   2.528  13.107  0.0691 -0.4507  0.0757
  649TMC3    O1 9669   4.105   1.994  13.014  0.4562  0.1348 -0.1115
  649TMC3    O2 9670   4.163   2.622  13.095  0.0037  0.0787  0.1082
  650TMC3    C1 9671   1.784   3.808  12.609  1.0737 -0.1157 -0.5593
  650TMC3    C2 9672   1.763   3.922  12.687 -0.5338  0.4676  0.1124
  650TMC3    C3 9673   1.652   3.988  12.661 -0.3641 -0.2304  0.4477
  650TMC3    C4 9674   1.682   3.758  12.526 -0.1156 -0.1747  1.4124
  650TMC3    C5 9675   1.580   3.839  12.501  0.0235 -0.1318 -0.4061
  650TMC3    C6 9676   1.559   3.953  12.567  0.5766 -0.1304 -0.5017
  650TMC3     C 9677   1.908   3.728  12.620 -0.1062  0.0546 -0.1262
  650TMC3     O 9678   1.989   3.766  12.700 -0.0503 -0.0425 -0.0054
  650TMC3     H 9679   1.833   3.952  12.764  0.6359 -1.9599 -0.0049
  650TMC3    H1 9680   1.689   3.665  12.470  0.5912 -0.0480  1.2884
  650TMC3    H2 9681   1.471   4.012  12.544  0.4618 -0.4865 -0.9549
  650TMC3    C7 9682   1.529   3.824  12.364 -0.2733 -0.6047 -0.0888
  650TMC3    C8 9683   1.628   4.114  12.712 -0.2352 -0.5875 -0.0536
  650TMC3    O1 9684   1.477   3.723  12.318 -0.2929 -0.1215  0.1390
  650TMC3    O2 9685   1.728   4.181  12.751 -0.7916 -0.0021 -0.5107
  651MPD2     C 9686   0.312   1.663  10.401 -0.3150  0.9790  0.2340
  651MPD2    C1 9687   0.306   1.784  10.472  0.2042  0.0082  0.3104
  651MPD2    C2 9688   0.416   1.864  10.480 -0.4633  0.1857 -0.0708
  651MPD2    C3 9689   0.538   1.818  10.424  0.3176 -0.0252  0.4361
  651MPD2    C4 9690   0.541   1.699  10.359 -0.3232 -0.6556 -0.3260
  651MPD2    C5 9691   0.429   1.623  10.345  1.1445  0.2626  0.6468
  651MPD2     H 9692   0.417   1.961  10.528 -0.0568  0.2986 -0.3138
  651MPD2    H1 9693   0.629   1.643  10.326  1.0703  1.2187  0.2169
  651MPD2    H2 9694   0.221   1.609  10.381 -1.2683  3.5748 -2.4818
  651MPD2    H3 9695   0.442   1.540  10.277 -2.2632  0.8322 -0.7077
  651MPD2     N 9696   0.656   1.899  10.443  0.2164  0.2293  0.1583
  651MPD2    H5 9697   0.648   1.993  10.481  0.1824 -0.5169  2.0068
  651MPD2    N1 9698   0.190   1.820  10.541  0.4859 -0.0290  0.1642
  651MPD2    H7 9699   0.190   1.915  10.575 -2.4835  0.0519 -0.0692
  652TMC3    C1 9700   1.097   2.013  10.378  0.3864  0.7114  0.3027
  652TMC3    C2 9701   1.003   1.925  10.426 -0.0809  0.1587  0.7221
  652TMC3    C3 9702   0.873   1.964  10.423  0.5079  0.2520 -0.5445
  652TMC3    C4 9703   1.063   2.140  10.334 -0.0922 -0.3140 -0.6790
  652TMC3    C5 9704   0.925   2.171  10.338  0.7526 -0.2397  0.0711
  652TMC3    C6 9705   0.834   2.085  10.382 -0.3207  0.2298  0.4281
  652TMC3     C 9706   1.240   1.975  10.400 -0.2136 -0.2082  1.0749
  652TMC3     O 9707   1.260   1.886  10.483  0.0852  0.0666 -0.1260
  652TMC3     H 9708   1.024   1.822  10.451  1.9448  0.3509 -0.2453
  652TMC3    H1 9709   1.135   2.219  10.315  0.3790 -0.6667 -0.3322
  652TMC3    H2 9710   0.732   2.121  10.379 -0.5961 -0.6729 -0.7963
  652TMC3    C7 9711   0.876   2.266  10.233  0.0044  0.0238  0.8041
  652TMC3    C8 9712   0.782   1.857  10.402  0.4127  1.0196  0.0915
  652TMC3    O1 9713   0.754   2.268  10.206  0.1626  0.9299 -0.1279
  652TMC3    O2 9714   0.815   1.772  10.321  0.1657  0.2587  0.6881
  653MPD2     C 9715   4.198   0.900  17.657 -0.3527 -0.3666 -0.9653
  653MPD2    C1 9716   4.136   0.985  17.574 -0.1231  0.4437  0.3219
  653MPD2    C2 9717   4.074   0.919  17.463 -0.0923  0.9749 -0.0952
  653MPD2    C3 9718   4.062   0.783  17.454  0.7775 -0.6159  0.2195
  653MPD2    C4 9719   4.139   0.702  17.545 -0.5468 -0.2335 -0.2879
  653MPD2    C5 9720   4.205   0.763  17.647  0.4344  0.2270 -0.0071
  653MPD2     H 9721   4.026   0.992  17.398 -2.1582  0.2421  0.6078
  653MPD2    H1 9722   4.134   0.594  17.536  3.5453 -0.5424  1.0536
  653MPD2    H2 9723   4.262   0.936   0.009 -0.1500 -0.2320 -1.1881
  653MPD2    H3 9724   4.262   0.706  17.719  0.5419 -0.5410 -0.6990
  653MPD2     N 9725   3.985   0.736  17.344 -0.1884 -0.3544 -0.6440
  653MPD2    H5 9726   3.924   0.806  17.303  0.5647  0.6557 -0.0522
  653MPD2    N1 9727   4.133   1.127  17.588 -0.0182 -0.3728 -0.5229
  653MPD2    H7 9728   4.101   1.184  17.511  3.5316  1.4472 -0.6630
  654TMC3    C1 9729   3.907   0.624  17.153 -0.5818  0.4695 -0.7658
  654TMC3    C2 9730   3.823   0.728  17.135 -0.2088  0.5006  0.4338
  654TMC3    C3 9731   3.796   0.777  17.015  0.3498 -0.9807 -0.0085
  654TMC3    C4 9732   3.966   0.567  17.044 -0.0359 -0.1424  0.0650
  654TMC3    C5 9733   3.942   0.624  16.923  0.3072  0.0930  0.1632
  654TMC3    C6 9734   3.857   0.726  16.904 -0.0739 -0.4393  0.1997
  654TMC3     C 9735   3.980   0.614  17.282  0.0465 -0.6877 -0.8890
  654TMC3     O 9736   4.059   0.515  17.288  0.0344  0.3117 -0.0534
  654TMC3     H 9737   3.758   0.760  17.215 -2.7601 -1.3012 -0.9120
  654TMC3    H1 9738   4.038   0.490  17.066 -1.1631 -0.8569  1.2514
  654TMC3    H2 9739   3.827   0.750  16.802 -0.8200 -6.1951 -0.9305
  654TMC3    C7 9740   3.991   0.562  16.800 -0.6707  0.1251  0.1076
  654TMC3    C8 9741   3.701   0.895  17.003  0.1829 -0.1912  0.3553
  654TMC3    O1 9742   3.995   0.626  16.694 -0.3083  0.1324  0.0648
  654TMC3    O2 9743   3.639   0.929  17.104  0.0549  0.5805  0.0719
  655MPD2     C 9744   0.862   0.953  15.780  0.5971  0.3430  0.2785
  655MPD2    C1 9745   0.853   1.065  15.697  0.5531 -0.2913 -0.2668
  655MPD2    C2 9746   0.900   1.058  15.571  0.6331 -0.0175 -0.5448
  655MPD2    C3 9747   0.933   0.935  15.512  0.0759  0.2703 -0.7815
  655MPD2    C4 9748   0.925   0.823  15.596  0.3976 -0.1627 -0.0523
  655MPD2    C5 9749   0.893   0.832  15.731 -0.2699  0.3025  0.5123
  655MPD2     H 9750   0.896   1.145  15.507 -0.8970  2.5353  3.0354
  655MPD2    H1 9751   0.939   0.722  15.560 -0.4878 -0.0018 -0.8574
  655MPD2    H2 9752   0.830   0.957  15.884 -0.5756  1.8257 -0.1364
  655MPD2    H3 9753   0.874   0.744  15.791  0.2285  0.0468  0.3002
  655MPD2     N 9754   0.973   0.907  15.375 -0.0142  0.0854  0.2778
  655MPD2    H5 9755   0.980   0.808  15.351  0.2969  0.4000 -0.9558
  655MPD2    N1 9756   0.806   1.190  15.733  0.5529  0.0128 -0.6768
  655MPD2    H7 9757   0.825   1.267  15.669  1.1276 -0.5060 -1.1302
  656TMC3    C1 9758   0.683   1.345  15.877 -0.0234  0.1725 -0.1354
  656TMC3    C2 9759   0.611   1.356  15.994 -0.8316 -1.0543  0.6639
  656TMC3    C3 9760   0.534   1.465  16.003  0.6144  0.6389 -0.4156
  656TMC3    C4 9761   0.679   1.440  15.778  0.1475  0.2346  0.2487
  656TMC3    C5 9762   0.615   1.555  15.799  0.2591  0.2668 -0.3747
  656TMC3    C6 9763   0.528   1.566  15.914  0.7845 -0.1822  0.4321
  656TMC3     C 9764   0.744   1.208  15.858  0.9836 -0.1533  0.1175
  656TMC3     O 9765   0.726   1.131  15.949  0.3147  0.1882 -0.3590
  656TMC3     H 9766   0.605   1.281  16.072  2.4812  0.0204  1.9742
  656TMC3    H1 9767   0.711   1.421  15.676 -1.8802  2.3226 -0.7476
  656TMC3    H2 9768   0.473   1.659  15.930 -0.7435 -0.8906 -0.7476
  656TMC3    C7 9769   0.576   1.629  15.679 -0.7890  0.6004  0.0390
  656TMC3    C8 9770   0.406   1.428  16.069 -0.7137  0.0625  0.5110
  656TMC3    O1 9771   0.670   1.653  15.604 -0.2462  0.1126 -0.3816
  656TMC3    O2 9772   0.365   1.311  16.072 -0.5848 -0.4806  0.2371
  657TMC3    C1 9773   0.077   0.417  14.622 -0.2109  0.2357  0.0343
  657TMC3    C2 9774   0.046   0.460  14.753  1.1540 -0.1610 -0.7625
  657TMC3    C3 9775   4.693   0.560  14.768 -0.1852 -0.5051 -0.5612
  657TMC3    C4 9776   0.042   0.496  14.514  0.1629  0.6510  0.3108
  657TMC3    C5 9777   4.714   0.613  14.546  0.1035  0.5680  0.5585
  657TMC3    C6 9778   4.663   0.640  14.666 -0.0414 -0.3558  0.0106
  657TMC3     C 9779   0.116   0.281  14.586  0.2208 -0.6186  0.4516
  657TMC3     O 9780   0.077   0.224  14.484  0.7665  0.2216 -0.1595
  657TMC3     H 9781   0.082   0.407  14.840 -0.1358 -1.0898 -0.7984
  657TMC3    H1 9782   0.073   0.477  14.412  1.1079 -0.1571  0.7534
  657TMC3    H2 9783   4.605   0.731  14.677  0.4488  0.0322 -0.6262
  657TMC3    C7 9784   4.700   0.701  14.435 -0.1785  0.3185  0.1155
  657TMC3    C8 9785   4.671   0.624  14.899 -0.1755 -0.5379 -0.0804
  657TMC3    O1 9786   0.004   0.663  14.327  0.1660 -0.3414 -0.1490
  657TMC3    O2 9787   4.645   0.743  14.897 -0.2973 -0.4713  0.0814
  658MPD2     C 9788   1.349   0.952  14.596 -0.2338 -0.4189 -0.8508
  658MPD2    C1 9789   1.236   0.871  14.603  0.3397 -0.4567  0.0762
  658MPD2    C2 9790   1.170   0.845  14.489 -0.5648 -0.2733 -0.1909
  658MPD2    C3 9791   1.207   0.890  14.364  0.1603 -0.0913 -0.0150
  658MPD2    C4 9792   1.324   0.962  14.354  0.0889  0.3104 -0.1061
  658MPD2    C5 9793   1.390   0.986  14.470  0.0259 -0.4561 -0.4268
  658MPD2     H 9794   1.073   0.796  14.492 -0.7602  0.1116 -0.1153
  658MPD2    H1 9795   1.375   0.983  14.261 -2.2148 -0.9671 -1.6536
  658MPD2    H2 9796   1.400   0.986  14.685  2.2748 -0.5792 -2.2272
  658MPD2    H3 9797   1.485   1.036  14.456  0.1685 -0.5995  0.0184
  658MPD2     N 9798   1.117   0.880  14.254  0.5192  0.1256  0.2491
  658MPD2    H5 9799   1.024   0.841  14.265  0.1673  0.5748 -1.1586
  658MPD2    N1 9800   1.180   0.832  14.729 -0.8681  0.5099 -0.5686
  658MPD2    H7 9801   1.113   0.755  14.726  1.0122 -1.1402 -0.2184
  659TMC3    C1 9802   1.089   0.888  14.940 -0.2266  0.2414 -0.1088
  659TMC3    C2 9803   1.102   0.949  15.063 -0.2476 -0.1068  0.0763
  659TMC3    C3 9804   0.996   0.932  15.150 -0.4007 -0.4798  0.0004
  659TMC3    C4 9805   0.973   0.807  14.908  0.3710 -0.3618 -0.3619
  659TMC3    C5 9806   0.868   0.815  15.001 -0.3039  0.4347 -0.1571
  659TMC3    C6 9807   0.877   0.870  15.125  0.4835  0.0898  0.9314
  659TMC3     C 9808   1.194   0.903  14.840  0.4047 -0.1948 -0.2774
  659TMC3     O 9809   1.265   0.999  14.874  0.5191 -0.1579  0.1177
  659TMC3     H 9810   1.184   1.015  15.089 -0.0567 -0.6485  0.8118
  659TMC3    H1 9811   0.956   0.775  14.806 -0.4653 -0.5882 -0.1520
  659TMC3    H2 9812   0.800   0.872  15.200  0.7203 -1.6191  1.2255
  659TMC3    C7 9813   0.732   0.784  14.949 -0.2966 -0.4457 -0.1595
  659TMC3    C8 9814   0.999   0.998  15.280 -0.3291 -0.0405  0.6967
  659TMC3    O1 9815   0.643   0.842  15.004  0.0115 -0.3375 -0.6586
  659TMC3    O2 9816   1.012   1.121  15.286  0.3935 -0.1672  0.5410
  660MPD2     C 9817   3.791   0.167  12.769  0.1484  0.0682  0.6010
  660MPD2    C1 9818   3.662   0.210  12.768  0.5933  0.4204 -0.0626
  660MPD2    C2 9819   3.580   0.199  12.883  0.4353 -0.2555 -0.5717
  660MPD2    C3 9820   3.633   0.156  12.999  0.0082  0.1104 -0.0208
  660MPD2    C4 9821   3.763   0.115  12.999  0.6707  0.0772 -1.1612
  660MPD2    C5 9822   3.837   0.112  12.885 -0.1644 -0.0547 -0.6331
  660MPD2     H 9823   3.475   0.220  12.864 -0.1149 -1.2781  1.3528
  660MPD2    H1 9824   3.808   0.086  13.093  0.6622 -2.1220 -1.8285
  660MPD2    H2 9825   3.844   0.156  12.675  1.2404 -0.8524  1.3198
  660MPD2    H3 9826   3.939   0.078  12.899 -0.0933  0.9106  1.0486
  660MPD2     N 9827   3.552   0.157  13.115  0.1085  0.6047  0.6590
  660MPD2    H5 9828   3.581   0.102  13.195  0.7221 -0.1047 -0.0547
  660MPD2    N1 9829   3.611   0.264  12.646 -0.4630 -0.5708 -0.3212
  660MPD2    H7 9830   3.666   0.246  12.562 -1.8788 -0.6265 -1.2447
  661TMC3    C1 9831   3.434   0.342  12.497 -0.1114  0.2253  0.2130
  661TMC3    C2 9832   3.512   0.317  12.387 -0.4803 -0.1948  0.2427
  661TMC3    C3 9833   3.461   0.348  12.267  0.8968  0.6176  0.1885
  661TMC3    C4 9834   3.313   0.404  12.494  0.5563  0.4796 -0.4965
  661TMC3    C5 9835   3.266   0.450  12.376 -0.2620  0.2292 -0.2003
  661TMC3    C6 9836   3.340   0.414  12.261  0.2414  0.1191 -0.0891
  661TMC3     C 9837   3.489   0.328  12.634  0.3514 -0.3612  1.3502
  661TMC3     O 9838   3.416   0.365  12.724  0.3675  0.5129  0.0359
  661TMC3     H 9839   3.595   0.248  12.391 -0.1956  0.2123  1.4377
  661TMC3    H1 9840   3.252   0.419  12.583 -0.5241 -2.1142 -0.7873
  661TMC3    H2 9841   3.314   0.443  12.160 -2.2047 -3.0299 -0.3797
  661TMC3    C7 9842   3.124   0.469  12.361 -0.8453 -0.2112 -0.0338
  661TMC3    C8 9843   3.547   0.350  12.142  0.5016  0.7338 -0.6244
  661TMC3    O1 9844   3.057   0.473  12.464 -0.6308 -0.8245  0.1690
  661TMC3    O2 9845   3.491   0.388  12.041  0.2254  0.1394  0.1408
  662MPD2     C 9846   4.130   4.461  17.357  0.8619 -0.3347  0.2895
  662MPD2    C1 9847   4.141   4.367  17.453 -0.1489  0.7243 -0.3432
  662MPD2    C2 9848   4.079   4.380  17.575  0.0595 -0.1078 -0.0735
  662MPD2    C3 9849   4.010   4.497  17.610 -0.2720 -0.6728 -0.1250
  662MPD2    C4 9850   4.013   4.598  17.514 -0.8466 -0.1535  0.9168
  662MPD2    C5 9851   4.068   4.581  17.390 -1.0803 -0.0231 -0.9070
  662MPD2     H 9852   4.085   4.299  17.647  0.2936 -0.7715 -0.8398
  662MPD2    H1 9853   3.967   4.692  17.542 -1.2260  0.6939 -2.4806
  662MPD2    H2 9854   4.192   4.446  17.269 -0.2098  2.1818 -0.9188
  662MPD2    H3 9855   4.071   4.668  17.327 -1.2160  0.3776 -0.3618
  662MPD2     N 9856   3.942   4.515   0.006 -0.0590  0.1299  0.8251
  662MPD2    H5 9857   3.877   4.593   0.011 -1.5104 -1.0141 -0.0745
  662MPD2    N1 9858   4.200   4.236  17.432  0.3999  0.1234  0.3511
  662MPD2    H7 9859   4.204   4.172  17.511 -0.1214  0.6402  0.7921
  663TMC3    C1 9860   4.293   4.044  17.343  0.5301 -0.1269 -0.4001
  663TMC3    C2 9861   4.318   4.021  17.474 -0.6366 -0.8836  0.8449
  663TMC3    C3 9862   4.291   3.903  17.540 -0.8572 -0.1697 -0.1698
  663TMC3    C4 9863   4.224   3.950  17.277  0.1403 -0.2212  0.3919
  663TMC3    C5 9864   4.186   3.837  17.341 -0.1817 -0.5782 -0.9703
  663TMC3    C6 9865   4.205   3.817  17.473 -0.0300 -0.1284 -0.3677
  663TMC3     C 9866   4.250   4.183  17.312 -0.3311 -0.0876  0.4645
  663TMC3     O 9867   4.251   4.229  17.199  0.2316  0.1866 -0.6220
  663TMC3     H 9868   4.384   4.086  17.530  0.8701 -1.2660 -0.4893
  663TMC3    H1 9869   4.199   3.968  17.173 -0.7546  0.5351  0.7417
  663TMC3    H2 9870   4.208   3.717  17.514 -1.3382 -0.8786 -2.1282
  663TMC3    C7 9871   4.193   3.723  17.258  0.0771 -0.4970  0.4714
  663TMC3    C8 9872   4.227   3.948  17.664 -0.4081 -0.3276 -0.0363
  663TMC3    O1 9873   4.280   3.726  17.169 -0.5020  0.0894  0.2694
  663TMC3    O2 9874   4.211   4.067  17.669  0.5858 -0.4069  0.6379
  664MPD2     C 9875   1.825   2.572  17.464 -0.5794 -0.1490 -0.1529
  664MPD2    C1 9876   1.942   2.608  17.533  0.1314  0.4663 -0.9143
  664MPD2    C2 9877   1.952   2.552  17.659 -0.8100 -0.2231  0.5150
  664MPD2    C3 9878   1.851   2.471  17.713  0.1578 -0.4325  0.0579
  664MPD2    C4 9879   1.738   2.452  17.642 -0.2385 -0.2817  0.6601
  664MPD2    C5 9880   1.727   2.506  17.521 -0.5433 -0.3329  0.2347
  664MPD2     H 9881   2.037   2.571  17.723  0.7693  0.4788 -1.8065
  664MPD2    H1 9882   1.650   2.408  17.687 -0.0860  0.9233  2.1077
  664MPD2    H2 9883   1.804   2.604  17.363 -0.3795  1.7615  0.4034
  664MPD2    H3 9884   1.637   2.490  17.463  0.3230 -2.0233 -0.6366
  664MPD2     N 9885   1.865   2.424   0.122  0.1826  0.1598  0.1226
  664MPD2    H5 9886   1.941   2.463   0.178  0.5869 -0.1207 -0.2387
  664MPD2    N1 9887   2.049   2.679  17.474  0.1386 -0.3929 -0.1998
  664MPD2    H7 9888   2.139   2.662  17.518  0.2456 -0.9472 -0.6388
  665TMC3    C1 9889   1.810   2.332   0.334  0.1994 -0.1830  0.7233
  665TMC3    C2 9890   1.702   2.307   0.412 -0.1354  0.1779  0.5186
  665TMC3    C3 9891   1.726   2.301   0.547 -0.1175 -0.4360 -0.8526
  665TMC3    C4 9892   1.935   2.359   0.376  0.0891  0.0082 -0.4019
  665TMC3    C5 9893   1.948   2.356   0.510  0.0621 -0.2334 -0.5753
  665TMC3    C6 9894   1.847   2.331   0.602 -0.1413 -1.0464  0.4816
  665TMC3     C 9895   1.780   2.344   0.194 -0.1634  0.3805 -0.7200
  665TMC3     O 9896   1.683   2.281   0.150 -0.5220 -0.2933  0.3234
  665TMC3     H 9897   1.612   2.272   0.363  0.1938  1.4415 -1.0161
  665TMC3    H1 9898   2.019   2.384   0.313  1.3037 -1.2682  0.7114
  665TMC3    H2 9899   1.862   2.303   0.706  0.9276  1.7127  1.0692
  665TMC3    C7 9900   2.084   2.370   0.568 -0.5712 -0.1898  0.5916
  665TMC3    C8 9901   1.622   2.336   0.642  0.2765 -0.1785  0.2602
  665TMC3    O1 9902   2.182   2.343   0.501  0.8804  0.5786 -0.4628
  665TMC3    O2 9903   1.652   2.355   0.759  0.8306 -0.1602 -0.1127
  666TMC3    C1 9904   1.097   3.940   9.486 -0.1528 -0.7541 -0.1248
  666TMC3    C2 9905   1.183   3.831   9.481  0.3435 -0.2642  0.3373
  666TMC3    C3 9906   1.290   3.824   9.574  0.4212  0.4414  0.3884
  666TMC3    C4 9907   1.116   4.039   9.574 -0.2529 -0.3745  0.1115
  666TMC3    C5 9908   1.219   4.029   9.660  0.6605 -0.0204 -0.6866
  666TMC3    C6 9909   1.304   3.925   9.665 -0.3297  0.1779  1.0675
  666TMC3     C 9910   1.003   3.963   9.377  0.1259  0.6807  0.4521
  666TMC3     O 9911   0.922   4.048   9.406 -0.2720  0.2218  0.2307
  666TMC3     H 9912   1.176   3.751   9.407  1.7622  0.3460 -0.4416
  666TMC3    H1 9913   1.043   4.119   9.572 -0.0148 -0.2493 -3.3607
  666TMC3    H2 9914   1.389   3.914   9.731  1.2131  0.5820 -0.8360
  666TMC3    C7 9915   1.224   4.119   9.774 -0.0216 -0.5248  0.1598
  666TMC3    C8 9916   1.364   3.702   9.587 -0.5454 -0.0413 -0.1406
  666TMC3    O1 9917   1.285   4.090   9.875 -0.3397  0.0027  0.7725
  666TMC3    O2 9918   1.296   3.605   9.557 -0.1685 -0.3347  0.7027
  667MPD2     C 9919   3.067   2.535  14.483  0.3474  0.0766 -0.2552
  667MPD2    C1 9920   3.064   2.502  14.620 -0.0615  0.1424  0.4845
  667MPD2    C2 9921   2.981   2.398  14.664  0.2390  0.3249  0.0288
  667MPD2    C3 9922   2.881   2.345  14.583 -0.7080  0.1210  0.3261
  667MPD2    C4 9923   2.872   2.387  14.449  0.2387  0.2779  0.3238
  667MPD2    C5 9924   2.974   2.475  14.398 -0.4588 -0.0923 -0.6499
  667MPD2     H 9925   3.007   2.353  14.759  0.3612 -1.8621 -1.0241
  667MPD2    H1 9926   2.806   2.337  14.379 -0.0153  1.0500  0.0183
  667MPD2    H2 9927   3.146   2.598  14.443  0.4088  0.6500  0.7775
  667MPD2    H3 9928   2.971   2.502  14.293 -1.2294  0.9257 -0.3696
  667MPD2     N 9929   2.780   2.261  14.628  0.2940 -0.0380 -0.0022
  667MPD2    H5 9930   2.696   2.259  14.571 -0.4619  0.1721  1.1206
  667MPD2    N1 9931   3.145   2.567  14.722  0.2842  0.0731  0.1239
  667MPD2    H7 9932   3.137   2.528  14.815 -0.7252 -0.8305 -0.3455
  668TMC3    C1 9933   3.256   2.738  14.832  0.1358 -0.0808  0.0637
  668TMC3    C2 9934   3.349   2.842  14.828 -0.1030 -0.3824 -0.8761
  668TMC3    C3 9935   3.369   2.914  14.945 -0.5178 -0.2101  0.2895
  668TMC3    C4 9936   3.190   2.710  14.948  0.6496 -0.4834  0.0498
  668TMC3    C5 9937   3.202   2.791  15.056 -0.1145 -0.6049 -0.0629
  668TMC3    C6 9938   3.308   2.884  15.061  0.2428 -0.5054  0.1817
  668TMC3     C 9939   3.225   2.676  14.700  0.2928 -0.1167 -0.8242
  668TMC3     O 9940   3.272   2.721  14.595  0.1604 -0.2725  0.1131
  668TMC3     H 9941   3.394   2.873  14.734  1.1949  0.0939 -0.0996
  668TMC3    H1 9942   3.112   2.635  14.955 -0.0265  0.1573 -0.5161
  668TMC3    H2 9943   3.325   2.949  15.146 -0.9869 -0.5493  0.4650
  668TMC3    C7 9944   3.103   2.793  15.163 -0.3995  0.7394  0.1112
  668TMC3    C8 9945   3.430   3.044  14.943 -0.3266 -0.1880 -0.4181
  668TMC3    O1 9946   3.139   2.844  15.269 -0.0779 -0.3479  0.1452
  668TMC3    O2 9947   3.408   3.127  15.027  0.3610 -0.4377  0.7089
  669TMC3    C1 9948   0.812   2.390  14.768  0.5083  0.0447  0.2078
  669TMC3    C2 9949   0.709   2.403  14.681  0.2912 -0.1212 -0.1521
  669TMC3    C3 9950   0.733   2.484  14.572  0.6568  0.4033  0.0433
  669TMC3    C4 9951   0.937   2.439  14.745 -0.2644  0.2821 -0.2040
  669TMC3    C5 9952   0.947   2.526  14.642  0.1052 -0.4466 -0.5390
  669TMC3    C6 9953   0.846   2.540  14.547  0.3743 -0.5990 -0.0103
  669TMC3     C 9954   0.794   2.304  14.886  0.3844  0.1303 -0.0682
  669TMC3     O 9955   0.679   2.283  14.929 -0.7164 -0.3301 -0.1878
  669TMC3     H 9956   0.614   2.360  14.710 -0.5193  0.2385 -2.2995
  669TMC3    H1 9957   1.017   2.430  14.818  1.5067 -1.6156 -2.3640
  669TMC3    H2 9958   0.862   2.595  14.454 -0.5798  0.9152  0.7253
  669TMC3    C7 9959   1.072   2.590  14.604 -0.0456 -0.8129 -0.1856
  669TMC3    C8 9960   0.633   2.464  14.469 -0.1941  0.2103 -0.1029
  669TMC3    O1 9961   1.063   2.676  14.517 -0.4037  0.2309 -0.7185
  669TMC3    O2 9962   0.546   2.383  14.499 -0.1015 -0.3631  0.4610
  670MPD2     C 9963   4.264   4.364  13.439 -0.6280 -0.3086  0.1512
  670MPD2    C1 9964   4.263   4.496  13.432  0.0276  0.4135 -1.0037
  670MPD2    C2 9965   4.164   4.567  13.502  0.4102 -0.1074 -0.2959
  670MPD2    C3 9966   4.102   4.499  13.604 -0.4899 -0.2241 -0.6718
  670MPD2    C4 9967   4.117   4.367  13.616 -0.1677  0.1004 -0.2206
  670MPD2    C5 9968   4.195   4.301  13.529  0.3414  0.4890 -0.0560
  670MPD2     H 9969   4.165   4.676  13.497  1.5574 -0.1149 -0.1044
  670MPD2    H1 9970   4.069   4.303  13.687  0.8657 -0.5893 -0.1394
  670MPD2    H2 9971   4.319   4.296  13.375  0.0086 -0.9442  1.3778
  670MPD2    H3 9972   4.212   4.195  13.539 -0.8961  0.2746 -0.2073
  670MPD2     N 9973   4.036   4.581  13.704  0.3032 -0.0498  1.1264
  670MPD2    H5 9974   4.049   4.681  13.691 -1.9309  0.2751  1.4899
  670MPD2    N1 9975   4.339   4.584  13.354 -0.3839  0.0957 -0.6556
  670MPD2    H7 9976   4.319   4.683  13.360  0.4935  0.1949  0.5164
  671TMC3    C1 9977   3.956   4.647  13.920  0.5331  0.0350 -0.5201
  671TMC3    C2 9978   4.016   0.038  13.908 -0.1896 -0.0455 -0.2995
  671TMC3    C3 9979   3.973   0.130  14.005  0.1562 -0.1612 -0.1843
  671TMC3    C4 9980   3.876   4.608  14.026  0.7302 -0.5112  0.1907
  671TMC3    C5 9981   3.850   4.702  14.118  0.1709 -0.0641 -0.3503
  671TMC3    C6 9982   3.891   0.098  14.113 -0.5398  0.6724 -0.2837
  671TMC3     C 9983   3.987   4.537  13.823 -0.0054 -0.1293  0.0451
  671TMC3     O 9984   3.971   4.425  13.867 -0.0602 -0.2550  0.6086
  671TMC3     H 9985   4.065   0.065  13.815  0.6313  0.9748  0.4322
  671TMC3    H1 9986   3.826   4.513  14.038 -0.0175  0.2791  3.1086
  671TMC3    H2 9987   3.889   0.170  14.194  1.2067  0.0987  0.2801
  671TMC3    C7 9988   3.727   4.670  14.190 -0.6070 -0.8373 -0.1295
  671TMC3    C8 9989   4.032   0.260  14.000 -0.8079 -0.3990 -0.0058
  671TMC3    O1 9990   3.693   4.555  14.219 -0.2769 -0.0223 -0.1588
  671TMC3    O2 9991   3.951   0.350  14.022  0.2889  0.1196  0.2533
  672MPD2     C 9992   3.354   0.551   0.913 -0.1991  0.1790 -0.4682
  672MPD2    C1 9993   3.491   0.510   0.916 -0.2882 -0.2648 -0.0867
  672MPD2    C2 9994   3.573   0.580   0.998  0.2438  0.5338 -0.2422
  672MPD2    C3 9995   3.527   0.688   1.081 -0.1842  0.1268  0.4072
  672MPD2    C4 9996   3.402   0.727   1.068  0.1540  0.3838 -0.9952
  672MPD2    C5 9997   3.311   0.659   0.990 -0.2392 -0.2787  0.1149
  672MPD2     H 9998   3.675   0.542   1.007 -0.6098 -1.7511 -0.2598
  672MPD2    H1 9999   3.364   0.811   1.125 -0.0040  0.3915 -1.1118
  672MPD2    H210000   3.281   0.509   0.845 -0.0598 -0.0067 -0.5015
  672MPD2    H310001   3.213   0.704   0.980  1.1084  2.7623  0.7148
  672MPD2     N10002   3.608   0.767   1.156  0.2028 -0.2828 -0.4063
  672MPD2    H510003   3.569   0.855   1.188 -0.4468 -0.4076 -0.8611
  672MPD2    N110004   3.546   0.411   0.832  0.1557 -0.3120 -0.4352
  672MPD2    H710005   3.646   0.394   0.832  0.3342  0.7272 -0.0095
  673TMC3    C110006   3.581   0.255   0.660  0.7210 -0.1333 -0.1481
  673TMC3    C210007   3.573   0.118   0.657 -0.0939  0.7557 -0.2879
  673TMC3    C310008   3.687   0.050   0.634  0.3094  0.0074 -0.3682
  673TMC3    C410009   3.699   0.322   0.639  0.5906 -0.3999  0.2051
  673TMC3    C510010   3.804   0.250   0.598 -0.9466 -0.0292 -0.4777
  673TMC3    C610011   3.795   0.112   0.592 -0.6148 -0.0092  0.3079
  673TMC3     C10012   3.484   0.329   0.744  0.2263  0.1171  0.1541
  673TMC3     O10013   3.367   0.294   0.749 -0.0532 -0.1247  0.1507
  673TMC3     H10014   3.479   0.074   0.685 -0.4740  0.5085 -1.9286
  673TMC3    H110015   3.701   0.429   0.653  1.5291 -0.1958 -1.6205
  673TMC3    H210016   3.882   0.058   0.556 -0.1751  0.3833  0.7881
  673TMC3    C710017   3.915   0.308   0.533 -0.1671 -1.0268 -0.0460
  673TMC3    C810018   3.716   4.682   0.727 -0.7436 -0.0737 -0.2201
  673TMC3    O110019   4.026   0.270   0.557 -0.2424  0.1868 -0.2587
  673TMC3    O210020   3.620   4.617   0.766  0.0057 -0.0257 -0.3574
  674MPD2     C10021   3.846   0.806   0.013 -0.5966 -0.0718 -0.2207
  674MPD2    C110022   3.818   0.683   0.054  0.4070 -0.2740  0.3926
  674MPD2    C210023   3.686   0.652   0.079 -0.1403 -0.3542 -0.4737
  674MPD2    C310024   3.584   0.738   0.046  0.3817 -0.6659 -0.2838
  674MPD2    C410025   3.611   0.862  17.725  0.0905 -0.6853  0.4329
  674MPD2    C510026   3.746   0.895  17.717  0.1553 -0.0885  0.3368
  674MPD2     H10027   3.659   0.554   0.117 -0.0107  0.3192  1.3556
  674MPD2    H110028   3.532   0.934  17.706 -0.3935 -1.2441  0.3286
  674MPD2    H210029   3.949   0.837   0.002 -0.2102 -0.8109  1.3473
  674MPD2    H310030   3.767   0.994  17.678  0.2943 -0.3479 -0.2462
  674MPD2     N10031   3.461   0.680   0.068  0.0014  0.1537 -0.1609
  674MPD2    H510032   3.470   0.580   0.083 -1.0183  0.5606  3.0851
  674MPD2    N110033   3.922   0.591   0.066 -0.0541  0.0368  0.2129
  674MPD2    H710034   4.020   0.615   0.057 -0.7070  1.6829 -2.4567
  675TMC3    C110035   4.014   0.374   0.132  0.4139  0.3590  0.3598
  675TMC3    C210036   3.987   0.253   0.184 -0.0887 -0.4844  0.2922
  675TMC3    C310037   4.088   0.192   0.251  0.3388  0.1980 -0.4063
  675TMC3    C410038   4.142   0.431   0.132 -1.0439 -0.3483  0.6183
  675TMC3    C510039   4.240   0.357   0.190  0.5834  0.4699  0.0959
  675TMC3    C610040   4.217   0.238   0.255  0.0545 -0.0896 -0.0907
  675TMC3     C10041   3.900   0.455   0.081  0.2075  0.0924  0.3428
  675TMC3     O10042   3.807   0.388   0.044  0.5720 -0.5067 -0.0174
  675TMC3     H10043   3.886   0.213   0.189 -1.0664  1.7783 -1.4077
  675TMC3    H110044   4.169   0.523   0.082  1.2566 -1.4496 -0.2091
  675TMC3    H210045   4.291   0.173   0.300 -0.5388  0.8731  2.2753
  675TMC3    C710046   4.373   0.417   0.192 -0.2298 -0.3539  0.5450
  675TMC3    C810047   4.054   0.059   0.317  0.6391  0.0965 -0.3513
  675TMC3    O110048   4.395   0.513   0.119 -0.6058  0.3025 -0.5420
  675TMC3    O210049   3.962   4.731   0.265  0.2971 -0.0244  0.0697
  676MPD2     C10050   1.765   4.171  10.781  0.5358  0.0707 -0.6804
  676MPD2    C110051   1.695   4.084  10.865  0.1543  0.1987 -0.1884
  676MPD2    C210052   1.687   3.947  10.836  0.1639  0.0874  0.0327
  676MPD2    C310053   1.759   3.891  10.729 -0.1455  0.9541  0.6310
  676MPD2    C410054   1.805   3.982  10.638 -0.0392 -0.1444  0.0412
  676MPD2    C510055   1.813   4.116  10.668  0.7282 -0.0660 -0.6844
  676MPD2     H10056   1.628   3.885  10.902 -0.7198  2.0156  1.0742
  676MPD2    H110057   1.846   3.949  10.544 -1.1503  0.2030 -0.5650
  676MPD2    H210058   1.771   4.279  10.792 -0.1720  0.0045  0.3469
  676MPD2    H310059   1.872   4.190  10.615 -0.9112  1.4360 -0.3989
  676MPD2     N10060   1.773   3.755  10.699  0.3102  0.0115  0.1753
  676MPD2    H510061   1.835   3.723  10.626 -2.1722  0.2409 -2.0388
  676MPD2    N110062   1.633   4.127  10.986  0.5527 -0.3408 -0.3764
  676MPD2    H710063   1.586   4.051  11.034 -0.7029  1.3467  1.0300
  677TMC3    C110064   1.586   4.250  11.175 -0.3559  0.0659  0.0026
  677TMC3    C210065   1.470   4.180  11.187 -0.5388 -0.2941  0.1117
  677TMC3    C310066   1.415   4.175  11.309  0.2816  0.5182 -0.4186
  677TMC3    C410067   1.655   4.304  11.279  0.2560 -0.3910 -0.0468
  677TMC3    C510068   1.599   4.285  11.401 -0.0407 -0.2640  0.2410
  677TMC3    C610069   1.476   4.233  11.425 -0.1313  0.4255  0.1630
  677TMC3     C10070   1.644   4.250  11.045  0.3932  0.4012 -0.0042
  677TMC3     O10071   1.696   4.351  10.999 -0.5276  0.5458  0.6344
  677TMC3     H10072   1.420   4.134  11.102 -1.0555 -1.2637  0.9352
  677TMC3    H110073   1.755   4.345  11.271  0.3622 -0.2862  1.9191
  677TMC3    H210074   1.437   4.219  11.525 -1.2705 -0.9740 -0.4789
  677TMC3    C710075   1.676   4.301  11.529  0.0252  0.1334 -0.1292
  677TMC3    C810076   1.277   4.124  11.320 -0.0707  0.4145 -0.2751
  677TMC3    O110077   1.608   4.301  11.633 -0.1354  0.5024  0.6225
  677TMC3    O210078   1.209   4.164  11.226 -0.0372  0.2637  0.6410
  678MPD2     C10079   3.137   3.481   1.528  0.0938  0.2156  0.5412
  678MPD2    C110080   3.145   3.353   1.473  0.1247  0.4970  0.0804
  678MPD2    C210081   3.033   3.279   1.447 -0.5653  0.3025  0.8453
  678MPD2    C310082   2.912   3.338   1.477  0.0059 -0.1808  0.1925
  678MPD2    C410083   2.903   3.461   1.546 -0.6328 -0.3066  0.8459
  678MPD2    C510084   3.019   3.534   1.573  0.0296 -0.1776  0.1610
  678MPD2     H10085   3.031   3.178   1.408  0.7721  0.7154 -0.3257
  678MPD2    H110086   2.811   3.503   1.583 -2.5399 -1.4652 -2.6272
  678MPD2    H210087   3.221   3.550   1.526  0.9549 -0.8272  0.9208
  678MPD2    H310088   3.007   3.627   1.626 -0.4404  0.0164 -0.2772
  678MPD2     N10089   2.801   3.269   1.431  0.3440 -0.3168 -0.3734
  678MPD2    H510090   2.821   3.195   1.364 -0.2680 -0.4595 -0.3957
  678MPD2    N110091   3.269   3.297   1.426  0.0161  1.0050 -0.4622
  678MPD2    H710092   3.272   3.196   1.411 -0.3369  0.8852  0.2421
  679TMC3    C110093   3.644   3.116   1.427 -0.2629  0.0656  0.0201
  679TMC3    C210094   3.518   3.163   1.423 -0.3811 -0.2659 -0.1884
  679TMC3    C310095   3.500   3.290   1.380 -0.2449 -0.3552  0.3031
  679TMC3    C410096   3.744   3.174   1.357  0.0320 -0.1213 -0.1222
  679TMC3    C510097   3.720   3.292   1.294  0.6621 -0.5059  0.5405
  679TMC3    C610098   3.602   3.361   1.322 -0.9534 -0.3352 -0.0492
  679TMC3     C10099   3.669   2.972   1.415  0.9929  0.5872  0.1703
  679TMC3     O10100   3.755   2.952   1.330  0.1108 -0.2384  0.4992
  679TMC3     H10101   3.443   3.106   1.477  1.1827 -2.1745 -0.0370
  679TMC3    H110102   3.851   3.153   1.358  0.0676  0.0927  0.3249
  679TMC3    H210103   3.582   3.458   1.278 -1.1606 -0.6110 -0.5688
  679TMC3    C710104   3.761   3.291   1.155 -0.0489  0.3447 -0.4342
  679TMC3    C810105   3.389   3.366   1.422 -0.4209 -0.6729  0.9526
  679TMC3    O110106   3.743   3.398   1.097  0.2099 -0.0196  0.2263
  679TMC3    O210107   3.399   3.488   1.416  0.5563  0.2041 -0.1560
  680MPD2     C10108   3.438   2.043  13.489 -0.0063 -0.4586 -0.1510
  680MPD2    C110109   3.564   2.006  13.545  0.4644 -0.5778  0.0201
  680MPD2    C210110   3.644   2.106  13.604 -0.5534 -0.0927 -0.0621
  680MPD2    C310111   3.610   2.240  13.618  0.0311  0.0239 -1.2138
  680MPD2    C410112   3.492   2.276  13.568  0.4344 -0.4102 -0.1733
  680MPD2    C510113   3.413   2.177  13.504  0.2090  0.2416 -0.0490
  680MPD2     H10114   3.738   2.061  13.633 -0.6369  0.5646  1.2406
  680MPD2    H110115   3.457   2.377  13.584 -0.7678 -0.5489 -1.9331
  680MPD2    H210116   3.364   1.989  13.431 -0.0054  0.1499 -0.7246
  680MPD2    H310117   3.323   2.216  13.459  0.5874  0.9353 -0.1968
  680MPD2     N10118   3.687   2.337  13.684  0.1255  0.8682 -0.0357
  680MPD2    H510119   3.655   2.433  13.694  1.5084  1.4326 -1.0264
  680MPD2    N110120   3.632   1.884  13.522  0.2602 -0.0987  0.1437
  680MPD2    H710121   3.729   1.881  13.554  0.0435 -1.2110  0.6813
  681TMC3    C110122   3.663   1.665  13.518  0.3622 -0.5926 -0.3764
  681TMC3    C210123   3.632   1.633  13.644  0.5912 -0.2416  0.3399
  681TMC3    C310124   3.728   1.639  13.749 -0.0234  1.3345  0.2416
  681TMC3    C410125   3.793   1.691  13.490 -0.9488 -0.0514 -0.4818
  681TMC3    C510126   3.889   1.670  13.583 -0.7424 -0.1752 -0.1238
  681TMC3    C610127   3.859   1.656  13.716  0.1279 -0.3950  0.1989
  681TMC3     C10128   3.572   1.771  13.477  0.0217 -0.7828 -0.6653
  681TMC3     O10129   3.453   1.751  13.454 -0.2736  0.4571 -0.2008
  681TMC3     H10130   3.527   1.634  13.669  0.4525 -0.6082 -0.2279
  681TMC3    H110131   3.811   1.705  13.384  1.4570  0.1115 -0.0572
  681TMC3    H210132   3.935   1.653  13.793  2.0078 -0.6887 -1.6771
  681TMC3    C710133   4.028   1.669  13.544 -0.1026  0.0503 -0.0232
  681TMC3    C810134   3.677   1.717  13.858  0.0020 -0.1425 -0.1846
  681TMC3    O110135   4.103   1.633  13.632 -0.2451  0.8555  0.0648
  681TMC3    O210136   3.556   1.708  13.880 -0.0767  0.1680 -0.2143
  682MPD2     C10137   0.918   4.538  11.026 -0.2393  0.1386  0.3069
  682MPD2    C110138   0.820   4.451  10.981 -1.1809 -0.3605 -0.4398
  682MPD2    C210139   0.729   4.392  11.070 -0.5379  0.2581  0.0607
  682MPD2    C310140   0.754   4.409  11.206  0.3780  0.9895  0.3727
  682MPD2    C410141   0.847   4.492  11.249 -0.3029 -0.5720  0.1449
  682MPD2    C510142   0.927   4.560  11.158  0.0997  0.5996 -0.3662
  682MPD2     H10143   0.644   4.337  11.032  0.6472 -1.1198 -0.6239
  682MPD2    H110144   0.853   4.511  11.356  1.4626  1.4608 -0.3117
  682MPD2    H210145   0.986   4.593  10.962 -1.3618  0.8597 -0.2645
  682MPD2    H310146   0.992   4.633  11.204  0.2884  1.1806 -1.5525
  682MPD2     N10147   0.671   4.343  11.311 -0.7040  0.0337  0.0027
  682MPD2    H510148   0.705   4.348  11.406  0.5945  1.4765 -0.5501
  682MPD2    N110149   0.802   4.410  10.849  0.0622 -0.6698 -0.1789
  682MPD2    H710150   0.736   4.336  10.826  1.0971 -1.8897  0.7734
  683TMC3    C110151   0.734   4.038  11.508  0.6423 -0.6115 -0.1065
  683TMC3    C210152   0.715   3.923  11.438 -0.0699  0.3215 -0.3033
  683TMC3    C310153   0.612   3.914  11.345  0.1233 -0.0818  0.0534
  683TMC3    C410154   0.665   4.150  11.468  0.4469 -0.0321  0.3204
  683TMC3    C510155   0.570   4.142  11.370  0.5101  0.2807  0.1192
  683TMC3    C610156   0.544   4.024  11.302 -0.0223 -0.0859 -0.3512
  683TMC3     C10157   0.872   4.067  11.531 -0.0463 -0.2375  0.0689
  683TMC3     O10158   0.935   4.057  11.427  0.2650 -0.1512  0.1582
  683TMC3     H10159   0.772   3.839  11.476 -0.4089  1.7235  3.3210
  683TMC3    H110160   0.662   4.237  11.532  1.1311  0.9407 -0.9621
  683TMC3    H210161   0.465   4.022  11.228  0.1097  1.1479 -0.5254
  683TMC3    C710162   0.565   4.256  11.286 -1.0434  0.2560 -0.5590
  683TMC3    C810163   0.563   3.779  11.303  0.0960  0.3427 -0.1474
  683TMC3    O110164   0.504   4.244  11.184  0.2032 -0.5453  0.4200
  683TMC3    O210165   0.470   3.764  11.224  0.1534 -0.1888 -0.4561
  684MPD2     C10166   3.658   3.037  16.407  1.0300  0.2257  0.1138
  684MPD2    C110167   3.714   3.034  16.283  0.7183 -0.1387 -0.5276
  684MPD2    C210168   3.798   3.136  16.240  0.5988  0.0468  0.2447
  684MPD2    C310169   3.818   3.247  16.317 -0.1563  0.2768  0.2249
  684MPD2    C410170   3.757   3.250  16.438 -0.2109 -0.8884  0.0812
  684MPD2    C510171   3.676   3.150  16.480  0.1778  0.0780 -0.0234
  684MPD2     H10172   3.860   3.116  16.153 -0.0071 -0.3684 -0.0864
  684MPD2    H110173   3.757   3.333  16.508  1.8655 -0.5471 -0.3241
  684MPD2    H210174   3.594   2.955  16.437 -1.4410  1.6226 -1.3526
  684MPD2    H310175   3.623   3.173  16.571 -0.3982  1.2772 -0.6736
  684MPD2     N10176   3.894   3.352  16.272  0.0473  0.1872 -0.1300
  684MPD2    H510177   3.915   3.421  16.343  0.4290 -1.6011  1.5063
  684MPD2    N110178   3.708   2.911  16.210  0.1801  0.2179 -0.0994
  684MPD2    H710179   3.758   2.910  16.121 -0.5194  3.7564 -0.5038
  685TMC3    C110180   3.630   2.706  16.117  0.8659 -0.7884  0.4052
  685TMC3    C210181   3.518   2.667  16.052  0.1449  0.2010 -0.4732
  685TMC3    C310182   3.531   2.602  15.933  0.4598 -0.3943  0.1663
  685TMC3    C410183   3.753   2.679  16.070 -0.3871  0.1215 -0.0592
  685TMC3    C510184   3.764   2.600  15.965  0.8566  0.7672  0.7382
  685TMC3    C610185   3.654   2.564  15.888 -0.4325 -0.1310 -0.4573
  685TMC3     C10186   3.623   2.801  16.224  0.2247 -0.5810  0.0809
  685TMC3     O10187   3.547   2.771  16.313  0.1408 -0.1643  0.1353
  685TMC3     H10188   3.426   2.678  16.108 -1.5601 -1.6479 -2.8717
  685TMC3    H110189   3.840   2.707  16.129 -0.7108 -0.9596  0.9332
  685TMC3    H210190   3.681   2.531  15.788  1.0435 -2.3852  0.6780
  685TMC3    C710191   3.885   2.625  15.892  0.1542  0.1573 -1.0849
  685TMC3    C810192   3.422   2.586  15.842  0.0963  0.4671  0.7104
  685TMC3    O110193   3.947   2.728  15.938 -0.1320  0.3953 -0.9705
  685TMC3    O210194   3.428   2.519  15.741  1.0547 -0.5078 -0.4273
  686MPD2     C10195   0.222   2.925  15.126 -0.2609 -0.5903  0.4192
  686MPD2    C110196   0.315   2.892  15.226 -0.2576  0.4267  0.0527
  686MPD2    C210197   0.436   2.838  15.185  0.7247 -0.2260  0.0925
  686MPD2    C310198   0.455   2.803  15.052 -0.9247  0.1822 -0.2459
  686MPD2    C410199   0.369   2.854  14.958 -0.2348 -0.2235  0.3548
  686MPD2    C510200   0.260   2.921  15.000 -0.1477 -0.0839 -0.3523
  686MPD2     H10201   0.519   2.827  15.254 -0.3004  2.0469  1.7171
  686MPD2    H110202   0.393   2.843  14.853  1.2797 -2.0722  0.8758
  686MPD2    H210203   0.118   2.947  15.145 -0.2988 -1.5092  1.2971
  686MPD2    H310204   0.190   2.955  14.925 -0.2461 -0.0486 -0.2444
  686MPD2     N10205   0.568   2.727  15.006  0.2357  0.2595  0.7518
  686MPD2    H510206   0.592   2.746  14.909  0.7682  1.5484  1.1385
  686MPD2    N110207   0.269   2.901  15.358 -0.1020  0.4154  0.1820
  686MPD2    H710208   0.183   2.952  15.375 -0.3725  0.5456 -1.5613
  687TMC3    C110209   0.591   2.586  15.208 -0.7310  0.8029 -0.7042
  687TMC3    C210210   0.456   2.544  15.226 -0.3823  0.7372  0.1528
  687TMC3    C310211   0.428   2.482  15.346 -0.0390  0.0904  0.2346
  687TMC3    C410212   0.681   2.572  15.308  0.0312  0.5229  0.4102
  687TMC3    C510213   0.638   2.520  15.430 -0.5171 -0.3894  0.5263
  687TMC3    C610214   0.514   2.474  15.448 -0.3063 -1.0478 -0.0654
  687TMC3     C10215   0.639   2.631  15.079 -0.1893 -0.2732  0.7350
  687TMC3     O10216   0.742   2.578  15.042  0.2605  0.4947  0.5487
  687TMC3     H10217   0.387   2.548  15.143 -0.0619 -1.7507 -0.2197
  687TMC3    H110218   0.784   2.597  15.287  0.2629 -1.6391 -1.0506
  687TMC3    H210219   0.485   2.427  15.542 -0.7903 -0.0822  0.2715
  687TMC3    C710220   0.743   2.492  15.531  0.8276 -0.0079  0.9476
  687TMC3    C810221   0.292   2.445  15.377  0.0895  0.0731  0.7233
  687TMC3    O110222   0.863   2.498  15.507 -0.2488 -0.3597  0.0691
  687TMC3    O210223   0.277   2.373  15.472 -0.1552 -1.0299 -0.1603
  688MPD2     C10224   4.235   1.645  17.141 -0.3636  0.1254 -0.2660
  688MPD2    C110225   4.308   1.558  17.215 -0.4412  0.2867  0.9290
  688MPD2    C210226   4.407   1.486  17.146 -0.6374 -0.2399  0.0737
  688MPD2    C310227   4.451   1.515  17.017  0.5907 -0.4073 -0.3257
  688MPD2    C410228   4.371   1.606  16.950 -0.2682  0.2729 -0.5104
  688MPD2    C510229   4.260   1.653  17.009 -0.0023  0.4457  0.7523
  688MPD2     H10230   4.452   1.404  17.202  2.2808  1.3696  0.1090
  688MPD2    H110231   4.394   1.635  16.847  0.3253 -0.9692 -0.7240
  688MPD2    H210232   4.145   1.687  17.185 -0.7798 -2.3925  1.2309
  688MPD2    H310233   4.192   1.718  16.955 -0.1251 -1.9967 -2.0211
  688MPD2     N10234   4.569   1.468  16.964  0.2325  0.3441  0.0604
  688MPD2    H510235   4.597   1.512  16.876 -1.5409 -0.7119 -1.0249
  688MPD2    N110236   4.282   1.517  17.345  0.3837  0.0767  0.0611
  688MPD2    H710237   4.326   1.430  17.373  0.7479  0.2821  0.1190
  689TMC3    C110238   4.178   1.522  17.555 -0.5215  0.2476 -0.0746
  689TMC3    C210239   4.167   1.600  17.663  0.5150  0.4599 -0.0508
  689TMC3    C310240   4.149   1.540   0.059 -0.2031 -0.1732 -0.1491
  689TMC3    C410241   4.169   1.388  17.563  0.2799  0.7579 -0.0186
  689TMC3    C510242   4.174   1.332  17.687  0.3577 -0.6904  0.2624
  689TMC3    C610243   4.158   1.402   0.073 -0.5541 -0.5836  0.0514
  689TMC3     C10244   4.194   1.588  17.427  0.2940 -0.3813 -0.3451
  689TMC3     O10245   4.158   1.704  17.425 -0.2613  0.3473 -0.1088
  689TMC3     H10246   4.177   1.707  17.647  1.2440  0.0060 -2.6390
  689TMC3    H110247   4.188   1.334  17.471 -0.1763 -0.1603  0.4249
  689TMC3    H210248   4.145   1.354   0.169 -1.3106 -1.7605 -0.6423
  689TMC3    C710249   4.168   1.190  17.705  0.5112  0.6321  0.0629
  689TMC3    C810250   4.093   1.621   0.170 -0.1384 -0.5490 -0.0877
  689TMC3    O110251   4.195   1.143   0.087 -0.3051  0.0755 -0.1733
  689TMC3    O210252   4.113   1.567   0.277 -0.4954 -0.0139  0.3779
  690MPD2     C10253   1.836   3.487  15.381 -0.1358  0.1865  0.5684
  690MPD2    C110254   1.948   3.476  15.454  0.1426 -0.6580 -0.3585
  690MPD2    C210255   2.069   3.481  15.386 -0.1049  0.3740 -0.0685
  690MPD2    C310256   2.082   3.505  15.254  1.0662  0.0344  0.4942
  690MPD2    C410257   1.965   3.533  15.183 -0.9711 -0.6691 -0.6527
  690MPD2    C510258   1.842   3.526  15.246  0.1957  0.0120  0.4404
  690MPD2     H10259   2.160   3.472  15.443 -1.4092 -4.0150  1.3397
  690MPD2    H110260   1.971   3.574  15.083 -0.1971  1.7153  0.3689
  690MPD2    H210261   1.733   3.483  15.415 -0.6587  3.6776 -0.6148
  690MPD2    H310262   1.753   3.566  15.198 -0.1520 -0.8937  0.3392
  690MPD2     N10263   2.214   3.528  15.206 -0.2840  0.2608 -0.0916
  690MPD2    H510264   2.296   3.501  15.260  0.9801 -1.3751 -2.7554
  690MPD2    N110265   1.940   3.455  15.594  0.3512  0.0893 -0.0118
  690MPD2    H710266   2.029   3.443  15.642 -0.1715  1.0178  1.2048
  691TMC3    C110267   1.859   3.429  15.820  0.4240  0.6716 -1.0060
  691TMC3    C210268   1.816   3.517  15.919  0.1176  0.7804  0.1430
  691TMC3    C310269   1.850   3.482  16.045 -0.2359  0.3699  0.0106
  691TMC3    C410270   1.930   3.314  15.844 -0.0949  0.3679  0.8232
  691TMC3    C510271   1.951   3.274  15.970 -0.5011 -0.1278  0.2168
  691TMC3    C610272   1.925   3.363  16.074 -0.1486 -0.5084 -0.1840
  691TMC3     C10273   1.828   3.459  15.674  0.3667  0.5031 -0.1847
  691TMC3     O10274   1.722   3.517  15.652 -0.0656 -0.3290 -0.3152
  691TMC3     H10275   1.777   3.611  15.879 -0.4003  0.1501 -0.8304
  691TMC3    H110276   1.942   3.243  15.763 -0.0665 -0.3896  1.4899
  691TMC3    H210277   1.945   3.335  16.177 -3.8321  2.1561  1.2437
  691TMC3    C710278   1.949   3.137  16.012 -0.2169 -0.4466  0.0276
  691TMC3    C810279   1.789   3.560  16.152 -0.1949 -0.5562 -0.2166
  691TMC3    O110280   1.968   3.113  16.129 -0.2147  0.4671 -0.6968
  691TMC3    O210281   1.839   3.546  16.261 -0.1693 -0.0966 -0.4804
  692TMC3    C110282   3.756   4.620  15.678  1.1035  0.1587 -0.1776
  692TMC3    C210283   3.842   4.635  15.775 -0.5687 -0.2909  0.4787
  692TMC3    C310284   3.923   4.535  15.816 -0.5388  0.0880 -0.1220
  692TMC3    C410285   3.758   4.506  15.598  0.6961  0.0303  0.2174
  692TMC3    C510286   3.839   4.404  15.636  0.2952  0.3926  0.0111
  692TMC3    C610287   3.914   4.417  15.752  0.5699  0.0270 -0.2244
  692TMC3     C10288   3.647   4.714  15.673  0.3521 -0.3765  0.4177
  692TMC3     O10289   3.539   4.683  15.625  0.6643  0.6525 -0.5998
  692TMC3     H10290   3.804   4.699  15.854  1.0189  1.6302 -0.2899
  692TMC3    H110291   3.679   4.495  15.526 -1.0020  3.7907  1.4884
  692TMC3    H210292   3.998   4.349  15.766  0.6013  0.2135  0.5210
  692TMC3    C710293   3.831   4.281  15.564 -0.8062 -0.4996 -0.0747
  692TMC3    C810294   3.955   4.531  15.962  0.1283 -0.7933  0.8474
  692TMC3    O110295   3.772   4.270  15.456  0.1390 -0.1915  0.1273
  692TMC3    O210296   3.979   4.418  16.000  0.6575  0.4131  0.7643
  693MPD2     C10297   2.961   3.149  10.674 -0.0590  0.0371  0.3237
  693MPD2    C110298   2.933   3.096  10.798 -0.0380  0.2388 -0.1446
  693MPD2    C210299   3.035   3.090  10.892  0.3019 -0.0641  0.3993
  693MPD2    C310300   3.154   3.147  10.865  0.4005  0.4604  0.8698
  693MPD2    C410301   3.185   3.196  10.742  0.1798 -0.6639  0.4611
  693MPD2    C510302   3.087   3.193  10.645 -0.0834 -0.7313 -0.3027
  693MPD2     H10303   3.012   3.048  10.989 -2.2681  0.2471 -0.0692
  693MPD2    H110304   3.283   3.236  10.721 -1.6022  1.2264 -4.3316
  693MPD2    H210305   2.886   3.156  10.596  1.4926  0.1086 -1.1622
  693MPD2    H310306   3.115   3.235  10.550 -0.8924  2.1702  0.7569
  693MPD2     N10307   3.256   3.131  10.958 -0.0456 -0.0564  0.7332
  693MPD2    H510308   3.346   3.142  10.911 -0.9909  1.4108 -0.7289
  693MPD2    N110309   2.809   3.040  10.842  0.0446 -0.1315 -0.9807
  693MPD2    H710310   2.811   3.002  10.936  0.2384 -3.7765 -2.4475
  694TMC3    C110311   2.583   2.946  10.814 -0.4850  0.4788 -0.1044
  694TMC3    C210312   2.489   2.901  10.727  0.5063 -0.2550 -0.0170
  694TMC3    C310313   2.392   2.814  10.769 -0.7305 -0.6977  0.5983
  694TMC3    C410314   2.585   2.916  10.951  0.3835  0.1373 -0.3629
  694TMC3    C510315   2.482   2.837  10.991 -0.0799  0.5507  0.5226
  694TMC3    C610316   2.394   2.770  10.900  0.4617 -0.1802 -0.0633
  694TMC3     C10317   2.695   3.030  10.763 -0.4638 -0.7903  0.1221
  694TMC3     O10318   2.681   3.061  10.646  0.2812  0.4619 -1.1097
  694TMC3     H10319   2.500   2.912  10.620 -1.9150  2.0442 -0.0301
  694TMC3    H110320   2.648   2.963  11.026 -1.0894  1.3945  0.0977
  694TMC3    H210321   2.320   2.695  10.924 -0.5548  0.8563  0.0612
  694TMC3    C710322   2.479   2.807  11.128  0.3521 -1.4432 -0.1323
  694TMC3    C810323   2.296   2.749  10.671  0.0727 -0.4525 -0.0175
  694TMC3    O110324   2.583   2.808  11.192  0.4397 -0.0564  0.1203
  694TMC3    O210325   2.245   2.641  10.696 -0.0082  0.1965 -0.2598
  695MPD2     C10326   3.722   4.036  14.042  0.4591  0.6506 -0.2882
  695MPD2    C110327   3.734   4.109  14.162 -0.9325  0.6351 -0.6250
  695MPD2    C210328   3.610   4.138  14.223  0.3885  0.1427 -1.0950
  695MPD2    C310329   3.484   4.103  14.183  0.3931 -0.1953  0.7428
  695MPD2    C410330   3.478   4.026  14.064 -0.0701 -0.0930  1.0678
  695MPD2    C510331   3.602   3.999  13.999  0.1663  0.3870  0.6012
  695MPD2     H10332   3.608   4.195  14.315 -0.9211  0.2828 -1.2048
  695MPD2    H110333   3.392   3.975  14.023 -1.2476  1.8900  1.0581
  695MPD2    H210334   3.806   3.996  13.987 -0.6749 -1.6368 -0.3599
  695MPD2    H310335   3.601   3.945  13.905 -0.8429 -1.1964  1.5314
  695MPD2     N10336   3.375   4.150  14.255 -0.4060  0.0964 -0.5053
  695MPD2    H510337   3.398   4.215  14.329  1.4289  1.1364 -2.0162
  695MPD2    N110338   3.850   4.159  14.220 -0.1666  0.2594  0.2544
  695MPD2    H710339   3.831   4.221  14.298  1.6696 -0.5075  1.2998
  696TMC3    C110340   3.157   4.177  14.326  0.0318 -0.5254 -0.3007
  696TMC3    C210341   3.216   4.251  14.425  0.3706  0.2151 -0.2361
  696TMC3    C310342   3.184   4.380  14.443  0.0414 -0.2205 -0.5756
  696TMC3    C410343   3.053   4.233  14.259 -0.0289  0.5473 -0.4745
  696TMC3    C510344   3.008   4.353  14.299  0.2708 -0.9858 -0.0731
  696TMC3    C610345   3.062   4.430  14.397 -0.6533  0.0417  0.5239
  696TMC3     C10346   3.245   4.118  14.234 -0.1723  0.0349 -0.1617
  696TMC3     O10347   3.203   4.054  14.141 -0.2036 -0.0509 -0.5392
  696TMC3     H10348   3.299   4.215  14.486 -0.7325  0.2691  1.2927
  696TMC3    H110349   3.036   4.194  14.159 -2.3098 -1.6261  0.7732
  696TMC3    H210350   3.014   4.522  14.427 -3.0776 -0.8126 -0.7601
  696TMC3    C710351   2.933   4.421  14.198 -0.3536 -0.1510  0.0306
  696TMC3    C810352   3.302   4.467  14.430  0.4079 -0.2942  0.2125
  696TMC3    O110353   2.876   4.348  14.119 -0.0716 -0.1320 -0.1601
  696TMC3    O210354   3.404   4.409  14.396 -0.1450 -0.3257 -0.0231
  697MPD2     C10355   3.184   1.597  15.561 -0.8800  0.0049 -0.3765
  697MPD2    C110356   3.238   1.540  15.445  0.0063 -0.6290 -0.5114
  697MPD2    C210357   3.283   1.627  15.346 -0.0782  0.1005  0.4576
  697MPD2    C310358   3.281   1.763  15.361  0.3592 -0.4224 -0.0280
  697MPD2    C410359   3.231   1.817  15.480 -0.3171 -0.1224  0.2646
  697MPD2    C510360   3.183   1.737  15.574  0.4410  0.3708  0.0230
  697MPD2     H10361   3.329   1.574  15.262 -1.2773 -2.4063  1.3770
  697MPD2    H110362   3.246   1.921  15.505  2.7236 -0.6032  0.3927
  697MPD2    H210363   3.148   1.545  15.650  1.3139 -1.9896 -0.6687
  697MPD2    H310364   3.161   1.773  15.674 -1.4198 -1.4347  0.2876
  697MPD2     N10365   3.336   1.836  15.251 -0.4244  0.0141 -0.1308
  697MPD2    H510366   3.360   1.787  15.165 -2.3049 -0.1614 -0.5378
  697MPD2    N110367   3.243   1.405  15.423  0.2493 -0.5685 -0.5337
  697MPD2    H710368   3.290   1.373  15.338 -1.9595 -1.3198 -1.4786
  698TMC3    C110369   3.438   2.035  15.168  0.1631  0.4673  0.7871
  698TMC3    C210370   3.500   2.150  15.218  0.9346 -0.9566  0.0939
  698TMC3    C310371   3.614   2.187  15.151 -0.3968  0.8120 -0.5561
  698TMC3    C410372   3.468   1.967  15.052  0.2368 -0.0925 -0.5729
  698TMC3    C510373   3.574   2.021  14.980  0.2627 -0.3925 -0.4618
  698TMC3    C610374   3.650   2.126  15.034  0.3624  0.9659  0.1078
  698TMC3     C10375   3.351   1.973  15.265 -0.8288 -0.3645 -0.3437
  698TMC3     O10376   3.312   2.048  15.350  0.4580 -0.2787  0.6081
  698TMC3     H10377   3.481   2.199  15.313 -2.4308  0.5981 -1.4125
  698TMC3    H110378   3.397   1.895  15.012 -0.0786 -1.0683  1.7002
  698TMC3    H210379   3.740   2.163  14.985 -1.2118  2.3548 -1.6931
  698TMC3    C710380   3.566   2.008  14.840 -0.9766 -0.4323 -0.1911
  698TMC3    C810381   3.706   2.267  15.228 -0.0202 -0.2662 -0.5841
  698TMC3    O110382   3.454   1.987  14.797 -0.9353 -0.0023 -0.0147
  698TMC3    O210383   3.694   2.270  15.350 -0.1596  0.4920 -0.2513
  699TMC3    C110384   3.358   0.186  13.257 -0.5875 -0.0478 -0.0591
  699TMC3    C210385   3.405   0.086  13.335 -0.4503  0.9015  0.6218
  699TMC3    C310386   3.322   0.046  13.435  0.0090  0.3016 -0.1499
  699TMC3    C410387   3.237   0.247  13.270  0.5645 -1.3139 -0.6083
  699TMC3    C510388   3.162   0.208  13.380  0.2998 -0.1296  0.0520
  699TMC3    C610389   3.207   0.116  13.467  0.2437 -0.1864 -0.4246
  699TMC3     C10390   3.432   0.219  13.132 -0.1252 -0.0674 -0.0451
  699TMC3     O10391   3.382   0.306  13.064 -0.0888  0.0955  0.7855
  699TMC3     H10392   3.493   0.029  13.308 -0.1363  1.2996  0.8095
  699TMC3    H110393   3.207   0.319  13.195 -1.2475 -0.4898  0.9302
  699TMC3    H210394   3.143   0.081  13.547  0.0952  1.1320  0.0364
  699TMC3    C710395   3.021   0.259  13.383  0.7244 -0.7277  0.2945
  699TMC3    C810396   3.358   4.662  13.510  0.3930  0.9017 -0.8744
  699TMC3    O110397   2.968   0.241  13.488 -0.0115 -0.6655 -0.2594
  699TMC3    O210398   3.264   4.605  13.567 -0.2136  0.3399 -0.1229
  700TMC3    C110399   2.349   2.083  17.618 -0.3741  0.1341  0.4413
  700TMC3    C210400   2.404   1.983  17.541  0.3669 -1.2006 -0.3741
  700TMC3    C310401   2.523   1.925  17.572  0.2781 -0.0599  0.6647
  700TMC3    C410402   2.425   2.132  17.715  0.1919 -0.1416  0.1279
  700TMC3    C510403   2.547   2.077   0.017 -0.3493 -0.1944  0.3509
  700TMC3    C610404   2.600   1.970  17.669  0.2360  0.3130  0.4221
  700TMC3     C10405   2.275   2.186  17.551 -0.0649  0.0859  0.9683
  700TMC3     O10406   2.153   2.178  17.556 -0.2451  0.2063 -0.1863
  700TMC3     H10407   2.342   1.951  17.458 -3.5230  0.9392  1.7178
  700TMC3    H110408   2.405   2.228   0.035 -0.9670 -1.1279  1.6094
  700TMC3    H210409   2.697   1.927  17.690  1.1453  1.5066 -1.3026
  700TMC3    C710410   2.626   2.151   0.111 -1.0820  0.5372 -0.0094
  700TMC3    C810411   2.563   1.797  17.521 -0.0653 -1.1741  0.2022
  700TMC3    O110412   2.748   2.151   0.087 -0.6552  0.5715  0.3132
  700TMC3    O210413   2.680   1.764  17.538  0.1001  0.2005 -0.3728
  701TMC3    C110414   2.698   0.727  15.412 -0.0426  0.1208 -0.9096
  701TMC3    C210415   2.738   0.706  15.275  0.0650 -0.7738 -0.0306
  701TMC3    C310416   2.854   0.768  15.235  0.7453 -0.6880 -0.6489
  701TMC3    C410417   2.762   0.821  15.493 -0.1091 -0.0460  0.0787
  701TMC3    C510418   2.862   0.894  15.425 -0.6447 -0.5929  0.4010
  701TMC3    C610419   2.920   0.861  15.307  0.2104 -0.2817  0.1232
  701TMC3     C10420   2.621   0.630  15.481 -0.5630 -1.0909  0.4308
  701TMC3     O10421   2.620   0.638  15.606 -0.5115  0.0882 -0.1877
  701TMC3     H10422   2.705   0.624  15.213  1.1847 -1.8816  0.8242
  701TMC3    H110423   2.720   0.846  15.590  1.1390  1.4716  0.2154
  701TMC3    H210424   2.998   0.920  15.259  2.1919 -2.5715  0.5069
  701TMC3    C710425   2.866   1.038  15.453 -0.5607  0.5869 -0.4146
  701TMC3    C810426   2.867   0.779  15.089  0.2080 -0.5969 -0.5119
  701TMC3    O110427   2.888   1.104  15.354 -0.4148  0.2769  0.7204
  701TMC3    O210428   2.969   0.821  15.039 -0.0646  0.5830 -0.0108
  702MPD2     C10429   2.024   3.363  10.205 -0.3599 -0.4464 -0.1923
  702MPD2    C110430   1.929   3.454  10.240 -0.4286  0.5434  0.2378
  702MPD2    C210431   1.906   3.563  10.161 -0.5588 -0.3229 -0.0453
  702MPD2    C310432   1.985   3.588  10.053 -0.5521 -0.0538  0.1790
  702MPD2    C410433   2.088   3.502  10.021 -0.0577 -0.8138  0.3056
  702MPD2    C510434   2.107   3.383  10.096  0.0098 -0.4821  0.1371
  702MPD2     H10435   1.823   3.626  10.192 -0.7084 -1.4666  1.8836
  702MPD2    H110436   2.158   3.520   9.941  0.5312  2.5840  1.6041
  702MPD2    H210437   2.041   3.266  10.251 -1.2438 -1.3080 -1.6802
  702MPD2    H310438   2.183   3.311  10.065  1.1644  0.0687  1.7131
  702MPD2     N10439   1.979   3.709   9.977  0.0903  0.2875  0.2713
  702MPD2    H510440   2.060   3.741   9.925  0.1048 -1.2562 -0.6573
  702MPD2    N110441   1.855   3.435  10.357 -0.4660  0.7862  0.0576
  702MPD2    H710442   1.804   3.518  10.384  0.6351  1.4321  0.1398
  703TMC3    C110443   1.916   3.935   9.927 -0.4484  0.2051  0.1452
  703TMC3    C210444   1.879   4.041  10.003  0.2837 -0.6722 -0.8353
  703TMC3    C310445   1.927   4.159   9.968  0.3317 -0.2109  0.7223
  703TMC3    C410446   2.022   3.943   9.841  0.1170  0.1047  0.0611
  703TMC3    C510447   2.089   4.058   9.829 -0.8247  0.0122  0.2658
  703TMC3    C610448   2.038   4.174   9.888  0.3770  0.9776  0.0089
  703TMC3     C10449   1.878   3.801   9.978  0.9348 -0.2426  0.4823
  703TMC3     O10450   1.773   3.785  10.044  0.5907 -0.2043 -0.5078
  703TMC3     H10451   1.813   4.021  10.086 -0.3783 -0.4635 -1.3084
  703TMC3    H110452   2.058   3.862   9.779 -0.0944 -0.4423  0.6605
  703TMC3    H210453   2.072   4.271   9.853 -1.0661  0.9520 -1.4729
  703TMC3    C710454   2.229   4.058   9.790 -0.7221  0.7126 -0.1035
  703TMC3    C810455   1.889   4.280  10.044 -0.5128 -0.0813 -0.1646
  703TMC3    O110456   2.258   3.953   9.736  0.3745 -0.0569 -0.3037
  703TMC3    O210457   1.942   4.394  10.023 -0.1292 -0.4112 -0.1121
  704TMC3    C110458   4.301   1.566  12.089 -0.2630 -0.2853  0.7306
  704TMC3    C210459   4.418   1.594  12.025  0.2384 -0.5315 -0.0095
  704TMC3    C310460   4.528   1.528  12.064 -0.5126  1.2261  0.4033
  704TMC3    C410461   4.294   1.479  12.200 -0.4897 -0.3060  0.1770
  704TMC3    C510462   4.411   1.433  12.248 -0.2224 -0.3534 -0.1484
  704TMC3    C610463   4.527   1.460  12.186  0.3968 -0.8459 -0.1200
  704TMC3     C10464   4.170   1.610  12.034  0.9169 -0.3345 -0.0597
  704TMC3     O10465   4.063   1.576  12.082  0.2757 -0.8528 -0.3010
  704TMC3     H10466   4.424   1.639  11.926 -1.0739 -0.4901 -0.0667
  704TMC3    H110467   4.197   1.449  12.237 -1.0949  1.5497  0.0920
  704TMC3    H210468   4.617   1.408  12.218  0.8647  1.4703  2.3506
  704TMC3    C710469   4.399   1.330  12.357  0.2408  0.2971 -0.1464
  704TMC3    C810470   4.621   1.457  11.976  0.5249  0.2346 -0.3561
  704TMC3    O110471   4.498   1.261  12.363 -0.9947  0.4704  0.3324
  704TMC3    O210472   4.640   1.339  12.001  0.6313 -0.5929  0.5238
  705MPD2     C10473   4.047   4.351  16.610  0.1687  0.4010  0.2433
  705MPD2    C110474   3.981   4.297  16.509  0.1730  0.2187 -0.2764
  705MPD2    C210475   3.850   4.326  16.483 -0.0884 -0.1405  0.3801
  705MPD2    C310476   3.782   4.420  16.562 -0.1725  0.1972  0.9256
  705MPD2    C410477   3.854   4.471  16.671 -0.3870 -0.2421  0.2368
  705MPD2    C510478   3.984   4.437  16.692 -0.2348 -0.3050  0.0500
  705MPD2     H10479   3.802   4.290  16.393  0.0270 -0.1443  0.3197
  705MPD2    H110480   3.812   4.540  16.742 -0.8214 -1.8534  1.5445
  705MPD2    H210481   4.152   4.336  16.634  0.4142 -0.3638 -1.2971
  705MPD2    H310482   4.037   4.496  16.766 -1.3757 -1.0902  1.5012
  705MPD2     N10483   3.649   4.459  16.525 -0.1274 -0.1900  0.2706
  705MPD2    H510484   3.611   4.432  16.435  1.6994 -0.9844 -0.2612
  705MPD2    N110485   4.041   4.219  16.406  0.0061 -0.2913 -0.6383
  705MPD2    H710486   3.982   4.217  16.324 -1.6102 -1.6023  0.5402
  706TMC3    C110487   4.363   4.099  16.109 -0.0012  0.2105 -0.8904
  706TMC3    C210488   4.353   4.207  16.027 -0.9234  0.3720  0.8251
  706TMC3    C310489   4.270   4.308  16.067 -0.0507  0.3369 -0.0205
  706TMC3    C410490   4.315   4.091  16.232  0.1734  0.3569  0.0509
  706TMC3    C510491   4.236   4.197  16.275 -0.2956  0.3446  0.6660
  706TMC3    C610492   4.207   4.298  16.188 -0.3513 -0.3102 -0.0451
  706TMC3     C10493   4.441   4.003  16.052 -0.0521 -0.0805  0.3721
  706TMC3     O10494   4.527   3.959  16.124  0.2911 -0.6177  0.1241
  706TMC3     H10495   4.421   4.215  15.942  0.7021  0.5814  2.1449
  706TMC3    H110496   4.341   4.010  16.299 -0.6505 -1.2863 -1.6123
  706TMC3    H210497   4.143   4.380  16.220  1.1605 -0.1328  2.5187
  706TMC3    C710498   4.179   4.194  16.410 -0.4240  0.0436  0.5002
  706TMC3    C810499   4.297   4.434  16.005 -0.6585  0.7467 -0.8571
  706TMC3    O110500   4.248   4.170  16.506  0.1637  0.1547 -0.1830
  706TMC3    O210501   4.320   4.439  15.883 -0.0888  0.3411 -0.3505
  707TMC3    C110502   0.869   3.644   1.327 -0.4564  0.1442  0.1511
  707TMC3    C210503   0.810   3.537   1.261  0.6617 -0.0460  0.0739
  707TMC3    C310504   0.677   3.546   1.241  0.4693 -0.0071  0.0697
  707TMC3    C410505   0.797   3.745   1.379 -0.0396 -0.2231  0.2531
  707TMC3    C510506   0.661   3.754   1.353  0.4489  0.1738 -0.4636
  707TMC3    C610507   0.598   3.648   1.291  0.3602  0.1969  0.4135
  707TMC3     C10508   1.008   3.611   1.371 -0.2137 -0.4478  0.4430
  707TMC3     O10509   1.075   3.536   1.304 -0.0093  0.0896  0.0271
  707TMC3     H10510   0.885   3.473   1.217  0.1841 -1.0033  0.6551
  707TMC3    H110511   0.849   3.832   1.419  0.0569  0.8058 -2.1109
  707TMC3    H210512   0.490   3.639   1.285  0.5006  0.1840 -1.9083
  707TMC3    C710513   0.591   3.871   1.405  0.0719 -0.1226  0.4489
  707TMC3    C810514   0.619   3.431   1.191  0.3268  0.1535  0.0391
  707TMC3    O110515   0.651   3.931   1.497  0.1838 -0.0338 -0.2095
  707TMC3    O210516   0.511   3.444   1.136  0.0315  0.2900 -0.1788
  708MPD2     C10517   2.529   3.048  12.992 -0.1722 -0.2635  0.3108
  708MPD2    C110518   2.602   2.936  13.021 -0.6041 -0.0551 -0.8715
  708MPD2    C210519   2.701   2.952  13.112  0.2466 -0.2476 -0.1123
  708MPD2    C310520   2.720   3.064  13.195  0.1643 -0.1033  0.5725
  708MPD2    C410521   2.622   3.160  13.191 -0.4753 -0.1790  0.3551
  708MPD2    C510522   2.533   3.152  13.084  0.3541  0.1384 -0.5099
  708MPD2     H10523   2.776   2.874  13.125  1.4424  0.8690 -0.2784
  708MPD2    H110524   2.620   3.253  13.247 -3.2427  0.8884 -1.5689
  708MPD2    H210525   2.450   3.037  12.918  0.9621  2.3160 -1.2723
  708MPD2    H310526   2.475   3.243  13.070 -1.5481 -0.8980  0.5824
  708MPD2     N10527   2.827   3.084  13.294 -0.0572  0.4945  0.2113
  708MPD2    H510528   2.826   3.166  13.354 -2.5609 -1.1465  2.4186
  708MPD2    N110529   2.592   2.823  12.933  0.4151  0.0999 -0.3659
  708MPD2    H710530   2.519   2.829  12.863 -0.8338  0.1039  0.9430
  709TMC3    C110531   2.609   2.581  12.887  0.4872 -0.5030 -0.0101
  709TMC3    C210532   2.604   2.572  12.750 -0.0653  0.3229  0.5099
  709TMC3    C310533   2.655   2.458  12.690  0.0167  0.6160  0.2208
  709TMC3    C410534   2.656   2.471  12.958  0.4708  0.5447 -0.1563
  709TMC3    C510535   2.720   2.365  12.895 -0.0720 -0.0827  0.6763
  709TMC3    C610536   2.712   2.358  12.758  0.1863  0.5307  0.2835
  709TMC3     C10537   2.665   2.703  12.947  0.0441 -0.5494  0.5657
  709TMC3     O10538   2.739   2.678  13.043  0.1636 -0.0950 -0.4705
  709TMC3     H10539   2.585   2.666  12.699 -1.3924  0.5247  1.3776
  709TMC3    H110540   2.643   2.457  13.065  0.7788 -1.0722 -0.3340
  709TMC3    H210541   2.748   2.264  12.717  1.9535  1.9081 -1.3194
  709TMC3    C710542   2.846   2.330  12.957  0.1204  0.0321 -0.8800
  709TMC3    C810543   2.620   2.436  12.555 -0.6155 -0.0629  0.6640
  709TMC3    O110544   2.904   2.225  12.924  0.2050  0.0389  0.3723
  709TMC3    O210545   2.675   2.340  12.513 -0.9019  0.4521  0.0660
  710TMC3    C110546   3.510   3.534   0.391  0.0869  0.6508 -0.1898
  710TMC3    C210547   3.605   3.547   0.290 -0.1209  0.3349  0.8259
  710TMC3    C310548   3.722   3.482   0.297  0.2184 -0.3279  0.1745
  710TMC3    C410549   3.526   3.454   0.503 -0.4096 -0.4176 -0.6089
  710TMC3    C510550   3.642   3.378   0.499 -0.2405 -0.4816  0.6153
  710TMC3    C610551   3.734   3.399   0.399  0.2827 -0.1022 -0.5316
  710TMC3     C10552   3.392   3.620   0.367  0.5305  0.2370 -0.7206
  710TMC3     O10553   3.373   3.665   0.259  0.5344  0.2396 -0.3740
  710TMC3     H10554   3.592   3.617   0.208 -1.1786  0.4190  1.0646
  710TMC3    H110555   3.445   3.419   0.566 -0.2083 -1.7099 -1.0551
  710TMC3    H210556   3.825   3.343   0.416 -0.0758 -0.3326  0.7015
  710TMC3    C710557   3.693   3.342   0.630 -0.1195  0.0294  0.2809
  710TMC3    C810558   3.843   3.561   0.276  0.6940  0.0546 -0.0449
  710TMC3    O110559   3.647   3.407   0.719 -0.1924  0.0141  0.2449
  710TMC3    O210560   3.945   3.500   0.256  0.6296  0.0503 -0.2790
  711TMC3    C110561   3.259   0.711  14.807  0.0832  0.3624  0.2822
  711TMC3    C210562   3.292   0.736  14.939 -0.7256  0.4387  0.1492
  711TMC3    C310563   3.422   0.720  14.979  0.4203  0.3155  0.2357
  711TMC3    C410564   3.352   0.679  14.720  0.1308  0.1800 -0.1467
  711TMC3    C510565   3.482   0.651  14.765  0.3075 -0.4653 -0.1476
  711TMC3    C610566   3.522   0.685  14.891 -0.3972 -0.7041 -1.0609
  711TMC3     C10567   3.154   0.612  14.810 -0.4420  1.2056 -0.0338
  711TMC3     O10568   3.117   0.573  14.701 -0.2894  1.5535  0.4864
  711TMC3     H10569   3.220   0.791  14.999 -1.2821  0.8859 -0.9299
  711TMC3    H110570   3.334   0.650  14.617 -0.4991 -0.8858  0.2704
  711TMC3    H210571   3.627   0.674  14.915 -0.4635 -0.1697 -0.5292
  711TMC3    C710572   3.511   0.514  14.756 -0.6292  0.3274 -0.3625
  711TMC3    C810573   3.428   0.656  15.110  0.2038  0.0424 -0.1289
  711TMC3    O110574   3.618   0.479  14.803 -0.3954  0.0773 -0.0863
  711TMC3    O210575   3.326   0.620  15.163 -0.2416  0.0846  0.7927
  712MPD2     C10576   4.422   0.964  13.550  0.7168  0.3374  0.2122
  712MPD2    C110577   4.360   1.079  13.596  0.6306 -0.6758  0.3250
  712MPD2    C210578   4.428   1.192  13.631 -0.0444 -0.1309 -0.0315
  712MPD2    C310579   4.564   1.193  13.613 -0.5046 -0.2170 -0.3693
  712MPD2    C410580   4.627   1.080  13.566 -0.0373 -0.1289  0.6956
  712MPD2    C510581   4.555   0.968  13.533 -0.1781 -0.3002  0.2988
  712MPD2     H10582   4.369   1.270  13.679 -1.0263 -0.7585 -0.2155
  712MPD2    H110583   0.003   1.079  13.557 -0.0818 -1.3148  0.2131
  712MPD2    H210584   4.367   0.871  13.535  1.1345  0.0912  0.1968
  712MPD2    H310585   4.603   0.879  13.494 -1.3376 -0.1255 -1.4970
  712MPD2     N10586   4.642   1.304  13.643  0.1897  0.1284  0.0180
  712MPD2    H510587   0.007   1.286  13.667 -0.2909  0.0358  1.8879
  712MPD2    N110588   4.221   1.097  13.600  1.1234  0.4140 -0.3872
  712MPD2    H710589   4.186   1.189  13.625  1.3415  0.3087  0.3203
  713TMC3    C110590   4.679   1.528  13.704 -0.2034 -0.0083  0.3565
  713TMC3    C210591   0.064   1.498  13.772  0.1329  0.1372 -0.7799
  713TMC3    C310592   0.142   1.600  13.817 -0.0770 -0.4877  0.3847
  713TMC3    C410593   4.634   1.655  13.695 -0.6278 -0.0721 -0.6146
  713TMC3    C510594   4.702   1.754  13.755 -1.1246  0.7407  0.0300
  713TMC3    C610595   0.090   1.727  13.811  0.7969 -0.3767 -0.6142
  713TMC3     C10596   4.584   1.425  13.652  0.4671 -0.1523 -0.2765
  713TMC3     O10597   4.471   1.467  13.630 -0.2146 -0.2448  0.8570
  713TMC3     H10598   0.110   1.400  13.765  0.3797  0.2615 -0.9086
  713TMC3    H110599   4.547   1.678  13.635 -0.2624 -0.0390 -1.1354
  713TMC3    H210600   0.150   1.808  13.850  0.2624 -0.2254 -0.1130
  713TMC3    C710601   4.680   1.892  13.722 -0.2215 -0.4936  0.2072
  713TMC3    C810602   0.277   1.598  13.772 -0.0058  0.2342  0.0913
  713TMC3    O110603   0.045   1.963  13.717 -0.0802  0.5287  0.1844
  713TMC3    O210604   0.333   1.702  13.737  0.3716 -0.2678 -0.4281
  714MPD2     C10605   1.826   4.656   1.284  0.0377  0.2770 -0.2006
  714MPD2    C110606   1.895   4.586   1.182 -0.2236  0.3439 -0.5808
  714MPD2    C210607   1.858   4.616   1.056 -0.5092 -0.1449  0.5147
  714MPD2    C310608   1.734   4.680   1.039 -0.0291  0.2646  0.3924
  714MPD2    C410609   1.664   0.008   1.135 -0.8618  0.2799 -0.0043
  714MPD2    C510610   1.711   4.721   1.259  0.3532 -0.9172  0.3606
  714MPD2     H10611   1.905   4.567   0.972 -0.5809 -1.4828  1.2538
  714MPD2    H110612   1.573   0.065   1.132 -1.0871 -0.0583  0.3559
  714MPD2    H210613   1.847   4.638   1.389 -2.9169 -1.8504  0.0215
  714MPD2    H310614   1.653   0.038   1.337 -0.3435 -2.2570  0.6895
  714MPD2     N10615   1.687   4.695   0.906  0.3834 -0.0354  0.6436
  714MPD2    H510616   1.746   4.666   0.829 -1.0304  1.4872 -1.0084
  714MPD2    N110617   1.999   4.505   1.222 -0.3634 -0.2024 -0.1014
  714MPD2    H710618   2.027   4.505   1.320 -1.7295 -1.5640  0.2929
  715TMC3    C110619   2.192   4.370   1.202  0.2671  0.5886  0.1326
  715TMC3    C210620   2.249   4.258   1.153 -0.0190 -0.2445 -0.2595
  715TMC3    C310621   2.361   4.209   1.215  0.0552  0.3628 -1.0928
  715TMC3    C410622   2.249   4.447   1.307  0.3876  0.8698  0.1752
  715TMC3    C510623   2.359   4.391   1.368 -0.0635 -0.3053 -0.5574
  715TMC3    C610624   2.418   4.273   1.323 -0.1030  0.2522 -0.1785
  715TMC3     C10625   2.076   4.421   1.131  0.1630 -0.1706 -0.1012
  715TMC3     O10626   2.061   4.409   1.011  0.2135 -0.0747 -0.1685
  715TMC3     H10627   2.207   4.201   1.071 -0.3362 -0.5374  0.1061
  715TMC3    H110628   2.210   4.538   1.350 -0.4201  0.8231 -0.4593
  715TMC3    H210629   2.510   4.234   1.365 -2.1884 -0.3508  3.7915
  715TMC3    C710630   2.417   4.446   1.496  0.2430 -0.1056  0.7062
  715TMC3    C810631   2.409   4.084   1.170 -0.2905 -0.2929 -0.3413
  715TMC3    O110632   2.528   4.402   1.523 -0.0842 -0.1434  0.4272
  715TMC3    O210633   2.357   4.027   1.073  0.2961 -0.0315 -0.2123
  716MPD2     C10634   2.022   4.598   9.713  0.2587  0.0511 -0.1478
  716MPD2    C110635   1.953   4.507   9.636  0.3537  0.1271 -0.4139
  716MPD2    C210636   2.024   4.414   9.562  0.3517  0.7690 -0.0370
  716MPD2    C310637   2.156   4.396   9.579 -0.5529 -0.6514 -0.4165
  716MPD2    C410638   2.223   4.479   9.665  0.1857 -0.2341  0.7812
  716MPD2    C510639   2.156   4.580   9.727 -0.0559  0.7281 -0.5621
  716MPD2     H10640   1.965   4.362   9.488  1.6010 -2.4504  1.2129
  716MPD2    H110641   2.329   4.474   9.691  0.7938 -1.0355 -1.8636
  716MPD2    H210642   1.974   4.674   9.773 -0.1825 -0.7353  0.5023
  716MPD2    H310643   2.220   4.642   9.789  2.4175 -0.8989 -1.4858
  716MPD2     N10644   2.228   4.290   9.515  0.5073  0.1741 -0.1196
  716MPD2    H510645   2.170   4.227   9.461 -1.1870  0.7786  1.0005
  716MPD2    N110646   1.813   4.526   9.633  0.0408  0.2966 -0.2674
  716MPD2    H710647   1.776   4.600   9.691 -0.5403 -1.1909  1.2549
  717TMC3    C110648   2.417   4.149   9.478  0.5738 -0.3249 -0.3102
  717TMC3    C210649   2.333   4.043   9.469 -0.1588  0.9445  0.2360
  717TMC3    C310650   2.388   3.914   9.474 -0.5837 -0.4282  0.2963
  717TMC3    C410651   2.551   4.133   9.490 -0.2128 -1.1749 -0.4920
  717TMC3    C510652   2.596   4.004   9.464 -1.2776 -0.5318 -0.0784
  717TMC3    C610653   2.519   3.893   9.456 -0.1444  0.9943  0.5083
  717TMC3     C10654   2.366   4.283   9.508  0.0983 -0.2856  0.0524
  717TMC3     O10655   2.444   4.373   9.524  0.5018  0.3969 -0.1878
  717TMC3     H10656   2.225   4.059   9.470 -0.2411  0.3500  0.8939
  717TMC3    H110657   2.617   4.219   9.494  1.6636 -2.6174 -0.2609
  717TMC3    H210658   2.566   3.798   9.476 -0.2320  0.7043 -0.6738
  717TMC3    C710659   2.738   3.985   9.457 -0.1320 -0.0648 -0.0189
  717TMC3    C810660   2.292   3.809   9.450  0.1659  0.0835  0.2389
  717TMC3    O110661   2.790   3.880   9.492  0.1283  0.5592  0.4920
  717TMC3    O210662   2.212   3.839   9.360  0.7486 -0.2745 -0.1343
  718MPD2     C10663   1.117   1.813  11.932 -0.1731 -0.8511  0.4916
  718MPD2    C110664   1.098   1.925  12.005 -0.2017 -0.9074  0.5532
  718MPD2    C210665   1.024   1.910  12.126 -0.9241 -0.1923  0.6842
  718MPD2    C310666   0.970   1.786  12.151 -0.0882  0.7752  0.5410
  718MPD2    C410667   0.985   1.679  12.072  0.2746  1.2544  0.4727
  718MPD2    C510668   1.070   1.685  11.963  0.2139 -0.2852  0.2642
  718MPD2     H10669   0.996   1.997  12.184  1.5570  1.0720 -0.0224
  718MPD2    H110670   0.960   1.579  12.106  1.0702  0.3970 -1.4203
  718MPD2    H210671   1.192   1.816  11.853  1.1592  1.5255  1.8499
  718MPD2    H310672   1.098   1.596  11.907  0.2245 -0.5214  0.6432
  718MPD2     N10673   0.886   1.784  12.262  0.3746  0.1030  0.0271
  718MPD2    H510674   0.882   1.865  12.323  0.3960  0.8613 -0.9760
  718MPD2    N110675   1.139   2.045  11.948 -0.0266 -0.0654  0.0443
  718MPD2    H710676   1.198   2.036  11.866  1.3708 -1.8175  1.2351
  719TMC3    C110677   1.135   2.279  11.913 -0.3703 -0.2003 -0.1745
  719TMC3    C210678   1.011   2.328  11.904 -0.2214 -0.4730 -0.8414
  719TMC3    C310679   0.995   2.464  11.926 -0.6767 -0.2382  0.5138
  719TMC3    C410680   1.246   2.358  11.918 -0.1398  0.7127 -0.0004
  719TMC3    C510681   1.227   2.492  11.946  0.7294  0.7415 -0.1759
  719TMC3    C610682   1.104   2.544  11.944 -0.1828  0.1506 -0.6170
  719TMC3     C10683   1.127   2.168  12.002  0.1685  0.0616  0.3384
  719TMC3     O10684   1.062   2.198  12.102  0.1881 -0.4115  0.0678
  719TMC3     H10685   0.931   2.254  11.900  0.0491 -0.8305  0.3163
  719TMC3    H110686   1.342   2.312  11.936  0.3359  0.3073 -3.6801
  719TMC3    H210687   1.091   2.642  11.989  0.0501  0.7124 -1.7729
  719TMC3    C710688   1.341   2.579  11.938 -0.2308  0.4718 -0.0840
  719TMC3    C810689   0.879   2.502  12.003  0.6766  0.5321  0.4910
  719TMC3    O110690   1.430   2.533  11.871 -0.1817  0.1653  0.2582
  719TMC3    O210691   0.835   2.619  12.000 -0.2234  0.4780  0.3774
  720MPD2     C10692   4.341   3.351  14.051  0.3407 -0.0586 -0.9061
  720MPD2    C110693   4.439   3.394  13.976  0.7200  0.7323 -0.0785
  720MPD2    C210694   4.567   3.398  14.027 -0.0958 -0.5648  0.5278
  720MPD2    C310695   4.596   3.380  14.159 -0.4520 -0.1222 -0.4430
  720MPD2    C410696   4.495   3.330  14.237  0.4607 -0.1662 -0.4965
  720MPD2    C510697   4.372   3.321  14.180 -0.2671 -0.1878  0.4638
  720MPD2     H10698   4.645   3.432  13.960 -0.5105  1.7674  1.2453
  720MPD2    H110699   4.501   3.303  14.342  1.8906 -1.2834 -0.8804
  720MPD2    H210700   4.239   3.334  14.019 -0.4673  0.4397  1.4566
  720MPD2    H310701   4.287   3.289  14.239 -1.6390  4.8343  1.2895
  720MPD2     N10702   4.728   3.397  14.207 -0.1945  0.0316 -0.2924
  720MPD2    H510703   0.070   3.394  14.137 -0.2619 -1.7065 -0.2910
  720MPD2    N110704   4.412   3.428  13.844 -0.0593  0.1847  0.2990
  720MPD2    H710705   4.492   3.445  13.783  0.0242  0.4374  0.4792
  721TMC3    C110706   0.175   3.433  14.356 -0.3486 -0.5248 -0.2981
  721TMC3    C210707   0.204   3.482  14.479  0.0289  0.0249 -0.3579
  721TMC3    C310708   0.337   3.467  14.521 -0.5282  0.1688  0.7164
  721TMC3    C410709   0.275   3.389  14.270  0.0727  0.5170  0.3174
  721TMC3    C510710   0.404   3.383  14.312  1.0340 -0.6565 -0.4832
  721TMC3    C610711   0.436   3.422  14.440  0.0255 -0.5708  0.9489
  721TMC3     C10712   0.036   3.393  14.342 -0.0250  0.3922 -0.2305
  721TMC3     O10713   4.700   3.391  14.438 -0.4082 -0.1965  0.3255
  721TMC3     H10714   0.135   3.527  14.549  0.2915  1.7174 -1.1931
  721TMC3    H110715   0.240   3.347  14.176 -2.4214  0.7591  1.1515
  721TMC3    H210716   0.538   3.412  14.477  0.7985 -0.7924 -1.2209
  721TMC3    C710717   0.508   3.334  14.224 -0.4045  0.2680  0.4053
  721TMC3    C810718   0.366   3.458  14.654 -0.2707  0.0131  0.0300
  721TMC3    O110719   0.487   3.331  14.104  0.6808 -0.2998  0.1062
  721TMC3    O210720   0.478   3.493  14.683  0.1586  0.3310 -0.1225
  722MPD2     C10721   3.770   2.122  13.004  0.0231  0.1095 -0.0682
  722MPD2    C110722   3.668   2.053  13.061 -0.7673 -0.2831 -0.6058
  722MPD2    C210723   3.536   2.065  13.024 -0.4953 -0.5208 -0.8218
  722MPD2    C310724   3.510   2.164  12.927  0.1931 -0.6359  0.5752
  722MPD2    C410725   3.612   2.224  12.860  0.3608 -0.2401  0.1256
  722MPD2    C510726   3.741   2.193  12.896 -0.3639 -0.5507  0.1244
  722MPD2     H10727   3.463   1.999  13.070 -0.2273 -1.3510 -1.5912
  722MPD2    H110728   3.604   2.293  12.777  2.7653  0.0670  0.1350
  722MPD2    H210729   3.877   2.107  13.015 -0.4885 -4.3980 -1.1000
  722MPD2    H310730   3.827   2.234  12.843 -1.9019  1.1706 -1.0182
  722MPD2     N10731   3.377   2.182  12.885  0.0568  0.4058 -0.2610
  722MPD2    H510732   3.316   2.111  12.925 -0.9970  0.5889 -1.4984
  722MPD2    N110733   3.703   1.969  13.167  0.5007  0.0306 -0.0158
  722MPD2    H710734   3.645   1.886  13.171  0.4150  0.0074 -1.7558
  723TMC3    C110735   3.209   2.244  12.734 -0.2889  0.2052 -0.1753
  723TMC3    C210736   3.132   2.136  12.772 -0.3711 -0.1914 -0.0120
  723TMC3    C310737   3.038   2.090  12.682 -0.4149 -0.1326  1.0915
  723TMC3    C410738   3.176   2.319  12.627 -0.3650 -0.3204 -0.8016
  723TMC3    C510739   3.086   2.266  12.542 -0.1496  0.7095 -0.2069
  723TMC3    C610740   3.011   2.159  12.564 -0.4401  0.8121  0.2718
  723TMC3     C10741   3.338   2.271  12.790 -0.3196  0.0491 -0.2620
  723TMC3     O10742   3.396   2.366  12.741  0.2520 -0.3260 -0.6107
  723TMC3     H10743   3.156   2.078  12.860 -2.2301 -0.0101  0.6165
  723TMC3    H110744   3.236   2.404  12.594 -1.2072  0.4917 -0.2404
  723TMC3    H210745   2.940   2.114  12.496  0.8860 -1.7857  0.6143
  723TMC3    C710746   3.022   2.362  12.454 -0.3301 -0.0883 -0.0030
  723TMC3    C810747   2.980   1.960  12.708  0.6281 -0.3208  0.6024
  723TMC3    O110748   2.979   2.317  12.346 -0.1960 -0.0386  0.5256
  723TMC3    O210749   2.948   1.896  12.606  0.1940  0.1982  0.0544
  724TMC3    C110750   3.819   0.722   9.996 -0.0335 -0.2559  0.2062
  724TMC3    C210751   3.836   0.740   9.861  0.3565 -0.3547  0.0022
  724TMC3    C310752   3.944   0.814   9.822  0.7095 -0.4000  0.2522
  724TMC3    C410753   3.894   0.778  10.090 -0.4583  0.2236 -1.4677
  724TMC3    C510754   4.003   0.847  10.044  0.6939 -0.2051 -0.1329
  724TMC3    C610755   4.029   0.869   9.910 -0.6566  0.4436 -0.4129
  724TMC3     C10756   3.706   0.642  10.047 -0.1096 -0.3575  0.0943
  724TMC3     O10757   3.727   0.565  10.140  0.3189 -0.3656 -0.0725
  724TMC3     H10758   3.804   0.667   9.787 -1.8318 -0.7381  1.3053
  724TMC3    H110759   3.860   0.773  10.193 -0.1509  2.4337 -1.2519
  724TMC3    H210760   4.096   0.948   9.881 -0.0934 -0.0937 -0.5725
  724TMC3    C710761   4.103   0.913  10.125 -0.3685 -0.0606  0.0039
  724TMC3    C810762   3.948   0.858   9.685  0.7281 -0.1271 -0.3523
  724TMC3    O110763   4.204   0.950  10.073 -0.0992  0.0025 -0.0662
  724TMC3    O210764   3.916   0.777   9.600 -0.3662  0.2455 -0.2833
  725TMC3    C110765   0.342   4.047  12.966  0.1937  0.8148 -0.0793
  725TMC3    C210766   0.288   4.054  12.842  0.1360  0.8230  0.1006
  725TMC3    C310767   0.188   3.961  12.807 -0.8993 -0.0276  0.3528
  725TMC3    C410768   0.310   3.942  13.052 -0.1472 -0.5566  0.1457
  725TMC3    C510769   0.238   3.839  13.004 -0.0910 -0.5279 -0.4707
  725TMC3    C610770   0.168   3.856  12.894  0.0501 -0.2511 -0.2485
  725TMC3     C10771   0.472   4.103  12.977 -0.4378 -0.5145 -0.3991
  725TMC3     O10772   0.485   4.213  12.924  0.0042 -0.0378 -0.3513
  725TMC3     H10773   0.308   4.147  12.790  2.3583 -1.2333 -2.6616
  725TMC3    H110774   0.340   3.943  13.157  1.5654 -0.8356 -0.3299
  725TMC3    H210775   0.083   3.795  12.866  0.7712 -2.4417  2.3026
  725TMC3    C710776   0.329   3.727  13.006  0.0107  0.7221 -0.3379
  725TMC3    C810777   0.121   3.979  12.680  0.7198  0.1458  0.0999
  725TMC3    O110778   0.446   3.755  13.002 -0.7366 -0.3384  0.3808
  725TMC3    O210779   0.038   3.893  12.663  0.3288  0.6091  0.0728
  726MPD2     C10780   3.252   1.111  10.544  0.0609  0.2277 -0.0429
  726MPD2    C110781   3.137   1.182  10.510 -0.2759  0.8361 -0.0032
  726MPD2    C210782   3.013   1.123  10.526  0.7926 -0.3405 -0.4602
  726MPD2    C310783   3.001   0.991  10.578  0.0104 -0.5027 -0.1550
  726MPD2    C410784   3.110   0.922  10.608 -0.2873 -0.1352 -0.1427
  726MPD2    C510785   3.233   0.980  10.593  0.5899  0.5087 -0.0572
  726MPD2     H10786   2.920   1.176  10.508  1.1669  0.8430  1.1597
  726MPD2    H110787   3.105   0.817  10.637 -1.1901 -0.0035  0.1812
  726MPD2    H210788   3.355   1.146  10.538 -0.1319  0.7924 -0.0789
  726MPD2    H310789   3.321   0.920  10.614 -0.6922 -1.3215  0.0390
  726MPD2     N10790   2.878   0.928  10.597  0.5679  0.1266 -0.6089
  726MPD2    H510791   2.879   0.831  10.630  1.0035  0.7226  1.1421
  726MPD2    N110792   3.143   1.316  10.458 -0.4266  0.8023 -0.5847
  726MPD2    H710793   3.057   1.365  10.437 -0.9835  0.6175  1.3220
  727TMC3    C110794   3.253   1.523  10.404  0.4732 -0.3377 -0.3671
  727TMC3    C210795   3.368   1.593  10.380 -0.3121 -0.2254 -0.5194
  727TMC3    C310796   3.364   1.731  10.377 -0.0823 -0.5903  0.8947
  727TMC3    C410797   3.132   1.583  10.378 -0.1499 -0.1405  0.0054
  727TMC3    C510798   3.135   1.714  10.357  0.2184  0.9095 -0.1761
  727TMC3    C610799   3.244   1.791  10.367  0.4886 -0.2656  0.8817
  727TMC3     C10800   3.260   1.384  10.434  0.7145 -0.9193  0.2416
  727TMC3     O10801   3.376   1.350  10.455  0.2203  0.7948 -0.3767
  727TMC3     H10802   3.463   1.543  10.395  0.3291  2.0349  2.8441
  727TMC3    H110803   3.037   1.541  10.410 -0.5921  1.0497  0.2361
  727TMC3    H210804   3.251   1.899  10.374 -1.8241 -0.1077  0.5912
  727TMC3    C710805   3.019   1.787  10.313 -0.5035  0.0351 -0.3606
  727TMC3    C810806   3.448   1.787  10.480 -0.5216 -0.1961  0.0442
  727TMC3    O110807   3.031   1.908  10.317 -0.6698 -0.2787 -0.5356
  727TMC3    O210808   3.553   1.725  10.495 -0.0774  0.0041 -0.1079
  728TMC3    C110809   2.379   3.618  15.064  0.3478 -0.1698  0.4005
  728TMC3    C210810   2.448   3.665  15.175 -0.0325  0.1887 -0.1783
  728TMC3    C310811   2.560   3.740  15.147 -0.1784 -0.3553 -0.0410
  728TMC3    C410812   2.427   3.636  14.937  0.4663 -0.4146 -0.1209
  728TMC3    C510813   2.534   3.711  14.912  0.2738  1.1996  1.2010
  728TMC3    C610814   2.609   3.764  15.016  0.9539  0.4629 -0.5105
  728TMC3     C10815   2.240   3.573  15.080 -0.4720  0.6496 -0.1383
  728TMC3     O10816   2.165   3.590  14.987  0.0588 -0.3197 -0.4853
  728TMC3     H10817   2.412   3.667  15.278  0.8908  1.8940  0.1147
  728TMC3    H110818   2.369   3.592  14.856  0.5529  2.0524 -1.5203
  728TMC3    H210819   2.711   3.796  15.000  1.3800 -0.5654  0.2222
  728TMC3    C710820   2.556   3.750  14.774  0.6253  0.0522  1.0698
  728TMC3    C810821   2.633   3.792  15.262 -0.1291 -0.1475  0.1938
  728TMC3    O110822   2.508   3.679  14.690  0.2304  0.0344 -0.7004
  728TMC3    O210823   2.610   3.730  15.366  0.1053  0.2565 -0.4577
  729MPD2     C10824   4.528   0.413  16.497  0.1179 -0.2293 -0.1036
  729MPD2    C110825   4.582   0.289  16.476  0.8095  0.9353  0.6425
  729MPD2    C210826   4.599   0.201  16.582  0.3781  0.5233 -0.3526
  729MPD2    C310827   4.564   0.236  16.712 -0.0151  0.6938  0.4906
  729MPD2    C410828   4.510   0.362  16.726 -0.1490 -0.6257 -0.2857
  729MPD2    C510829   4.494   0.451  16.626  0.2539  0.2575  0.1813
  729MPD2     H10830   4.642   0.101  16.572  1.7832  0.9356  1.6566
  729MPD2    H110831   4.491   0.398  16.827 -2.0593 -0.1031 -0.8249
  729MPD2    H210832   4.504   0.476  16.412  0.2989 -0.4235 -0.2985
  729MPD2    H310833   4.452   0.547  16.653  1.5288  0.2076  2.3384
  729MPD2     N10834   4.593   0.169  16.835 -0.3907  0.4523 -0.3240
  729MPD2    H510835   4.571   0.220  16.920 -0.4393  0.8634 -0.5861
  729MPD2    N110836   4.624   0.272  16.340  0.3739 -0.3238  0.4124
  729MPD2    H710837   4.601   0.344  16.273  1.5224  0.0167  0.3704
  730TMC3    C110838   4.706   0.029  16.986  0.4775  0.2729  0.5323
  730TMC3    C210839   0.109   0.017  16.988 -0.0297  0.0938  0.5404
  730TMC3    C310840   0.174   0.089  17.084  0.0789  0.5377 -0.8856
  730TMC3    C410841   4.641   0.115  17.072  0.1615  0.2343  0.5604
  730TMC3    C510842   4.716   0.194  17.152  0.2254  0.0726  0.4877
  730TMC3    C610843   0.118   0.167  17.179  0.1778 -0.0567  0.6984
  730TMC3     C10844   4.661   0.053  16.848 -0.1173 -0.3932  0.2205
  730TMC3     O10845   4.693   4.707  16.759 -0.3391  0.1777  0.8800
  730TMC3     H10846   0.149   4.679  16.915 -1.7746 -0.0741 -0.2599
  730TMC3    H110847   4.534   0.120  17.060  0.4773  4.1732 -0.4827
  730TMC3    H210848   0.178   0.222  17.250 -0.4092  0.0004  1.1565
  730TMC3    C710849   4.692   0.334  17.141 -0.7220  0.2132 -0.2698
  730TMC3    C810850   0.318   0.054  17.085  0.1613  0.2156 -0.1418
  730TMC3    O110851   0.056   0.413  17.138  0.1178  0.0611 -0.1087
  730TMC3    O210852   0.375   0.039  17.191  0.1441 -0.6691 -0.3679
  731MPD2     C10853   0.444   2.922  12.340 -0.0459 -0.4074  0.5972
  731MPD2    C110854   0.317   2.959  12.314  0.1422 -0.2939  0.3357
  731MPD2    C210855   0.218   2.877  12.350 -0.5040 -0.0088  0.0944
  731MPD2    C310856   0.243   2.753  12.408 -0.5968 -0.2335 -0.5064
  731MPD2    C410857   0.375   2.723  12.448 -0.1401 -0.0226  0.5183
  731MPD2    C510858   0.476   2.799  12.402  0.6157 -0.4122 -0.8706
  731MPD2     H10859   0.116   2.913  12.346 -0.7039 -0.5855  0.0117
  731MPD2    H110860   0.400   2.634  12.503 -1.3832 -0.4311  0.4160
  731MPD2    H210861   0.532   2.979  12.312 -0.6247  1.2171  2.1473
  731MPD2    H310862   0.579   2.772  12.422  1.1161  0.6320 -2.0103
  731MPD2     N10863   0.129   2.689  12.458  0.2444 -0.0950  1.0471
  731MPD2    H510864   0.037   2.722  12.431  0.7468 -0.1602 -0.7137
  731MPD2    N110865   0.303   3.087  12.249 -0.3393  0.1540  0.2974
  731MPD2    H710866   0.388   3.135  12.220 -0.5331  0.6101  0.4831
  732TMC3    C110867   0.212   3.252  12.129 -0.4479 -0.1045 -0.0942
  732TMC3    C210868   0.132   3.276  12.022 -0.0840  0.2377 -0.3537
  732TMC3    C310869   0.167   3.385  11.949 -0.2313  0.1802 -0.9263
  732TMC3    C410870   0.308   3.344  12.170 -0.1867  0.5113 -0.0882
  732TMC3    C510871   0.337   3.445  12.087  0.0763 -0.1761  0.0103
  732TMC3    C610872   0.262   3.472  11.980  0.0089  0.0717 -0.4980
  732TMC3     C10873   0.187   3.141  12.212 -0.8364  0.5313  1.2402
  732TMC3     O10874   0.076   3.085  12.206  0.1561  0.0915  0.1290
  732TMC3     H10875   0.072   3.193  11.985 -1.1947  1.3331 -1.0004
  732TMC3    H110876   0.356   3.322  12.265 -0.0486 -1.7805 -0.6963
  732TMC3    H210877   0.277   3.568  11.932 -0.2375  0.5842  0.4499
  732TMC3    C710878   0.413   3.555  12.141 -0.6092 -0.0327  0.2828
  732TMC3    C810879   0.072   3.432  11.849  0.4872  0.2557  0.0971
  732TMC3    O110880   0.398   3.671  12.102 -0.2899  0.1074  0.1630
  732TMC3    O210881   0.110   3.516  11.768  0.8791 -0.1476  0.1730
  733TMC3    C110882   0.515   1.711  12.545 -0.0609 -0.5453  0.2872
  733TMC3    C210883   0.612   1.654  12.465 -0.0703  0.8128 -0.5884
  733TMC3    C310884   0.689   1.745  12.387 -0.3030 -0.3882 -0.5957
  733TMC3    C410885   0.481   1.846  12.535 -0.1730 -0.3591  0.5812
  733TMC3    C510886   0.557   1.927  12.458  0.3998 -0.2810 -0.1213
  733TMC3    C610887   0.661   1.880  12.381  0.0678  0.0544 -0.6274
  733TMC3     C10888   0.442   1.641  12.653 -0.6257  0.6188 -0.3300
  733TMC3     O10889   0.395   1.719  12.734 -0.3494  0.2664 -0.1140
  733TMC3     H10890   0.644   1.550  12.456 -2.6131 -0.1424  1.2216
  733TMC3    H110891   0.404   1.879  12.603 -0.2462  1.3050 -0.3232
  733TMC3    H210892   0.708   1.941  12.305 -2.6467 -0.3375 -2.6226
  733TMC3    C710893   0.522   2.070  12.448 -0.2921 -0.8874 -0.3253
  733TMC3    C810894   0.789   1.689  12.297 -0.1684  0.6960 -0.5737
  733TMC3    O110895   0.408   2.111  12.453  0.0611 -0.4241 -0.0965
  733TMC3    O210896   0.748   1.595  12.230 -0.0957  0.6616 -0.0005
  734MPD2     C10897   2.799   4.208  12.448  0.5628 -0.6183 -0.2641
  734MPD2    C110898   2.698   4.157  12.378 -0.4449  0.2787 -0.1552
  734MPD2    C210899   2.697   4.168  12.243  0.2413  0.0569 -0.1744
  734MPD2    C310900   2.809   4.222  12.176  0.1368  0.4132 -0.0183
  734MPD2    C410901   2.918   4.264  12.250  0.3408 -0.2046  0.1094
  734MPD2    C510902   2.909   4.254  12.388 -0.8425  0.3134 -0.2193
  734MPD2     H10903   2.613   4.134  12.183  0.9392 -1.7338 -0.1302
  734MPD2    H110904   3.013   4.292  12.206  1.7022 -1.5026  2.1950
  734MPD2    H210905   2.797   4.192  12.555 -2.0159  0.6760 -0.1128
  734MPD2    H310906   2.996   4.269  12.450 -1.5758 -0.4783  0.9890
  734MPD2     N10907   2.809   4.232  12.033  0.1419 -0.0664 -0.1907
  734MPD2    H510908   2.728   4.193  11.986 -1.0658  0.9170  1.0532
  734MPD2    N110909   2.601   4.079  12.451 -0.4536  0.1669  0.9404
  734MPD2    H710910   2.624   4.060  12.548  0.6502  1.1791  0.8748
  735TMC3    C110911   2.441   3.905  12.464  0.2801  0.9452 -0.4248
  735TMC3    C210912   2.319   3.872  12.406  0.0484 -0.1749  0.2399
  735TMC3    C310913   2.300   3.740  12.359  0.2064 -0.4791 -0.3413
  735TMC3    C410914   2.526   3.804  12.505 -0.5178  1.2217  0.0680
  735TMC3    C510915   2.502   3.676  12.464 -0.0869  0.3605  0.6305
  735TMC3    C610916   2.387   3.643  12.393 -0.0682  0.8658 -0.3585
  735TMC3     C10917   2.497   4.017  12.393 -0.6073 -0.0442 -0.4216
  735TMC3     O10918   2.443   4.043  12.290 -0.1234  0.5032  0.4908
  735TMC3     H10919   2.263   3.952  12.361  1.1161 -0.4954 -1.6578
  735TMC3    H110920   2.622   3.831  12.547  0.7654 -2.5428 -0.5221
  735TMC3    H210921   2.366   3.543  12.357  0.5017  0.0209  1.6757
  735TMC3    C710922   2.614   3.592  12.439  0.5334  0.1419  0.1165
  735TMC3    C810923   2.263   3.739  12.219  0.3918  0.1740 -0.1011
  735TMC3    O110924   2.724   3.649  12.440 -0.3085  0.2551 -0.1891
  735TMC3    O210925   2.193   3.647  12.175  0.3137  0.7119 -0.5144
  736MPD2     C10926   2.669   3.241  12.335  0.2571 -0.2849  0.8556
  736MPD2    C110927   2.683   3.372  12.329  0.5444 -0.6349  0.0498
  736MPD2    C210928   2.784   3.428  12.246  0.2325 -0.5877  0.2741
  736MPD2    C310929   2.877   3.346  12.181  0.4239 -0.1846 -0.2947
  736MPD2    C410930   2.874   3.212  12.197 -0.2545 -0.1784  0.1129
  736MPD2    C510931   2.771   3.165  12.273  0.2331 -0.3137 -0.1588
  736MPD2     H10932   2.780   3.536  12.238  0.8598 -0.6276 -0.5878
  736MPD2    H110933   2.937   3.150  12.135 -0.7077 -0.8018  0.2713
  736MPD2    H210934   2.591   3.186  12.387  0.4453  0.4606  1.9113
  736MPD2    H310935   2.761   3.062  12.307 -0.5681 -0.2565 -0.2418
  736MPD2     N10936   2.980   3.401  12.101  0.1135  0.0558  0.0821
  736MPD2    H510937   3.052   3.338  12.069  0.5516 -0.4752  2.1517
  736MPD2    N110938   2.584   3.459  12.392 -0.7874  0.4120 -0.3113
  736MPD2    H710939   2.493   3.417  12.411 -1.1335  1.4576  0.2797
  737TMC3    C110940   3.119   3.560  12.002  0.2602  0.4388  0.6098
  737TMC3    C210941   3.136   3.692  11.955 -0.0862  0.1818  0.5347
  737TMC3    C310942   3.247   3.725  11.884  0.5038  0.7023  0.0377
  737TMC3    C410943   3.217   3.465  11.971  0.1798  0.3477  0.1114
  737TMC3    C510944   3.321   3.501  11.890 -0.5214  0.5842 -0.0615
  737TMC3    C610945   3.330   3.628  11.844  0.3945  0.8751 -0.1842
  737TMC3     C10946   2.991   3.534  12.066 -0.7365 -0.1002 -0.6076
  737TMC3     O10947   2.916   3.630  12.074  0.2821  0.2015 -0.2412
  737TMC3     H10948   3.058   3.767  11.963  0.0496  0.2441  1.2550
  737TMC3    H110949   3.203   3.365  12.011 -3.0011  1.5364  1.9843
  737TMC3    H210950   3.416   3.657  11.785  1.1078 -0.5437  0.1409
  737TMC3    C710951   3.411   3.397  11.846  0.3821 -0.3698 -1.0141
  737TMC3    C810952   3.236   3.851  11.824  0.3717 -0.3012 -0.4385
  737TMC3    O110953   3.405   3.292  11.905 -0.0276 -0.1576  0.2690
  737TMC3    O210954   3.184   3.940  11.891  0.7007  0.1069  0.0100
  738MPD2     C10955   3.924   2.433  15.322 -0.2652 -0.1841 -0.0450
  738MPD2    C110956   3.906   2.404  15.194 -0.6852 -0.3254  0.5764
  738MPD2    C210957   3.988   2.469  15.097  0.1314  1.2142 -0.6191
  738MPD2    C310958   4.088   2.553  15.125 -0.1223  0.5451 -0.0472
  738MPD2    C410959   4.106   2.579  15.261 -0.3290  0.0961  0.2587
  738MPD2    C510960   4.027   2.519  15.354  0.1292  0.0824 -0.2298
  738MPD2     H10961   3.981   2.433  14.995  0.9469 -2.1199  0.4884
  738MPD2    H110962   4.189   2.638  15.298 -2.3274  2.9512  0.1665
  738MPD2    H210963   3.873   2.394  15.410  2.0372 -1.2392  0.8178
  738MPD2    H310964   4.052   2.536  15.458 -0.8003 -1.9017  0.3264
  738MPD2     N10965   4.172   2.608  15.035  0.2388 -0.3248  0.3120
  738MPD2    H510966   4.256   2.654  15.069  0.9772 -1.7456  0.4198
  738MPD2    N110967   3.805   2.321  15.148  0.0925 -0.3861 -0.0988
  738MPD2    H710968   3.796   2.302  15.049  1.3562  0.9414 -0.4667
  739TMC3    C110969   4.282   2.646  14.836 -0.9582  0.0184  0.4289
  739TMC3    C210970   4.280   2.679  14.703 -0.2277  0.8087  0.3609
  739TMC3    C310971   4.389   2.650  14.630 -0.0088  0.1268 -0.7178
  739TMC3    C410972   4.398   2.604  14.889  0.7609 -0.4605 -0.4811
  739TMC3    C510973   4.505   2.588  14.807  0.5966  0.1991  0.0627
  739TMC3    C610974   4.505   2.602  14.676  0.5712 -0.4505 -0.0250
  739TMC3     C10975   4.162   2.598  14.899 -0.2273 -0.4469  0.1068
  739TMC3     O10976   4.078   2.559  14.820 -0.0457 -0.6167  0.3085
  739TMC3     H10977   4.186   2.707  14.656  0.1308 -0.2860 -1.0253
  739TMC3    H110978   4.407   2.597  14.997 -2.4223  0.1957 -0.1766
  739TMC3    H210979   4.578   2.548  14.617 -1.4870 -1.7652 -1.3669
  739TMC3    C710980   4.617   2.527  14.871 -0.6278  0.0246 -1.0018
  739TMC3    C810981   4.362   2.625  14.491  0.0289  0.0381 -0.3812
  739TMC3    O110982   4.601   2.454  14.966  0.4376  0.4366 -0.0639
  739TMC3    O210983   4.243   2.618  14.461  0.1259  0.2628  0.2440
  740TMC3    C110984   4.372   3.721  14.179 -0.3708  0.8207  0.9106
  740TMC3    C210985   4.429   3.703  14.302  0.1878  0.1299 -0.5654
  740TMC3    C310986   4.562   3.709  14.303  0.1965  0.0737  0.7843
  740TMC3    C410987   4.434   3.746  14.063 -0.4694  0.4467 -0.4961
  740TMC3    C510988   4.571   3.766  14.068 -0.7060 -0.4621  0.8128
  740TMC3    C610989   4.637   3.735  14.191  0.0483  0.2606  0.0286
  740TMC3     C10990   4.224   3.732  14.176  0.1466 -0.3774 -0.0161
  740TMC3     O10991   4.183   3.801  14.086  0.4140 -0.3995 -0.0124
  740TMC3     H10992   4.377   3.712  14.397  2.2754  0.8548  0.5238
  740TMC3    H110993   4.378   3.759  13.971  0.6501 -2.8086 -1.6332
  740TMC3    H210994   0.013   3.741  14.196  0.0089  1.0280 -0.0484
  740TMC3    C710995   4.638   3.741  13.941  0.0686  0.0458 -0.0198
  740TMC3    C810996   4.634   3.724  14.428  0.4461  0.3241  0.4791
  740TMC3    O110997   0.015   3.693  13.952  0.5994 -0.5000 -0.1245
  740TMC3    O210998   4.729   3.801  14.433  0.3165  0.2552  0.1665
  741TMC3    C110999   4.270   2.986  14.055  0.1471  0.5037  0.4592
  741TMC3    C211000   4.152   2.931  14.090 -0.5318  0.2654 -0.1514
  741TMC3    C311001   4.135   2.892  14.220 -0.4180  0.0843  0.2193
  741TMC3    C411002   4.380   2.992  14.132  0.0446 -0.0827  0.7499
  741TMC3    C511003   4.361   2.960  14.266  0.1699  0.1548  0.0239
  741TMC3    C611004   4.239   2.904  14.310 -0.5803 -0.6215  0.6959
  741TMC3     C11005   4.306   2.993  13.917  0.7879 -0.9646  0.2651
  741TMC3     O11006   4.410   2.945  13.878 -0.0676 -0.2546 -0.5205
  741TMC3     H11007   4.068   2.933  14.022 -0.0174  0.9362 -0.7752
  741TMC3    H111008   4.472   3.033  14.091 -1.3483  2.4123  0.1077
  741TMC3    H211009   4.235   2.857  14.408  0.8918 -1.6579  0.2614
  741TMC3    C711010   4.463   2.975  14.356  0.2790 -0.1793  0.1681
  741TMC3    C811011   4.013   2.840  14.266 -0.3155  0.8503  0.1230
  741TMC3    O111012   4.432   2.989  14.474 -0.0888  0.0190  0.4606
  741TMC3    O211013   3.913   2.881  14.212 -0.6823 -0.3122  0.6572
  742TMC3    C111014   3.966   1.439  15.171 -0.2672 -0.1576 -0.0818
  742TMC3    C211015   3.879   1.425  15.066 -0.7369 -0.2516  0.5326
  742TMC3    C311016   3.932   1.402  14.941 -0.5219 -0.2602 -0.5988
  742TMC3    C411017   4.101   1.438  15.157  0.0114 -0.5730 -0.6710
  742TMC3    C511018   4.147   1.407  15.032  0.3362  0.1147  0.4807
  742TMC3    C611019   4.067   1.383  14.921  0.2938  0.5239 -0.2404
  742TMC3     C11020   3.913   1.448  15.304 -0.1125  0.1821  0.2868
  742TMC3     O11021   3.797   1.483  15.316  0.1403  0.1990 -0.8535
  742TMC3     H11022   3.772   1.422  15.084 -0.9516  0.5839 -0.5377
  742TMC3    H111023   4.168   1.457  15.240  1.0573 -0.9874 -1.4246
  742TMC3    H211024   4.116   1.370  14.826 -1.1860  0.3640 -0.9774
  742TMC3    C711025   4.288   1.367  15.020 -0.2576  0.2092 -0.3200
  742TMC3    C811026   3.846   1.385  14.823 -0.0537  0.4097  0.7761
  742TMC3    O111027   4.311   1.292  14.929 -0.0579 -0.1573 -0.2942
  742TMC3    O211028   3.900   1.331  14.731 -0.1040  0.3978  0.2121
  743MPD2     C11029   1.407   3.084   1.644 -0.3059 -0.1026  0.1195
  743MPD2    C111030   1.446   2.955   1.606  0.4761  0.5161  0.0364
  743MPD2    C211031   1.544   2.889   1.679  0.5043  0.2147 -0.5144
  743MPD2    C311032   1.605   2.949   1.783  0.1062 -0.0429 -0.5621
  743MPD2    C411033   1.566   3.076   1.822 -0.2206 -1.2030 -0.0198
  743MPD2    C511034   1.466   3.141   1.754 -0.3286 -0.8775  0.1769
  743MPD2     H11035   1.585   2.799   1.635  0.6798  0.5475 -1.0394
  743MPD2    H111036   1.622   3.125   1.901  2.2564 -0.1904 -2.3808
  743MPD2    H211037   1.332   3.140   1.589 -0.1175 -0.8679 -0.9119
  743MPD2    H311038   1.452   3.246   1.780  0.7909 -0.7959  0.4465
  743MPD2     N11039   1.707   2.876   1.849 -0.3557 -0.1940  0.2312
  743MPD2    H511040   1.732   2.783   1.818  1.5108  0.4257 -0.1815
  743MPD2    N111041   1.380   2.905   1.496 -0.5272 -0.5993 -0.2470
  743MPD2    H711042   1.300   2.957   1.461 -0.0958  1.3628  1.6912
  744TMC3    C111043   1.306   2.758   1.336  0.8247 -0.7541 -0.1998
  744TMC3    C211044   1.189   2.821   1.346 -0.0938  0.1178 -0.0793
  744TMC3    C311045   1.107   2.807   1.242  0.4442  0.3030  0.0101
  744TMC3    C411046   1.347   2.686   1.227 -0.1380  0.2139  0.0357
  744TMC3    C511047   1.256   2.674   1.128  0.0780 -0.2453  0.0966
  744TMC3    C611048   1.136   2.731   1.130 -0.2539 -0.2302 -0.3298
  744TMC3     C11049   1.407   2.780   1.439 -0.6124  0.3283  0.3180
  744TMC3     O11050   1.500   2.702   1.459 -0.4859 -0.0992  0.0804
  744TMC3     H11051   1.144   2.866   1.434 -0.4688  0.4924 -0.4614
  744TMC3    H111052   1.444   2.640   1.221 -0.5395 -0.7688  1.2986
  744TMC3    H211053   1.071   2.733   1.044 -0.3739  0.5048 -0.2147
  744TMC3    C711054   1.313   2.617   1.009  0.4487  0.7631  0.0138
  744TMC3    C811055   0.998   2.906   1.249  0.2191 -0.1890  0.2959
  744TMC3    O111056   1.429   2.587   1.003 -0.5866 -0.5737  0.2061
  744TMC3    O211057   1.017   3.002   1.321  0.0852  0.4382  0.1267
  745TMC3    C111058   3.999   1.088  13.547  0.3574  0.5861 -0.3141
  745TMC3    C211059   3.979   1.132  13.676  0.8967 -0.5588  0.4150
  745TMC3    C311060   3.866   1.217  13.683 -0.3226 -0.2667 -0.2046
  745TMC3    C411061   3.929   1.120  13.433  0.0415 -0.1357 -0.0368
  745TMC3    C511062   3.814   1.196  13.454 -0.3106 -0.0712 -0.2320
  745TMC3    C611063   3.780   1.244  13.580  0.1909  0.0867  0.3494
  745TMC3     C11064   4.131   1.021  13.540  0.4403 -0.7939 -0.4241
  745TMC3     O11065   4.160   0.946  13.443  0.1946 -0.1844  0.0466
  745TMC3     H11066   4.030   1.086  13.760 -0.9520 -1.4198  1.0660
  745TMC3    H111067   3.969   1.081  13.341  1.0357 -1.8536  1.1213
  745TMC3    H211068   3.704   1.321  13.585  0.8307  0.6523  1.4802
  745TMC3    C711069   3.786   1.300  13.362  0.4532  0.3680 -0.2704
  745TMC3    C811070   3.859   1.313  13.792 -0.5810  1.0739  0.7278
  745TMC3    O111071   3.677   1.353  13.367 -0.2834  0.0629 -0.2656
  745TMC3    O211072   3.751   1.357  13.808  0.0183  0.0085  0.1241
  746TMC3    C111073   1.725   3.516  10.716 -0.3022 -0.2361  0.1902
  746TMC3    C211074   1.798   3.491  10.603  0.1615 -0.1215  0.2410
  746TMC3    C311075   1.786   3.361  10.558  0.0957 -0.0100 -1.0446
  746TMC3    C411076   1.650   3.425  10.784 -0.4209 -0.1179  0.2526
  746TMC3    C511077   1.646   3.297  10.738 -0.0465 -0.3312  0.7171
  746TMC3    C611078   1.709   3.266  10.621  0.0464  0.1445 -0.2750
  746TMC3     C11079   1.711   3.652  10.769  0.2754  0.0524 -0.2729
  746TMC3     O11080   1.644   3.661  10.872  0.4496 -0.2526  0.0894
  746TMC3     H11081   1.869   3.556  10.554  0.9364  0.1772  1.7337
  746TMC3    H111082   1.602   3.447  10.879 -1.7483 -1.0416 -0.1991
  746TMC3    H211083   1.694   3.167  10.579 -0.5948  0.1298 -0.0217
  746TMC3    C711084   1.514   3.249  10.746 -0.3562  0.1314  0.5465
  746TMC3    C811085   1.858   3.324  10.439 -0.1436  0.0523  0.3208
  746TMC3    O111086   1.427   3.336  10.760  0.0924 -0.6470 -0.0251
  746TMC3    O211087   1.903   3.210  10.424 -0.4179 -0.7225  0.3098
  747TMC3    C111088   4.262   3.463  11.168 -0.0725  0.3928 -0.1015
  747TMC3    C211089   4.168   3.375  11.221 -0.2422 -0.1100  0.8901
  747TMC3    C311090   4.090   3.424  11.321  0.1778 -0.2077  0.6700
  747TMC3    C411091   4.284   3.589  11.220  0.1658  0.1805  0.4328
  747TMC3    C511092   4.195   3.627  11.313  0.7337 -0.5989 -0.5894
  747TMC3    C611093   4.099   3.550  11.374  0.6707  0.0866 -0.1685
  747TMC3     C11094   4.366   3.416  11.082  1.0613  0.2650 -0.0562
  747TMC3     O11095   4.473   3.476  11.070  0.0911 -0.2933 -0.2046
  747TMC3     H11096   4.166   3.270  11.193  2.6332  0.0878 -0.1322
  747TMC3    H111097   4.351   3.662  11.175 -0.4819 -1.1500 -2.7542
  747TMC3    H211098   4.042   3.580  11.461 -1.4095 -0.7767 -1.2457
  747TMC3    C711099   4.206   3.765  11.356 -0.1420  0.4636 -0.2584
  747TMC3    C811100   3.988   3.331  11.373  0.5721 -0.4687  0.0412
  747TMC3    O111101   4.104   3.824  11.399 -0.1556 -0.6431  0.4625
  747TMC3    O211102   4.006   3.214  11.342  0.4907  0.4761 -0.4861
  748MPD2     C11103   0.733   3.818   1.000 -0.4519 -0.0654  0.1877
  748MPD2    C111104   0.814   3.708   0.977  0.7284 -0.5320  0.5459
  748MPD2    C211105   0.951   3.717   1.009 -0.6670  0.0412 -0.2618
  748MPD2    C311106   0.999   3.834   1.069  0.4315  0.1074 -0.1594
  748MPD2    C411107   0.909   3.935   1.107 -0.0772  0.4115  0.9922
  748MPD2    C511108   0.775   3.928   1.074 -0.1442  0.2677  0.0002
  748MPD2     H11109   1.019   3.632   1.003 -0.2808  0.3315  0.0231
  748MPD2    H111110   0.945   4.025   1.156 -1.9787  1.0298  1.2516
  748MPD2    H211111   0.629   3.820   0.969  0.2257  0.2873 -2.0786
  748MPD2    H311112   0.705   4.009   1.093 -3.2447 -2.0620 -1.4809
  748MPD2     N11113   1.138   3.843   1.085  0.3498  0.2108  0.1911
  748MPD2    H511114   1.194   3.776   1.035  0.2436  0.1765  0.1180
  748MPD2    N111115   0.757   3.599   0.908 -0.3639 -0.1150  0.5185
  748MPD2    H711116   0.670   3.618   0.859  1.0557  0.3034 -1.8481
  749TMC3    C111117   1.342   3.905   1.152  0.1965 -0.5075  0.0406
  749TMC3    C211118   1.411   3.838   1.251 -0.8987 -0.9916 -0.1847
  749TMC3    C311119   1.528   3.777   1.220 -0.1233  0.2647 -0.1220
  749TMC3    C411120   1.390   3.913   1.024 -0.6968  0.2843  0.0051
  749TMC3    C511121   1.506   3.846   0.993 -0.1129  0.3951 -0.3314
  749TMC3    C611122   1.581   3.792   1.095  0.0525  1.1369  0.3216
  749TMC3     C11123   1.202   3.934   1.164 -0.4823 -0.0114  0.1727
  749TMC3     O11124   1.164   4.011   1.254  0.7490 -0.0799 -0.2421
  749TMC3     H11125   1.380   3.822   1.354 -1.8901 -0.3042 -0.3793
  749TMC3    H111126   1.334   3.948   0.938 -2.0383 -1.9763 -0.0353
  749TMC3    H211127   1.680   3.756   1.069 -1.4984 -0.5106 -3.3177
  749TMC3    C711128   1.554   3.879   0.863  0.1113  0.0894 -0.7621
  749TMC3    C811129   1.610   3.736   1.332 -0.2298  0.5753 -0.1353
  749TMC3    O111130   1.510   3.971   0.796 -0.3067 -0.2949 -0.5951
  749TMC3    O211131   1.601   3.803   1.435 -0.3388  0.7713 -0.5669
  750MPD2     C11132   2.199   0.764  11.285  0.1758 -0.3916 -0.0522
  750MPD2    C111133   2.089   0.705  11.344 -0.4017  0.0330 -0.1352
  750MPD2    C211134   2.021   0.614  11.264  0.4439  0.0990 -0.1353
  750MPD2    C311135   2.067   0.569  11.142  0.5084  0.1547  0.8147
  750MPD2    C411136   2.174   0.634  11.085  0.1419 -0.0359 -0.2997
  750MPD2    C511137   2.235   0.732  11.154  0.0906  0.0116 -0.1054
  750MPD2     H11138   1.935   0.558  11.300 -0.5459  1.0233 -1.0606
  750MPD2    H111139   2.211   0.614  10.984  1.6466 -1.2786  0.4964
  750MPD2    H211140   2.257   0.841  11.335  0.5378 -0.8600  0.2539
  750MPD2    H311141   2.330   0.769  11.117  0.2227  0.8334  1.0624
  750MPD2     N11142   2.013   0.461  11.067 -0.4605 -0.3467 -0.1311
  750MPD2    H511143   2.049   0.442  10.974  0.8654  0.9004  0.1271
  750MPD2    N111144   2.071   0.737  11.482 -0.4088 -0.7048 -0.3082
  750MPD2    H711145   2.151   0.782  11.526 -1.6752  1.1995  0.0388
  751TMC3    C111146   1.906   0.254  11.022 -0.3376 -0.0312 -0.6922
  751TMC3    C211147   1.825   0.159  11.070  0.2950  0.3693  0.1773
  751TMC3    C311148   1.793   0.051  10.984  0.3662  0.5785 -0.1542
  751TMC3    C411149   1.962   0.248  10.892  0.4904  0.3353  0.3064
  751TMC3    C511150   1.920   0.144  10.809  0.0135 -0.6314 -0.0108
  751TMC3    C611151   1.839   0.044  10.854 -0.3464 -0.5566  0.3185
  751TMC3     C11152   1.913   0.377  11.103 -0.1641 -0.4958  0.3067
  751TMC3     O11153   1.834   0.389  11.201  0.2164 -0.1271 -0.1351
  751TMC3     H11154   1.785   0.166  11.170 -0.2904 -0.9989  0.0459
  751TMC3    H111155   2.016   0.330  10.847  0.5907  0.2476  0.2665
  751TMC3    H211156   1.841   4.682  10.799 -0.3548 -1.1154  1.2782
  751TMC3    C711157   1.941   0.146  10.667 -0.4337 -0.2044 -0.3385
  751TMC3    C811158   1.670   4.722  11.009 -0.3657 -0.5934  1.0636
  751TMC3    O111159   2.049   0.187  10.622  0.3241 -0.4886 -0.1418
  751TMC3    O211160   1.600   4.731  10.909  0.2755  0.1561 -0.7622
  752TMC3    C111161   0.500   4.265  16.776  0.6268  0.2173 -0.1972
  752TMC3    C211162   0.569   4.167  16.841  0.4711  0.3805  0.3352
  752TMC3    C311163   0.518   4.109  16.948  0.4874 -0.3083 -0.1507
  752TMC3    C411164   0.382   4.316  16.833  0.3179  0.3652  0.1039
  752TMC3    C511165   0.345   4.265  16.953 -0.0835  0.0466  0.0159
  752TMC3    C611166   0.406   4.161  17.018 -0.1362 -0.2680  0.7814
  752TMC3     C11167   0.572   4.320  16.664  0.6678  0.0851  0.3512
  752TMC3     O11168   0.695   4.303  16.664 -0.2639 -0.0607  0.4641
  752TMC3     H11169   0.639   4.122  16.772 -0.5905 -2.2557  0.9810
  752TMC3    H111170   0.332   4.403  16.792  0.0848  0.5028  0.6808
  752TMC3    H211171   0.368   4.126  17.114 -1.7365 -2.1994 -0.5699
  752TMC3    C711172   0.257   4.345  17.035  0.2279 -0.1596  0.5643
  752TMC3    C811173   0.589   4.004  17.011 -0.8690 -0.3626 -0.6023
  752TMC3    O111174   0.181   4.423  16.976  0.4132  0.2399  1.0022
  752TMC3    O211175   0.540   3.948  17.111 -0.1473  0.3084 -0.4031
  753TMC3    C111176   2.600   1.174  13.576 -1.2427  0.1819 -0.2763
  753TMC3    C211177   2.704   1.137  13.657  0.2966  0.4393 -0.1083
  753TMC3    C311178   2.698   1.033  13.742 -0.1328 -0.6086  0.3179
  753TMC3    C411179   2.493   1.094  13.576  0.1917 -0.2185  1.0356
  753TMC3    C511180   2.488   0.981  13.660  0.7933  0.2421  0.5057
  753TMC3    C611181   2.598   0.944  13.737  0.0643  0.6685  0.2633
  753TMC3     C11182   2.605   1.297  13.505  0.3405 -0.1187 -0.0620
  753TMC3     O11183   2.686   1.385  13.530 -1.1210  0.0050  0.6410
  753TMC3     H11184   2.787   1.207  13.648  0.2155  0.7039  1.2693
  753TMC3    H111185   2.403   1.129  13.526  0.0765 -0.1605  1.2870
  753TMC3    H211186   2.594   0.852  13.794  0.5173  0.2375 -0.3994
  753TMC3    C711187   2.359   0.920  13.681  0.6450  0.0546  0.5264
  753TMC3    C811188   2.798   1.009  13.843  0.0501  0.1123 -0.2226
  753TMC3    O111189   2.344   0.865  13.790 -0.3948 -0.0108  0.3320
  753TMC3    O211190   2.782   0.909  13.910 -0.2829 -0.6605 -0.0817
  754MPD2     C11191   1.889   4.529  13.126 -0.6895 -0.5999 -0.0810
  754MPD2    C111192   1.805   4.424  13.106 -0.5798 -0.2241  0.0026
  754MPD2    C211193   1.665   4.440  13.081  0.4816 -0.4598 -0.4065
  754MPD2    C311194   1.616   4.569  13.098  0.1379 -0.2181  0.8080
  754MPD2    C411195   1.703   4.674  13.124  0.4725 -0.0473  0.2728
  754MPD2    C511196   1.837   4.654  13.140  0.2451 -0.6484 -0.0000
  754MPD2     H11197   1.596   4.361  13.055  1.8320 -1.8772  0.3281
  754MPD2    H111198   1.670   0.045  13.130  1.6938  0.3158  0.7129
  754MPD2    H211199   1.997   4.518  13.130 -0.5673  0.2427 -0.9910
  754MPD2    H311200   1.903   0.006  13.160 -0.3110 -0.0387 -0.6864
  754MPD2     N11201   1.480   4.594  13.085 -0.7201  0.2083  0.1611
  754MPD2    H511202   1.459   4.688  13.055 -2.7083 -0.4284 -0.4681
  754MPD2    N111203   1.870   4.292  13.100  0.5466  0.9702  1.0453
  754MPD2    H711204   1.970   4.289  13.113  0.6560  1.3421  0.2334
  755MPD2     C11205   0.715   0.497  13.120  0.3680 -0.0305  0.1925
  755MPD2    C111206   0.729   0.380  13.199  0.3843  0.6442  0.3982
  755MPD2    C211207   0.823   0.289  13.177  0.6116  0.2992  1.1575
  755MPD2    C311208   0.913   0.302  13.070 -0.0951 -0.6413 -0.2031
  755MPD2    C411209   0.898   0.411  12.983  0.0392  0.2039 -0.1378
  755MPD2    C511210   0.808   0.511  13.020 -0.3570 -0.4739  0.2043
  755MPD2     H11211   0.843   0.203  13.239 -0.3576  1.2877  2.8179
  755MPD2    H111212   0.948   0.417  12.887  1.8562  1.6001  0.8899
  755MPD2    H211213   0.652   0.582  13.141 -1.2192 -0.8355 -1.3105
  755MPD2    H311214   0.799   0.597  12.955 -1.3831 -0.0982  0.8504
  755MPD2     N11215   1.011   0.201  13.036 -0.0082  0.6022 -1.0022
  755MPD2    H511216   1.063   0.211  12.950  2.8565 -2.1143  0.4159
  755MPD2    N111217   0.645   0.368  13.314 -0.2632  0.4164  0.3026
  755MPD2    H711218   0.660   0.287  13.372 -0.9503 -0.3701 -0.6218
  756MPD2     C11219   1.154   1.437   9.887 -0.2057  0.5221 -0.0959
  756MPD2    C111220   1.051   1.371   9.954  0.2049 -0.6390  0.1226
  756MPD2    C211221   0.919   1.401   9.939 -0.3100  0.0842 -0.3228
  756MPD2    C311222   0.890   1.513   9.863 -0.7822 -0.6525 -0.7186
  756MPD2    C411223   0.991   1.577   9.798  0.0471 -0.1737  0.6910
  756MPD2    C511224   1.124   1.548   9.815  0.0143  0.2866  0.2046
  756MPD2     H11225   0.846   1.328   9.971 -0.6208  0.0758 -1.0520
  756MPD2    H111226   0.973   1.673   9.751  0.8708 -1.0276 -1.3661
  756MPD2    H211227   1.252   1.391   9.890 -0.0692  0.8571  0.4505
  756MPD2    H311228   1.200   1.602   9.761 -1.7570  0.9810 -1.6031
  756MPD2     N11229   0.757   1.538   9.837  0.0899 -0.2957 -0.2146
  756MPD2    H511230   0.694   1.484   9.896  0.9363  1.5935  2.4029
  756MPD2    N111231   1.081   1.262  10.038 -0.1647  0.3975  0.1462
  756MPD2    H711232   1.008   1.197  10.067 -0.8490 -0.3492 -3.2119
  757MPD2     C11233   0.178   1.003  10.087  0.0336 -0.0501 -0.4923
  757MPD2    C111234   0.285   0.985   9.999  0.1343 -0.1798 -0.0124
  757MPD2    C211235   0.316   1.090   9.910 -0.1675  0.5485 -0.2628
  757MPD2    C311236   0.250   1.211   9.916  0.5578  1.0950  0.2440
  757MPD2    C411237   0.138   1.221  10.007  0.3819 -0.5474  0.1802
  757MPD2    C511238   0.100   1.118  10.090  0.4119  0.8575  0.7877
  757MPD2     H11239   0.396   1.087   9.836 -0.9846  2.7526 -1.2077
  757MPD2    H111240   0.078   1.311  10.014 -1.7721 -1.8312 -1.9460
  757MPD2    H211241   0.140   0.923  10.149 -0.3667 -0.4319 -1.2228
  757MPD2    H311242   0.013   1.122  10.155 -1.3983 -0.8301 -1.5398
  757MPD2     N11243   0.309   1.313   9.833  0.5505 -0.9461  0.0132
  757MPD2    H511244   0.391   1.290   9.778 -0.0137  0.1535 -1.2806
  757MPD2    N111245   0.360   0.866  10.010 -0.6620 -0.2171 -0.6063
  757MPD2    H711246   0.335   0.800  10.082 -2.8368  1.6749  0.3788
  758MPD2     C11247   1.824   3.861  15.609  0.4422 -0.5442  0.2472
  758MPD2    C111248   1.930   3.846  15.694 -0.2043 -0.2982  0.2325
  758MPD2    C211249   1.921   3.903  15.815 -0.2448  0.4658 -0.4244
  758MPD2    C311250   1.816   3.980  15.855 -0.2507  0.4483 -0.7287
  758MPD2    C411251   1.711   4.000  15.771  0.2349 -0.5338 -0.4134
  758MPD2    C511252   1.714   3.932  15.653 -0.4873  0.2151 -0.3500
  758MPD2     H11253   2.010   3.907  15.876  1.8326 -0.0023 -3.4270
  758MPD2    H111254   1.625   4.059  15.800  1.3262  0.5831  0.5610
  758MPD2    H211255   1.826   3.810  15.513 -0.3844  0.4772 -0.3163
  758MPD2    H311256   1.619   3.920  15.603  0.2000  1.7072 -2.0258
  758MPD2     N11257   1.801   4.043  15.983  0.3406 -0.5194 -0.1121
  758MPD2    H511258   1.710   4.087  15.998  0.5990  0.2097 -0.6568
  758MPD2    N111259   2.052   3.791  15.650  0.2267  0.6241 -0.2714
  758MPD2    H711260   2.063   3.777  15.550 -0.3730 -0.7327 -0.1407
  759MPD2     C11261   0.434   3.977   9.671 -1.1098 -0.0935 -0.1719
  759MPD2    C111262   0.550   3.914   9.632  0.0750  0.4411  0.0284
  759MPD2    C211263   0.633   3.979   9.540 -0.2618  0.2844 -0.4491
  759MPD2    C311264   0.590   4.104   9.493  0.3833  0.3606 -0.0924
  759MPD2    C411265   0.467   4.159   9.534 -0.3746 -0.0057  0.5816
  759MPD2    C511266   0.392   4.090   9.617  0.1200 -0.3235  0.1592
  759MPD2     H11267   0.726   3.937   9.504  0.1471 -0.2441  1.2613
  759MPD2    H111268   0.442   4.261   9.509 -0.0077 -0.1645 -0.4764
  759MPD2    H211269   0.363   3.934   9.741 -0.5347 -0.1498  0.3667
  759MPD2    H311270   0.299   4.134   9.652 -0.0648 -0.1659 -0.5257
  759MPD2     N11271   0.681   4.186   9.414 -0.1223 -0.2761 -0.6594
  759MPD2    H511272   0.777   4.153   9.406  0.5215  1.4411  0.1542
  759MPD2    N111273   0.597   3.791   9.683 -0.3385  0.7760 -0.0285
  759MPD2    H711274   0.690   3.762   9.654 -0.1251  3.0283 -1.5791
  760MPD2     C11275   4.418   0.539  11.806  0.6486  0.3007 -0.3153
  760MPD2    C111276   4.562   0.542  11.802  0.1225 -0.1784  0.0125
  760MPD2    C211277   4.635   0.442  11.858 -0.0479  0.7890 -0.8596
  760MPD2    C311278   4.568   0.342  11.922  0.2510  0.5022  0.2807
  760MPD2    C411279   4.429   0.334  11.922  0.1653  0.0280 -0.2417
  760MPD2    C511280   4.361   0.429  11.861  0.6107  0.6323 -0.1362
  760MPD2     H11281   0.010   0.459  11.859  0.3909 -2.0220 -0.1864
  760MPD2    H111282   4.375   0.261  11.981  0.8637  0.3148  0.7525
  760MPD2    H211283   4.355   0.612  11.757 -0.9907 -0.1517  1.1097
  760MPD2    H311284   4.253   0.431  11.855  0.6141 -0.2276 -0.4491
  760MPD2     N11285   4.635   0.234  11.993 -0.3426 -0.0788  0.2233
  760MPD2    H511286   4.581   0.153  12.019 -0.3810 -0.6000 -1.4809
  760MPD2    N111287   4.641   0.642  11.747  0.2292  0.6835  0.6716
  760MPD2    H711288   0.010   0.644  11.760  0.5571 -1.5563 -1.4186
  761MPD2     C11289   1.283   4.491  11.253 -0.6492  0.4289  0.1665
  761MPD2    C111290   1.324   4.489  11.119  0.4295  0.2554  0.5118
  761MPD2    C211291   1.435   4.568  11.080  0.0961  0.4409  0.3875
  761MPD2    C311292   1.517   4.621  11.178 -0.8518  0.1465 -0.0632
  761MPD2    C411293   1.478   4.610  11.313  0.2124  0.2794  0.4854
  761MPD2    C511294   1.358   4.551  11.350  0.1050  0.8699  0.9654
  761MPD2     H11295   1.476   4.556  10.980 -0.1819  0.1119  0.3129
  761MPD2    H111296   1.542   4.654  11.387  0.8279  1.8534 -0.9844
  761MPD2    H211297   1.200   4.431  11.287  0.2988 -0.8475  0.2250
  761MPD2    H311298   1.326   4.566  11.452 -1.4440  2.1114  0.2985
  761MPD2     N11299   1.638   4.691  11.143 -0.1523  0.0549 -0.3047
  761MPD2    H511300   1.715   4.684  11.209 -1.9356  1.3785  1.8929
  761MPD2    N111301   1.251   4.413  11.023  0.3806  0.2063 -0.1443
  761MPD2    H711302   1.196   4.337  11.060  0.3233 -0.2827 -1.2364
  762MPD2     C11303   1.708   4.455  10.466  0.0365  0.0226  0.5539
  762MPD2    C111304   1.622   4.353  10.434 -0.3745 -0.0557 -0.0955
  762MPD2    C211305   1.647   4.287  10.319  0.3698 -0.2839 -0.4964
  762MPD2    C311306   1.760   4.331  10.245 -0.0553 -0.2532 -0.0471
  762MPD2    C411307   1.857   4.417  10.290  0.1991  0.0734  0.0085
  762MPD2    C511308   1.825   4.477  10.406 -0.4628  0.4608 -0.0098
  762MPD2     H11309   1.571   4.223  10.275  0.0269 -0.7878  0.8470
  762MPD2    H111310   1.950   4.447  10.243 -0.9192  1.9280 -1.0400
  762MPD2    H211311   1.700   4.516  10.555 -1.3260 -0.7389  0.9518
  762MPD2    H311312   1.895   4.551  10.441 -0.0289 -0.8196  1.8261
  762MPD2     N11313   1.787   4.253  10.128 -0.8977  0.6811 -0.1827
  762MPD2    H511314   1.723   4.176  10.111  0.8936 -0.5938 -1.3085
  762MPD2    N111315   1.506   4.333  10.516 -0.2761  0.2931 -1.0634
  762MPD2    H711316   1.499   4.388  10.601  0.8046  1.1191 -1.5194
  763MPD2     C11317   3.645   4.614  16.155 -0.2904 -0.0582 -0.6460
  763MPD2    C111318   3.554   4.631  16.047  0.1258 -0.1144 -0.6991
  763MPD2    C211319   3.493   0.025  16.030  0.2347  0.0625 -0.1278
  763MPD2    C311320   3.512   0.127  16.127  0.3195  0.0973  0.0698
  763MPD2    C411321   3.593   0.101  16.238  0.1913 -0.3852  0.7371
  763MPD2    C511322   3.650   4.707  16.255  0.1156 -0.0406 -0.2488
  763MPD2     H11323   3.424   0.054  15.952 -0.4700  0.7405  0.7487
  763MPD2    H111324   3.613   0.176  16.314  0.2413 -0.1400  0.4802
  763MPD2    H211325   3.704   4.524  16.170  1.2010  1.1307  0.6290
  763MPD2    H311326   3.727   4.695  16.331 -1.5134  0.7858  1.5158
  763MPD2     N11327   3.465   0.259  16.101  0.2316  0.7335  0.3004
  763MPD2    H511328   3.408   0.268  16.017 -0.9835  0.2991  1.0827
  763MPD2    N111329   3.517   4.541  15.945 -0.2754  0.1453  0.5202
  763MPD2    H711330   3.444   4.564  15.879 -0.8444  0.5488  1.2869
  764MPD2     C11331   2.205   0.843  16.874 -0.2937  0.4382  0.4583
  764MPD2    C111332   2.071   0.836  16.864 -0.2962  0.4895 -0.0527
  764MPD2    C211333   1.994   0.740  16.928 -0.1336  0.0405 -0.4052
  764MPD2    C311334   2.054   0.667  17.022 -0.9604  0.6663  0.4346
  764MPD2    C411335   2.189   0.687  17.051  0.4162 -0.7619  0.4297
  764MPD2    C511336   2.257   0.772  16.979  0.8138  0.0799  0.4847
  764MPD2     H11337   1.889   0.720  16.906  0.2196 -1.4057 -0.8117
  764MPD2    H111338   2.242   0.629  17.126 -0.3425  2.4180  3.4099
  764MPD2    H211339   2.271   0.909  16.818 -0.3956  1.3234  1.3836
  764MPD2    H311340   2.363   0.784  17.000  0.8761  0.3043  0.0269
  764MPD2     N11341   1.975   0.565  17.089  0.3397  0.2124 -0.4138
  764MPD2    H511342   1.882   0.553  17.050  1.1914 -1.9612 -1.7510
  764MPD2    N111343   2.002   0.919  16.770  0.5875  0.1415  0.0786
  764MPD2    H711344   1.905   0.901  16.745  0.6028 -0.3630  0.3671
  765MPD2     C11345   1.453   3.915  16.289  0.6354  0.8720  0.3216
  765MPD2    C111346   1.395   3.830  16.192  0.4482  0.4752  0.2571
  765MPD2    C211347   1.480   3.735  16.143  0.3029  0.1320  0.5100
  765MPD2    C311348   1.603   3.716  16.194 -0.1284 -0.0582 -0.7335
  765MPD2    C411349   1.654   3.789  16.301  0.5881  0.9126  0.4082
  765MPD2    C511350   1.577   3.888  16.350 -0.0039 -0.3425 -0.0274
  765MPD2     H11351   1.451   3.681  16.054  1.1019  0.7786 -0.1469
  765MPD2    H111352   1.750   3.783  16.352 -0.5142  0.2286  2.4004
  765MPD2    H211353   1.386   3.994  16.323 -2.4140 -1.4882 -0.1773
  765MPD2    H311354   1.623   3.951  16.426 -0.7545 -0.5159  0.5638
  765MPD2     N11355   1.675   3.623  16.119 -0.0124  0.4870 -0.3349
  765MPD2    H511356   1.622   3.594  16.037 -1.6606  1.0019  0.5402
  765MPD2    N111357   1.267   3.853  16.132 -0.5177  0.0678  0.3399
  765MPD2    H711358   1.211   3.935  16.150 -0.7721 -0.3742  1.6051
  766MPD2     C11359   0.724   3.574  15.448 -0.0997  1.1032 -0.2898
  766MPD2    C111360   0.854   3.635  15.440 -0.4079 -0.0958 -1.0991
  766MPD2    C211361   0.907   3.649  15.307  0.0601  0.6084  0.6113
  766MPD2    C311362   0.835   3.620  15.190 -0.4398 -0.5586 -0.0277
  766MPD2    C411363   0.711   3.570  15.208 -0.0981 -0.2125 -0.3694
  766MPD2    C511364   0.660   3.543  15.330  0.6320 -0.2764 -0.0268
  766MPD2     H11365   1.008   3.686  15.300 -0.0640  1.3330  2.7647
  766MPD2    H111366   0.648   3.552  15.122  0.0537  3.5316 -1.2604
  766MPD2    H211367   0.673   3.556  15.542 -0.9255  3.6856 -0.2483
  766MPD2    H311368   0.560   3.502  15.332  1.1678 -1.6839 -2.3522
  766MPD2     N11369   0.879   3.645  15.058 -0.7727  0.5848 -0.3330
  766MPD2    H511370   0.818   3.628  14.979  0.2027  0.4990 -1.0632
  766MPD2    N111371   0.932   3.687  15.550  0.2975  0.4411  0.4143
  766MPD2    H711372   1.027   3.720  15.533  0.0426  1.2318  0.5140
  767MPD2     C11373   0.529   3.838  15.212  0.9880 -0.7204 -0.1269
  767MPD2    C111374   0.624   3.911  15.144  0.1859  0.6423 -0.1828
  767MPD2    C211375   0.628   3.908  15.003 -0.1963 -0.0044 -0.3381
  767MPD2    C311376   0.526   3.854  14.929 -0.4597  0.2472 -0.1317
  767MPD2    C411377   0.430   3.787  15.001  0.5911  0.1577 -0.2580
  767MPD2    C511378   0.429   3.776  15.137  0.7882 -0.6388 -0.0408
  767MPD2     H11379   0.701   3.960  14.942  1.5357 -1.4584  0.4791
  767MPD2    H111380   0.342   3.760  14.944  0.1849  1.2762 -0.1543
  767MPD2    H211381   0.534   3.828  15.320 -3.9968  0.7000  0.2404
  767MPD2    H311382   0.349   3.722  15.184 -1.6311  2.6368 -0.3874
  767MPD2     N11383   0.522   3.867  14.792 -0.3693 -0.4295  0.3651
  767MPD2    H511384   0.607   3.891  14.743  0.5012  0.0948  2.1339
  767MPD2    N111385   0.728   3.949  15.230 -1.0190  0.0184 -0.2292
  767MPD2    H711386   0.711   3.945  15.330  1.6735 -1.4002  0.1866
  768MPD2     C11387   1.495   3.254  10.137 -0.2465  0.2426 -0.7040
  768MPD2    C111388   1.414   3.168  10.217  0.4797  0.7292  0.3646
  768MPD2    C211389   1.482   3.075  10.294 -0.2499  0.2518 -0.0821
  768MPD2    C311390   1.619   3.073  10.301 -0.7149  0.1007  0.2296
  768MPD2    C411391   1.696   3.158  10.223  0.9254 -0.8156  0.2921
  768MPD2    C511392   1.632   3.250  10.146  0.2338 -0.1872 -0.1811
  768MPD2     H11393   1.424   3.002  10.349 -0.1448  0.6588  0.5694
  768MPD2    H111394   1.803   3.169  10.214  0.7640  0.0769 -0.4742
  768MPD2    H211395   1.448   3.332  10.078 -0.3983 -0.3314 -1.3431
  768MPD2    H311396   1.687   3.330  10.098  0.0293 -0.2681 -0.5558
  768MPD2     N11397   1.691   2.989  10.389 -0.0728 -0.1887 -0.2551
  768MPD2    H511398   1.790   3.002  10.408  0.1679 -1.1710 -0.8430
  768MPD2    N111399   1.274   3.164  10.227 -0.3874 -0.8687  0.4872
  768MPD2    H711400   1.228   3.087  10.275  1.1386 -1.4243  1.0593
  769MPD2     C11401   2.646   0.698  14.631 -0.1953  0.1260 -0.2120
  769MPD2    C111402   2.549   0.712  14.728 -0.2738 -0.1942  0.2219
  769MPD2    C211403   2.587   0.751  14.855 -0.2284  0.0661  0.1638
  769MPD2    C311404   2.718   0.749  14.891  0.3054  0.8611  1.5930
  769MPD2    C411405   2.812   0.721  14.798  0.0318 -0.7482  0.2479
  769MPD2    C511406   2.779   0.692  14.668  0.3829 -0.0683  0.4453
  769MPD2     H11407   2.514   0.784  14.929 -0.9015  0.4571 -0.6681
  769MPD2    H111408   2.916   0.734  14.826  0.9682 -2.5517 -2.4949
  769MPD2    H211409   2.621   0.672  14.529 -1.2566 -0.4681  0.2083
  769MPD2    H311410   2.856   0.680  14.593  1.4944  1.8864  1.2583
  769MPD2     N11411   2.742   0.769  15.026  0.0111  0.1563  0.8353
  769MPD2    H511412   2.661   0.775  15.087 -0.1307 -0.0976  0.6733
  769MPD2    N111413   2.415   0.700  14.681 -0.1844 -0.5883 -0.3112
  769MPD2    H711414   2.403   0.668  14.586  2.0702 -1.7544 -0.1980
  770MPD2     C11415   1.715   0.120  15.024 -0.1489 -0.1146 -0.6381
  770MPD2    C111416   1.822   0.099  14.934 -0.0832  0.2846 -0.1078
  770MPD2    C211417   1.862   0.199  14.856  0.5515 -0.1304  0.2889
  770MPD2    C311418   1.817   0.324  14.865 -0.6415  0.0759  0.6884
  770MPD2    C411419   1.713   0.351  14.953 -0.1000 -0.4803  0.1025
  770MPD2    C511420   1.667   0.246  15.033 -0.3536  0.5047 -0.0746
  770MPD2     H11421   1.932   0.181  14.774 -0.7919 -1.1377 -0.6403
  770MPD2    H111422   1.673   0.451  14.970 -3.0798 -1.5785 -0.3970
  770MPD2    H211423   1.677   0.041  15.087  0.1470 -1.3224 -1.9708
  770MPD2    H311424   1.588   0.265  15.105 -2.6074 -0.0756 -2.3931
  770MPD2     N11425   1.868   0.420  14.773 -0.0717  0.1185  0.2921
  770MPD2    H511426   1.930   0.373  14.707 -1.6797 -1.3183 -0.1859
  770MPD2    N111427   1.884   4.702  14.932 -0.2040  0.2206 -0.6629
  770MPD2    H711428   1.844   4.644  15.004  0.0020  0.6243 -0.2242
  771MPD2     C11429   3.327   3.307  13.364 -0.4662 -0.6221  0.7281
  771MPD2    C111430   3.248   3.410  13.333  0.6197 -0.0522 -0.1641
  771MPD2    C211431   3.159   3.404  13.228 -0.7482 -0.2226  0.6025
  771MPD2    C311432   3.151   3.287  13.153 -0.7215  0.5679 -0.6777
  771MPD2    C411433   3.238   3.187  13.180 -0.3135  0.6219 -0.1898
  771MPD2    C511434   3.322   3.195  13.288  0.3846  0.0541 -0.3716
  771MPD2     H11435   3.085   3.482  13.216 -0.6283 -0.2873 -0.5499
  771MPD2    H111436   3.237   3.092  13.126  0.2445  0.9418 -0.7543
  771MPD2    H211437   3.391   3.306  13.451  3.2481  3.0297 -1.9559
  771MPD2    H311438   3.389   3.117  13.320  0.7433  1.1358  1.4887
  771MPD2     N11439   3.044   3.274  13.070 -0.6998 -0.3205  0.6861
  771MPD2    H511440   2.994   3.362  13.059  1.1874  0.5668 -0.8648
  771MPD2    N111441   3.258   3.532  13.406  0.2170 -0.0732 -0.0289
  771MPD2    H711442   3.198   3.607  13.371  0.0446 -0.2054 -0.0126
  772MPD2     C11443   2.726   4.001  13.621  0.2204 -0.3200 -0.6750
  772MPD2    C111444   2.780   3.867  13.634 -0.3880 -0.2003  0.2598
  772MPD2    C211445   2.691   3.767  13.657 -0.1678  0.4558  0.1835
  772MPD2    C311446   2.551   3.792  13.670  0.0463 -0.3620  0.0012
  772MPD2    C411447   2.506   3.926  13.661  0.7612 -1.0488  0.4385
  772MPD2    C511448   2.597   4.026  13.640 -0.0044  0.8807 -0.1339
  772MPD2     H11449   2.729   3.666  13.664  1.9203  1.1407 -1.5076
  772MPD2    H111450   2.402   3.957  13.662  1.4810  1.5477 -3.3878
  772MPD2    H211451   2.798   4.080  13.601 -1.1575  0.5898 -1.9919
  772MPD2    H311452   2.564   4.129  13.628 -2.3507 -0.1534 -2.4816
  772MPD2     N11453   2.450   3.696  13.684  0.1514  0.3049  0.1128
  772MPD2    H511454   2.353   3.728  13.679  0.2163  0.2988 -1.4656
  772MPD2    N111455   2.920   3.836  13.616  0.1462 -0.0529  0.3654
  772MPD2    H711456   2.940   3.740  13.641  0.5164 -0.3096 -0.9255
  773MPD2     C11457   2.451   4.493   0.195  0.1069  0.3729  0.6334
  773MPD2    C111458   2.379   4.401   0.119  0.2244 -0.1319 -0.2608
  773MPD2    C211459   2.382   4.262   0.156  0.0835  0.6645  0.2165
  773MPD2    C311460   2.466   4.217   0.262 -0.3670 -0.2441  0.4662
  773MPD2    C411461   2.530   4.318   0.340 -0.2687 -0.3760  0.4363
  773MPD2    C511462   2.520   4.449   0.303 -0.5089  0.9323 -0.2556
  773MPD2     H11463   2.325   4.202   0.086 -0.6561  1.4393  0.1699
  773MPD2    H111464   2.586   4.283   0.425  0.5568  0.6930  0.3394
  773MPD2    H211465   2.442   4.599   0.175  1.1022  0.7121  1.9292
  773MPD2    H311466   2.567   4.530   0.359  0.5216 -0.4381  0.8410
  773MPD2     N11467   2.476   4.076   0.288  0.0700 -0.4935 -0.0565
  773MPD2    H511468   2.421   4.015   0.229  0.6911 -0.1742 -0.9649
  773MPD2    N111469   2.291   4.441   0.018 -0.8685  0.3188 -0.3936
  773MPD2    H711470   2.242   4.366  17.697 -0.6583 -0.4883  0.6344
  774MPD2     C11471   1.027   3.575  13.163 -0.4608  0.4823 -0.0852
  774MPD2    C111472   1.086   3.571  13.288 -0.7986  0.1265 -0.2311
  774MPD2    C211473   1.200   3.644  13.309  0.4946 -0.4214 -0.9656
  774MPD2    C311474   1.252   3.720  13.205 -0.0355 -0.2980  0.1922
  774MPD2    C411475   1.193   3.714  13.081 -0.5797  0.0373  0.3812
  774MPD2    C511476   1.075   3.641  13.062 -0.4388  1.2306  0.3165
  774MPD2     H11477   1.241   3.640  13.410 -1.2966  0.5575 -0.2012
  774MPD2    H111478   1.235   3.774  13.001 -0.7527 -0.5095 -0.1282
  774MPD2    H211479   0.934   3.520  13.158 -0.6761  1.0444 -2.4991
  774MPD2    H311480   1.014   3.635  12.973 -1.5634  0.7354  1.1235
  774MPD2     N11481   1.364   3.801  13.240 -0.0188  0.3820 -0.5059
  774MPD2    H511482   1.400   3.804  13.334  0.5717 -0.4447 -0.7144
  774MPD2    N111483   1.029   3.478  13.378 -0.1633  0.1429 -0.2979
  774MPD2    H711484   0.964   3.415  13.333  0.2010 -0.2709 -0.2413
  775MPD2     C11485   2.983   0.353  15.577  0.6450  0.1860 -0.3583
  775MPD2    C111486   2.974   0.454  15.671 -0.7567  0.0245  0.8742
  775MPD2    C211487   3.058   0.566  15.644 -0.0529  0.3651  0.6662
  775MPD2    C311488   3.150   0.583  15.544 -1.0453  0.8211 -0.3042
  775MPD2    C411489   3.150   0.483  15.448  0.7872  0.9612 -0.2518
  775MPD2    C511490   3.068   0.376  15.471 -0.1687  0.3005 -1.1444
  775MPD2     H11491   3.043   0.653  15.708 -0.9398  1.2228 -0.6951
  775MPD2    H111492   3.215   0.482  15.362  1.2729  0.3645  0.1212
  775MPD2    H211493   2.945   0.252  15.583  2.8501 -0.4338  3.7023
  775MPD2    H311494   3.080   0.291  15.405  1.1830 -1.0138  0.7830
  775MPD2     N11495   3.221   0.703  15.518 -0.0002 -0.3429  0.6586
  775MPD2    H511496   3.277   0.698  15.434 -0.6356 -1.8453  0.3286
  775MPD2    N111497   2.896   0.438  15.783  0.2716 -0.1818  0.8808
  775MPD2    H711498   2.840   0.353  15.783  0.0684 -0.0461  1.4067
  776MPD2     C11499   2.575   0.804  12.054  0.9078 -0.0628 -0.0413
  776MPD2    C111500   2.490   0.879  11.973 -0.0429 -0.3030 -0.3523
  776MPD2    C211501   2.557   0.972  11.891 -1.1692  0.1659 -0.3896
  776MPD2    C311502   2.698   0.980  11.872 -0.2634  0.5173  0.5353
  776MPD2    C411503   2.777   0.902  11.961  0.0332  0.3504 -0.0065
  776MPD2    C511504   2.710   0.824  12.051  0.4721 -0.3148  0.0436
  776MPD2     H11505   2.505   1.033  11.818 -0.4408 -1.5920 -2.3870
  776MPD2    H111506   2.885   0.908  11.955  0.0292  0.2450 -0.1599
  776MPD2    H211507   2.525   0.733  12.120  1.8567  1.4295  2.2915
  776MPD2    H311508   2.764   0.760  12.119 -0.9612 -0.0014  1.4949
  776MPD2     N11509   2.758   1.061  11.772  0.1423  0.4178  0.6303
  776MPD2    H511510   2.856   1.040  11.762 -0.5010 -2.3505  0.1130
  776MPD2    N111511   2.359   0.837  11.956 -0.1878  0.6355  0.1140
  776MPD2    H711512   2.339   0.754  12.010 -2.5674 -0.6681 -2.8414
  777MPD2     C11513   2.386   2.627   0.910 -0.1195  0.1978 -0.4380
  777MPD2    C111514   2.255   2.650   0.934 -0.2074  0.1921  0.4001
  777MPD2    C211515   2.158   2.586   0.859 -0.9152 -0.2242 -0.0715
  777MPD2    C311516   2.189   2.502   0.756  0.3035 -0.2079  0.2793
  777MPD2    C411517   2.318   2.472   0.731  0.1987 -0.0222 -0.3105
  777MPD2    C511518   2.415   2.537   0.809 -0.0741  0.3581  0.3920
  777MPD2     H11519   2.052   2.600   0.880 -0.7634  1.4129 -0.4179
  777MPD2    H111520   2.352   2.395   0.662 -1.6969 -0.3794 -0.8348
  777MPD2    H211521   2.465   2.686   0.956 -1.1093  2.0195 -1.0926
  777MPD2    H311522   2.520   2.526   0.782  0.1365  0.3449  1.2278
  777MPD2     N11523   2.076   2.445   0.684  0.8031 -0.1134  0.1167
  777MPD2    H511524   1.984   2.460   0.724  1.2899  1.1085  0.7716
  777MPD2    N111525   2.236   2.745   1.039 -0.1536 -0.1450  0.0129
  777MPD2    H711526   2.322   2.778   1.083 -1.2815 -0.3309  2.3431
  778MPD2     C11527   3.405   3.294  14.798  0.3921 -0.4194  0.0879
  778MPD2    C111528   3.486   3.189  14.759  0.7483  0.2425 -0.0238
  778MPD2    C211529   3.564   3.198  14.644  0.5544 -1.0053  0.1721
  778MPD2    C311530   3.554   3.314  14.569  0.1125  0.3266  0.4589
  778MPD2    C411531   3.466   3.415  14.591  0.1890 -0.2784 -1.0155
  778MPD2    C511532   3.404   3.405  14.716  0.1723  0.1934 -0.3305
  778MPD2     H11533   3.616   3.110  14.609 -1.1335 -1.3040 -1.6025
  778MPD2    H111534   3.458   3.508  14.536  0.9272  1.8343  2.4599
  778MPD2    H211535   3.357   3.300  14.896  0.6221 -0.7275  0.2204
  778MPD2    H311536   3.358   3.499  14.744 -1.8684 -0.9181  0.0101
  778MPD2     N11537   3.607   3.329  14.440 -0.0524 -0.7126  0.3550
  778MPD2    H511538   3.556   3.393  14.379  0.7384 -0.6992 -0.2897
  778MPD2    N111539   3.492   3.065  14.825 -0.6862 -0.2237 -0.1027
  778MPD2    H711540   3.545   2.987  14.788 -2.2839 -1.7191  0.7378
  779MPD2     C11541   3.191   2.227  13.837  0.1099 -0.3006  0.2322
  779MPD2    C111542   3.200   2.204  13.970 -0.0554 -1.2388  0.9935
  779MPD2    C211543   3.212   2.321  14.055 -0.0632 -0.4812 -0.3305
  779MPD2    C311544   3.214   2.445  13.996 -0.0784 -0.2329 -0.3370
  779MPD2    C411545   3.202   2.457  13.860 -0.3370 -0.4685 -0.1878
  779MPD2    C511546   3.191   2.351  13.778  0.2621  0.0114  0.1688
  779MPD2     H11547   3.212   2.318  14.163 -1.4252 -3.2701 -0.4032
  779MPD2    H111548   3.225   2.550  13.810  0.0854  0.0918  1.0605
  779MPD2    H211549   3.202   2.142  13.771  0.2690  0.3495 -0.5774
  779MPD2    H311550   3.194   2.354  13.670  0.1844 -0.0309  0.1653
  779MPD2     N11551   3.242   2.556  14.081 -0.0372  0.9776 -0.1916
  779MPD2    H511552   3.266   2.537  14.178  2.0632 -3.2213 -1.5358
  779MPD2    N111553   3.197   2.078  14.036  0.5310 -0.7118 -0.1078
  779MPD2    H711554   3.215   2.075  14.136  1.6414  2.0168 -0.2095
  780MPD2     C11555   2.227   1.890   1.151  0.2798  0.1092  0.9395
  780MPD2    C111556   2.226   1.847   1.013  0.0758 -0.0154 -0.3436
  780MPD2    C211557   2.331   1.877   0.930  0.0352 -0.2752 -0.9638
  780MPD2    C311558   2.441   1.953   0.970 -0.5468  0.1729 -0.0524
  780MPD2    C411559   2.440   1.996   1.103  0.0533 -0.0479  0.4455
  780MPD2    C511560   2.336   1.968   1.193 -0.2666  0.7110 -0.1817
  780MPD2     H11561   2.342   1.839   0.829 -1.0075 -0.1252 -1.1349
  780MPD2    H111562   2.524   2.052   1.142 -0.6139  1.9704 -1.0094
  780MPD2    H211563   2.149   1.862   1.220 -1.5083  0.4602 -0.9324
  780MPD2    H311564   2.335   2.000   1.297  2.2135  0.5705 -0.1181
  780MPD2     N11565   2.534   1.990   0.873 -0.4024 -0.4079 -0.0054
  780MPD2    H511566   2.512   1.955   0.780 -1.2152 -0.0304  0.0396
  780MPD2    N111567   2.116   1.770   0.972 -0.1418  0.4548  0.7095
  780MPD2    H711568   2.040   1.772   1.039  0.2426  0.1551  1.1544
  781MPD2     C11569   3.522   4.421  12.120 -0.0665 -0.2352 -0.0475
  781MPD2    C111570   3.654   4.392  12.158 -0.0292 -0.5542 -0.1977
  781MPD2    C211571   3.756   4.419  12.075  0.1790  0.5518 -1.1658
  781MPD2    C311572   3.736   4.491  11.958 -0.4802  0.9604 -0.0951
  781MPD2    C411573   3.607   4.521  11.926 -0.3281  0.5133  0.8526
  781MPD2    C511574   3.502   4.496  12.011 -0.1772 -0.0040  0.1500
  781MPD2     H11575   3.857   4.417  12.114 -0.6961 -1.0228  0.9823
  781MPD2    H111576   3.584   4.577  11.836 -0.4134  0.0403  0.5758
  781MPD2    H211577   3.441   4.386  12.183 -0.0471  0.6085  0.4418
  781MPD2    H311578   3.400   4.519  11.981 -1.3378 -3.6013  1.2427
  781MPD2     N11579   3.834   4.510  11.858 -0.6234  0.1325 -0.2886
  781MPD2    H511580   3.800   4.558  11.775  1.6835  0.4290 -1.0689
  781MPD2    N111581   3.693   4.324  12.278  0.1993 -0.1404  0.6292
  781MPD2    H711582   3.794   4.322  12.290  0.0353  1.9254  2.5204
  782MPD2     C11583   2.164   0.632   9.989 -0.1211  0.3721 -0.4231
  782MPD2    C111584   2.239   0.537  10.054 -0.6017  0.7729 -0.2770
  782MPD2    C211585   2.293   0.573  10.173  0.4865 -0.2949 -0.4045
  782MPD2    C311586   2.280   0.698  10.236  0.2823  0.0442 -0.4616
  782MPD2    C411587   2.202   0.792  10.171  0.1063  0.7409  0.1733
  782MPD2    C511588   2.147   0.757  10.052 -0.1578  0.2498  0.0401
  782MPD2     H11589   2.355   0.503  10.227  0.7084 -0.9069 -1.4603
  782MPD2    H111590   2.181   0.889  10.215  1.7753  2.1478 -2.1043
  782MPD2    H211591   2.106   0.615   9.900  0.0254 -0.7359 -0.3105
  782MPD2    H311592   2.096   0.838  10.000 -2.1397  0.5559  2.4376
  782MPD2     N11593   2.331   0.714  10.371  0.4850  0.5933 -0.1500
  782MPD2    H511594   2.393   0.639  10.400 -0.5701 -0.4838 -0.6800
  782MPD2    N111595   2.249   0.411   9.998 -0.0412 -0.4530 -0.2261
  782MPD2    H711596   2.187   0.388   9.921  1.0992 -2.8125 -0.4535
  783MPD2     C11597   1.677   0.140  10.405 -0.9796 -0.4457 -0.0582
  783MPD2    C111598   1.803   0.123  10.458  0.0656  0.3911 -0.1443
  783MPD2    C211599   1.911   0.088  10.374  0.4369  0.4106  0.2515
  783MPD2    C311600   1.892   0.084  10.237 -0.1294  0.0512 -0.4791
  783MPD2    C411601   1.768   0.108  10.184 -0.3870 -0.0489  0.0573
  783MPD2    C511602   1.664   0.126  10.268 -0.0117 -0.0405  0.1921
  783MPD2     H11603   2.004   0.068  10.426  0.0235  0.8961  1.1810
  783MPD2    H111604   1.758   0.120  10.076  0.8380  0.6159  0.0267
  783MPD2    H211605   1.583   0.147  10.459 -1.4517  0.3757 -0.9854
  783MPD2    H311606   1.571   0.146  10.216  0.4762 -0.7134 -0.9218
  783MPD2     N11607   2.015   0.061  10.173  0.5271  0.2561 -0.3323
  783MPD2    H511608   2.093   0.048  10.236 -0.0908  0.0818  0.3837
  783MPD2    N111609   1.819   0.136  10.598  0.5829 -0.1171 -0.1084
  783MPD2    H711610   1.737   0.157  10.655 -0.0797 -2.9412 -0.0333
  784MPD2     C11611   4.024   4.401   1.031 -0.5105 -0.5020 -0.4375
  784MPD2    C111612   4.076   4.527   1.011 -0.2831  0.7302 -0.3050
  784MPD2    C211613   4.020   4.612   0.923  0.4309  0.4372 -0.2647
  784MPD2    C311614   3.904   4.581   0.857  0.0649  0.5449 -0.5089
  784MPD2    C411615   3.851   4.454   0.872 -0.4377 -0.3269  0.0833
  784MPD2    C511616   3.910   4.369   0.962 -0.5070 -0.4764 -0.6402
  784MPD2     H11617   4.068   4.705   0.898  0.2024  0.9288  1.1023
  784MPD2    H111618   3.758   4.421   0.828 -0.1422 -0.1149 -0.7022
  784MPD2    H211619   4.052   4.337   1.114  1.2806  1.8565  0.7646
  784MPD2    H311620   3.862   4.274   0.981 -0.4974 -0.3150  0.1665
  784MPD2     N11621   3.844   4.682   0.770 -0.1529 -0.1797 -0.8474
  784MPD2    H511622   3.894   0.038   0.759  0.2414 -0.0180  2.1778
  784MPD2    N111623   4.179   4.578   1.090  0.0643 -0.0197 -0.3699
  784MPD2    H711624   4.200   4.678   1.086  3.1103 -0.6499 -0.0144
  785MPD2     C11625   0.684   3.657  10.953  0.0324  0.5370  0.0431
  785MPD2    C111626   0.552   3.682  10.916  0.2996  0.4725  0.0331
  785MPD2    C211627   0.486   3.589  10.840 -0.3369  0.2536 -0.4158
  785MPD2    C311628   0.542   3.470  10.805 -0.2262  0.6269  0.1755
  785MPD2    C411629   0.676   3.446  10.852 -0.1607 -0.0631 -1.6288
  785MPD2    C511630   0.742   3.535  10.927 -0.6553 -0.2170  0.5475
  785MPD2     H11631   0.391   3.608  10.791 -0.7498  0.5490  0.5046
  785MPD2    H111632   0.735   3.359  10.825 -2.1899 -2.0415  0.2380
  785MPD2    H211633   0.751   3.736  10.985 -0.9151  1.4602 -0.2654
  785MPD2    H311634   0.845   3.517  10.953 -0.7291 -1.9202 -0.3432
  785MPD2     N11635   0.472   3.381  10.719 -0.1076 -0.2087  0.8189
  785MPD2    H511636   0.376   3.406  10.698  0.3038 -0.6180 -1.5424
  785MPD2    N111637   0.506   3.812  10.943 -0.0048 -0.1690  0.1055
  785MPD2    H711638   0.568   3.873  10.995  0.5939 -0.6454 -0.0599
  786MPD2     C11639   3.442   1.446  14.517 -0.1195  0.3999  0.5543
  786MPD2    C111640   3.553   1.371  14.520  0.3686  0.5229 -0.2070
  786MPD2    C211641   3.643   1.373  14.626 -0.6403 -0.3049  0.1755
  786MPD2    C311642   3.623   1.452  14.736  0.1925 -0.1243 -0.1681
  786MPD2    C411643   3.516   1.534  14.734 -0.6453  0.1771  0.1809
  786MPD2    C511644   3.427   1.516  14.633  0.2145 -0.4617 -0.2835
  786MPD2     H11645   3.708   1.287  14.635  0.8924  0.9632  1.0599
  786MPD2    H111646   3.505   1.612  14.809 -0.0543  0.4492 -0.0113
  786MPD2    H211647   3.372   1.454  14.434 -0.8278  0.0777  1.1207
  786MPD2    H311648   3.351   1.592  14.641  0.1882 -0.6187  0.8751
  786MPD2     N11649   3.722   1.451  14.834  0.3958 -0.2835 -0.5939
  786MPD2    H511650   3.689   1.504  14.914 -2.0452  0.3850 -2.0381
  786MPD2    N111651   3.607   1.312  14.404 -0.3373 -0.3446  0.5586
  786MPD2    H711652   3.703   1.278  14.413 -0.3026 -0.4142 -0.0701
  787MPD2     C11653   4.158   1.299  14.406  0.0784  0.1220 -0.3760
  787MPD2    C111654   4.117   1.198  14.320 -0.5384 -0.2161  0.2332
  787MPD2    C211655   4.155   1.066  14.349 -0.4594  0.2309  0.2797
  787MPD2    C311656   4.242   1.042  14.459 -0.1312  0.0033  0.4827
  787MPD2    C411657   4.289   1.145  14.536  0.2195 -0.2463  0.2294
  787MPD2    C511658   4.246   1.275  14.514  0.0627 -0.2155  0.3823
  787MPD2     H11659   4.118   0.985  14.287  0.9470  1.4091 -2.0959
  787MPD2    H111660   4.355   1.126  14.621  0.2944  0.6117  0.3680
  787MPD2    H211661   4.123   1.401  14.391 -0.1506  0.1071  0.0364
  787MPD2    H311662   4.281   1.355  14.579  1.1321  0.6260 -1.2389
  787MPD2     N11663   4.275   0.903  14.485  0.2163  0.9210  0.0390
  787MPD2    H511664   4.235   0.834  14.423  1.1725  0.2058  0.2161
  787MPD2    N111665   4.018   1.235  14.222  0.7762  0.6087  0.0918
  787MPD2    H711666   3.980   1.328  14.221  0.0718  0.3160 -0.6232
  788MPD2     C11667   1.037   3.692   0.600 -0.0007  0.0227  0.0155
  788MPD2    C111668   0.971   3.674   0.480  0.5301 -0.1114  0.4077
  788MPD2    C211669   0.936   3.775   0.402  1.1576 -0.1135 -0.3117
  788MPD2    C311670   0.972   3.901   0.437 -0.8096  0.0302  0.0837
  788MPD2    C411671   1.019   3.921   0.563 -1.0831 -0.9510 -0.0218
  788MPD2    C511672   1.045   3.820   0.647 -0.3563  0.3245 -1.0084
  788MPD2     H11673   0.898   3.749   0.304  0.2106  2.9120 -0.7458
  788MPD2    H111674   1.018   4.025   0.593 -2.4514 -0.2083 -2.6688
  788MPD2    H211675   1.066   3.619   0.676 -0.2223 -0.7126 -0.6026
  788MPD2    H311676   1.087   3.845   0.744 -3.0654  3.4752 -0.6539
  788MPD2     N11677   0.955   4.014   0.352 -0.6472  0.8148 -0.6315
  788MPD2    H511678   1.000   4.100   0.384 -1.3630  1.1746 -0.5879
  788MPD2    N111679   0.938   3.544   0.443 -0.4027 -0.4318 -0.5045
  788MPD2    H711680   0.875   3.555   0.364  0.0880  2.5884 -0.4935
  789MPD2     C11681   1.253   3.805  16.514  0.4283 -0.3337  0.3191
  789MPD2    C111682   1.155   3.718  16.468 -0.0264 -0.0445  0.2526
  789MPD2    C211683   1.033   3.767  16.424  0.4316  0.4898  0.2344
  789MPD2    C311684   1.007   3.903  16.439  0.3274  0.2140 -0.7641
  789MPD2    C411685   1.104   3.989  16.489 -0.0556 -0.2375  0.4864
  789MPD2    C511686   1.224   3.941  16.518  0.9025 -0.1244 -0.7729
  789MPD2     H11687   0.953   3.697  16.402 -0.1136  1.0583  0.4217
  789MPD2    H111688   1.083   4.091  16.520  2.1332  0.6310 -0.9075
  789MPD2    H211689   1.357   3.784  16.536  0.3271 -0.4486  0.6961
  789MPD2    H311690   1.299   4.003  16.567  1.5179 -0.5561 -1.1717
  789MPD2     N11691   0.875   3.952  16.420 -0.0685 -0.5682  0.4646
  789MPD2    H511692   0.801   3.887  16.397 -0.8494 -0.4484  2.5747
  789MPD2    N111693   1.173   3.577  16.476 -0.0921 -0.0735 -0.2342
  789MPD2    H711694   1.095   3.520  16.443 -1.3733  2.3292 -1.3821
  790MPD2     C11695   1.937   1.803  13.180  0.8427  0.7812  0.2813
  790MPD2    C111696   1.998   1.697  13.245 -0.5387  0.5084  0.0360
  790MPD2    C211697   1.983   1.573  13.194  0.5488  0.2646  0.5073
  790MPD2    C311698   1.915   1.543  13.077  0.5912 -0.0271  0.0495
  790MPD2    C411699   1.855   1.651  13.010 -0.5981  0.3726  0.1857
  790MPD2    C511700   1.866   1.779  13.061 -0.1695 -0.5034 -0.3989
  790MPD2     H11701   2.026   1.487  13.244 -1.2835  0.1633  1.9074
  790MPD2    H111702   1.799   1.642  12.918 -1.1466 -1.4302  0.7021
  790MPD2    H211703   1.947   1.904  13.218 -0.8447  0.5039  1.5007
  790MPD2    H311704   1.814   1.866  13.023 -0.1585  0.3475  1.5341
  790MPD2     N11705   1.904   1.411  13.032 -0.0564  0.6079  0.0392
  790MPD2    H511706   1.932   1.337  13.096 -1.6998 -0.6058 -0.6579
  790MPD2    N111707   2.072   1.727  13.365  0.2575 -0.1354 -0.3166
  790MPD2    H711708   2.083   1.824  13.393  0.9209 -0.1149 -0.6583
  791MPD2     C11709   1.452   1.152  12.496 -0.3099  0.5541  0.2089
  791MPD2    C111710   1.452   1.057  12.597  0.2091  0.2025  0.5597
  791MPD2    C211711   1.343   0.972  12.608 -0.5410  0.5303  0.1419
  791MPD2    C311712   1.243   0.971  12.512 -0.4978  0.3885 -0.3100
  791MPD2    C411713   1.250   1.064  12.416 -1.2520  0.4998  0.9267
  791MPD2    C511714   1.354   1.151  12.394  0.4783  0.2954  0.1089
  791MPD2     H11715   1.344   0.908  12.696 -2.2810 -0.2968 -0.4521
  791MPD2    H111716   1.170   1.067  12.342  0.0921  1.6363 -0.4820
  791MPD2    H211717   1.528   1.229  12.503 -0.7803  0.9428  1.0559
  791MPD2    H311718   1.354   1.233  12.323  0.5473 -0.3420 -0.6245
  791MPD2     N11719   1.147   0.865  12.511  0.0567  0.1619  0.0205
  791MPD2    H511720   1.144   0.802  12.591  0.3542 -0.1151 -0.1902
  791MPD2    N111721   1.565   1.060  12.681  0.5483  0.6300 -0.0267
  791MPD2    H711722   1.639   1.127  12.660  0.2635  1.2834  1.0364
  792MPD2     C11723   1.952   1.462  11.121  0.4303  0.4905  1.0641
  792MPD2    C111724   1.837   1.541  11.100  0.4384  0.3520  0.2099
  792MPD2    C211725   1.715   1.507  11.151 -0.5631  0.3487 -0.4049
  792MPD2    C311726   1.700   1.381  11.212 -0.5606  0.0028  0.1807
  792MPD2    C411727   1.809   1.301  11.234  0.0030 -0.0087  0.2076
  792MPD2    C511728   1.934   1.345  11.192 -0.0305 -0.5004 -0.8477
  792MPD2     H11729   1.621   1.558  11.131 -0.9135 -0.0032  0.3318
  792MPD2    H111730   1.804   1.215  11.299  1.1463  1.4205  2.2105
  792MPD2    H211731   2.052   1.500  11.103  0.3721  0.7254  1.2340
  792MPD2    H311732   2.022   1.287  11.218 -0.6837 -1.1333 -0.0441
  792MPD2     N11733   1.580   1.321  11.248 -0.0603 -0.8526  0.3067
  792MPD2    H511734   1.584   1.232  11.297 -1.1328 -1.1237 -0.1041
  792MPD2    N111735   1.861   1.652  11.013 -0.7440 -0.0744 -0.8916
  792MPD2    H711736   1.957   1.669  10.984 -0.2252 -0.8969  0.4042
  793MPD2     C11737   0.879   1.036  10.724  1.0523 -0.5038 -0.2383
  793MPD2    C111738   1.014   1.032  10.711  0.0374  0.2096  0.2003
  793MPD2    C211739   1.086   1.048  10.832 -0.4319  0.1783  1.4963
  793MPD2    C311740   1.021   1.071  10.958  0.4179  0.7591  0.1216
  793MPD2    C411741   0.884   1.064  10.963  0.7016 -0.2787  0.4589
  793MPD2    C511742   0.815   1.041  10.846  0.4962 -0.1493  0.6279
  793MPD2     H11743   1.194   1.041  10.837 -0.3610 -0.7657 -1.2545
  793MPD2    H111744   0.833   1.057  11.058 -1.9431  0.2531 -0.9397
  793MPD2    H211745   0.812   1.018  10.641  0.0327  2.5200 -0.0942
  793MPD2    H311746   0.707   1.029  10.843  0.5469 -1.0083  1.8677
  793MPD2     N11747   1.108   1.084  11.067 -0.1379 -0.5762  0.1116
  793MPD2    H511748   1.206   1.095  11.045 -0.1027  1.3469  1.2326
  793MPD2    N111749   1.088   1.006  10.588 -0.0183 -0.2087  0.1144
  793MPD2    H711750   1.188   0.994  10.599  0.0320  0.7568  0.6992
  794MPD2     C11751   2.141   0.192  17.044 -0.2890  0.3885  0.3355
  794MPD2    C111752   2.057   0.076  17.047  0.0498 -0.8371  1.0481
  794MPD2    C211753   1.979   0.054  16.934  0.1993  0.4506 -0.1701
  794MPD2    C311754   1.978   0.143  16.823  0.0118 -0.3387 -0.0905
  794MPD2    C411755   2.065   0.247  16.826 -0.9991  0.1189 -0.3415
  794MPD2    C511756   2.145   0.270  16.936  0.6093  0.2238 -0.3579
  794MPD2     H11757   1.913   4.701  16.928  0.5439  0.1521  0.3064
  794MPD2    H111758   2.076   0.328  16.756 -1.2584  2.5358  2.4043
  794MPD2    H211759   2.187   0.227  17.136  2.7722 -0.2690 -0.9450
  794MPD2    H311760   2.207   0.359  16.934  0.4144  0.3594 -0.3996
  794MPD2     N11761   1.886   0.137  16.718 -0.1645  0.0544 -0.0550
  794MPD2    H511762   1.878   0.221  16.661 -2.3900  0.0998  0.3193
  794MPD2    N111763   2.044   0.003  17.164  0.1396  0.3553  0.2348
  794MPD2    H711764   1.973   4.662  17.161  2.1272 -1.5097 -1.1244
  795MPD2     C11765   4.388   2.285  13.559  0.0405 -0.5396 -0.2891
  795MPD2    C111766   4.307   2.174  13.552 -0.1774 -0.6546 -0.0315
  795MPD2    C211767   4.357   2.059  13.601  0.2674  0.5431 -0.4605
  795MPD2    C311768   4.497   2.041  13.638 -0.1766 -0.5424  0.0280
  795MPD2    C411769   4.569   2.159  13.636  0.6256  0.1462  0.3287
  795MPD2    C511770   4.518   2.278  13.598 -0.0295  0.4852  0.1413
  795MPD2     H11771   4.287   1.977  13.607 -0.1279  0.7721 -1.9887
  795MPD2    H111772   4.673   2.155  13.665  0.7600 -0.4189 -0.2160
  795MPD2    H211773   4.357   2.383  13.524 -3.0002 -1.4117 -0.0148
  795MPD2    H311774   4.578   2.368  13.589  0.7673 -0.0865 -0.2614
  795MPD2     N11775   4.547   1.917  13.691  0.1723  0.6029  0.0888
  795MPD2    H511776   4.481   1.846  13.720  1.0953  0.0994  0.9517
  795MPD2    N111777   4.171   2.178  13.509 -0.6089 -0.0251 -0.3368
  795MPD2    H711778   4.117   2.094  13.524 -0.7003  0.1812  0.4565
  796MPD2     C11779   3.893   3.779  15.581  0.3212  0.1769  0.0411
  796MPD2    C111780   3.937   3.832  15.703  0.4902  0.1683 -0.3428
  796MPD2    C211781   3.920   3.967  15.719  0.4099  0.7169 -0.6029
  796MPD2    C311782   3.872   4.049  15.621 -0.7684  0.9218  0.8152
  796MPD2    C411783   3.846   3.993  15.501 -0.3683 -0.2467  0.0731
  796MPD2    C511784   3.854   3.863  15.479 -0.4706 -0.3323 -0.0471
  796MPD2     H11785   3.940   4.013  15.816  0.8630 -0.7927  0.0203
  796MPD2    H111786   3.808   4.056  15.421  0.9425 -0.8731 -1.0464
  796MPD2    H211787   3.901   3.672  15.561  0.8602 -0.0882  1.7045
  796MPD2    H311788   3.820   3.816  15.387  1.7286  0.3120 -1.1962
  796MPD2     N11789   3.869   4.184  15.651 -0.1554 -0.4707  0.2313
  796MPD2    H511790   3.888   4.208  15.747 -1.6822  2.0617 -0.0863
  796MPD2    N111791   4.002   3.756  15.801 -0.9356  0.5067  0.3558
  796MPD2    H711792   3.993   3.657  15.781 -0.5108  0.0525  2.4076
  797MPD2     C11793   4.479   3.088  17.186 -0.1630  0.9674 -0.0416
  797MPD2    C111794   4.608   3.123  17.206  0.2174 -0.5201  0.5469
  797MPD2    C211795   4.674   3.216  17.131  0.0276 -0.4340 -0.3823
  797MPD2    C311796   4.603   3.288  17.040 -0.3344  0.2217  0.3107
  797MPD2    C411797   4.467   3.260  17.019  0.3889 -0.1164  0.1172
  797MPD2    C511798   4.404   3.160  17.092 -0.0453  0.0214  0.2029
  797MPD2     H11799   0.046   3.237  17.154 -0.2997  0.1999  0.5772
  797MPD2    H111800   4.405   3.323  16.955 -1.2922 -1.5808  0.2963
  797MPD2    H211801   4.429   3.001  17.229  1.2870 -0.1812 -0.6720
  797MPD2    H311802   4.302   3.138  17.063 -0.5318  0.7075  1.3768
  797MPD2     N11803   4.654   3.393  16.965  0.0499  0.4816 -0.2091
  797MPD2    H511804   4.601   3.425  16.885 -0.8622  0.2357  0.2890
  797MPD2    N111805   4.688   3.052  17.300 -1.3313  0.3004 -0.2161
  797MPD2    H711806   0.049   3.091  17.314 -1.3450  0.5093 -0.6887
  798MPD2     C11807   0.609   3.279  17.022 -0.4103  0.4520 -0.2157
  798MPD2    C111808   0.481   3.322  17.059  0.1291 -1.6933 -0.7135
  798MPD2    C211809   0.406   3.248  17.148 -0.3007 -1.0234  0.1849
  798MPD2    C311810   0.451   3.129  17.205  0.2915 -0.2512 -0.1079
  798MPD2    C411811   0.582   3.093  17.172 -0.1671  0.0155 -0.7948
  798MPD2    C511812   0.657   3.169  17.085  0.6336 -0.7559  0.1962
  798MPD2     H11813   0.303   3.276  17.169 -0.5006 -1.3852 -0.3011
  798MPD2    H111814   0.622   3.003  17.217  1.3762  1.2181  0.2090
  798MPD2    H211815   0.670   3.327  16.947  1.8328 -0.7410  0.8361
  798MPD2    H311816   0.756   3.124  17.083  0.6437 -0.6460 -1.4784
  798MPD2     N11817   0.372   3.068  17.298  0.1760  1.3739 -0.0364
  798MPD2    H511818   0.279   3.105  17.315 -0.0387  1.5407 -1.5445
  798MPD2    N111819   0.416   3.442  17.006  0.7827  0.7421  0.1524
  798MPD2    H711820   0.322   3.454  17.043 -0.2875 -0.7482 -2.1110
  799MPD2     C11821   3.807   0.347  14.432 -0.1025  0.2749 -0.6596
  799MPD2    C111822   3.684   0.303  14.472 -0.5434  0.2866  1.1894
  799MPD2    C211823   3.563   0.377  14.440 -0.6194 -0.1844 -0.5745
  799MPD2    C311824   3.583   0.493  14.362 -0.0263 -0.6007 -0.2640
  799MPD2    C411825   3.708   0.525  14.316 -0.0189 -0.3900 -0.0089
  799MPD2    C511826   3.819   0.459  14.353 -0.4347 -0.6252 -0.0073
  799MPD2     H11827   3.467   0.348  14.482  0.0511 -0.3424  0.8231
  799MPD2    H111828   3.720   0.610  14.251  0.9306 -0.3628  0.2027
  799MPD2    H211829   3.896   0.287  14.443  0.5310  1.3068 -0.0524
  799MPD2    H311830   3.917   0.493  14.323 -1.4156  1.0158 -1.3582
  799MPD2     N11831   3.479   0.567  14.309 -0.0025  0.5275  0.8024
  799MPD2    H511832   3.504   0.641  14.243  0.3368 -0.7817 -0.5503
  799MPD2    N111833   3.668   0.178  14.544  0.6702  0.5069 -0.5809
  799MPD2    H711834   3.573   0.144  14.555  0.2147  2.0532  0.2541
  800MPD2     C11835   4.073   1.604  14.165  0.4828 -0.6644 -0.2654
  800MPD2    C111836   4.176   1.551  14.094 -0.0098  0.0858 -0.4717
  800MPD2    C211837   4.142   1.473  13.984 -0.0970  0.5759 -0.0341
  800MPD2    C311838   4.011   1.441  13.947  0.8362 -0.1782 -0.0833
  800MPD2    C411839   3.909   1.502  14.016  0.1626 -0.1572 -0.2949
  800MPD2    C511840   3.945   1.584  14.124  0.5494 -0.4042 -0.2474
  800MPD2     H11841   4.224   1.433  13.925 -0.5367 -1.2076  0.5709
  800MPD2    H111842   3.806   1.478  13.993  0.8332 -1.4482 -1.9944
  800MPD2    H211843   4.089   1.687  14.233  2.0872  0.1914 -1.7142
  800MPD2    H311844   3.864   1.651  14.151  0.6786 -0.3586  0.0246
  800MPD2     N11845   3.979   1.342  13.850  0.7192 -0.2111  0.1559
  800MPD2    H511846   4.059   1.297  13.806  1.7670  3.3901 -1.6542
  800MPD2    N111847   4.309   1.576  14.131 -0.0651 -0.4863 -0.1658
  800MPD2    H711848   4.315   1.647  14.204  0.0467  0.7586 -1.3761
  801MPD2     C11849   4.602   2.126  14.024  0.4497  0.1281  1.0365
  801MPD2    C111850   4.570   2.072  14.150  0.2109  0.0598 -0.2770
  801MPD2    C211851   4.474   2.137  14.225  0.7726 -0.3205  0.9723
  801MPD2    C311852   4.395   2.242  14.173 -0.4177 -0.5843 -0.3267
  801MPD2    C411853   4.414   2.281  14.045 -0.3301 -0.2561 -0.3747
  801MPD2    C511854   4.516   2.224  13.978  0.2476  0.4215 -0.1251
  801MPD2     H11855   4.460   2.096  14.324  1.3398 -0.9736  0.7834
  801MPD2    H111856   4.371   2.359  13.983 -1.9115 -1.3836 -0.6897
  801MPD2    H211857   4.674   2.084  13.955 -0.5126 -1.9132  1.2611
  801MPD2    H311858   4.541   2.260  13.879 -0.0608  0.2539 -0.2639
  801MPD2     N11859   4.292   2.303  14.251 -0.2110  0.8552 -0.7969
  801MPD2    H511860   4.217   2.350  14.202 -1.0874 -2.0902 -2.3166
  801MPD2    N111861   4.626   1.954  14.206 -0.6194 -0.9948 -0.1039
  801MPD2    H711862   4.585   1.912  14.289 -0.0332 -2.0232 -0.3262
  802MPD2     C11863   2.985   2.328  17.254  0.3389  0.0529 -0.8032
  802MPD2    C111864   3.120   2.326  17.283 -0.2455  0.1915 -0.1409
  802MPD2    C211865   3.197   2.219  17.241 -0.6982 -0.1397 -0.4713
  802MPD2    C311866   3.139   2.118  17.172  0.5177  0.4268  0.3515
  802MPD2    C411867   2.999   2.117  17.149 -0.7078 -0.4476 -0.4635
  802MPD2    C511868   2.922   2.223  17.194  0.2300  0.3770  0.4375
  802MPD2     H11869   3.304   2.217  17.259 -0.6679  0.4851 -0.5777
  802MPD2    H111870   2.944   2.036  17.101 -2.7655 -0.8977  2.6451
  802MPD2    H211871   2.918   2.401  17.297 -0.0896 -1.3105  0.8798
  802MPD2    H311872   2.814   2.229  17.185  0.2280 -1.4798 -0.8698
  802MPD2     N11873   3.220   2.021  17.117  0.0446 -0.4856  0.0302
  802MPD2    H511874   3.321   2.033  17.126  0.3139 -1.3495 -1.8244
  802MPD2    N111875   3.182   2.416  17.370 -0.1093 -0.2710 -0.1398
  802MPD2    H711876   3.272   2.386  17.407  0.7326  1.4549 -0.8087
  803MPD2     C11877   4.701   0.615  12.144 -0.0633  0.1939 -0.2920
  803MPD2    C111878   0.083   0.655  12.220 -0.6861 -0.2535 -0.3552
  803MPD2    C211879   0.071   0.655  12.359  0.6856 -0.0425  0.1798
  803MPD2    C311880   4.686   0.611  12.419  0.1252  0.4437 -0.0974
  803MPD2    C411881   4.584   0.565  12.343  0.3344  0.6585  0.4024
  803MPD2    C511882   4.591   0.558  12.203  0.1788  0.4931  0.1211
  803MPD2     H11883   0.155   0.700  12.410  0.3438  0.8276 -0.0289
  803MPD2    H111884   4.487   0.541  12.387  0.5077  0.6182  0.7584
  803MPD2    H211885   4.700   0.624  12.036 -0.2159  1.5945 -0.1753
  803MPD2    H311886   4.503   0.528  12.146 -0.4516 -1.5769  2.1851
  803MPD2     N11887   4.650   0.636  12.555 -0.7907  0.0246  0.0510
  803MPD2    H511888   4.555   0.623  12.586 -1.3182  0.0728 -1.5681
  803MPD2    N111889   0.194   0.715  12.160 -0.3558 -0.0809  0.1507
  803MPD2    H711890   0.268   0.736  12.226  0.7319  0.5446 -1.2704
  804MPD2     C11891   3.813   1.784  16.616  0.4058  0.1912 -0.3738
  804MPD2    C111892   3.863   1.791  16.742  0.1714 -0.8823  0.0333
  804MPD2    C211893   3.946   1.894  16.774  0.2122  0.2840 -0.6564
  804MPD2    C311894   3.982   1.985  16.675 -0.3776  0.1648  0.1677
  804MPD2    C411895   3.942   1.970  16.543 -0.0626 -0.2090 -0.7673
  804MPD2    C511896   3.854   1.870  16.516 -0.1153 -0.1589 -0.9286
  804MPD2     H11897   3.992   1.903  16.871  0.6570 -0.0803 -0.8327
  804MPD2    H111898   3.975   2.043  16.469  2.5538 -0.4230  0.1998
  804MPD2    H211899   3.746   1.701  16.595  0.9398 -0.2187 -0.4557
  804MPD2    H311900   3.814   1.869  16.415  0.2859 -0.1278 -1.0878
  804MPD2     N11901   4.060   2.100  16.707  0.5521 -0.2913 -0.3150
  804MPD2    H511902   4.069   2.177  16.640 -0.4364 -0.5250 -0.7147
  804MPD2    N111903   3.828   1.692  16.844  0.2515  0.0928 -0.8878
  804MPD2    H711904   3.862   1.709  16.938 -1.7975  0.0955 -0.1435
  805MPD2     C11905   3.510   0.443  15.287 -0.5454 -0.2318  0.3468
  805MPD2    C111906   3.600   0.538  15.238 -0.6032 -0.4298  0.4871
  805MPD2    C211907   3.734   0.529  15.271 -0.3913  0.0150  1.0905
  805MPD2    C311908   3.786   0.431  15.351 -0.8800  0.7171 -0.2125
  805MPD2    C411909   3.696   0.339  15.396  0.2114  0.1955  0.5433
  805MPD2    C511910   3.562   0.348  15.365  0.0306 -0.4755 -0.4354
  805MPD2     H11911   3.808   0.602  15.238  1.8789 -2.7645  0.0000
  805MPD2    H111912   3.731   0.253  15.452  2.1438  1.6149  1.5232
  805MPD2    H211913   3.408   0.439  15.251 -0.4692  0.4064  0.0586
  805MPD2    H311914   3.500   0.263  15.392  1.6523 -1.6746 -0.4699
  805MPD2     N11915   3.927   0.427  15.369 -0.2552  0.3913  0.7350
  805MPD2    H511916   3.981   0.506  15.337 -2.0693  0.4557 -2.1572
  805MPD2    N111917   3.553   0.641  15.153 -0.4248 -0.0350  0.0581
  805MPD2    H711918   3.618   0.709  15.113 -0.1957  0.9625  2.1595
  806MPD2     C11919   4.107   4.383   0.637 -0.3396  0.4244  0.0905
  806MPD2    C111920   4.207   4.473   0.659  0.2567  0.3167  0.1587
  806MPD2    C211921   4.216   4.589   0.580  0.7434  0.1124  0.0897
  806MPD2    C311922   4.125   4.622   0.483  0.1407 -0.4280 -0.3211
  806MPD2    C411923   4.016   4.526   0.462 -0.5426  0.1069 -0.5366
  806MPD2    C511924   4.018   4.405   0.530 -0.4901  0.5991 -0.7470
  806MPD2     H11925   4.300   4.655   0.596  0.8538  0.1360 -0.6076
  806MPD2    H111926   3.938   4.541   0.388  0.5525 -0.9340 -1.8930
  806MPD2    H211927   4.093   4.299   0.704  0.3969 -0.2430 -0.5967
  806MPD2    H311928   3.941   4.332   0.505  1.9365 -1.7821 -1.2567
  806MPD2     N11929   4.139   0.009   0.412 -0.7014 -0.1402  0.4542
  806MPD2    H511930   4.214   0.067   0.449  0.2015 -0.3123 -1.0709
  806MPD2    N111931   4.300   4.433   0.767 -0.3523  0.1586 -0.5776
  806MPD2    H711932   4.278   4.343   0.809 -0.2747  0.7350  0.6766
  807MPD2     C11933   4.362   3.915   1.302  0.5894 -0.7240  0.0932
  807MPD2    C111934   4.318   4.049   1.289 -1.2673 -0.1717 -0.4123
  807MPD2    C211935   4.206   4.089   1.360 -0.4861  0.2216  0.0166
  807MPD2    C311936   4.137   4.000   1.441 -0.2263  0.5101 -0.1699
  807MPD2    C411937   4.188   3.870   1.451 -0.0960  0.3154  0.0372
  807MPD2    C511938   4.291   3.828   1.376  0.0006 -0.2988  0.4161
  807MPD2     H11939   4.158   4.185   1.344 -1.0913  0.0457  0.7554
  807MPD2    H111940   4.144   3.796   1.517  0.8173  0.1332  0.4430
  807MPD2    H211941   4.458   3.884   1.263 -0.4593 -2.8756 -0.7951
  807MPD2    H311942   4.333   3.730   1.393  0.1615 -0.2523  0.2833
  807MPD2     N11943   4.015   4.044   1.501  0.0364 -0.1242 -0.5065
  807MPD2    H511944   3.973   4.134   1.483  0.2548  0.1178  0.1747
  807MPD2    N111945   4.370   4.149   1.201  0.1606 -0.0869 -0.5225
  807MPD2    H711946   4.314   4.233   1.190 -2.2250 -1.7678 -1.0731
  808MPD2     C11947   4.483   2.060  10.016  0.0012 -0.1234  0.7089
  808MPD2    C111948   4.392   2.105   9.919 -0.7199  0.3593  0.0411
  808MPD2    C211949   4.395   2.236   9.882 -1.0358  0.0618 -0.0839
  808MPD2    C311950   4.480   2.329   9.940  0.6297  0.0910  0.3208
  808MPD2    C411951   4.566   2.286  10.037  0.3446  0.1367  0.3144
  808MPD2    C511952   4.566   2.154  10.076 -0.4922 -0.1890 -0.0618
  808MPD2     H11953   4.346   2.265   9.790 -0.3761 -2.1136 -1.1411
  808MPD2    H111954   4.629   2.351  10.097  0.3095 -1.4165  2.0296
  808MPD2    H211955   4.494   1.958  10.051 -2.5900 -0.0204  1.8553
  808MPD2    H311956   4.609   2.122  10.170 -1.4075 -1.3561 -0.0338
  808MPD2     N11957   4.490   2.472   9.916 -0.3299 -0.1204  0.1415
  808MPD2    H511958   4.557   2.533   9.963  0.8818 -0.3090 -1.3497
  808MPD2    N111959   4.315   2.013   9.842  0.8002 -0.0012 -0.3237
  808MPD2    H711960   4.260   2.053   9.766  1.1063  1.6650  0.3307
  809MPD2     C11961   4.198   2.830   9.034  0.5600  0.1342 -0.2005
  809MPD2    C111962   4.274   2.929   9.083  0.5088 -0.0911 -0.0732
  809MPD2    C211963   4.340   2.926   9.206 -0.6049 -0.3549 -0.0053
  809MPD2    C311964   4.323   2.816   9.282  0.6849  0.6760  0.5909
  809MPD2    C411965   4.236   2.718   9.235  0.2881  0.2670 -0.6733
  809MPD2    C511966   4.175   2.727   9.113  0.1957 -0.0029  0.2543
  809MPD2     H11967   4.395   3.014   9.239 -2.8984  1.3857 -0.8574
  809MPD2    H111968   4.207   2.640   9.305 -1.7454  1.8362  0.2376
  809MPD2    H211969   4.146   2.835   8.939 -0.7151 -1.7774  0.3982
  809MPD2    H311970   4.107   2.647   9.085  1.4893 -0.0018 -2.9001
  809MPD2     N11971   4.370   2.798   9.410 -0.3699  0.9312  0.3525
  809MPD2    H511972   4.343   2.710   9.454  1.2815  0.2553  0.0219
  809MPD2    N111973   4.283   3.052   9.010  0.0489 -0.3330  0.0196
  809MPD2    H711974   4.360   3.113   9.036  0.6829 -2.1708  2.3779
  810MPD2     C11975   3.845   1.256  10.270 -0.4485 -0.1442  0.4606
  810MPD2    C111976   3.774   1.158  10.341 -0.0294 -0.6329 -0.0397
  810MPD2    C211977   3.773   1.163  10.478  0.2171  0.1457 -0.1715
  810MPD2    C311978   3.860   1.250  10.546 -0.1324 -0.1729 -0.0133
  810MPD2    C411979   3.929   1.343  10.472 -0.4167 -0.4838 -0.0421
  810MPD2    C511980   3.907   1.354  10.335  0.0800 -0.3772  0.0433
  810MPD2     H11981   3.699   1.103  10.529 -0.5872  3.3592  2.4814
  810MPD2    H111982   3.991   1.419  10.518 -1.4242  1.1298 -1.3576
  810MPD2    H211983   3.846   1.262  10.161 -1.0300  3.0097  0.6241
  810MPD2    H311984   3.954   1.433  10.277 -1.0687  0.0710 -0.2636
  810MPD2     N11985   3.867   1.257  10.688 -0.8350 -0.1465 -0.6202
  810MPD2    H511986   3.902   1.343  10.730 -0.8618 -0.9769  1.0951
  810MPD2    N111987   3.708   1.049  10.276 -0.8560  0.1281  0.2900
  810MPD2    H711988   3.696   1.050  10.175  1.4213 -1.4269  0.0135
  811MPD2     C11989   2.894   1.088  10.114 -0.7042  0.1070 -0.2566
  811MPD2    C111990   3.027   1.118  10.079  0.7157 -0.5647 -0.3836
  811MPD2    C211991   3.056   1.236  10.018  0.0569 -0.5158 -0.1012
  811MPD2    C311992   2.957   1.322   9.987  0.4228 -0.2920 -0.4707
  811MPD2    C411993   2.822   1.289  10.012 -0.6454 -0.4586  0.3172
  811MPD2    C511994   2.794   1.173  10.077  0.0235  0.0914  0.2215
  811MPD2     H11995   3.154   1.273   9.989 -1.1604  2.0770 -0.9455
  811MPD2    H111996   2.741   1.356   9.989 -2.1525 -1.0745  3.7893
  811MPD2    H211997   2.869   1.002  10.175 -1.9799  0.5241 -0.1834
  811MPD2    H311998   2.690   1.152  10.100  0.2336 -1.7806 -0.5012
  811MPD2     N11999   2.991   1.453   9.948 -0.1528  0.4451 -0.2445
  811MPD2    H512000   3.088   1.480   9.965 -0.8591  1.2600  2.3930
  811MPD2    N112001   3.124   1.024  10.119  0.1233 -0.1042 -0.4201
  811MPD2    H712002   3.100   0.934  10.161 -1.3463  0.1023 -0.8444
  812MPD2     C12003   2.697   1.388  12.168 -0.2136 -0.3078  0.3219
  812MPD2    C112004   2.625   1.417  12.285 -0.9231  0.4745 -0.1012
  812MPD2    C212005   2.592   1.315  12.375 -0.0529 -0.4851  0.8354
  812MPD2    C312006   2.627   1.183  12.349 -0.9863 -0.0917  0.5168
  812MPD2    C412007   2.702   1.157  12.237  0.1784 -0.5792 -0.0679
  812MPD2    C512008   2.734   1.260  12.150  0.4707  0.3462  0.1306
  812MPD2     H12009   2.530   1.336  12.462  1.5447 -1.6775  2.2434
  812MPD2    H112010   2.724   1.055  12.205 -1.6270 -1.2732  0.9494
  812MPD2    H212011   2.694   1.456  12.083  1.0816 -0.6621 -0.0205
  812MPD2    H312012   2.781   1.241  12.054 -0.4231  1.5450 -0.5601
  812MPD2     N12013   2.579   1.085  12.437  0.0449 -0.0489  0.1308
  812MPD2    H512014   2.516   1.125  12.506  1.6014 -0.1647  1.6193
  812MPD2    N112015   2.583   1.545  12.300  0.2848 -0.0667 -0.3911
  812MPD2    H712016   2.610   1.602  12.221  0.4659 -3.9331 -3.1435
  813MPD2     C12017   1.733   2.522  12.610 -0.3029  0.1884 -0.0476
  813MPD2    C112018   1.717   2.657  12.589 -0.0452  0.4218 -0.0278
  813MPD2    C212019   1.656   2.737  12.683  0.0789  0.6795 -0.0797
  813MPD2    C312020   1.618   2.678  12.806  0.1249  0.7198  0.7768
  813MPD2    C412021   1.634   2.545  12.829 -0.0018 -0.2615  0.2146
  813MPD2    C512022   1.694   2.470  12.728  0.5967 -0.7792 -0.5412
  813MPD2     H12023   1.620   2.838  12.670 -1.6488  0.4178  2.4729
  813MPD2    H112024   1.606   2.490  12.918  1.0602 -1.2982 -0.0814
  813MPD2    H212025   1.782   2.454  12.542 -0.8490  0.3354 -0.5948
  813MPD2    H312026   1.710   2.366  12.753  0.3839 -0.2522  1.8280
  813MPD2     N12027   1.553   2.758  12.901 -0.0932 -0.1061 -0.3699
  813MPD2    H512028   1.539   2.856  12.879  0.9032  0.0077 -0.4877
  813MPD2    N112029   1.770   2.711  12.468  0.0004  0.0470  0.2516
  813MPD2    H712030   1.822   2.648  12.407 -1.7685 -0.4416 -0.7321
  814MPD2     C12031   1.963   4.167  12.288  0.4339  0.7192 -0.0077
  814MPD2    C112032   2.074   4.183  12.203  0.4152 -0.6806 -0.6781
  814MPD2    C212033   2.199   4.226  12.253 -0.4994 -0.8051 -0.2551
  814MPD2    C312034   2.212   4.264  12.385 -0.3004  0.0182  0.0348
  814MPD2    C412035   2.100   4.235  12.465 -0.6886 -0.1619 -0.1401
  814MPD2    C512036   1.983   4.197  12.417  0.3580  0.1171 -0.5351
  814MPD2     H12037   2.282   4.237  12.184 -0.1036  0.4657  0.4375
  814MPD2    H112038   2.102   4.243  12.573 -1.4229  0.0478 -0.1409
  814MPD2    H212039   1.863   4.145  12.254  0.1991 -0.4549  1.5167
  814MPD2    H312040   1.897   4.195  12.484  1.5379 -0.7699  0.9589
  814MPD2     N12041   2.327   4.316  12.448  0.0640  0.3862  0.0784
  814MPD2    H512042   2.324   4.337  12.547  0.7593 -0.1130  0.2047
  814MPD2    N112043   2.064   4.154  12.066  0.0547  0.5584 -0.0744
  814MPD2    H712044   2.134   4.181  11.997  1.6706  1.6006  1.9501
  815MPD2     C12045   2.780   3.115  11.554 -0.4019 -0.5787  0.7145
  815MPD2    C112046   2.734   2.986  11.554  0.3234 -1.3618 -0.3659
  815MPD2    C212047   2.601   2.961  11.575  0.3054  0.4400  0.0636
  815MPD2    C312048   2.515   3.056  11.613  0.4279 -0.4286 -0.0191
  815MPD2    C412049   2.558   3.190  11.609  0.2330 -0.3716  0.0007
  815MPD2    C512050   2.693   3.215  11.586 -0.1510 -0.0138  0.4092
  815MPD2     H12051   2.568   2.857  11.574  0.1813  0.4413  3.2117
  815MPD2    H112052   2.482   3.265  11.630 -1.6109 -2.0792 -0.6252
  815MPD2    H212053   2.883   3.140  11.530 -0.1097 -0.4993  2.0862
  815MPD2    H312054   2.721   3.320  11.584 -0.6400  0.1045 -0.4263
  815MPD2     N12055   2.379   3.014  11.629 -0.2178 -0.5065 -0.6565
  815MPD2    H512056   2.355   2.917  11.615 -1.3827 -0.6584  2.3796
  815MPD2    N112057   2.819   2.886  11.490  0.3250 -0.4919  0.7360
  815MPD2    H712058   2.892   2.915  11.426 -0.1075  0.1080  0.5171
  816MPD2     C12059   2.394   1.501  17.400 -0.3527  0.6355 -0.5388
  816MPD2    C112060   2.487   1.603  17.395 -0.2274  0.0985  0.3643
  816MPD2    C212061   2.602   1.583  17.316 -0.2729 -0.1408  0.7923
  816MPD2    C312062   2.624   1.467  17.249 -0.3866  0.0633 -0.0326
  816MPD2    C412063   2.531   1.360  17.255  0.1803 -0.7169  0.9757
  816MPD2    C512064   2.425   1.390  17.339 -0.3194  0.4075 -0.5224
  816MPD2     H12065   2.673   1.664  17.307 -2.5354  1.7819  0.1416
  816MPD2    H112066   2.537   1.265  17.202  0.6374  0.4319 -1.0144
  816MPD2    H212067   2.293   1.498  17.437 -0.2477 -0.8719 -0.3781
  816MPD2    H312068   2.355   1.307  17.331 -1.8184  1.7325 -1.1432
  816MPD2     N12069   2.749   1.455  17.180  0.1470  0.0468  0.1495
  816MPD2    H512070   2.812   1.533  17.164 -0.1366  0.4201  0.8577
  816MPD2    N112071   2.461   1.723  17.463  0.4427  1.0311  0.5427
  816MPD2    H712072   2.366   1.757  17.475  0.2393  0.6642 -0.0611
  817MPD2     C12073   2.673   3.938   9.124  0.9321  0.1675  0.5516
  817MPD2    C112074   2.539   3.915   9.122  0.2220  0.0025 -0.2117
  817MPD2    C212075   2.453   4.018   9.110 -0.0446 -0.3341 -0.0066
  817MPD2    C312076   2.501   4.147   9.111 -0.6105  0.6115 -0.3532
  817MPD2    C412077   2.638   4.175   9.111 -0.1609 -0.1604  0.7122
  817MPD2    C512078   2.723   4.066   9.122 -0.4960 -0.1565 -0.4211
  817MPD2     H12079   2.346   4.003   9.122 -0.1983  0.2754 -0.6249
  817MPD2    H112080   2.674   4.277   9.104 -4.1520  1.0933 -1.2285
  817MPD2    H212081   2.753   3.864   9.132  1.2971  0.6709  1.5011
  817MPD2    H312082   2.831   4.069   9.117 -0.4204  0.0053  1.3888
  817MPD2     N12083   2.403   4.248   9.127  0.4250 -0.6626 -0.2377
  817MPD2    H512084   2.305   4.222   9.121  0.4901 -0.8687 -0.4441
  817MPD2    N112085   2.485   3.785   9.121  0.2866  0.4648 -0.0929
  817MPD2    H712086   2.386   3.770   9.101 -0.3173  2.0600  1.7844
  818MPD2     C12087   1.053   4.544  10.015 -0.7609  0.1738 -0.2165
  818MPD2    C112088   1.084   4.416  10.064  0.6391  0.1628  0.4102
  818MPD2    C212089   1.133   4.315   9.978 -0.5383 -0.3723  0.1683
  818MPD2    C312090   1.140   4.338   9.842 -0.4419  0.1310  0.5282
  818MPD2    C412091   1.093   4.459   9.792  0.2109  0.2334  0.1663
  818MPD2    C512092   1.065   4.559   9.878  0.4111 -0.3016  0.3111
  818MPD2     H12093   1.161   4.219  10.021 -0.6774 -0.9856 -1.1090
  818MPD2    H112094   1.101   4.470   9.684 -1.1764  0.4918  0.0941
  818MPD2    H212095   1.033   4.629  10.079 -2.4437 -0.9028  0.6942
  818MPD2    H312096   1.047   4.658   9.838  1.8412  0.3968  1.4125
  818MPD2     N12097   1.169   4.242   9.745 -1.0780 -0.5330 -0.8009
  818MPD2    H512098   1.151   4.263   9.647  1.1964  0.3769 -1.0274
  818MPD2    N112099   1.068   4.385  10.198 -0.0802 -0.1754 -0.2582
  818MPD2    H712100   1.103   4.292  10.221 -1.7980  0.0139  3.1030
  819MPD2     C12101   4.245   0.190  15.228 -0.3061 -1.0435 -0.0194
  819MPD2    C112102   4.192   0.085  15.282  0.3076  0.0225 -0.8090
  819MPD2    C212103   4.273   0.019  15.379  0.1995 -0.4130  0.0185
  819MPD2    C312104   4.401   0.060  15.414  0.5021 -0.0044 -0.0379
  819MPD2    C412105   4.446   0.182  15.362 -0.4724  0.1888 -0.0879
  819MPD2    C512106   4.368   0.248  15.269 -0.2052 -0.0544 -0.2254
  819MPD2     H12107   4.235   4.664  15.432  0.3599  0.3531  1.4100
  819MPD2    H112108   4.546   0.221  15.373 -1.7923  3.2978  0.7075
  819MPD2    H212109   4.187   0.251  15.160  0.8434 -1.4607 -1.3622
  819MPD2    H312110   4.416   0.333  15.222 -0.8980  0.2116 -0.4591
  819MPD2     N12111   4.475   4.715  15.497 -0.3272  0.4560 -0.1249
  819MPD2    H512112   4.440   4.624  15.523  0.3329  0.1728 -0.2328
  819MPD2    N112113   4.063   0.050  15.245  0.8543  0.5048 -0.1176
  819MPD2    H712114   4.028   0.101  15.164  1.1600  0.0674 -0.5216
  820MPD2     C12115   3.267   0.253  14.735  1.1863  0.9145  0.5120
  820MPD2    C112116   3.386   0.312  14.767  0.5814 -0.4701  0.1439
  820MPD2    C212117   3.456   0.248  14.873 -0.0146  0.2266 -0.5017
  820MPD2    C312118   3.409   0.139  14.936  0.0095 -0.5625 -0.2835
  820MPD2    C412119   3.277   0.096  14.912 -0.1688 -0.1989 -0.5767
  820MPD2    C512120   3.215   0.151  14.806 -0.2936  0.0297  0.1744
  820MPD2     H12121   3.550   0.293  14.902  0.5735 -1.0118 -0.4946
  820MPD2    H112122   3.229   0.023  14.976  0.4826  1.1275  1.4340
  820MPD2    H212123   3.205   0.306  14.663 -0.2205 -0.1100  0.9691
  820MPD2    H312124   3.113   0.120  14.785  0.2630 -1.1283 -0.8288
  820MPD2     N12125   3.489   0.074  15.033 -0.3514  0.1451  0.2726
  820MPD2    H512126   3.443   4.728  15.078 -1.2618 -0.6269 -1.9602
  820MPD2    N112127   3.406   0.439  14.717 -0.1242 -0.2799  0.9597
  820MPD2    H712128   3.330   0.482  14.665  3.1237  1.3298 -2.3714
  821MPD2     C12129   3.825   1.527  13.172  0.0024 -0.2415  0.3979
  821MPD2    C112130   3.921   1.439  13.205 -0.2349  0.6091 -0.5212
  821MPD2    C212131   4.052   1.461  13.163  0.4772  0.6103  0.2421
  821MPD2    C312132   4.082   1.572  13.087  0.7395  0.4183  0.2472
  821MPD2    C412133   3.979   1.651  13.044  0.1188 -1.0268  0.2350
  821MPD2    C512134   3.856   1.636  13.094 -0.5546 -0.0612 -0.0219
  821MPD2     H12135   4.127   1.397  13.207 -1.1962 -0.6360  1.2566
  821MPD2    H112136   3.995   1.747  12.997  0.6935 -2.0267 -1.6065
  821MPD2    H212137   3.722   1.519  13.207  0.1902 -3.0001  0.3138
  821MPD2    H312138   3.782   1.714  13.078  0.2993  0.3200 -2.1963
  821MPD2     N12139   4.209   1.617  13.055  0.2817  0.2508  0.0415
  821MPD2    H512140   4.216   1.710  13.014  0.7219 -0.7248 -2.0915
  821MPD2    N112141   3.897   1.325  13.285  0.0267  0.0232  0.2020
  821MPD2    H712142   3.969   1.254  13.290  2.1908  2.2220  0.2844
  822MPD2     C12143   0.256   1.208  15.597 -0.8954 -0.0932  0.4144
  822MPD2    C112144   0.268   1.219  15.735  0.1311  0.1503  0.2554
  822MPD2    C212145   0.191   1.311  15.795 -0.1741  0.5972  0.1672
  822MPD2    C312146   0.103   1.390  15.727  0.2878  0.5420 -0.2847
  822MPD2    C412147   0.103   1.382  15.586 -0.1568 -0.2956  0.4106
  822MPD2    C512148   0.174   1.286  15.522  0.1044 -0.0497 -0.0278
  822MPD2     H12149   0.194   1.323  15.903 -0.2637  1.0316  0.1213
  822MPD2    H112150   0.035   1.445  15.531 -0.6792  0.4496  1.9181
  822MPD2    H212151   0.307   1.127  15.546 -1.5798 -0.1117 -0.2484
  822MPD2    H312152   0.173   1.273  15.415 -0.2398  0.5458 -0.0978
  822MPD2     N12153   0.018   1.471  15.801  0.0531  0.4113  0.1461
  822MPD2    H512154   0.017   1.448  15.900 -0.6875  0.2436  0.0929
  822MPD2    N112155   0.352   1.140  15.817  0.0705  0.0974 -0.0900
  822MPD2    H712156   0.358   1.169  15.914  3.0080 -1.3513  0.1672
  823MPD2     C12157   4.253   1.680  16.485  0.4282 -0.8451 -0.8141
  823MPD2    C112158   4.310   1.591  16.396  0.3021 -0.0714  0.2194
  823MPD2    C212159   4.349   1.467  16.442  0.1607 -0.6612  0.2667
  823MPD2    C312160   4.329   1.425  16.574 -0.1609  0.3776 -0.5538
  823MPD2    C412161   4.246   1.500  16.651 -0.5004 -0.7380 -0.2067
  823MPD2    C512162   4.221   1.630  16.610  0.0492  0.0158 -0.3963
  823MPD2     H12163   4.405   1.396  16.382 -1.5204 -1.6908 -0.0630
  823MPD2    H112164   4.234   1.479  16.757 -0.4047  0.8863  0.1257
  823MPD2    H212165   4.227   1.783  16.465  2.6067 -0.4945 -1.8094
  823MPD2    H312166   4.157   1.696  16.666  0.5354  0.7457 -0.6971
  823MPD2     N12167   4.403   1.317  16.633  0.0569  0.3548 -0.4200
  823MPD2    H512168   4.384   1.302  16.731 -0.7916  0.1270 -0.6188
  823MPD2    N112169   4.347   1.635  16.261 -0.1902  0.1118 -0.3084
  823MPD2    H712170   4.323   1.729  16.234  0.7095  0.0968 -1.1743
  824MPD2     C12171   0.646   0.337  15.889  0.9331 -0.2075 -0.7437
  824MPD2    C112172   0.675   0.437  15.803  0.6816 -0.0556 -0.2861
  824MPD2    C212173   0.768   0.413  15.697 -0.1037  0.1380  0.0835
  824MPD2    C312174   0.815   0.285  15.678  0.2336 -0.1670 -0.5058
  824MPD2    C412175   0.761   0.185  15.757 -0.5618 -0.5040  0.3457
  824MPD2    C512176   0.683   0.208  15.864  0.0492  0.0969 -0.2384
  824MPD2     H12177   0.805   0.494  15.636 -0.8645 -0.1349 -0.7515
  824MPD2    H112178   0.788   0.081  15.745 -1.1610 -0.7541  1.0974
  824MPD2    H212179   0.566   0.354  15.960  1.5657 -2.2740  0.4445
  824MPD2    H312180   0.635   0.126  15.916 -0.7046  0.3853 -0.4790
  824MPD2     N12181   0.911   0.269  15.579  0.1928  0.2979 -0.9357
  824MPD2    H512182   0.964   0.353  15.556  1.9429 -0.5409 -0.0249
  824MPD2    N112183   0.638   0.569  15.834  0.7748  0.5342  0.4264
  824MPD2    H712184   0.646   0.631  15.754 -1.5655 -1.6619 -1.5331
  825MPD2     C12185   1.346   0.438  14.928 -0.1584  0.3547 -0.0964
  825MPD2    C112186   1.347   0.460  15.062  0.3999  0.1728 -0.8100
  825MPD2    C212187   1.389   0.587  15.108  0.0414 -0.4310 -0.6228
  825MPD2    C312188   1.425   0.685  15.020  0.1071 -0.1222  0.4257
  825MPD2    C412189   1.413   0.656  14.880  0.1307  0.3478  0.4307
  825MPD2    C512190   1.362   0.539  14.845  0.3293 -0.4021 -0.0308
  825MPD2     H12191   1.395   0.604  15.215 -2.7205  0.8835 -0.6743
  825MPD2    H112192   1.449   0.723  14.802  0.0706 -0.5831 -0.3983
  825MPD2    H212193   1.298   0.350  14.889  0.0809  0.9287 -1.6580
  825MPD2    H312194   1.357   0.512  14.740  1.5586  1.7571 -0.6406
  825MPD2     N12195   1.466   0.812  15.058 -0.9069  0.2967  0.9756
  825MPD2    H512196   1.494   0.869  14.979 -0.8357  1.2248  1.6714
  825MPD2    N112197   1.299   0.355  15.136 -0.4771 -0.0713  0.3752
  825MPD2    H712198   1.269   0.273  15.084 -1.2565  0.0055  0.6954
  826MPD2     C12199   0.909   0.412  13.831 -0.0534  0.5253  0.3220
  826MPD2    C112200   0.866   0.440  13.701 -0.3244 -0.1702 -0.6367
  826MPD2    C212201   0.749   0.509  13.671 -0.1096 -0.1721 -0.0204
  826MPD2    C312202   0.658   0.532  13.773 -0.3171  0.1308 -0.0423
  826MPD2    C412203   0.699   0.493  13.901 -0.4382 -0.2654 -0.1087
  826MPD2    C512204   0.818   0.438  13.932 -0.3134 -0.2191 -0.0315
  826MPD2     H12205   0.720   0.536  13.570  0.2578  0.9272  0.1687
  826MPD2    H112206   0.626   0.495  13.982 -0.7446 -0.8427 -0.3675
  826MPD2    H212207   0.998   0.357  13.860 -0.4592  0.1528  0.8623
  826MPD2    H312208   0.841   0.415  14.035  1.1562 -0.6841 -0.4543
  826MPD2     N12209   0.538   0.599  13.762 -0.0917  0.0906 -0.4948
  826MPD2    H512210   0.493   0.603  13.853 -1.1378  0.8385 -1.0454
  826MPD2    N112211   0.954   0.395  13.597  0.2400  0.2280  0.1887
  826MPD2    H712212   1.025   0.325  13.613  0.2425  0.0141 -0.7609
  827MPD2     C12213   1.547   2.528   9.819  0.4248 -0.0044 -0.2124
  827MPD2    C112214   1.465   2.458   9.909 -0.6067  0.1269 -0.7797
  827MPD2    C212215   1.330   2.425   9.872  0.9184  0.1760 -0.1252
  827MPD2    C312216   1.279   2.452   9.751 -0.1142 -0.5340  0.0202
  827MPD2    C412217   1.367   2.520   9.657  0.3164  0.0745  0.3505
  827MPD2    C512218   1.498   2.551   9.689 -1.1065 -0.0067 -0.0689
  827MPD2     H12219   1.264   2.380   9.945  0.2032  0.9141 -0.3129
  827MPD2    H112220   1.335   2.543   9.556  1.8837  0.2153 -0.1140
  827MPD2    H212221   1.646   2.565   9.843  0.8915 -0.2592 -1.7274
  827MPD2    H312222   1.561   2.599   9.615 -1.7727  0.4806 -0.3094
  827MPD2     N12223   1.142   2.427   9.724 -0.4099 -0.4573  0.2546
  827MPD2    H512224   1.085   2.385   9.797  0.7614 -2.2910  0.1084
  827MPD2    N112225   1.519   2.439  10.036  0.3228 -0.1854  0.2438
  827MPD2    H712226   1.617   2.458  10.052  0.4921  0.5300 -1.5802
  828MPD2     C12227   0.089   1.548  12.433 -0.2139  0.0557  0.1960
  828MPD2    C112228   0.015   1.643  12.361 -0.1213  0.1476 -0.4659
  828MPD2    C212229   0.076   1.702  12.247 -0.5630 -0.2112 -0.0950
  828MPD2    C312230   0.209   1.672  12.215 -0.3385  0.2437  0.9112
  828MPD2    C412231   0.275   1.574  12.291  0.0744  0.0910 -0.1848
  828MPD2    C512232   0.218   1.517  12.402  0.1684  0.2241  0.2928
  828MPD2     H12233   0.027   1.791  12.210  0.3905  1.0654  1.7003
  828MPD2    H112234   0.378   1.548  12.272 -0.0927 -1.3604  0.9157
  828MPD2    H212235   0.034   1.492  12.507  2.2446  0.9366  2.7006
  828MPD2    H312236   0.271   1.441  12.460 -0.6217 -0.4540  0.1300
  828MPD2     N12237   0.279   1.741  12.113 -0.6484  0.1225  0.0047
  828MPD2    H512238   0.372   1.709  12.089 -0.4312 -0.2382  1.3197
  828MPD2    N112239   4.620   1.697  12.398 -0.3253 -0.5687 -0.1264
  828MPD2    H712240   4.587   1.772  12.338 -0.0266 -0.0124  0.4092
  829MPD2     C12241   4.134   2.187  11.882  0.0829 -0.1755  0.4971
  829MPD2    C112242   4.045   2.132  11.970 -0.2240 -0.4999 -0.0409
  829MPD2    C212243   4.099   2.071  12.081 -0.4767 -0.0283 -0.3267
  829MPD2    C312244   4.233   2.050  12.095  0.3244 -0.3695  0.6947
  829MPD2    C412245   4.316   2.098  12.000 -0.6070  0.6060 -0.9451
  829MPD2    C512246   4.267   2.172  11.894 -0.0284  0.1695 -0.6761
  829MPD2     H12247   4.030   2.022  12.149  1.1855 -2.5835 -0.4677
  829MPD2    H112248   4.424   2.110  12.001 -0.5284 -0.1958  1.8791
  829MPD2    H212249   4.104   2.236  11.789  1.1827  1.5121  1.0373
  829MPD2    H312250   4.328   2.208  11.812  2.5408 -1.1007  0.6597
  829MPD2     N12251   4.293   1.991  12.208 -0.0419 -0.2350 -0.2004
  829MPD2    H512252   4.393   1.979  12.210  0.2501  2.2552  0.5125
  829MPD2    N112253   3.908   2.151  11.940 -0.1702 -0.6681  0.2069
  829MPD2    H712254   3.882   2.204  11.858  1.4859 -1.3223 -0.7337
  830MPD2     C12255   0.115   4.146  15.829 -0.0654  0.3430 -0.1761
  830MPD2    C112256   0.047   4.230  15.741  0.5970 -0.2692  0.0416
  830MPD2    C212257   0.126   4.309  15.660  0.0875 -0.6351  0.6478
  830MPD2    C312258   0.263   4.305  15.661  0.2194 -0.2098 -0.4159
  830MPD2    C412259   0.324   4.239  15.765 -0.0426  0.1906 -0.7153
  830MPD2    C512260   0.248   4.163  15.851  0.6713  0.6531  0.1717
  830MPD2     H12261   0.087   4.375  15.585 -0.6773 -1.5629  0.2301
  830MPD2    H112262   0.432   4.249  15.773 -0.0088 -0.9845  0.2722
  830MPD2    H212263   0.057   4.079  15.891 -0.3310  0.7636  0.0302
  830MPD2    H312264   0.290   4.119  15.941 -0.9594 -1.2082  0.0017
  830MPD2     N12265   0.340   4.369  15.559 -0.1828  0.1925  0.2801
  830MPD2    H512266   0.441   4.361  15.564 -0.0466 -0.0315 -2.7013
  830MPD2    N112267   4.638   4.205  15.728 -0.8412  0.2385 -0.8572
  830MPD2    H712268   4.602   4.114  15.755  2.3128  0.3784  3.6407
  831MPD2     C12269   0.184   1.638  16.265 -0.1818 -0.1591  0.7374
  831MPD2    C112270   0.220   1.534  16.183 -0.1489 -0.1884  0.3717
  831MPD2    C212271   0.128   1.435  16.156  0.8052 -0.5491 -0.3169
  831MPD2    C312272   0.009   1.435  16.225  0.1510 -0.9509 -0.3834
  831MPD2    C412273   4.721   1.518  16.336  0.8344  0.1990 -0.1917
  831MPD2    C512274   0.077   1.623  16.349  0.3770  0.0420 -0.5787
  831MPD2     H12275   0.146   1.367  16.074  2.7248  0.4446 -0.7366
  831MPD2    H112276   4.625   1.506  16.386  0.7001  0.4796 -0.3833
  831MPD2    H212277   0.249   1.722  16.283  0.1177  0.1703 -1.9440
  831MPD2    H312278   0.057   1.695  16.427 -0.7976 -2.8202  1.7999
  831MPD2     N12279   4.643   1.334  16.209  0.0034 -0.1454  0.5609
  831MPD2    H512280   4.574   1.314  16.281  0.3745  1.5792  1.3991
  831MPD2    N112281   0.340   1.541  16.109 -0.6836  0.0220 -0.0945
  831MPD2    H712282   0.384   1.632  16.106  1.1513 -0.9215 -2.0682
  832MPD2     C12283   3.516   2.489  17.081  0.6858 -0.3835  0.5409
  832MPD2    C112284   3.464   2.610  17.093 -0.5616 -0.2321  0.4384
  832MPD2    C212285   3.325   2.631  17.077  0.4741 -0.1402 -0.1690
  832MPD2    C312286   3.247   2.535  17.017  0.1119  0.2590 -0.4252
  832MPD2    C412287   3.298   2.410  16.994 -0.7246  0.1015 -0.2001
  832MPD2    C512288   3.429   2.391  17.030  0.5096  0.1483  0.5623
  832MPD2     H12289   3.290   2.733  17.087 -1.1808 -0.6509 -0.5979
  832MPD2    H112290   3.225   2.333  16.971  2.1445 -2.1277 -1.8727
  832MPD2    H212291   3.621   2.469  17.100  1.4651  2.1510 -1.0265
  832MPD2    H312292   3.469   2.293  17.007 -2.1094 -0.9682  0.8374
  832MPD2     N12293   3.112   2.565  16.972 -0.0909 -0.6237 -0.0073
  832MPD2    H512294   3.056   2.485  16.945  0.4077 -0.8851 -0.2738
  832MPD2    N112295   3.554   2.702  17.154  0.6025  1.2552 -0.0104
  832MPD2    H712296   3.648   2.677  17.184  1.1173  2.5344 -0.5348
  833MPD2     C12297   0.709   4.162  12.688 -0.2366  0.0867  0.9726
  833MPD2    C112298   0.749   4.294  12.684  0.1360 -0.2881  0.6137
  833MPD2    C212299   0.861   4.327  12.609 -0.1463 -0.2978 -0.1657
  833MPD2    C312300   0.937   4.225  12.550  0.5371 -0.4478 -0.3809
  833MPD2    C412301   0.900   4.089  12.559 -0.2280  0.2019  0.3798
  833MPD2    C512302   0.779   4.063  12.625  0.1403 -0.0274  0.3229
  833MPD2     H12303   0.910   4.422  12.621 -0.4064 -0.1157 -0.5566
  833MPD2    H112304   0.948   4.006  12.509 -0.2172  0.4967 -0.1015
  833MPD2    H212305   0.621   4.129  12.742 -1.5320 -0.7486 -1.6474
  833MPD2    H312306   0.741   3.964  12.645 -1.0080  0.0959 -1.3361
  833MPD2     N12307   1.050   4.278  12.490  0.7761 -0.0168  0.1348
  833MPD2    H512308   1.059   4.379  12.480  0.7043  0.2119  2.2148
  833MPD2    N112309   0.678   4.389  12.759 -0.2597 -0.1133 -0.0476
  833MPD2    H712310   0.603   4.350  12.814 -0.3550  2.1485  1.4128
  834MPD2     C12311   1.093   4.250  11.592 -0.3867 -0.0232  0.0040
  834MPD2    C112312   0.998   4.210  11.684 -0.1596  0.0872 -0.2207
  834MPD2    C212313   1.026   4.237  11.819 -0.0788  0.6922 -0.0942
  834MPD2    C312314   1.131   4.328  11.847  0.3340 -0.2525 -0.7067
  834MPD2    C412315   1.213   4.387  11.749  0.0399 -0.1400 -0.4713
  834MPD2    C512316   1.192   4.345  11.622  0.4127 -0.3327  0.1863
  834MPD2     H12317   0.961   4.194  11.895 -0.0478  1.5827  0.4351
  834MPD2    H112318   1.280   4.469  11.774 -3.2437  2.2602  0.3753
  834MPD2    H212319   1.078   4.227  11.487 -1.9557 -0.1186  0.2572
  834MPD2    H312320   1.245   4.397  11.542 -1.1179 -0.5857 -0.9887
  834MPD2     N12321   1.152   4.351  11.986 -0.3423  0.2407 -0.0182
  834MPD2    H512322   1.093   4.300  12.052 -2.1374  2.3571 -0.0184
  834MPD2    N112323   0.890   4.126  11.650  0.5634  0.4855 -0.4057
  834MPD2    H712324   0.814   4.127  11.717  0.2749  3.7865 -0.7528
  835MPD2     C12325   0.260   2.632  10.815 -0.0163  0.3203 -0.4988
  835MPD2    C112326   0.197   2.696  10.917  0.2210  0.2219 -0.3915
  835MPD2    C212327   0.235   2.673  11.050 -0.9992 -0.1691  0.2360
  835MPD2    C312328   0.350   2.594  11.078  0.3594  1.1329  0.2518
  835MPD2    C412329   0.408   2.527  10.977  0.2238  0.5463  0.0590
  835MPD2    C512330   0.365   2.547  10.849 -0.4006 -0.2677 -0.0135
  835MPD2     H12331   0.187   2.735  11.124  2.6064  3.9287 -0.8431
  835MPD2    H112332   0.503   2.476  10.986 -0.2281 -0.2086  0.5562
  835MPD2    H212333   0.232   2.637  10.711 -0.6503  0.3700 -0.3239
  835MPD2    H312334   0.437   2.510  10.776 -0.9712 -0.6997 -0.3658
  835MPD2     N12335   0.413   2.583  11.200  0.2119 -0.1167 -0.4793
  835MPD2    H512336   0.474   2.502  11.209 -0.3059 -0.4849 -0.2776
  835MPD2    N112337   0.079   2.765  10.886 -0.2029 -0.5970 -0.6530
  835MPD2    H712338   0.047   2.755  10.790 -2.3376  0.0264 -0.0045
  836MPD2     C12339   4.547   2.582  11.558  0.4959 -0.3649  0.4435
  836MPD2    C112340   4.629   2.540  11.655  0.0866  0.2193  0.2440
  836MPD2    C212341   4.577   2.509  11.780  0.0132 -0.8964 -0.0718
  836MPD2    C312342   4.442   2.521  11.805  0.2113 -0.1813 -0.5206
  836MPD2    C412343   4.357   2.568  11.706 -0.4702 -0.1960 -0.8371
  836MPD2    C512344   4.411   2.602  11.584  0.0163  0.5120  0.3298
  836MPD2     H12345   4.635   2.465  11.860 -0.0874  0.9758  1.0128
  836MPD2    H112346   4.254   2.587  11.732  0.7003  1.4983  2.4581
  836MPD2    H212347   4.589   2.596  11.459  0.5002  1.8929  0.7677
  836MPD2    H312348   4.350   2.645  11.506 -1.6390 -1.9246  0.2587
  836MPD2     N12349   4.376   2.480  11.927  0.6789 -0.1320  0.6376
  836MPD2    H512350   4.285   2.523  11.939  0.9885  1.1102 -1.4469
  836MPD2    N112351   0.035   2.534  11.619 -0.3186  0.0727 -0.1017
  836MPD2    H712352   0.064   2.575  11.531 -0.2000 -1.6744 -0.8630
  837MPD2     C12353   3.510   2.032  10.106 -0.2317 -0.0501  0.1808
  837MPD2    C112354   3.381   2.075  10.098  0.3086 -0.5200 -0.5092
  837MPD2    C212355   3.359   2.204  10.110 -0.1122 -0.3420 -0.5932
  837MPD2    C312356   3.456   2.304  10.124 -0.3305  0.1933 -0.5480
  837MPD2    C412357   3.584   2.262  10.140 -0.5171  0.0137 -0.1575
  837MPD2    C512358   3.609   2.124  10.140  0.2772  0.2910 -0.1663
  837MPD2     H12359   3.261   2.245  10.085  0.7144  0.8725 -1.8851
  837MPD2    H112360   3.666   2.333  10.143 -0.3564 -0.0867 -2.2385
  837MPD2    H212361   3.534   1.926  10.097  1.1345  0.3404 -0.7685
  837MPD2    H312362   3.707   2.079  10.155  0.7997  1.3180 -0.5462
  837MPD2     N12363   3.411   2.444  10.107  0.3709 -0.1126 -0.1485
  837MPD2    H512364   3.311   2.456  10.090  0.1365 -1.9201 -0.0665
  837MPD2    N112365   3.269   1.996  10.053  0.3208  0.4593  0.1073
  837MPD2    H712366   3.187   2.052  10.030  0.4804  0.2267 -0.9955
  838MPD2     C12367   1.919   0.288  11.547  0.0588  0.0223 -1.0949
  838MPD2    C112368   1.941   0.296  11.680  0.0162  0.3229 -0.5156
  838MPD2    C212369   1.844   0.231  11.762  0.0464  0.9323 -0.6245
  838MPD2    C312370   1.748   0.146  11.710  0.1225  0.1669 -0.4611
  838MPD2    C412371   1.728   0.143  11.573 -0.2208 -0.7064 -0.1263
  838MPD2    C512372   1.816   0.212  11.497  0.5570 -0.3788 -0.4797
  838MPD2     H12373   1.861   0.230  11.869 -2.9977 -2.5651 -0.1546
  838MPD2    H112374   1.649   0.093  11.518 -0.7272  1.3724 -1.2849
  838MPD2    H212375   1.987   0.344  11.483 -0.3261  1.3469 -0.3560
  838MPD2    H312376   1.792   0.205  11.391 -0.7187  0.1500 -0.2252
  838MPD2     N12377   1.660   0.076  11.790  0.1537  0.0398  0.2076
  838MPD2    H512378   1.678   0.080  11.890  0.2055 -1.8017  0.2814
  838MPD2    N112379   2.041   0.365  11.747  0.0133  0.4901 -0.3907
  838MPD2    H712380   2.027   0.377  11.847 -0.8781 -0.3691 -0.4159
  839MPD2     C12381   1.856   4.392  11.739 -0.0826  0.1731 -0.6118
  839MPD2    C112382   1.885   4.410  11.607 -0.2611  0.3265  0.4556
  839MPD2    C212383   1.994   4.486  11.572  0.3336 -0.1916  0.0725
  839MPD2    C312384   2.065   4.556  11.663  0.1068 -0.5097 -0.5038
  839MPD2    C412385   2.046   4.536  11.798 -0.0583  0.1162 -0.0845
  839MPD2    C512386   1.946   4.452  11.831  0.2602 -0.5458 -0.3798
  839MPD2     H12387   2.017   4.484  11.466  0.6401  0.6157  0.1250
  839MPD2    H112388   2.106   4.584  11.874 -1.2151  1.5660 -0.1113
  839MPD2    H212389   1.773   4.337  11.782  0.5197 -0.8008 -0.6919
  839MPD2    H312390   1.922   4.444  11.937 -1.0830 -0.0582 -0.6445
  839MPD2     N12391   2.163   4.653  11.626 -0.2193 -0.8396 -0.1338
  839MPD2    H512392   2.222   4.686  11.701 -0.0564 -0.2788 -0.5002
  839MPD2    N112393   1.800   4.361  11.507 -0.4764 -0.1331 -0.1249
  839MPD2    H712394   1.819   4.373  11.408  0.9708  0.1103  0.1881
  840MPD2     C12395   1.964   2.815  10.271 -0.9352 -0.3954  0.0068
  840MPD2    C112396   1.978   2.702  10.347  0.0077 -0.3630 -0.0265
  840MPD2    C212397   2.080   2.700  10.444  0.2744  0.7218  0.0539
  840MPD2    C312398   2.157   2.813  10.463 -0.1332  0.2872  0.5304
  840MPD2    C412399   2.140   2.937  10.388 -0.0351  0.0399 -0.4954
  840MPD2    C512400   2.037   2.936  10.296 -0.7663 -0.1732 -0.6391
  840MPD2     H12401   2.089   2.621  10.517 -0.1349  1.2995  0.7356
  840MPD2    H112402   2.187   3.030  10.419  0.6564 -0.5699  0.3121
  840MPD2    H212403   1.894   2.820  10.189 -0.9864 -0.3075  0.0554
  840MPD2    H312404   2.022   3.025  10.236  0.4641 -0.5586 -1.5258
  840MPD2     N12405   2.259   2.828  10.564 -0.3505  0.0174 -0.5697
  840MPD2    H512406   2.307   2.917  10.562  2.1090 -1.2328  3.6250
  840MPD2    N112407   1.876   2.606  10.345 -0.5431 -0.0860  0.3194
  840MPD2    H712408   1.808   2.618  10.271  1.7551 -2.5922 -2.1976
  841MPD2     C12409   1.865   2.021  14.405 -0.5369 -0.8583 -0.0026
  841MPD2    C112410   1.926   1.902  14.444 -0.2638  0.3581  0.1519
  841MPD2    C212411   2.041   1.907  14.518  0.4552 -0.1151  0.1406
  841MPD2    C312412   2.089   2.021  14.565  0.6040 -0.1430 -0.2672
  841MPD2    C412413   2.020   2.142  14.540  0.0302 -0.0612 -0.7245
  841MPD2    C512414   1.908   2.141  14.470 -0.2723 -0.3364  0.4923
  841MPD2     H12415   2.087   1.811  14.539 -1.2471 -1.0619 -0.5014
  841MPD2    H112416   2.071   2.234  14.567 -1.4565  0.7804 -0.8259
  841MPD2    H212417   1.777   2.034  14.343 -1.1894  2.4575  1.6374
  841MPD2    H312418   1.851   2.231  14.451 -1.1414 -1.0156 -0.1632
  841MPD2     N12419   2.213   2.019  14.641 -0.3194 -0.3081  0.0960
  841MPD2    H512420   2.255   1.928  14.655 -0.4226 -0.2872  0.5573
  841MPD2    N112421   1.894   1.775  14.385 -0.1798  0.2171 -0.7613
  841MPD2    H712422   1.944   1.691  14.413 -0.0986  0.4764 -0.1174
  842MPD2     C12423   2.728   3.044  17.009 -0.9442 -0.2251 -0.4355
  842MPD2    C112424   2.606   2.975  17.005  0.5738  0.3431  0.3536
  842MPD2    C212425   2.565   2.912  17.124  0.5070  0.1255 -0.2274
  842MPD2    C312426   2.657   2.905  17.228  0.6007  0.0061  0.3314
  842MPD2    C412427   2.783   2.958  17.214  0.2407 -0.3079 -0.3480
  842MPD2    C512428   2.814   3.039  17.111  0.2373 -0.9335 -0.3753
  842MPD2     H12429   2.477   2.849  17.135 -1.7303  3.1118 -1.1770
  842MPD2    H112430   2.851   2.952  17.297 -0.8874  0.6138  0.6485
  842MPD2    H212431   2.763   3.085  16.915 -1.5832 -2.0512 -1.4648
  842MPD2    H312432   2.905   3.098  17.111 -1.2678  1.4614  6.5192
  842MPD2     N12433   2.639   2.846  17.355 -0.0299  0.4803  0.2298
  842MPD2    H512434   2.726   2.812  17.395  0.1417  0.3018 -0.2970
  842MPD2    N112435   2.526   2.976  16.887  0.3131 -0.3925  0.3983
  842MPD2    H712436   2.566   3.031  16.811  2.4980 -2.6410 -0.0822
  843MPD2     C12437   4.399   3.222  17.593  0.1186  0.3034  0.2542
  843MPD2    C112438   4.525   3.172  17.635  0.3106  0.3633  0.7014
  843MPD2    C212439   4.638   3.219  17.573  0.9034 -0.2182 -0.4113
  843MPD2    C312440   4.628   3.330  17.485 -0.2638  0.3310  0.1542
  843MPD2    C412441   4.501   3.369  17.446 -0.4921 -0.2293  0.3232
  843MPD2    C512442   4.388   3.311  17.493  0.2205 -0.4315 -0.4649
  843MPD2     H12443   0.003   3.177  17.596  0.5071  0.3433  2.3753
  843MPD2    H112444   4.486   3.444  17.368 -1.1011 -0.2790  0.3874
  843MPD2    H212445   4.314   3.184  17.649  0.0133 -0.0084 -0.1180
  843MPD2    H312446   4.292   3.357  17.472 -0.5029 -1.1375  1.2490
  843MPD2     N12447   0.004   3.404  17.449  0.0786 -0.3679 -0.0892
  843MPD2    H512448   4.726   3.497  17.411  1.8851 -0.1003  0.0901
  843MPD2    N112449   4.529   3.092   0.026 -0.2325 -0.0387 -0.1103
  843MPD2    H712450   4.438   3.058   0.054 -0.7990  0.2970 -1.5126
  844MPD2     C12451   2.839   2.386  16.491  0.0983 -0.0635  0.3628
  844MPD2    C112452   2.950   2.330  16.422  0.3940 -0.2207 -0.4354
  844MPD2    C212453   3.070   2.401  16.423  0.1008 -0.9886  0.5684
  844MPD2    C312454   3.084   2.528  16.479 -0.2812 -0.3003  0.1738
  844MPD2    C412455   2.971   2.580  16.536  0.2266  0.2589  0.3250
  844MPD2    C512456   2.851   2.509  16.549 -0.6933  0.0551  0.8994
  844MPD2     H12457   3.155   2.365  16.366 -0.0030 -1.5633  0.7711
  844MPD2    H112458   2.974   2.681  16.575  2.1090  0.2880  0.1034
  844MPD2    H212459   2.740   2.341  16.498  0.2579 -0.7926 -1.8892
  844MPD2    H312460   2.760   2.552  16.590 -1.1272  1.3083 -1.4044
  844MPD2     N12461   3.212   2.589  16.495 -0.2190 -0.3959 -0.1111
  844MPD2    H512462   3.293   2.541  16.457  0.3628  1.5711 -1.3589
  844MPD2    N112463   2.928   2.227  16.333  1.1416  0.0593 -0.3171
  844MPD2    H712464   2.996   2.217  16.258  0.9321 -1.1170 -0.3419
  845MPD2     C12465   3.638   3.387  17.026 -0.4315  0.0196 -0.0548
  845MPD2    C112466   3.517   3.329  17.056  0.3304  0.6218 -0.3707
  845MPD2    C212467   3.491   3.211  16.989  0.2833 -0.2267 -0.1929
  845MPD2    C312468   3.575   3.149  16.903  0.2396 -1.0752  0.0145
  845MPD2    C412469   3.686   3.221  16.861 -0.1231  0.7176 -0.2781
  845MPD2    C512470   3.713   3.344  16.921 -0.4977  0.1490  0.1540
  845MPD2     H12471   3.395   3.163  16.998 -0.7077  2.2639  2.7004
  845MPD2    H112472   3.767   3.181  16.802 -1.7173 -3.4448  0.3921
  845MPD2    H212473   3.672   3.478  17.074 -1.0374  0.5434 -0.6180
  845MPD2    H312474   3.797   3.412  16.909 -2.0806  2.1838  0.5475
  845MPD2     N12475   3.537   3.028  16.836  0.2771 -0.1566  0.0844
  845MPD2    H512476   3.440   2.997  16.840  0.0480  0.1766 -2.8830
  845MPD2    N112477   3.420   3.394  17.142 -0.1514  0.2019 -0.0155
  845MPD2    H712478   3.436   3.489  17.175  0.4746 -0.7063  2.3063
  846MPD2     C12479   4.675   3.732  13.428 -0.0655 -0.3332  0.0395
  846MPD2    C112480   4.624   3.853  13.473 -0.2369 -0.9055  0.0182
  846MPD2    C212481   4.587   3.878  13.606  0.0097 -0.6998  0.0836
  846MPD2    C312482   4.617   3.787  13.702 -0.4742  0.2613 -0.1258
  846MPD2    C412483   4.664   3.662  13.656 -0.2448  0.4696  0.1032
  846MPD2    C512484   4.687   3.633  13.525 -0.7368 -0.3605  0.8716
  846MPD2     H12485   4.532   3.966  13.639 -0.0977 -0.3731 -0.9582
  846MPD2    H112486   4.678   3.578  13.723 -0.3539  0.0800 -0.3655
  846MPD2    H212487   4.705   3.726  13.324 -0.5868 -0.3470 -0.1080
  846MPD2    H312488   4.715   3.531  13.501  0.0258  0.2266 -0.7087
  846MPD2     N12489   4.572   3.805  13.836  0.2216  0.0131  0.6450
  846MPD2    H512490   4.494   3.869  13.848 -0.8614 -1.6551  2.4037
  846MPD2    N112491   4.622   3.962  13.383 -0.3562  0.2957  0.0176
  846MPD2    H712492   4.624   4.055  13.425 -0.5438  0.3668 -0.1362
  847MPD2     C12493   0.038   4.271  14.433  0.2309 -0.3209  0.8893
  847MPD2    C112494   0.160   4.335  14.441  0.6751  0.0314 -0.4603
  847MPD2    C212495   0.250   4.296  14.534  0.4330 -0.1045 -0.6014
  847MPD2    C312496   0.212   4.210  14.633 -0.8784  1.1731  0.1630
  847MPD2    C412497   0.093   4.142  14.628  0.1043  0.1826 -1.5244
  847MPD2    C512498   0.012   4.168  14.524 -0.2535  0.1300 -0.0008
  847MPD2     H12499   0.338   4.359  14.546  0.2130  0.1786 -0.4591
  847MPD2    H112500   0.066   4.056  14.689  0.1594 -0.3767 -2.2767
  847MPD2    H212501   4.711   4.282  14.343 -0.0891  0.6758  1.2215
  847MPD2    H312502   4.654   4.109  14.524 -0.1499 -0.0172  5.4737
  847MPD2     N12503   0.297   4.188  14.747  0.6215  0.0372  0.4031
  847MPD2    H512504   0.252   4.137  14.821  1.2641 -0.8383  0.1837
  847MPD2    N112505   0.203   4.433  14.350  0.8226 -0.3343  0.4126
  847MPD2    H712506   0.301   4.458  14.363  0.6867  1.0663 -1.2300
  848MPD2     C12507   2.550   2.915  16.451 -0.1406  0.1551  0.3850
  848MPD2    C112508   2.675   2.930  16.501 -0.4122  0.2280  0.1238
  848MPD2    C212509   2.763   3.019  16.446 -0.7459 -0.0331 -0.0014
  848MPD2    C312510   2.713   3.105  16.348 -0.2624  0.3238  0.0490
  848MPD2    C412511   2.597   3.074  16.284 -0.3452  0.1257  0.7163
  848MPD2    C512512   2.509   2.984  16.344 -0.7708 -0.8583  0.5296
  848MPD2     H12513   2.863   3.032  16.485  0.4445  0.3056 -3.1100
  848MPD2    H112514   2.563   3.120  16.192  1.3588  2.8846  1.4519
  848MPD2    H212515   2.476   2.845  16.489 -1.4760  0.3030 -1.9551
  848MPD2    H312516   2.414   2.954  16.302 -1.4276  1.3564  0.4754
  848MPD2     N12517   2.794   3.202  16.283  0.0973  0.5708 -0.3166
  848MPD2    H512518   2.746   3.259  16.213  0.2297 -0.3251 -1.1332
  848MPD2    N112519   2.717   2.857  16.615 -0.6548 -1.0219  0.1198
  848MPD2    H712520   2.812   2.880  16.640 -0.3223 -1.2065 -0.9981
  849MPD2     C12521   3.094   2.333  13.120 -0.2569 -0.4212  0.1115
  849MPD2    C112522   3.003   2.436  13.112  0.8313 -0.0997 -0.4670
  849MPD2    C212523   3.013   2.550  13.196  0.5561 -0.0386  0.3505
  849MPD2    C312524   3.111   2.555  13.286  0.0672  0.0951  0.0828
  849MPD2    C412525   3.200   2.454  13.298  0.7506  1.0497 -0.3561
  849MPD2    C512526   3.197   2.348  13.214  0.4380  0.4933 -0.0008
  849MPD2     H12527   2.952   2.638  13.183 -1.2525 -1.3880 -0.2530
  849MPD2    H112528   3.282   2.462  13.369  1.0471 -0.8869 -0.4942
  849MPD2    H212529   3.090   2.246  13.054  0.2662 -0.7829  0.5621
  849MPD2    H312530   3.274   2.272  13.224 -0.7455 -0.6869  0.1692
  849MPD2     N12531   3.117   2.677  13.355  0.2757  0.5920  0.2909
  849MPD2    H512532   3.060   2.749  13.313  1.0429  0.3953 -1.0788
  849MPD2    N112533   2.891   2.440  13.029  0.4135  0.0291 -0.5067
  849MPD2    H712534   2.840   2.527  13.015  0.5795  0.3387  0.8754
  850MPD2     C12535   0.438   0.566  14.598 -0.0709  0.1093  0.3437
  850MPD2    C112536   0.415   0.678  14.671 -0.2792 -0.4860 -0.4492
  850MPD2    C212537   0.513   0.717  14.763  0.5163 -0.1388  0.1057
  850MPD2    C312538   0.627   0.644  14.784 -0.8086 -0.2049 -0.8869
  850MPD2    C412539   0.642   0.523  14.712 -0.2859  0.6414  0.4135
  850MPD2    C512540   0.551   0.483  14.619 -0.0363 -0.3457 -0.0369
  850MPD2     H12541   0.497   0.817  14.803  1.2785  0.0497 -0.0649
  850MPD2    H112542   0.733   0.465  14.710 -0.7008 -0.0157  0.9113
  850MPD2    H212543   0.361   0.531  14.531  0.0174 -0.7292  0.6888
  850MPD2    H312544   0.571   0.392  14.565 -1.2472 -0.9784  0.5707
  850MPD2     N12545   0.733   0.678  14.863 -0.1857 -0.4932  1.1535
  850MPD2    H512546   0.819   0.629  14.842  0.0349  0.9850 -1.4636
  850MPD2    N112547   0.290   0.748  14.651 -0.4687 -0.6873 -0.3307
  850MPD2    H712548   0.269   0.743  14.552  1.0433 -0.9811 -0.6358
  851MPD2     C12549   0.348   0.560  15.528  0.1840 -0.6727  0.1455
  851MPD2    C112550   0.367   0.540  15.390 -0.5193  0.0079  0.0426
  851MPD2    C212551   0.428   0.420  15.351  0.3767  0.5116  0.8008
  851MPD2    C312552   0.458   0.326  15.443  0.0866  0.2448  0.8245
  851MPD2    C412553   0.426   0.349  15.574 -0.2543 -0.9399  0.1346
  851MPD2    C512554   0.381   0.466  15.625 -0.6374  0.1971  0.0625
  851MPD2     H12555   0.456   0.401  15.248  2.1051 -0.6186  1.4855
  851MPD2    H112556   0.456   0.270  15.642  1.2990 -0.2194  0.3016
  851MPD2    H212557   0.305   0.647  15.574  0.2418  0.8098 -2.6156
  851MPD2    H312558   0.358   0.483  15.729  0.6937  2.8434 -0.0834
  851MPD2     N12559   0.505   0.197  15.399  0.0416  0.0498 -0.1265
  851MPD2    H512560   0.522   0.187  15.299  4.3599 -1.1138  0.7402
  851MPD2    N112561   0.337   0.644  15.301 -0.0871 -0.4988 -0.1391
  851MPD2    H712562   0.303   0.728  15.347 -0.8780 -1.5561  1.2378
  852MPD2     C12563   0.763   3.480  10.052 -0.4282 -0.2025  0.3026
  852MPD2    C112564   0.674   3.549  10.128 -0.2625 -0.4130  0.3310
  852MPD2    C212565   0.669   3.687  10.117 -0.2037 -0.3730  0.1689
  852MPD2    C312566   0.761   3.755  10.048  0.2575  0.2054  0.3157
  852MPD2    C412567   0.851   3.684   9.972  0.0981 -0.1183  0.1231
  852MPD2    C512568   0.853   3.548   9.976 -0.0195 -0.7349  0.3203
  852MPD2     H12569   0.598   3.741  10.179 -0.3699  1.1475 -1.3511
  852MPD2    H112570   0.936   3.733   9.924  0.5470 -0.8960  0.1171
  852MPD2    H212571   0.765   3.372  10.058 -1.6082 -0.3084 -1.2430
  852MPD2    H312572   0.932   3.495   9.923  0.5409 -0.1536  0.5706
  852MPD2     N12573   0.752   3.897  10.040 -0.0110  0.3343  0.3040
  852MPD2    H512574   0.670   3.936  10.084  0.2460 -1.1056  2.0501
  852MPD2    N112575   0.574   3.487  10.215  0.0529 -0.0201 -0.1247
  852MPD2    H712576   0.503   3.547  10.255 -1.0795  0.7857 -3.3746
  853MPD2     C12577   1.719   3.608  12.062 -0.5678 -0.3693 -0.2801
  853MPD2    C112578   1.628   3.548  11.986 -0.0324 -0.2716 -0.6350
  853MPD2    C212579   1.653   3.529  11.850 -0.2470  0.2708  0.0919
  853MPD2    C312580   1.768   3.571  11.789  0.3544 -0.0887 -0.4593
  853MPD2    C412581   1.858   3.637  11.870  0.0542  0.1677 -0.1345
  853MPD2    C512582   1.829   3.655  12.001 -0.3282  0.2709 -0.5432
  853MPD2     H12583   1.587   3.469  11.787  0.5239  0.9821 -1.3772
  853MPD2    H112584   1.950   3.686  11.839  0.0510  0.4003  0.2199
  853MPD2    H212585   1.700   3.628  12.167  1.3278  0.0720 -0.0178
  853MPD2    H312586   1.907   3.703  12.060 -1.6690 -1.2537  2.4097
  853MPD2     N12587   1.796   3.571  11.650 -0.4448  0.4755  0.6160
  853MPD2    H512588   1.879   3.621  11.621  1.3507 -1.2986  2.7647
  853MPD2    N112589   1.512   3.509  12.054  0.5092 -0.0008  0.2901
  853MPD2    H712590   1.515   3.501  12.155  0.6368  0.9771  0.3621
  854MPD2     C12591   3.014   3.319  12.523  1.1533 -0.0374 -0.5817
  854MPD2    C112592   3.110   3.397  12.593 -0.7025  0.2451 -0.0647
  854MPD2    C212593   3.204   3.336  12.676  0.0918  0.1832 -0.2044
  854MPD2    C312594   3.210   3.197  12.677 -0.4870  1.0558  0.4078
  854MPD2    C412595   3.115   3.120  12.610 -0.0440  0.0677 -0.5115
  854MPD2    C512596   3.018   3.182  12.536  0.0883  0.5407  0.2921
  854MPD2     H12597   3.276   3.396  12.729 -1.7224  1.3488  0.9547
  854MPD2    H112598   3.120   3.012  12.618  0.1168  0.0849 -0.3739
  854MPD2    H212599   2.944   3.359  12.451  1.0761 -1.6856 -1.4210
  854MPD2    H312600   2.954   3.123  12.471  0.5644  1.0800 -0.6683
  854MPD2     N12601   3.305   3.131  12.749 -0.1462 -0.0413  0.3093
  854MPD2    H512602   3.306   3.029  12.747  0.5170 -0.0280  0.0446
  854MPD2    N112603   3.115   3.538  12.567 -0.4468 -1.1922 -0.3371
  854MPD2    H712604   3.060   3.573  12.490  1.5424 -1.3770 -1.8457
  855MPD2     C12605   3.707   3.038  13.620 -0.4086  0.2909  0.0080
  855MPD2    C112606   3.754   2.931  13.548 -0.5274 -0.1282  0.0615
  855MPD2    C212607   3.740   2.932  13.409 -0.1150  0.3245 -0.3008
  855MPD2    C312608   3.694   3.044  13.345 -0.3068 -0.2385 -0.0457
  855MPD2    C412609   3.645   3.153  13.419 -0.0023  0.5548 -0.1530
  855MPD2    C512610   3.656   3.150  13.552 -1.2826 -0.0960  0.6614
  855MPD2     H12611   3.771   2.847  13.350  0.6759 -0.1097  0.7483
  855MPD2    H112612   3.602   3.239  13.370 -1.8799 -1.0181 -1.2617
  855MPD2    H212613   3.707   3.044  13.728  0.5498 -2.5501  0.1506
  855MPD2    H312614   3.618   3.238  13.603  0.2918 -0.1285  1.8940
  855MPD2     N12615   3.681   3.052  13.204 -0.1717 -0.0850 -0.3546
  855MPD2    H512616   3.633   3.133  13.167 -1.1173 -0.5533 -0.1317
  855MPD2    N112617   3.800   2.810  13.607  0.9045  0.3181 -0.4230
  855MPD2    H712618   3.803   2.727  13.548  1.2865  0.5205 -0.6909
  856MPD2     C12619   1.114   3.864  13.575 -0.0724 -0.0582  0.2585
  856MPD2    C112620   1.187   3.970  13.602  0.2408  0.8198  0.1402
  856MPD2    C212621   1.143   4.085  13.549 -0.0408 -0.4922  0.8702
  856MPD2    C312622   1.013   4.095  13.496  0.5803  0.2458  0.1342
  856MPD2    C412623   0.933   3.988  13.489 -0.3424 -0.4161 -0.5060
  856MPD2    C512624   0.993   3.868  13.525 -0.0696 -0.8988 -0.3511
  856MPD2     H12625   1.200   4.176  13.566 -0.5785  0.0152 -0.0472
  856MPD2    H112626   0.828   3.989  13.462 -0.0509  0.1171 -1.6381
  856MPD2    H212627   1.151   3.772  13.619 -1.5118 -1.9884 -2.5149
  856MPD2    H312628   0.949   3.769  13.522 -0.4932 -0.7456  0.7584
  856MPD2     N12629   0.962   4.229  13.472  0.0675  0.7364 -0.4952
  856MPD2    H512630   0.860   4.234  13.466 -0.0691  0.7173  1.7943
  856MPD2    N112631   1.305   3.969  13.678 -0.3157  0.0551 -0.3921
  856MPD2    H712632   1.356   4.057  13.680 -0.2416 -0.0120  1.1347
  857MPD2     C12633   2.717   1.640  13.015  0.6816  0.1807  0.0343
  857MPD2    C112634   2.770   1.624  12.892 -0.0495 -0.0907 -0.5590
  857MPD2    C212635   2.846   1.721  12.829  0.2194  0.1797 -0.0769
  857MPD2    C312636   2.856   1.846  12.890 -0.3672 -0.6904 -0.1885
  857MPD2    C412637   2.799   1.862  13.014  0.6507  0.7291 -0.1917
  857MPD2    C512638   2.737   1.758  13.075 -0.5510 -0.3348  0.6699
  857MPD2     H12639   2.888   1.712  12.730  0.7216 -1.4924  0.2883
  857MPD2    H112640   2.794   1.954  13.070 -1.7436 -0.8927  2.3181
  857MPD2    H212641   2.654   1.565  13.062  0.6612  1.6527  2.3359
  857MPD2    H312642   2.699   1.769  13.176  2.1472  1.3433  1.4918
  857MPD2     N12643   2.927   1.953  12.836  0.0041  0.6250  0.4193
  857MPD2    H512644   2.931   2.037  12.892  0.4686  1.4489 -0.8537
  857MPD2    N112645   2.751   1.500  12.837  0.4075  0.1091 -0.1998
  857MPD2    H712646   2.683   1.437  12.878  0.0757  0.4120 -0.2842
  858MPD2     C12647   3.402   0.858  16.622 -0.4369 -0.4261 -0.1376
  858MPD2    C112648   3.465   0.747  16.656 -0.5203  0.3603 -0.1214
  858MPD2    C212649   3.457   0.686  16.785 -0.3888  0.3391  0.2216
  858MPD2    C312650   3.378   0.747  16.878  0.0302 -0.5198 -0.0093
  858MPD2    C412651   3.307   0.860  16.846  0.4509  0.0684  0.5325
  858MPD2    C512652   3.321   0.910  16.718 -0.2727  0.2847  0.3414
  858MPD2     H12653   3.504   0.592  16.811 -0.0127 -0.0989 -1.9988
  858MPD2    H112654   3.239   0.910  16.914 -0.9569  2.9324 -2.9920
  858MPD2    H212655   3.388   0.889  16.519  1.3216  3.2221  0.7190
  858MPD2    H312656   3.268   0.995  16.678 -1.5280  0.2531  1.9440
  858MPD2     N12657   3.351   0.699  17.006 -0.1994  0.0165 -0.2397
  858MPD2    H512658   3.289   0.753  17.065  0.0305  0.0621 -0.0394
  858MPD2    N112659   3.540   0.691  16.555 -1.1037  1.3487  0.3211
  858MPD2    H712660   3.523   0.729  16.462  1.3868  0.6541 -0.4158
  859MPD2     C12661   1.816   2.541  15.079  0.0945  0.7099  0.1854
  859MPD2    C112662   1.929   2.561  15.151 -0.1608 -0.8220 -0.3430
  859MPD2    C212663   1.948   2.484  15.257 -0.7559  0.1059  0.1362
  859MPD2    C312664   1.845   2.400  15.304  0.6745 -0.0975  0.1515
  859MPD2    C412665   1.730   2.384  15.235  0.6613  0.2986  0.2372
  859MPD2    C512666   1.719   2.455  15.119  0.0301  0.7758  0.0977
  859MPD2     H12667   2.049   2.475  15.294 -0.2936  1.1474 -0.8750
  859MPD2    H112668   1.640   2.338  15.275 -0.6181 -0.7485 -3.7547
  859MPD2    H212669   1.807   2.602  14.990  1.3800  0.5394 -0.0696
  859MPD2    H312670   1.623   2.457  15.068 -0.2088 -3.0015  0.3561
  859MPD2     N12671   1.851   2.339  15.432 -0.3353 -0.9614 -0.3887
  859MPD2    H512672   1.787   2.263  15.451  0.6459 -1.4046  1.1538
  859MPD2    N112673   2.023   2.649  15.098 -0.1350 -0.4379 -0.0845
  859MPD2    H712674   2.004   2.689  15.006 -2.5315 -0.4914  0.3887
  860MPD2     C12675   4.571   3.517  11.669 -0.3597 -0.6063  0.0626
  860MPD2    C112676   4.565   3.437  11.788 -0.3285  1.1278 -0.2595
  860MPD2    C212677   4.436   3.398  11.821  0.4324  0.6041 -0.1743
  860MPD2    C312678   4.328   3.436  11.754 -0.8018  0.7301  0.3679
  860MPD2    C412679   4.336   3.518  11.652 -0.0562 -0.2384 -0.6712
  860MPD2    C512680   4.458   3.553  11.605  0.0712 -0.3220 -0.5160
  860MPD2     H12681   4.423   3.344  11.914 -3.6913  0.1874 -0.9955
  860MPD2    H112682   4.249   3.563  11.606 -0.8442  0.4313  1.4818
  860MPD2    H212683   4.665   3.544  11.620  0.3400 -0.5920  1.4173
  860MPD2    H312684   4.464   3.617  11.518  2.1885 -0.6815 -0.6334
  860MPD2     N12685   4.203   3.396  11.805  0.1618  0.0422  0.6728
  860MPD2    H512686   4.198   3.327  11.879 -0.2278 -1.4750 -0.7816
  860MPD2    N112687   4.678   3.385  11.863  0.9612  0.1607 -0.3454
  860MPD2    H712688   4.653   3.340  11.951  0.9325 -0.3524 -0.6209
  861MPD2     C12689   2.983   1.393  10.775 -0.1746 -0.8593  0.0431
  861MPD2    C112690   3.014   1.524  10.812  0.2291 -0.2011 -0.4158
  861MPD2    C212691   2.942   1.627  10.743  0.4906  0.2064  0.2620
  861MPD2    C312692   2.835   1.596  10.664 -0.5117  0.3557  0.4205
  861MPD2    C412693   2.796   1.467  10.638  0.7477  0.4237 -0.6254
  861MPD2    C512694   2.870   1.367  10.702  0.0664  0.8427 -0.2208
  861MPD2     H12695   2.966   1.730  10.768 -0.5655  0.1765  1.4545
  861MPD2    H112696   2.714   1.441  10.572 -0.6619  1.5595  0.6905
  861MPD2    H212697   3.030   1.302  10.810  0.5783 -0.9135 -1.0964
  861MPD2    H312698   2.834   1.265  10.695  0.8482  0.5307  0.2409
  861MPD2     N12699   2.755   1.698  10.609 -0.0205 -0.3644 -0.5988
  861MPD2    H512700   2.672   1.661  10.564  0.3002 -2.2124  0.3228
  861MPD2    N112701   3.108   1.553  10.906 -0.6857 -0.6258  0.6781
  861MPD2    H712702   3.128   1.651  10.919  0.3060 -1.0735  2.5492
  862MPD2     C12703   2.073   1.727  10.462 -0.4739 -0.1797  0.0506
  862MPD2    C112704   2.169   1.710  10.561 -0.1980  0.0403  0.3063
  862MPD2    C212705   2.156   1.610  10.663  0.3149 -0.0723  0.7788
  862MPD2    C312706   2.039   1.541  10.667 -0.2972 -0.1584 -0.5571
  862MPD2    C412707   1.934   1.569  10.577  0.1539  0.7157 -0.3638
  862MPD2    C512708   1.954   1.658  10.471  0.5065  0.0247 -0.5917
  862MPD2     H12709   2.237   1.597  10.733 -0.1482 -0.0064  1.3252
  862MPD2    H112710   1.841   1.514  10.569 -0.2260  1.6230 -2.0113
  862MPD2    H212711   2.075   1.802  10.383 -2.0981 -2.0064 -1.7228
  862MPD2    H312712   1.872   1.672  10.401 -1.0084 -0.6224  1.0712
  862MPD2     N12713   2.022   1.431  10.753 -0.1538 -0.8570  0.5513
  862MPD2    H512714   1.935   1.379  10.742 -0.4787 -0.4194  1.0273
  862MPD2    N112715   2.288   1.786  10.568 -0.0347  0.0305  0.1970
  862MPD2    H712716   2.347   1.743  10.639  0.1521  1.2276  0.7684
  863MPD2     C12717   2.385   4.214  16.441  0.3656  0.1358  0.1249
  863MPD2    C112718   2.272   4.196  16.522  0.7584 -0.0160  0.2341
  863MPD2    C212719   2.286   4.178  16.660  0.3098  0.3291  0.7378
  863MPD2    C312720   2.410   4.188  16.717  0.0254  0.0591 -0.3179
  863MPD2    C412721   2.520   4.205  16.635  0.1771  0.0267 -0.7759
  863MPD2    C512722   2.505   4.211  16.497 -0.3440  0.3689  0.8581
  863MPD2     H12723   2.204   4.154  16.728  1.2472 -0.5295  1.5547
  863MPD2    H112724   2.622   4.219  16.669  0.1714  0.3720 -0.9003
  863MPD2    H212725   2.378   4.235  16.334 -0.9852  0.4880  0.2767
  863MPD2    H312726   2.587   4.236  16.431 -0.9209  1.8451  0.6987
  863MPD2     N12727   2.439   4.170  16.855 -0.2808 -0.7489 -0.1790
  863MPD2    H512728   2.535   4.192  16.883  0.3836 -0.7372 -2.4947
  863MPD2    N112729   2.149   4.175  16.454  0.0847 -0.2148 -0.4669
  863MPD2    H712730   2.148   4.152  16.356  0.7839 -0.2256 -0.4761
  864MPD2     C12731   2.448   0.407  17.262 -0.0980 -0.4140 -0.0220
  864MPD2    C112732   2.536   0.371  17.167  0.1473  0.4375  0.4494
  864MPD2    C212733   2.608   0.477  17.103 -0.2264 -0.3415 -0.0231
  864MPD2    C312734   2.590   0.610  17.140  0.0250 -1.1618  0.1411
  864MPD2    C412735   2.506   0.640  17.246 -0.1313  0.1194  0.1554
  864MPD2    C512736   2.442   0.538  17.308  0.5770 -0.1536 -0.1915
  864MPD2     H12737   2.691   0.453  17.037 -0.0579 -1.3347  0.5522
  864MPD2    H112738   2.491   0.742  17.282  1.8190  0.2023  0.7597
  864MPD2    H212739   2.381   0.338  17.312 -0.2939  0.8730  1.5335
  864MPD2    H312740   2.369   0.557  17.386  1.5862 -2.3525  1.2955
  864MPD2     N12741   2.658   0.710  17.079 -0.0247  0.0775 -1.2932
  864MPD2    H512742   2.632   0.801  17.115  0.5005 -0.3911  0.2426
  864MPD2    N112743   2.557   0.234  17.154 -0.2823  0.0572  0.6410
  864MPD2    H712744   2.494   0.187  17.218 -2.2393  1.0611 -0.5069
  865MPD2     C12745   2.342   0.798  16.413 -0.2218  0.2307 -0.0385
  865MPD2    C112746   2.477   0.781  16.392 -0.8970 -0.0804 -0.0884
  865MPD2    C212747   2.562   0.857  16.475 -0.2713 -0.6540  0.2138
  865MPD2    C312748   2.518   0.934  16.583  0.5046 -0.0577 -0.2633
  865MPD2    C412749   2.381   0.956  16.591 -0.2444 -0.0829 -0.9019
  865MPD2    C512750   2.298   0.882  16.511 -0.0949  0.2511 -0.2383
  865MPD2     H12751   2.670   0.847  16.476 -0.1863  0.2860  0.1424
  865MPD2    H112752   2.332   1.017  16.665  1.2788 -0.4494  0.4152
  865MPD2    H212753   2.268   0.738  16.360 -1.1976  1.6497 -0.2906
  865MPD2    H312754   2.190   0.877  16.523  0.0625  0.8140  1.4598
  865MPD2     N12755   2.605   0.980  16.677  0.0707 -0.1481  0.8902
  865MPD2    H512756   2.702   0.969  16.649  0.7569 -2.1981  4.0439
  865MPD2    N112757   2.528   0.689  16.301 -1.1691 -0.5424  0.2503
  865MPD2    H712758   2.463   0.627  16.252  0.7649 -1.7201 -0.8112
  866MPD2     C12759   3.579   1.947  11.371  0.5711 -0.1740  0.2282
  866MPD2    C112760   3.596   1.984  11.237  0.6150 -0.3209 -0.3097
  866MPD2    C212761   3.509   2.068  11.174  0.6191  0.5328 -0.7242
  866MPD2    C312762   3.397   2.106  11.243 -0.5305  0.5414  0.6785
  866MPD2    C412763   3.391   2.085  11.377  0.5805  0.7213 -0.8316
  866MPD2    C512764   3.477   1.998  11.441  0.3115 -0.2901 -0.7171
  866MPD2     H12765   3.510   2.087  11.067  0.0785  1.4231 -0.5738
  866MPD2    H112766   3.309   2.118  11.439 -0.0372  1.1974 -1.9043
  866MPD2    H212767   3.637   1.868  11.418  2.6637  1.9904  1.2930
  866MPD2    H312768   3.468   1.972  11.546  1.9441 -0.6610 -0.6656
  866MPD2     N12769   3.294   2.184  11.180  0.2996  0.2146  0.6721
  866MPD2    H512770   3.206   2.196  11.230  0.2718  0.3205  0.5972
  866MPD2    N112771   3.695   1.911  11.168  0.3079  0.5392 -0.6838
  866MPD2    H712772   3.747   1.844  11.224  0.6754  1.2924 -0.1341
  867MPD2     C12773   1.303   0.623  16.327 -0.3970 -0.2285 -0.2973
  867MPD2    C112774   1.418   0.592  16.404 -0.3397  0.4610  0.6157
  867MPD2    C212775   1.482   0.701  16.462 -0.3558  0.7443 -0.0184
  867MPD2    C312776   1.438   0.829  16.445  0.2038  0.3501  0.7214
  867MPD2    C412777   1.326   0.851  16.366  0.3791  0.1181 -0.4332
  867MPD2    C512778   1.252   0.746  16.321  0.8184 -0.1584  0.3789
  867MPD2     H12779   1.578   0.690  16.512  0.9712  0.5370 -2.6228
  867MPD2    H112780   1.292   0.950  16.337 -0.6204  0.2977  1.3409
  867MPD2    H212781   1.252   0.544  16.274 -1.5096 -0.6845  1.4311
  867MPD2    H312782   1.167   0.765  16.256  1.0828 -1.9301 -0.4801
  867MPD2     N12783   1.499   0.941  16.503  0.6352 -0.0948 -0.1505
  867MPD2    H512784   1.469   1.027  16.459 -0.4704 -0.6995 -0.5744
  867MPD2    N112785   1.467   0.463  16.413 -0.3171  0.3558  0.1318
  867MPD2    H712786   1.435   0.403  16.337 -0.5169 -2.0985  2.1652
  868MPD2     C12787   2.831   0.400  13.103 -0.0110 -0.2328  0.3266
  868MPD2    C112788   2.849   0.347  13.231  0.9447  0.1145 -0.4450
  868MPD2    C212789   2.751   0.371  13.323  0.4687  0.2643  0.1510
  868MPD2    C312790   2.633   0.432  13.300  0.4907  0.8653 -0.1311
  868MPD2    C412791   2.612   0.463  13.167  1.0513 -0.3677 -0.3960
  868MPD2    C512792   2.708   0.454  13.071  0.2216  0.3243 -0.1863
  868MPD2     H12793   2.762   0.340  13.426  0.3090 -2.3979 -0.6535
  868MPD2    H112794   2.512   0.493  13.137  0.9341 -0.3516  0.0076
  868MPD2    H212795   2.913   0.386  13.033  0.9786  0.1932  1.4029
  868MPD2    H312796   2.685   0.461  12.965 -2.1733 -1.4195  0.2192
  868MPD2     N12797   2.548   0.463  13.407 -0.1472  0.3806 -0.2947
  868MPD2    H512798   2.565   0.418  13.497 -1.0604  0.9655  0.1729
  868MPD2    N112799   2.973   0.281  13.257 -0.4802 -0.5147 -0.4510
  868MPD2    H712800   3.043   0.281  13.184  0.0101 -0.8610  0.0164
  869MPD2     C12801   3.200   1.895   0.726  0.3532  0.7145 -0.0406
  869MPD2    C112802   3.285   1.924   0.624  0.1227  0.1321  0.1923
  869MPD2    C212803   3.367   2.036   0.635 -0.6502 -0.3319 -0.8057
  869MPD2    C312804   3.375   2.104   0.755 -0.7765 -0.2251  0.2473
  869MPD2    C412805   3.291   2.063   0.860  0.2806  0.1025 -0.5703
  869MPD2    C512806   3.195   1.971   0.839  0.8586 -0.8455  0.0288
  869MPD2     H12807   3.446   2.048   0.562  0.9317 -0.0263  0.9565
  869MPD2    H112808   3.294   2.127   0.947  1.2993  1.8913 -1.9092
  869MPD2    H212809   3.124   1.818   0.725 -0.6041  1.6497  3.9693
  869MPD2    H312810   3.127   1.951   0.920 -1.6490 -0.9476 -2.1034
  869MPD2     N12811   3.469   2.207   0.784 -0.0914  0.1238  0.3472
  869MPD2    H512812   3.467   2.252   0.875 -1.7486  0.0503  0.3466
  869MPD2    N112813   3.271   1.840   0.514  0.4380 -0.2828  0.0897
  869MPD2    H712814   3.219   1.753   0.522  0.4275 -0.2007  0.9070
  870MPD2     C12815   2.962   1.447   1.485 -0.3492 -0.3306 -0.5394
  870MPD2    C112816   3.047   1.467   1.384 -0.0772  0.0824  0.1183
  870MPD2    C212817   3.004   1.465   1.253 -0.3416  0.0837  0.6998
  870MPD2    C312818   2.867   1.432   1.223  0.3715  0.2119 -0.5327
  870MPD2    C412819   2.775   1.417   1.335 -0.5385  0.1301 -0.1013
  870MPD2    C512820   2.829   1.420   1.458  0.4198  0.3545 -0.7848
  870MPD2     H12821   3.073   1.472   1.170 -0.1604 -0.4701  0.8050
  870MPD2    H112822   2.671   1.386   1.325 -0.4218  0.0746 -1.1793
  870MPD2    H212823   2.992   1.428   1.587 -0.6601  0.1014 -0.3663
  870MPD2    H312824   2.766   1.390   1.541 -1.2220  0.4671 -1.9866
  870MPD2     N12825   2.833   1.399   1.094  0.2326  0.3482 -0.7552
  870MPD2    H512826   2.902   1.387   1.020  1.9776 -0.1521  0.9562
  870MPD2    N112827   3.182   1.486   1.432 -0.4966  0.0290 -0.4978
  870MPD2    H712828   3.209   1.453   1.524  2.0622  0.9370 -0.9315
  871MPD2     C12829   0.112   0.982  16.182  0.4265  0.0003 -0.8391
  871MPD2    C112830   0.087   0.902  16.292 -0.5125  0.4263  0.2749
  871MPD2    C212831   0.093   0.767  16.285 -0.7848 -0.6584  0.1542
  871MPD2    C312832   0.134   0.708  16.163  0.0123 -0.3496 -0.4685
  871MPD2    C412833   0.148   0.786  16.049 -0.3228  0.2797  0.0539
  871MPD2    C512834   0.143   0.923  16.061 -0.1235  0.1487  0.4266
  871MPD2     H12835   0.066   0.692  16.358 -0.7394 -1.6920 -0.8828
  871MPD2    H112836   0.169   0.749  15.949  0.0180 -0.1993  0.2989
  871MPD2    H212837   0.112   1.091  16.184  0.1876 -0.0309  0.3939
  871MPD2    H312838   0.158   0.988  15.975 -0.2072 -0.8298 -0.3254
  871MPD2     N12839   0.155   0.571  16.160 -0.2620 -0.4230  0.5066
  871MPD2    H512840   0.140   0.528  16.251  0.3621 -0.5232  0.5608
  871MPD2    N112841   0.053   0.963  16.416 -0.9600 -0.2297  0.5461
  871MPD2    H712842   0.032   1.062  16.416 -1.2128 -0.3041 -2.1926
  872MPD2     C12843   0.991   3.172  14.168 -0.2727  0.5256  0.1081
  872MPD2    C112844   0.920   3.238  14.081 -0.1164  0.0283  0.6492
  872MPD2    C212845   0.785   3.267  14.116  0.0047  0.2800  0.1733
  872MPD2    C312846   0.737   3.250  14.243  0.0944 -0.6805  0.0369
  872MPD2    C412847   0.823   3.210  14.338 -1.0519  0.6725 -0.0827
  872MPD2    C512848   0.948   3.161  14.294  1.0441  0.1097  0.4111
  872MPD2     H12849   0.716   3.307  14.043 -1.0063  1.3735  1.7327
  872MPD2    H112850   0.797   3.204  14.443 -3.8398  0.4046 -0.8020
  872MPD2    H212851   1.089   3.127  14.160 -0.5479 -0.1112  0.3110
  872MPD2    H312852   1.015   3.128  14.373 -1.4697 -1.5889  1.8277
  872MPD2     N12853   0.616   3.287  14.296 -0.4022 -0.3055 -0.6236
  872MPD2    H512854   0.608   3.286  14.397 -0.8288  2.2468 -0.6309
  872MPD2    N112855   0.981   3.261  13.956  0.1844 -0.0095 -0.4381
  872MPD2    H712856   0.920   3.308  13.890  0.3520  1.8408  0.6874
  873MPD2     C12857   2.845   2.641   1.131  0.3350  0.0674 -0.3214
  873MPD2    C112858   2.726   2.699   1.157  0.0126 -0.3676  0.5013
  873MPD2    C212859   2.616   2.614   1.157 -0.3570 -0.4454  0.1669
  873MPD2    C312860   2.623   2.477   1.130 -0.1014  0.0974 -0.1968
  873MPD2    C412861   2.745   2.427   1.093  0.2040 -0.3105 -0.1116
  873MPD2    C512862   2.856   2.507   1.107 -0.0313  0.1960 -0.5212
  873MPD2     H12863   2.521   2.654   1.190 -0.2930 -0.7121  0.6638
  873MPD2    H112864   2.762   2.320   1.085 -0.6187 -0.3833 -0.8546
  873MPD2    H212865   2.931   2.701   1.159 -0.8624  1.1418  1.0137
  873MPD2    H312866   2.953   2.460   1.096 -0.4140 -0.8066  0.3826
  873MPD2     N12867   2.509   2.394   1.119 -0.7493 -0.5590  0.2951
  873MPD2    H512868   2.517   2.303   1.075  1.9148 -0.7807  1.1728
  873MPD2    N112869   2.711   2.841   1.190 -0.0029  0.6457  0.0534
  873MPD2    H712870   2.791   2.898   1.216  0.5079 -0.5950  1.1841
  874MPD2     C12871   2.247   3.419  16.226 -0.4749 -0.9034 -0.7321
  874MPD2    C112872   2.341   3.371  16.308  0.0791 -0.3084 -0.3142
  874MPD2    C212873   2.473   3.394  16.292  0.4633 -0.5466 -0.3149
  874MPD2    C312874   2.508   3.466  16.178  0.7085 -0.6350 -0.5269
  874MPD2    C412875   2.415   3.504  16.083  0.2189 -1.3836 -0.1581
  874MPD2    C512876   2.281   3.488  16.115 -0.2524  0.2024  0.5386
  874MPD2     H12877   2.549   3.365  16.364 -0.3469  0.3838  0.9000
  874MPD2    H112878   2.437   3.564  15.996  2.9331 -0.0207  1.4558
  874MPD2    H212879   2.143   3.392  16.244 -0.9283  1.5630  0.3867
  874MPD2    H312880   2.210   3.526  16.043  0.5319  2.2891  0.8694
  874MPD2     N12881   2.649   3.495  16.171  0.2216  0.2635  0.5437
  874MPD2    H512882   2.693   3.500  16.262  0.1697 -0.2044  0.5924
  874MPD2    N112883   2.289   3.294  16.420  0.2075  0.1308 -0.0880
  874MPD2    H712884   2.189   3.278  16.419  0.1741  0.0785  3.2842
  875MPD2     C12885   3.761   1.849  14.393 -0.3826 -0.0565  0.5483
  875MPD2    C112886   3.629   1.856  14.430 -0.5396  0.4145 -0.4430
  875MPD2    C212887   3.597   1.909  14.558 -0.1341  0.5590 -1.0701
  875MPD2    C312888   3.701   1.946  14.641 -0.1621 -0.2059  0.6533
  875MPD2    C412889   3.831   1.914  14.604  0.3070 -0.1663 -0.4673
  875MPD2    C512890   3.866   1.885  14.476 -0.3117 -0.0347 -0.1924
  875MPD2     H12891   3.494   1.932  14.586  0.3873  0.0776  1.2397
  875MPD2    H112892   3.915   1.949  14.664 -0.0471  2.3250 -1.4041
  875MPD2    H212893   3.779   1.807  14.294  0.6897  0.0944  0.6850
  875MPD2    H312894   3.968   1.863  14.446  0.0888  1.9701 -0.3676
  875MPD2     N12895   3.683   1.982  14.778 -0.3794 -0.3859  0.0637
  875MPD2    H512896   3.764   2.005  14.833 -0.8872 -1.7747  1.3917
  875MPD2    N112897   3.528   1.826  14.338  0.3550 -0.1854 -0.2729
  875MPD2    H712898   3.435   1.861  14.358  0.8488  0.4461  0.9118
  876MPD2     C12899   2.379   3.144  15.954 -0.2755 -0.6109 -0.3603
  876MPD2    C112900   2.421   3.054  15.857  0.4387  0.1287 -0.1154
  876MPD2    C212901   2.407   2.918  15.882  0.8603  0.3382 -0.3820
  876MPD2    C312902   2.339   2.866  15.990  0.5483 -1.1271  0.1819
  876MPD2    C412903   2.278   2.960  16.077  0.0901 -0.3514 -0.3767
  876MPD2    C512904   2.307   3.091  16.062 -0.0790 -0.6569  0.1506
  876MPD2     H12905   2.427   2.838  15.812  0.5331 -0.3935  0.3503
  876MPD2    H112906   2.210   2.924  16.154  2.3593 -0.7988  1.4278
  876MPD2    H212907   2.381   3.252  15.940 -1.9070 -0.7048 -1.3051
  876MPD2    H312908   2.250   3.159  16.124 -1.5156 -1.3458 -0.4043
  876MPD2     N12909   2.331   2.730  16.012  0.1872  0.0213  0.1887
  876MPD2    H512910   2.363   2.669  15.938 -1.4053  0.1137 -0.5661
  876MPD2    N112911   2.486   3.107  15.741  0.1476  0.7723  0.4376
  876MPD2    H712912   2.487   3.207  15.724 -0.5034  0.1534 -3.3279
  877MPD2     C12913   2.342   3.257  15.082  0.3143 -0.0108 -0.1020
  877MPD2    C112914   2.478   3.286  15.062 -0.0175  0.9874  0.3822
  877MPD2    C212915   2.529   3.294  14.933 -0.1725 -0.0650 -0.3033
  877MPD2    C312916   2.437   3.303  14.826 -0.4636 -0.3399  0.1419
  877MPD2    C412917   2.299   3.284  14.845 -0.8319 -0.4978 -0.5724
  877MPD2    C512918   2.254   3.253  14.973 -0.0574  0.1466 -0.5003
  877MPD2     H12919   2.634   3.309  14.910 -0.1439 -3.1362 -2.2321
  877MPD2    H112920   2.226   3.281  14.766 -1.3747  2.2580 -0.1958
  877MPD2    H212921   2.301   3.254  15.182  2.1444 -1.1316  0.6168
  877MPD2    H312922   2.149   3.237  14.996  0.1930 -0.6751  0.0473
  877MPD2     N12923   2.479   3.333  14.697  0.3295  0.0203 -0.3891
  877MPD2    H512924   2.403   3.321  14.631 -0.7865 -2.0852  1.2460
  877MPD2    N112925   2.560   3.283  15.178  0.0620  0.2675 -0.3649
  877MPD2    H712926   2.661   3.274  15.172  0.0355  0.8449 -1.6699
  878MPD2     C12927   2.370   2.598  12.140 -0.1116 -0.1410 -0.0420
  878MPD2    C112928   2.302   2.648  12.251 -0.4122  0.5987 -0.7756
  878MPD2    C212929   2.353   2.616  12.374 -1.1162 -0.4527  0.1146
  878MPD2    C312930   2.461   2.530  12.388  0.3896  0.4570  0.1452
  878MPD2    C412931   2.514   2.467  12.282  0.1675  0.0820  0.5758
  878MPD2    C512932   2.464   2.500  12.161 -0.2498  0.0396  0.9520
  878MPD2     H12933   2.304   2.656  12.462 -1.3180  0.0245 -0.2163
  878MPD2    H112934   2.608   2.413  12.289  0.7010  0.8735 -0.5832
  878MPD2    H212935   2.350   2.636  12.041 -0.8131  1.4609  0.6988
  878MPD2    H312936   2.513   2.452  12.077 -1.8827  0.5804 -0.3083
  878MPD2     N12937   2.514   2.514  12.516 -0.0303  0.2437  0.2724
  878MPD2    H512938   2.468   2.566  12.590 -1.2212  0.8244 -0.8785
  878MPD2    N112939   2.189   2.731  12.246 -0.3662  0.5878 -0.1235
  878MPD2    H712940   2.133   2.743  12.330 -0.1235  0.5813  0.0409
  879MPD2     C12941   2.977   4.065  17.151 -0.5642  0.2009 -0.5148
  879MPD2    C112942   2.901   3.966  17.201 -0.3849  0.0015 -0.0227
  879MPD2    C212943   2.792   3.912  17.130  0.0480  0.0889 -0.8735
  879MPD2    C312944   2.777   3.956  17.001 -0.1791  0.5186 -0.2349
  879MPD2    C412945   2.858   4.059  16.952 -0.6623 -0.2293  0.7608
  879MPD2    C512946   2.959   4.110  17.024 -0.3914  0.8945  0.3601
  879MPD2     H12947   2.746   3.823  17.171  0.5001 -0.3063 -1.2255
  879MPD2    H112948   2.850   4.093  16.850 -1.2667 -1.2262  0.4784
  879MPD2    H212949   3.067   4.096  17.205  0.8333 -1.0831 -2.1106
  879MPD2    H312950   3.032   4.174  16.976 -0.0309 -2.3514 -3.4300
  879MPD2     N12951   2.677   3.912  16.909 -0.0104 -0.3960  0.1741
  879MPD2    H512952   2.686   3.936  16.811 -1.2935 -2.1097 -0.3868
  879MPD2    N112953   2.927   3.921  17.336 -0.1323  0.3827 -0.3258
  879MPD2    H712954   3.011   3.968  17.369  0.8193 -1.8737  0.4939
  880MPD2     C12955   4.105   0.754   0.362 -0.0067 -0.3941  0.1296
  880MPD2    C112956   3.963   0.760   0.359  0.0227 -0.3473  0.0943
  880MPD2    C212957   3.896   0.641   0.386  0.3771 -0.3553  0.0026
  880MPD2    C312958   3.953   0.531   0.431 -0.1879 -0.9902 -0.2662
  880MPD2    C412959   4.095   0.531   0.444  0.1557 -0.0043 -0.3677
  880MPD2    C512960   4.165   0.639   0.404 -0.2548 -0.7820  0.5141
  880MPD2     H12961   3.788   0.644   0.375  0.2562  0.4791  1.4585
  880MPD2    H112962   4.151   0.445   0.477 -0.5352 -1.0650 -1.9625
  880MPD2    H212963   4.163   0.844   0.347  2.2170 -1.5926  1.3865
  880MPD2    H312964   4.272   0.644   0.422  0.0536 -0.8126 -1.2383
  880MPD2     N12965   3.866   0.421   0.467 -0.3802 -0.1327 -0.4931
  880MPD2    H512966   3.768   0.436   0.446  0.2868  2.7654 -1.5941
  880MPD2    N112967   3.910   0.890   0.327  0.5346  0.1375  0.3627
  880MPD2    H712968   3.975   0.966   0.307 -0.3540  0.8392  0.1234
  881MPD2     C12969   3.776   1.715  17.502 -0.6104  0.2274  0.3616
  881MPD2    C112970   3.819   1.592  17.471  0.4962 -0.4590 -0.1596
  881MPD2    C212971   3.808   1.498  17.570  0.4997 -0.5654  0.7633
  881MPD2    C312972   3.763   1.519  17.699 -0.5674  0.1345  0.3377
  881MPD2    C412973   3.737   1.652   0.009  0.1169 -0.3162  0.0635
  881MPD2    C512974   3.743   1.744  17.635  0.5617 -0.1802  0.1935
  881MPD2     H12975   3.836   1.398  17.540  2.0953 -0.5178  2.1219
  881MPD2    H112976   3.706   1.671   0.111  0.2627 -1.2756  0.2834
  881MPD2    H212977   3.791   1.795  17.431  2.0619  0.2868  1.0156
  881MPD2    H312978   3.720   1.848  17.656  1.7241  0.3665 -1.2705
  881MPD2     N12979   3.738   1.421   0.075 -0.0218  0.7876 -0.2024
  881MPD2    H512980   3.691   1.456   0.157 -0.3894 -0.9969  0.3547
  881MPD2    N112981   3.848   1.559  17.336 -0.0251 -0.3787  0.5952
  881MPD2    H712982   3.832   1.638  17.275 -1.8274 -1.3664 -0.2060
  882MPD2     C12983   2.153   3.546  13.981  0.1018  0.8357  0.2753
  882MPD2    C112984   2.180   3.471  14.091 -0.2584  0.3717 -0.2375
  882MPD2    C212985   2.096   3.368  14.125  0.0141  0.3175  0.0588
  882MPD2    C312986   1.990   3.335  14.038 -0.4540  0.0431  0.1586
  882MPD2    C412987   1.970   3.403  13.923  0.4136  0.4096 -0.2315
  882MPD2    C512988   2.051   3.510  13.902 -0.1276  0.2881  0.3418
  882MPD2     H12989   2.116   3.297  14.205 -1.4542  0.7715  0.8385
  882MPD2    H112990   1.881   3.382  13.865  1.0584  0.1113 -1.1155
  882MPD2    H212991   2.206   3.632  13.941  0.1383  0.2743 -0.8741
  882MPD2    H312992   2.026   3.574  13.818  2.3429 -0.1094 -0.6956
  882MPD2     N12993   1.903   3.221  14.065  0.0393 -0.3799  0.4951
  882MPD2    H512994   1.812   3.216  14.022  0.3984 -0.3454 -0.2669
  882MPD2    N112995   2.298   3.497  14.161 -0.1070 -0.0688  0.0258
  882MPD2    H712996   2.372   3.552  14.119 -0.2133  0.0026 -0.0675
  883MPD2     C12997   0.026   3.015  16.800  0.0757  0.0583 -0.1815
  883MPD2    C112998   0.130   3.041  16.711 -0.4407 -0.4151  0.1268
  883MPD2    C212999   0.254   2.994  16.747 -0.1439 -0.3619 -0.8076
  883MPD2    C313000   0.282   2.915  16.858  0.8668 -0.4310  0.2873
  883MPD2    C413001   0.176   2.888  16.945  0.0135 -0.4056 -0.3668
  883MPD2    C513002   0.051   2.937  16.913 -0.6591  0.0039  0.9136
  883MPD2     H13003   0.336   3.029  16.685  1.3787  0.1821  1.5128
  883MPD2    H113004   0.190   2.817  17.025 -2.5709  0.1874  0.6176
  883MPD2    H213005   4.660   3.058  16.786 -0.0982 -0.6995 -1.3599
  883MPD2    H313006   4.692   2.923  16.970  0.6579 -1.3511  2.6529
  883MPD2     N13007   0.411   2.875  16.886 -0.0105  0.0167  0.2839
  883MPD2    H513008   0.484   2.883  16.816  0.8717 -0.4115  1.1476
  883MPD2    N113009   0.124   3.104  16.583  0.6370  0.7873  0.0993
  883MPD2    H713010   0.202   3.089  16.521 -0.7150  0.9263 -1.6298
  884MPD2     C13011   1.807   4.015  15.171  0.0193  0.1475 -0.8045
  884MPD2    C113012   1.747   4.115  15.096 -0.2057  0.1686 -0.3756
  884MPD2    C213013   1.608   4.132  15.102 -0.1017  0.2933  0.7292
  884MPD2    C313014   1.523   4.063  15.188  0.2413 -0.3666  0.1204
  884MPD2    C413015   1.587   3.967  15.262 -0.2863 -0.1352 -0.2483
  884MPD2    C513016   1.724   3.940  15.243 -0.7611  0.5002 -0.2080
  884MPD2     H13017   1.567   4.210  15.039 -2.0599 -2.8904 -1.9678
  884MPD2    H113018   1.532   3.899  15.327 -2.3059  0.1525 -1.6488
  884MPD2    H213019   1.897   3.960  15.145  1.5319  1.7164  1.1865
  884MPD2    H313020   1.758   3.849  15.291 -0.0550  1.1270  0.4815
  884MPD2     N13021   1.387   4.099  15.188 -0.0193 -0.4130  0.3842
  884MPD2    H513022   1.350   4.183  15.146 -2.8316 -2.0600 -0.3950
  884MPD2    N113023   1.831   4.209  15.025  0.0227  0.2650 -0.0816
  884MPD2    H713024   1.786   4.279  14.967  0.4275  2.0455  1.7612
  885MPD2     C13025   4.532   4.435  17.685  0.0220 -0.4225 -0.1881
  885MPD2    C113026   4.588   4.331  17.611  0.4146  0.7386 -0.3674
  885MPD2    C213027   4.580   4.331  17.476 -0.0599  0.5824 -0.0999
  885MPD2    C313028   4.511   4.432  17.406 -0.0738 -0.1723  0.4170
  885MPD2    C413029   4.451   4.530  17.484  0.4996 -0.5496 -0.4336
  885MPD2    C513030   4.463   4.530  17.612 -0.1707  0.2816  0.2755
  885MPD2     H13031   4.626   4.252  17.419 -0.8555 -1.0984  1.6205
  885MPD2    H113032   4.403   4.617  17.442 -0.1655 -1.3137 -1.2636
  885MPD2    H213033   4.530   4.441   0.065  1.9801 -1.9477 -0.0705
  885MPD2    H313034   4.407   4.612  17.655 -2.5391 -1.2455  0.1039
  885MPD2     N13035   4.507   4.431  17.267  0.0017 -0.4078  0.1732
  885MPD2    H513036   4.548   4.348  17.226  0.4165 -0.0095 -0.2192
  885MPD2    N113037   4.643   4.221  17.684 -0.4646  0.5352 -0.2883
  885MPD2    H713038   4.674   4.240   0.051 -1.0863  1.5703 -0.2925
  886MPD2     C13039   1.006   2.784  15.421 -0.2560 -0.3515 -0.4161
  886MPD2    C113040   1.126   2.747  15.364  0.2068  0.0380 -0.8282
  886MPD2    C213041   1.157   2.791  15.238  0.1711  0.2087 -0.4299
  886MPD2    C313042   1.072   2.880  15.168 -0.8001 -0.2941 -0.0887
  886MPD2    C413043   0.956   2.917  15.230  0.1556  0.2648  0.2051
  886MPD2    C513044   0.926   2.872  15.356  0.3152 -0.3059 -0.8591
  886MPD2     H13045   1.256   2.764  15.202 -1.3558 -2.5354 -2.5652
  886MPD2    H113046   0.875   2.975  15.186 -0.7118 -1.5575 -0.6204
  886MPD2    H213047   0.977   2.746  15.518  2.2408  0.0288  0.4588
  886MPD2    H313048   0.827   2.893  15.395  1.0592 -0.3565  1.0761
  886MPD2     N13049   1.102   2.939  15.047  0.1632  0.3108 -0.6028
  886MPD2    H513050   1.035   3.011  15.022 -2.6676 -1.7270  1.0791
  886MPD2    N113051   1.219   2.673  15.434  0.3337  0.0242 -0.2133
  886MPD2    H713052   1.298   2.648  15.375 -0.5390 -3.8531  0.2414
  887MPD2     C13053   1.856   2.635  15.937  0.1880 -0.3542 -0.1800
  887MPD2    C113054   1.785   2.706  15.845  0.1776 -0.1562 -0.3122
  887MPD2    C213055   1.801   2.843  15.841 -0.8299 -0.6506  0.1481
  887MPD2    C313056   1.871   2.915  15.931 -0.1476  0.1307 -1.0487
  887MPD2    C413057   1.940   2.842  16.022  0.3364  0.2798 -0.3700
  887MPD2    C513058   1.941   2.705  16.021 -0.3027  0.3104  0.6358
  887MPD2     H13059   1.756   2.904  15.763 -0.2986  0.1626  0.4822
  887MPD2    H113060   2.012   2.885  16.090  1.6488 -0.4504 -1.3043
  887MPD2    H213061   1.849   2.527  15.946  0.4926 -0.4780 -1.4146
  887MPD2    H313062   1.990   2.649  16.099 -2.4493 -1.1710  0.8996
  887MPD2     N13063   1.891   3.052  15.916 -0.1205  0.6215 -0.3412
  887MPD2    H513064   1.843   3.082  15.831 -0.3272  1.9220  0.2313
  887MPD2    N113065   1.696   2.640  15.750  0.0652 -0.4299 -0.1024
  887MPD2    H713066   1.655   2.691  15.672  1.6564  0.1653 -0.5452
  888MPD2     C13067   3.836   2.815  14.843  0.2147 -0.7989  0.5196
  888MPD2    C113068   3.807   2.871  14.968  0.5426 -0.1990  0.8113
  888MPD2    C213069   3.828   3.008  14.981 -0.4624 -0.1557  0.1403
  888MPD2    C313070   3.891   3.089  14.884 -0.4973  0.6913  0.3657
  888MPD2    C413071   3.929   3.029  14.765 -0.0298 -0.1357  0.1213
  888MPD2    C513072   3.907   2.889  14.755  0.3590 -0.0520  0.3688
  888MPD2     H13073   3.789   3.066  15.063  2.5984 -0.7466  2.0292
  888MPD2    H113074   3.974   3.082  14.683  0.9540  0.4440  1.0329
  888MPD2    H213075   3.836   2.708  14.825 -0.3504 -0.5235 -1.1801
  888MPD2    H313076   3.938   2.831  14.669  0.2086 -1.1199  1.0356
  888MPD2     N13077   3.891   3.228  14.898  0.0128  0.1793  0.1916
  888MPD2    H513078   3.909   3.280  14.812  0.6859 -1.6228 -0.7471
  888MPD2    N113079   3.760   2.799  15.078 -0.5586 -0.6678 -0.4588
  888MPD2    H713080   3.752   2.852  15.164 -1.2567 -0.2883 -0.7539
  889MPD2     C13081   2.845   2.585  12.375 -0.0672 -0.4611  0.2566
  889MPD2    C113082   2.927   2.585  12.487  0.1729 -0.1905 -0.0763
  889MPD2    C213083   2.897   2.676  12.588 -0.2498  0.0516  0.3972
  889MPD2    C313084   2.806   2.781  12.572 -0.1373  0.4823 -0.5844
  889MPD2    C413085   2.724   2.779  12.457 -0.7672 -0.1710 -0.2676
  889MPD2    C513086   2.751   2.686  12.363 -0.0716  0.5139  0.3092
  889MPD2     H13087   2.968   2.684  12.669  0.6788  2.4974 -0.6512
  889MPD2    H113088   2.640   2.843  12.431 -2.6100 -1.8007  1.6968
  889MPD2    H213089   2.840   2.509  12.297 -2.1065  0.1163 -0.1715
  889MPD2    H313090   2.687   2.682  12.275 -1.1003 -1.5042  1.1298
  889MPD2     N13091   2.806   2.889  12.666 -0.5613 -0.2486 -0.3126
  889MPD2    H513092   2.857   2.878  12.753 -3.4166  0.2004  1.4297
  889MPD2    N113093   3.000   2.475  12.529 -0.2998  0.6570  0.3937
  889MPD2    H713094   3.042   2.475  12.622  0.5233 -0.3272  0.0205
  890MPD2     C13095   2.700   4.077  14.407 -1.2695 -0.2150 -0.3062
  890MPD2    C113096   2.713   4.138  14.530 -0.6061  0.3890  0.0364
  890MPD2    C213097   2.694   4.059  14.643  0.1418 -0.4234  0.5511
  890MPD2    C313098   2.654   3.929  14.633  0.1238 -0.2560  0.5594
  890MPD2    C413099   2.636   3.867  14.510 -0.3065 -0.2391  0.2800
  890MPD2    C513100   2.654   3.948  14.397 -0.0142  0.0567  0.0283
  890MPD2     H13101   2.713   4.102  14.741 -0.0256  0.8446  0.0283
  890MPD2    H113102   2.616   3.762  14.498 -0.3557 -0.0620 -1.2707
  890MPD2    H213103   2.721   4.125  14.312 -1.6427 -2.1869 -1.3850
  890MPD2    H313104   2.650   3.899  14.301  0.1707  0.0031  0.0463
  890MPD2     N13105   2.617   3.869  14.759 -0.2613 -0.2248  0.2836
  890MPD2    H513106   2.633   3.923  14.844  1.0316  1.7757 -1.2280
  890MPD2    N113107   2.710   4.279  14.523 -0.6650  0.3464 -0.0921
  890MPD2    H713108   2.717   4.318  14.429  1.2943 -1.8574 -0.8748
  891MPD2     C13109   0.422   2.513  16.234  0.1303 -0.1125  0.7802
  891MPD2    C113110   0.319   2.442  16.291 -0.2278 -0.2047 -0.0217
  891MPD2    C213111   0.348   2.347  16.392  0.7065 -0.3048 -0.5224
  891MPD2    C313112   0.482   2.321  16.425 -0.4424  0.7364  0.6920
  891MPD2    C413113   0.581   2.388  16.355 -0.0143 -0.3202  0.1309
  891MPD2    C513114   0.552   2.487  16.268 -0.1967  0.0923  0.3540
  891MPD2     H13115   0.271   2.309  16.459  0.2292  0.3192 -0.7098
  891MPD2    H113116   0.687   2.378  16.374 -0.0677 -2.6389 -0.8538
  891MPD2    H213117   0.403   2.591  16.161  1.2593 -0.4824  0.0934
  891MPD2    H313118   0.636   2.528  16.213 -2.0721  1.9794 -1.1153
  891MPD2     N13119   0.510   2.238  16.535  0.6003  0.1453  0.1334
  891MPD2    H513120   0.433   2.204  16.592  0.0128  0.0366 -0.7198
  891MPD2    N113121   0.184   2.471  16.252 -0.2980  0.6317  0.1215
  891MPD2    H713122   0.171   2.552  16.192  1.7146  1.5604  0.9236
  892MPD2     C13123   1.382   3.773  14.307 -0.4828  0.4147 -0.0967
  892MPD2    C113124   1.379   3.687  14.414 -0.5570  0.4691  0.8650
  892MPD2    C213125   1.421   3.553  14.401  0.5084  0.5209  0.5789
  892MPD2    C313126   1.464   3.511  14.274 -0.0119 -0.0887 -0.4582
  892MPD2    C413127   1.476   3.602  14.171  0.4482  0.1583 -0.0396
  892MPD2    C513128   1.440   3.736  14.187  0.1410 -0.3252 -0.6339
  892MPD2     H13129   1.435   3.495  14.492  1.5396  1.1914  0.8438
  892MPD2    H113130   1.522   3.576  14.076  0.2470 -1.0022  0.1914
  892MPD2    H213131   1.361   3.879  14.317  1.4359  0.6577  1.4256
  892MPD2    H313132   1.443   3.812  14.111  1.5822  2.5981  2.3413
  892MPD2     N13133   1.508   3.382  14.238 -0.0911  0.4148  0.1830
  892MPD2    H513134   1.527   3.369  14.139  0.8499 -0.0872  0.4317
  892MPD2    N113135   1.321   3.736  14.530  0.3422  0.3390 -0.2895
  892MPD2    H713136   1.280   3.829  14.530  3.5958  1.7911  0.4303
  893MPD2     C13137   2.311   1.471   1.264 -0.5188  0.4641 -0.0496
  893MPD2    C113138   2.366   1.587   1.307  0.0653  0.2956 -0.6499
  893MPD2    C213139   2.287   1.670   1.389  0.1025 -0.9226 -0.2949
  893MPD2    C313140   2.158   1.639   1.418 -0.1131 -0.3280 -0.7510
  893MPD2    C413141   2.099   1.516   1.375 -0.2190 -1.0293 -0.8471
  893MPD2    C513142   2.182   1.437   1.298  0.2715 -0.3950  0.3854
  893MPD2     H13143   2.334   1.762   1.422  0.0503 -0.9299 -0.2013
  893MPD2    H113144   1.999   1.480   1.397  0.2231 -0.9544  1.3309
  893MPD2    H213145   2.363   1.390   1.215 -1.3377 -1.1809  1.7807
  893MPD2    H313146   2.136   1.350   1.252  0.1007 -0.4897  0.7386
  893MPD2     N13147   2.078   1.730   1.495 -0.2375  0.8881 -0.5491
  893MPD2    H513148   1.983   1.703   1.517 -0.1494  0.9364 -0.1126
  893MPD2    N113149   2.491   1.621   1.263  0.0534 -0.1822  0.9598
  893MPD2    H713150   2.527   1.569   1.184  0.5248  1.5595  0.0425
  894MPD2     C13151   0.861   4.386   0.478  0.1757  0.3265 -0.9232
  894MPD2    C113152   0.906   4.392   0.604 -0.1990 -0.4194  0.2878
  894MPD2    C213153   1.026   4.461   0.634  0.5221 -0.3176  0.1684
  894MPD2    C313154   1.100   4.522   0.532 -0.0889  0.5884 -0.1244
  894MPD2    C413155   1.047   4.522   0.403 -0.2269 -0.0109  0.1543
  894MPD2    C513156   0.933   4.451   0.376  0.3799 -0.5721  0.2672
  894MPD2     H13157   1.063   4.459   0.736 -0.9222 -0.1683  0.6972
  894MPD2    H113158   1.096   4.567   0.317 -2.0421  2.2287  0.3147
  894MPD2    H213159   0.776   4.324   0.450  1.6804 -3.2268  2.4747
  894MPD2    H313160   0.886   4.436   0.279 -0.1469 -1.6104  0.6828
  894MPD2     N13161   1.220   4.588   0.566 -0.5090  0.0744  0.2395
  894MPD2    H513162   1.237   4.585   0.667 -1.8679 -2.6323  0.3630
  894MPD2    N113163   0.848   4.323   0.709 -0.0365 -0.5518 -0.6241
  894MPD2    H713164   0.878   4.343   0.804 -0.1584 -1.6699 -0.3456
  895MPD2     C13165   0.813   2.447  13.681 -0.0670  0.1294  0.4567
  895MPD2    C113166   0.722   2.365  13.623 -0.0303 -0.3218  0.5351
  895MPD2    C213167   0.768   2.243  13.593 -0.5144  0.2810  0.5379
  895MPD2    C313168   0.897   2.208  13.590  0.3440 -0.2056 -0.3013
  895MPD2    C413169   0.989   2.284  13.654  0.3933  0.8736  0.6841
  895MPD2    C513170   0.946   2.413  13.699  0.3013 -0.3500  0.1186
  895MPD2     H13171   0.702   2.169  13.548  0.5417 -0.8807  0.9059
  895MPD2    H113172   1.092   2.252  13.642  0.2188  0.6822 -0.3493
  895MPD2    H213173   0.792   2.550  13.708  1.2773  0.7986 -1.0359
  895MPD2    H313174   1.013   2.492  13.730 -0.1464 -0.4122  1.2339
  895MPD2     N13175   0.917   2.087  13.520 -0.1581  0.2696  0.1273
  895MPD2    H513176   0.845   2.060  13.454 -0.7770  0.3897  0.7535
  895MPD2    N113177   0.592   2.398  13.585  0.5534 -0.6588  0.1420
  895MPD2    H713178   0.541   2.322  13.540 -1.2914  1.7367 -1.8058
  896MPD2     C13179   2.762   0.364   1.719 -0.1023 -0.5126 -0.0620
  896MPD2    C113180   2.813   0.332   1.598  0.4948 -0.2157 -0.1477
  896MPD2    C213181   2.741   0.250   1.508 -0.2686 -0.0965 -0.4187
  896MPD2    C313182   2.611   0.213   1.537  0.1776 -0.7833  0.7099
  896MPD2    C413183   2.566   0.245   1.666  1.3020 -0.3356 -0.4704
  896MPD2    C513184   2.641   0.313   1.755  0.6492  0.4651  0.8367
  896MPD2     H13185   2.773   0.224   1.407 -0.8742 -1.1736 -0.3420
  896MPD2    H113186   2.477   0.202   1.710  0.2088  3.1483  0.7395
  896MPD2    H213187   2.820   0.419   1.792  0.3527 -1.3381  0.1883
  896MPD2    H313188   2.599   0.342   1.850 -1.4194  0.8840 -0.1960
  896MPD2     N13189   2.523   0.143   1.450 -0.7980 -0.2343 -0.0131
  896MPD2    H513190   2.565   0.127   1.359  0.0305  2.7394 -0.1362
  896MPD2    N113191   2.937   0.385   1.556 -0.2706  0.3278 -0.3881
  896MPD2    H713192   2.979   0.451   1.621  2.9431 -1.8952 -0.2100
  897MPD2     C13193   3.784   2.523  10.745 -0.1833 -0.0573  0.5733
  897MPD2    C113194   3.798   2.653  10.720 -0.2309 -0.2071 -0.1080
  897MPD2    C213195   3.753   2.751  10.808 -0.4493 -0.0302  0.3420
  897MPD2    C313196   3.682   2.715  10.921 -0.5097  0.4817 -0.1531
  897MPD2    C413197   3.675   2.579  10.953 -0.1525 -0.0779 -0.3333
  897MPD2    C513198   3.716   2.487  10.860  0.2458 -0.1389 -0.2846
  897MPD2     H13199   3.760   2.856  10.781 -3.2134  0.1498  0.3243
  897MPD2    H113200   3.651   2.544  11.053  1.3240  3.1184  1.1044
  897MPD2    H213201   3.813   2.444  10.678  1.0292  0.8657  0.0218
  897MPD2    H313202   3.707   2.387  10.899 -2.0637  0.0706 -0.2706
  897MPD2     N13203   3.644   2.819  11.010  0.0983  0.5353  0.0845
  897MPD2    H513204   3.664   2.911  10.973 -1.9769  1.0464  0.2163
  897MPD2    N113205   3.880   2.682  10.602  0.4475  0.0255 -0.0729
  897MPD2    H713206   3.894   2.604  10.538 -1.3919  0.2386 -0.7603
  898MPD2     C13207   1.342   2.489  17.725  0.0058 -0.1886 -0.0803
  898MPD2    C113208   1.429   2.592   0.001  0.3774 -0.0112  0.2075
  898MPD2    C213209   1.455   2.664  17.618  0.6128 -0.4941 -0.5874
  898MPD2    C313210   1.397   2.628  17.500 -0.0767  0.1533 -0.3496
  898MPD2    C413211   1.313   2.521  17.490  0.1409  0.1573 -0.7488
  898MPD2    C513212   1.283   2.457  17.606 -0.8231 -0.3401  0.1152
  898MPD2     H13213   1.527   2.745  17.626 -0.2122  0.2121 -0.3215
  898MPD2    H113214   1.269   2.485  17.398  0.9199 -1.9255 -0.3069
  898MPD2    H213215   1.314   2.423   0.079 -1.2212  0.6160  0.1382
  898MPD2    H313216   1.201   2.386  17.601 -0.1879 -0.9037 -2.1419
  898MPD2     N13217   1.430   2.702  17.381  0.2301  0.1664 -0.1420
  898MPD2    H513218   1.508   2.767  17.378  0.9630 -0.9254 -4.8255
  898MPD2    N113219   1.499   2.636   0.116  0.3078 -0.6486  0.5359
  898MPD2    H713220   1.561   2.716   0.120  1.4730 -1.5240 -0.1131
  899MPD2     C13221   2.247   3.548  17.222 -0.0528  0.2502  0.1124
  899MPD2    C113222   2.274   3.639  17.322 -0.3940 -0.8153  0.7283
  899MPD2    C213223   2.219   3.621  17.447 -0.2065  0.9574  0.2162
  899MPD2    C313224   2.135   3.512  17.471  0.3288  0.2617  0.5702
  899MPD2    C413225   2.106   3.424  17.364  0.3145 -0.1520 -0.3659
  899MPD2    C513226   2.160   3.445  17.238  0.2812 -0.4257 -0.0274
  899MPD2     H13227   2.249   3.694  17.522  3.4292 -0.3256  0.0207
  899MPD2    H113228   2.035   3.342  17.375 -0.3206  0.5951  1.1040
  899MPD2    H213229   2.292   3.560  17.124  1.2836 -0.8155  0.5859
  899MPD2    H313230   2.127   3.386  17.154 -1.4517 -0.4261  0.6442
  899MPD2     N13231   2.065   3.501  17.590  0.9009 -0.5502  0.2954
  899MPD2    H513232   2.003   3.421  17.590 -0.3718  0.4547 -0.4837
  899MPD2    N113233   2.336   3.762  17.282 -0.3329 -0.4540  0.5260
  899MPD2    H713234   2.365   3.773  17.186  0.5131  1.6811  1.0219
  900MPD2     C13235   1.652   0.779  12.424  0.4674 -0.3876 -0.2983
  900MPD2    C113236   1.581   0.672  12.384 -0.4243  0.0366 -0.3261
  900MPD2    C213237   1.496   0.685  12.275 -0.2569  0.6165 -0.8571
  900MPD2    C313238   1.476   0.811  12.217  0.4018  0.3208 -0.2039
  900MPD2    C413239   1.543   0.919  12.260  0.4484  0.1071 -0.5594
  900MPD2    C513240   1.632   0.905  12.368 -0.1803 -0.3371  0.1323
  900MPD2     H13241   1.450   0.596  12.232  0.1987  0.2921 -0.6716
  900MPD2    H113242   1.541   1.021  12.224  2.2927  0.4085  0.1808
  900MPD2    H213243   1.720   0.774  12.508  0.0453 -0.0929  0.0607
  900MPD2    H313244   1.682   0.994  12.403 -1.8247  0.1427  1.2559
  900MPD2     N13245   1.388   0.813  12.105 -0.5094 -0.1301 -0.4955
  900MPD2    H513246   1.346   0.724  12.080 -0.3538 -0.2354 -0.3879
  900MPD2    N113247   1.619   0.544  12.440  0.6632  0.0971  0.0116
  900MPD2    H713248   1.685   0.557  12.516  0.5665  3.3956 -0.4531
  901MPD2     C13249   1.316   4.296  12.790 -0.7363  0.3191  0.2374
  901MPD2    C113250   1.446   4.283  12.754 -0.3170  0.4717 -0.4034
  901MPD2    C213251   1.524   4.394  12.715 -0.0566 -0.0308 -0.6158
  901MPD2    C313252   1.469   4.525  12.724  0.5973  0.9543 -0.5803
  901MPD2    C413253   1.336   4.531  12.768 -0.1234  0.6318  0.2435
  901MPD2    C513254   1.264   4.419  12.808 -0.9342  0.2243  0.1475
  901MPD2     H13255   1.622   4.377  12.671  0.3326  0.3162  0.1112
  901MPD2    H113256   1.286   4.626  12.762  1.1142  1.3108  0.6191
  901MPD2    H213257   1.256   4.211  12.817 -1.1047  1.0370  1.6938
  901MPD2    H313258   1.160   4.433  12.835 -0.7724 -0.9562  1.3074
  901MPD2     N13259   1.549   4.635  12.680 -0.8076 -0.8650  0.2110
  901MPD2    H513260   1.647   4.614  12.662 -0.8246 -0.1643 -0.7271
  901MPD2    N113261   1.493   4.151  12.730  0.0094 -0.1884  0.3843
  901MPD2    H713262   1.423   4.079  12.715  0.6909 -1.0238  1.2264
  902MPD2     C13263   0.212   3.385  13.014  1.1529  0.3023  0.0811
  902MPD2    C113264   0.302   3.486  13.000 -0.1975  0.2085 -0.1251
  902MPD2    C213265   0.439   3.454  12.986 -0.4489  0.0491 -0.0702
  902MPD2    C313266   0.490   3.322  12.984  0.0047  0.4283  0.0380
  902MPD2    C413267   0.395   3.224  12.993 -0.6988 -0.4439 -0.6603
  902MPD2    C513268   0.260   3.251  13.006  0.3493  0.0558 -0.1095
  902MPD2     H13269   0.508   3.537  12.985  0.7345 -0.9258  1.2042
  902MPD2    H113270   0.421   3.119  12.990 -0.1771 -0.3243 -0.2979
  902MPD2    H213271   0.106   3.409  13.019  0.6555 -1.0900 -3.2809
  902MPD2    H313272   0.196   3.165  13.019 -0.7869  0.9572  0.2323
  902MPD2     N13273   0.626   3.282  12.970 -0.0954  0.4895 -0.1476
  902MPD2    H513274   0.646   3.188  12.937 -0.4128 -0.1858  1.6159
  902MPD2    N113275   0.252   3.615  13.009  0.5197  0.3289 -0.0785
  902MPD2    H713276   0.152   3.631  13.004  0.4063 -1.1824 -2.7873
  903MPD2     C13277   0.790   3.720  12.460 -0.5356 -0.2582  0.1479
  903MPD2    C113278   0.789   3.585  12.464  0.8790  0.5365 -0.0636
  903MPD2    C213279   0.692   3.516  12.393  0.2894 -0.3777  0.1278
  903MPD2    C313280   0.604   3.587  12.313  0.2314  0.2891  0.4559
  903MPD2    C413281   0.610   3.722  12.305 -0.5363  0.0118  0.1990
  903MPD2    C513282   0.698   3.790  12.379  0.6411  0.2668  0.0296
  903MPD2     H13283   0.694   3.407  12.400  1.1532 -0.4306 -0.9658
  903MPD2    H113284   0.534   3.778  12.252 -1.5616 -0.9147  0.6710
  903MPD2    H213285   0.880   3.760  12.505 -0.3147 -0.1156 -0.4224
  903MPD2    H313286   0.708   3.898  12.376  1.7642  0.2378  2.1159
  903MPD2     N13287   0.503   3.510  12.239 -0.0897  0.4891 -0.1635
  903MPD2    H513288   0.504   3.409  12.251  0.2730  0.2396 -2.3052
  903MPD2    N113289   0.874   3.527  12.558 -0.2065  1.5660  0.4901
  903MPD2    H713290   0.926   3.580  12.627  2.2127 -1.9689  1.3554
  904MPD2     C13291   0.676   2.059  14.358  0.0389 -0.0685 -0.9672
  904MPD2    C113292   0.683   2.122  14.233  0.1761  0.1122  0.2726
  904MPD2    C213293   0.802   2.168  14.193 -0.5871 -0.1005  0.2508
  904MPD2    C313294   0.904   2.184  14.290 -0.9283  0.5438 -0.7955
  904MPD2    C413295   0.897   2.146  14.422  0.5079 -0.0482 -0.7543
  904MPD2    C513296   0.784   2.082  14.446 -0.8408  0.2642 -0.0932
  904MPD2     H13297   0.815   2.209  14.094 -0.2834  0.5454  0.5574
  904MPD2    H113298   0.965   2.172  14.503 -0.8013 -1.3312  0.7676
  904MPD2    H213299   0.581   2.021  14.393  0.3633 -0.5212 -0.5896
  904MPD2    H313300   0.775   2.050  14.549 -0.1297 -2.4440 -0.8675
  904MPD2     N13301   1.006   2.276  14.254  0.8055  0.1594  0.0823
  904MPD2    H513302   1.006   2.323  14.164  1.9826  0.7177  0.3793
  904MPD2    N113303   0.574   2.110  14.137  0.3921 -0.3225 -0.5812
  904MPD2    H713304   0.590   2.148  14.044  1.0176 -0.6694 -0.6190
  905MPD2     C13305   0.217   1.892  13.431  0.2167 -0.0671  0.8651
  905MPD2    C113306   0.322   1.955  13.489  0.5882  0.4011 -0.0242
  905MPD2    C213307   0.450   1.949  13.430  0.4176  0.4228  0.2215
  905MPD2    C313308   0.468   1.869  13.313  0.1018 -0.1830 -0.2180
  905MPD2    C413309   0.361   1.807  13.265  0.1382 -0.7287 -0.1602
  905MPD2    C513310   0.235   1.818  13.317 -0.6097  0.2030 -0.2702
  905MPD2     H13311   0.532   2.011  13.466  0.7259  0.3249 -0.3042
  905MPD2    H113312   0.377   1.743  13.179  1.1053  2.1970 -2.1787
  905MPD2    H213313   0.112   1.903  13.459  0.3816  1.5594  0.8319
  905MPD2    H313314   0.157   1.752  13.281  0.1387  0.7238 -2.8291
  905MPD2     N13315   0.591   1.854  13.246  0.4475  0.1847  0.0392
  905MPD2    H513316   0.597   1.783  13.174  3.1144  1.9772 -1.4930
  905MPD2    N113317   0.302   2.009  13.619 -0.8645  0.4293  0.3609
  905MPD2    H713318   0.211   1.995  13.663 -1.5552  1.5636 -0.7260
  906MPD2     C13319   2.417   2.673  11.380 -0.3648  0.3432  0.5266
  906MPD2    C113320   2.326   2.678  11.275 -0.5742  0.0177  0.2271
  906MPD2    C213321   2.216   2.601  11.280  0.3571 -0.1837  0.3690
  906MPD2    C313322   2.200   2.520  11.396  0.4080  0.6776  0.0668
  906MPD2    C413323   2.283   2.526  11.508 -0.2874  0.0229  0.4017
  906MPD2    C513324   2.399   2.605  11.496 -0.2204 -0.0531  0.2208
  906MPD2     H13325   2.153   2.593  11.192  1.5399  1.1785 -0.6176
  906MPD2    H113326   2.275   2.461  11.594 -1.3833  0.6620  0.7765
  906MPD2    H213327   2.504   2.737  11.391 -0.8652  1.4343 -1.9258
  906MPD2    H313328   2.476   2.604  11.571 -0.4785 -1.0163  0.4795
  906MPD2     N13329   2.090   2.424  11.395 -0.1901  0.6006 -0.3054
  906MPD2    H513330   2.051   2.408  11.303  0.3104  0.3093 -0.4662
  906MPD2    N113331   2.359   2.750  11.159 -0.5345 -0.4134 -0.1732
  906MPD2    H713332   2.287   2.750  11.088  0.6034  0.0562 -1.3200
  907MPD2     C13333   1.573   1.290  15.764  0.5821 -0.5503  0.2610
  907MPD2    C113334   1.638   1.192  15.689  0.0580 -0.7602 -0.3838
  907MPD2    C213335   1.724   1.112  15.764 -0.1971  0.4178 -0.0535
  907MPD2    C313336   1.733   1.125  15.900  0.5352  0.7284 -0.2791
  907MPD2    C413337   1.670   1.230  15.973  0.0794  0.5480  0.0993
  907MPD2    C513338   1.596   1.311  15.895 -0.2014 -0.3610  1.0504
  907MPD2     H13339   1.771   1.027  15.716 -1.2518  1.2331 -2.5203
  907MPD2    H113340   1.677   1.247  16.079  0.0973 -1.1124  0.3527
  907MPD2    H213341   1.508   1.364  15.719 -0.0723 -0.6586  1.0306
  907MPD2    H313342   1.537   1.394  15.930 -0.5278 -0.0490 -0.2150
  907MPD2     N13343   1.809   1.027  15.971  1.0993  0.0472 -0.0653
  907MPD2    H513344   1.880   0.981  15.915  0.2553  1.4236 -2.2575
  907MPD2    N113345   1.607   1.165  15.554 -0.5298 -0.0569  0.3446
  907MPD2    H713346   1.648   1.080  15.517  0.1991  0.9821 -1.2262
  908MPD2     C13347   4.071   2.130  10.042 -0.1011 -0.4081  0.3745
  908MPD2    C113348   3.979   2.225  10.010  0.2690 -0.0995  0.4160
  908MPD2    C213349   3.995   2.352  10.064  0.2504  0.6173  0.0728
  908MPD2    C313350   4.095   2.376  10.163 -0.1223 -0.2001 -0.1125
  908MPD2    C413351   4.176   2.271  10.198 -0.2366  0.1222 -0.6137
  908MPD2    C513352   4.165   2.150  10.132  0.7777 -0.1467 -0.2528
  908MPD2     H13353   3.929   2.436  10.049 -0.2031  0.2187 -0.1322
  908MPD2    H113354   4.241   2.280  10.284 -0.8161 -0.6852 -0.0929
  908MPD2    H213355   4.067   2.033   9.992 -1.2958  0.1520 -0.6383
  908MPD2    H313356   4.233   2.069  10.153  2.3524  1.2309 -0.0099
  908MPD2     N13357   4.093   2.498  10.231  0.0963 -0.3922 -0.4289
  908MPD2    H513358   4.014   2.561  10.223  0.3036  0.1923  2.2888
  908MPD2    N113359   3.888   2.180   9.910  0.6504  0.1858 -0.1390
  908MPD2    H713360   3.887   2.083   9.881  2.4580  0.5765 -1.5012
  909MPD2     C13361   4.149   0.557  11.561 -0.6993 -0.3299  0.2523
  909MPD2    C113362   4.128   0.695  11.564 -0.9654  0.7345  0.0347
  909MPD2    C213363   4.017   0.747  11.631  0.3086 -1.1708 -0.0318
  909MPD2    C313364   3.947   0.672  11.718  0.5091 -1.0859  0.3894
  909MPD2    C413365   3.965   0.535  11.715 -0.7125  0.0172 -0.1876
  909MPD2    C513366   4.069   0.477  11.644 -0.7973  0.2525 -0.4160
  909MPD2     H13367   4.001   0.854  11.629 -1.4455 -1.4354 -0.3914
  909MPD2    H113368   3.902   0.470  11.775  0.1062 -0.9405 -0.3721
  909MPD2    H213369   4.223   0.517  11.494 -2.2203 -1.6088 -0.6639
  909MPD2    H313370   4.079   0.369  11.644  2.3484  0.5309  1.1041
  909MPD2     N13371   3.855   0.747  11.797 -0.2837  0.0668  0.1229
  909MPD2    H513372   3.851   0.843  11.764  0.2839  0.2372  0.5484
  909MPD2    N113373   4.200   0.790  11.490 -0.0665 -0.3905 -0.1818
  909MPD2    H713374   4.172   0.886  11.507 -1.5838 -0.9725  0.5841
  910MPD2     C13375   1.119   1.899  16.080 -0.4498 -0.8126  0.0113
  910MPD2    C113376   0.994   1.841  16.091  0.2118  0.4771 -0.0580
  910MPD2    C213377   0.887   1.897  16.029 -0.4079  0.1844 -0.3862
  910MPD2    C313378   0.905   2.003  15.943  0.3009  0.2798 -0.7094
  910MPD2    C413379   1.030   2.056  15.931  0.6184  0.3602  0.3481
  910MPD2    C513380   1.135   2.014  16.008 -0.6991  0.7786 -0.0300
  910MPD2     H13381   0.787   1.855  16.028  0.6258 -2.2727  0.2690
  910MPD2    H113382   1.055   2.135  15.862  0.2265  1.8733  1.9545
  910MPD2    H213383   1.203   1.868  16.141 -1.5138  0.2833  2.0507
  910MPD2    H313384   1.234   2.057  16.000  0.6994 -2.4596 -0.0504
  910MPD2     N13385   0.810   2.037  15.842  0.4623 -0.2373  0.4010
  910MPD2    H513386   0.835   2.101  15.767  0.8977  0.9358  1.5184
  910MPD2    N113387   0.977   1.719  16.169 -0.9942 -0.1540  0.0554
  910MPD2    H713388   0.896   1.659  16.158 -0.1663 -1.0372 -1.1340
  911MPD2     C13389   3.212   2.346  15.962  0.1515  0.2703 -0.3117
  911MPD2    C113390   3.270   2.410  16.071 -0.0532  0.3398 -0.0816
  911MPD2    C213391   3.200   2.519  16.123  0.4578 -0.2524 -0.0304
  911MPD2    C313392   3.069   2.550  16.085  0.0501  0.2516 -0.4971
  911MPD2    C413393   3.015   2.479  15.976  0.7923  0.1500 -0.0837
  911MPD2    C513394   3.087   2.380  15.915 -0.8266  0.2894 -0.4065
  911MPD2     H13395   3.243   2.571  16.207 -0.2277 -0.7114  0.6034
  911MPD2    H113396   2.917   2.507  15.940  0.6347 -0.4754 -0.1311
  911MPD2    H213397   3.256   2.271  15.898 -0.5945  0.3237 -0.8887
  911MPD2    H313398   3.058   2.325  15.826  1.7376  2.5682 -2.6380
  911MPD2     N13399   2.987   2.650  16.140  0.0012 -0.7090 -0.3518
  911MPD2    H513400   2.888   2.640  16.120  0.1128 -1.9946 -0.2388
  911MPD2    N113401   3.401   2.368  16.107 -0.1434 -0.2599  0.2635
  911MPD2    H713402   3.433   2.289  16.052  0.0959 -0.9247  1.3606
  912MPD2     C13403   2.688   2.596  15.693  0.1632 -0.1233 -0.4591
  912MPD2    C113404   2.666   2.597  15.832  0.1241  0.0335 -0.1113
  912MPD2    C213405   2.644   2.475  15.890 -0.7653  0.0087 -0.4750
  912MPD2    C313406   2.665   2.357  15.826 -0.5621  0.2424 -0.0456
  912MPD2    C413407   2.701   2.355  15.693 -0.4902  0.4590 -0.4012
  912MPD2    C513408   2.706   2.474  15.628 -0.4194  0.4688 -0.8485
  912MPD2     H13409   2.632   2.471  15.997  1.0964 -0.3237 -0.2864
  912MPD2    H113410   2.703   2.258  15.645 -2.7353  0.7217 -0.9944
  912MPD2    H213411   2.681   2.689  15.638  0.0193  0.3099  0.2958
  912MPD2    H313412   2.719   2.466  15.520  1.7361  0.0998 -0.5593
  912MPD2     N13413   2.685   2.247  15.911 -0.2040  0.0097  0.2305
  912MPD2    H513414   2.660   2.271  16.006  1.6141 -0.1722  0.7374
  912MPD2    N113415   2.670   2.720  15.904 -0.7415  0.6440  0.1152
  912MPD2    H713416   2.689   2.806  15.854 -2.0696 -0.4486 -2.2906
  913MPD2     C13417   3.642   0.415  10.706  0.5465  0.8827 -0.0533
  913MPD2    C113418   3.618   0.288  10.661 -0.4980  0.0350  0.0004
  913MPD2    C213419   3.613   0.264  10.523 -0.0834  0.6840 -0.1870
  913MPD2    C313420   3.645   0.362  10.432  0.4311  0.7914  0.5444
  913MPD2    C413421   3.673   0.489  10.485 -0.0939 -0.4217 -0.3339
  913MPD2    C513422   3.665   0.514  10.619 -0.2847  0.0542 -0.9681
  913MPD2     H13423   3.615   0.161  10.491  0.6356  0.3079  1.0947
  913MPD2    H113424   3.693   0.568  10.414  1.4600  0.2402  0.8399
  913MPD2    H213425   3.642   0.444  10.811 -0.2949  2.7509 -0.5825
  913MPD2    H313426   3.682   0.616  10.652  0.9975 -0.1494 -0.9966
  913MPD2     N13427   3.664   0.339  10.292  0.3104 -0.0713  0.2688
  913MPD2    H513428   3.700   0.415  10.236 -1.0188 -0.5967 -1.3026
  913MPD2    N113429   3.595   0.189  10.762 -0.3744 -0.5537  0.1658
  913MPD2    H713430   3.619   0.211  10.858 -0.5565 -1.1995  0.3578
  914MPD2     C13431   1.423   4.095  11.933 -0.0754  0.7767  0.2804
  914MPD2    C113432   1.512   4.155  12.017  0.8099  0.7710 -0.4072
  914MPD2    C213433   1.552   4.100  12.131 -0.4557 -0.2440 -0.5191
  914MPD2    C313434   1.516   3.978  12.171  0.0519 -0.4678 -0.1562
  914MPD2    C413435   1.428   3.917  12.085  0.1220  0.4103 -0.0463
  914MPD2    C513436   1.375   3.973  11.970  0.4616 -0.2114  0.5978
  914MPD2     H13437   1.609   4.155  12.205  0.6416 -3.1592  0.8071
  914MPD2    H113438   1.385   3.822  12.113 -0.3599  0.2259 -1.4549
  914MPD2    H213439   1.376   4.150  11.852 -1.2090  2.4876  2.0833
  914MPD2    H313440   1.294   3.926  11.917  0.1329 -0.6525  1.4995
  914MPD2     N13441   1.551   3.942  12.303 -0.5279  0.4498  0.2806
  914MPD2    H513442   1.604   4.010  12.356 -0.5369  0.4674  0.2671
  914MPD2    N113443   1.560   4.281  11.972 -0.5612  0.1063  0.3560
  914MPD2    H713444   1.510   4.317  11.891  0.8731  1.6253  0.1463
  915MPD2     C13445   4.621   3.755  15.639  0.4034  0.6037  0.6070
  915MPD2    C113446   4.493   3.795  15.612 -0.0398  0.3689 -0.4035
  915MPD2    C213447   4.418   3.860  15.706 -0.3374 -0.8434  0.1504
  915MPD2    C313448   4.472   3.889  15.830  0.5507 -0.6152 -0.3535
  915MPD2    C413449   4.598   3.847  15.857  0.1592 -0.6470  0.2344
  915MPD2    C513450   4.675   3.783  15.760 -0.0240  0.1499  0.1684
  915MPD2     H13451   4.316   3.889  15.686 -0.4190 -1.2398  0.0068
  915MPD2    H113452   4.650   3.870  15.949 -2.5167  0.5180  1.4521
  915MPD2    H213453   4.695   3.718  15.570 -0.1252  3.1323 -1.2985
  915MPD2    H313454   0.046   3.761  15.783 -0.6369 -1.6788  1.1212
  915MPD2     N13455   4.401   3.970  15.920  0.2939  0.3235  0.2833
  915MPD2    H513456   4.322   4.019  15.878 -1.1269 -1.6253  0.6634
  915MPD2    N113457   4.444   3.764  15.484  0.1754  0.9542  0.1039
  915MPD2    H713458   4.507   3.709  15.427  1.5576  0.8522  1.7217
  916MPD2     C13459   2.308   2.376  15.500  0.7181  0.4015 -0.8446
  916MPD2    C113460   2.358   2.305  15.607  0.0686 -0.2679 -0.0249
  916MPD2    C213461   2.444   2.196  15.571  0.2547  0.5312  0.2753
  916MPD2    C313462   2.485   2.184  15.443  0.6328 -0.0617  0.7248
  916MPD2    C413463   2.419   2.244  15.340  0.0891  0.4079  0.2446
  916MPD2    C513464   2.330   2.345  15.368  0.1819  0.1127 -0.1244
  916MPD2     H13465   2.488   2.138  15.651 -3.1855 -1.2866  0.8618
  916MPD2    H113466   2.458   2.230  15.240  1.7331 -3.5839  1.4423
  916MPD2    H213467   2.234   2.453  15.519  0.7240  0.5377 -1.3949
  916MPD2    H313468   2.273   2.396  15.292 -2.1018 -1.7580  0.3476
  916MPD2     N13469   2.594   2.098  15.424 -0.0499 -0.3369  0.3040
  916MPD2    H513470   2.625   2.049  15.507 -2.6338 -1.1694  0.7850
  916MPD2    N113471   2.314   2.332  15.738  0.1854 -0.4455  0.7441
  916MPD2    H713472   2.266   2.420  15.751  0.4428 -0.2912  0.6561
  917MPD2     C13473   2.809   0.194  11.040  0.3062 -0.3714 -0.0618
  917MPD2    C113474   2.834   0.269  11.150 -0.3225 -0.2483  0.9302
  917MPD2    C213475   2.919   0.377  11.131  0.0126 -0.3046 -0.3795
  917MPD2    C313476   2.948   0.424  11.007 -0.1565 -0.1731 -0.3626
  917MPD2    C413477   2.917   0.345  10.897 -0.1207  0.5755 -0.5665
  917MPD2    C513478   2.857   0.227  10.913  0.0081 -0.3695 -0.5287
  917MPD2     H13479   2.947   0.431  11.220  1.3540 -1.3529 -0.1766
  917MPD2    H113480   2.932   0.375  10.794 -2.8522  1.9800 -0.5817
  917MPD2    H213481   2.750   0.104  11.050  1.2881 -1.1126 -0.9972
  917MPD2    H313482   2.845   0.171  10.821 -1.1044  0.7388 -1.0497
  917MPD2     N13483   3.024   0.542  10.985 -0.1203 -0.2299  0.0984
  917MPD2    H513484   3.053   0.551  10.888 -1.5918 -0.4567 -0.3535
  917MPD2    N113485   2.793   0.219  11.276 -0.1171 -0.0987  0.3612
  917MPD2    H713486   2.735   0.136  11.271 -0.8431  0.5236 -1.4383
  918MPD2     C13487   2.833   0.506  12.277 -0.1072  0.2834 -1.1078
  918MPD2    C113488   2.940   0.450  12.204 -0.6183  0.0883 -0.3242
  918MPD2    C213489   2.909   0.407  12.077  1.3231 -0.3906 -0.0463
  918MPD2    C313490   2.778   0.397  12.031 -0.1817  0.3158 -0.0775
  918MPD2    C413491   2.678   0.442  12.107 -0.4091 -0.2653 -0.5629
  918MPD2    C513492   2.707   0.499  12.233  0.3789  0.4164  0.4389
  918MPD2     H13493   2.980   0.368  12.005  1.0398 -0.8933 -0.0520
  918MPD2    H113494   2.573   0.435  12.080 -0.2220 -1.0536 -1.0842
  918MPD2    H213495   2.850   0.550  12.375 -1.9892  0.4663 -0.8442
  918MPD2    H313496   2.630   0.554  12.287  1.5632 -1.0271  3.5720
  918MPD2     N13497   2.766   0.342  11.904  0.1892 -0.3670 -0.4797
  918MPD2    H513498   2.845   0.332  11.841  1.3579  0.2050  0.9058
  918MPD2    N113499   3.071   0.448  12.234 -0.4966  0.2443 -0.0492
  918MPD2    H713500   3.132   0.411  12.162  0.2862  0.5857  0.4401
  919MPD2     C13501   3.234   4.080  11.645  0.3215 -0.5727  0.0560
  919MPD2    C113502   3.253   3.949  11.601  0.1484 -0.4003  0.5718
  919MPD2    C213503   3.250   3.929  11.464  0.2635 -0.0432  0.7833
  919MPD2    C313504   3.219   4.036  11.380 -0.4159 -0.3497 -0.2239
  919MPD2    C413505   3.200   4.163  11.424 -0.7359 -0.0515 -0.0366
  919MPD2    C513506   3.206   4.184  11.559 -0.2986 -0.1134 -0.0022
  919MPD2     H13507   3.286   3.833  11.427 -0.6518 -0.3474  0.6868
  919MPD2    H113508   3.187   4.240  11.348 -2.2552 -0.0444  0.2387
  919MPD2    H213509   3.241   4.102  11.751  1.6927  0.0804 -0.1780
  919MPD2    H313510   3.165   4.275  11.601  0.2223 -0.8523  2.1069
  919MPD2     N13511   3.202   4.019  11.241 -0.0072  0.3717 -0.0067
  919MPD2    H513512   3.195   4.109  11.194  1.2043 -0.5641 -1.9758
  919MPD2    N113513   3.274   3.847  11.693 -0.2515  0.3109 -0.1886
  919MPD2    H713514   3.319   3.768  11.648 -0.7103 -0.7688  1.2676
  920MPD2     C13515   3.288   4.523  10.410  0.5470  0.3345  0.4188
  920MPD2    C113516   3.166   4.461  10.379 -0.0583 -0.4461  0.5359
  920MPD2    C213517   3.114   4.365  10.465 -0.1987  0.0707 -0.5329
  920MPD2    C313518   3.190   4.327  10.574  0.0064  0.5115  0.4005
  920MPD2    C413519   3.312   4.390  10.607  0.0318  0.5146  0.5882
  920MPD2    C513520   3.359   4.491  10.524 -0.3993  0.5381 -0.4404
  920MPD2     H13521   3.021   4.316  10.438 -0.9579  1.9211 -1.2722
  920MPD2    H113522   3.374   4.371  10.694  0.5250  0.6984  0.2713
  920MPD2    H213523   3.332   4.598  10.346 -0.0240  1.9075  1.8880
  920MPD2    H313524   3.457   4.535  10.539 -0.7183  1.3197 -0.6848
  920MPD2     N13525   3.135   4.228  10.655 -0.3160 -0.2378 -0.0152
  920MPD2    H513526   3.061   4.170  10.615 -0.2842  0.0068 -0.4275
  920MPD2    N113527   3.068   4.502  10.277 -0.4985  0.4456 -0.3450
  920MPD2    H713528   2.981   4.451  10.272 -0.2906  0.1289 -0.7589
  921MPD2     C13529   4.093   2.780  16.412  0.4555  0.2509 -0.4669
  921MPD2    C113530   4.142   2.657  16.418 -0.0815  0.0069 -0.0066
  921MPD2    C213531   4.061   2.546  16.432 -0.7180  0.3643  0.4892
  921MPD2    C313532   3.921   2.561  16.435  0.0382 -0.5176  0.2653
  921MPD2    C413533   3.866   2.691  16.434 -0.3017  0.2707 -0.1179
  921MPD2    C513534   3.957   2.797  16.423 -0.0285  0.3354 -0.0529
  921MPD2     H13535   4.112   2.451  16.439  1.1768  1.3547  0.1418
  921MPD2    H113536   3.763   2.723  16.443 -0.3270 -0.5815  2.5701
  921MPD2    H213537   4.161   2.864  16.396  2.3541 -0.9233  1.3659
  921MPD2    H313538   3.926   2.901  16.420 -0.9841  0.0460 -0.1996
  921MPD2     N13539   3.823   2.455  16.441 -0.0202 -0.4063 -0.2629
  921MPD2    H513540   3.727   2.487  16.436 -0.7956 -2.6281  0.4217
  921MPD2    N113541   4.276   2.642  16.388  0.4847  0.3900 -0.0784
  921MPD2    H713542   4.312   2.728  16.350  1.1980  0.9027  1.7857
  922MPD2     C13543   0.723   4.564  16.883 -0.2794 -0.4651  0.3494
  922MPD2    C113544   0.680   4.666  16.797  0.2703 -0.0352  0.6368
  922MPD2    C213545   0.559   4.722  16.822  0.0954  0.8533 -0.4079
  922MPD2    C313546   0.481   4.699  16.940  0.1987 -0.0434 -0.2293
  922MPD2    C413547   0.522   4.593  17.021 -0.5775 -0.3654 -0.0061
  922MPD2    C513548   0.642   4.534  16.992  0.1165  0.6732  0.3060
  922MPD2     H13549   0.518   0.067  16.758 -1.4118 -0.2847 -0.8311
  922MPD2    H113550   0.462   4.564  17.105 -0.1273  0.9533  0.7727
  922MPD2    H213551   0.811   4.502  16.869 -0.8191 -1.1853  0.1369
  922MPD2    H313552   0.683   4.455  17.054  0.5618  1.6387  1.2459
  922MPD2     N13553   0.370   0.045  16.961  0.3808 -0.3463 -0.3234
  922MPD2    H513554   0.331   0.091  16.879  0.5991  1.7919  0.7732
  922MPD2    N113555   0.751   4.715  16.690  0.1175  0.0719  0.1035
  922MPD2    H713556   0.697   0.051  16.637 -0.2206  0.2994  0.7416
  923MPD2     C13557   2.068   3.340   9.511 -0.4392 -0.1563 -0.2215
  923MPD2    C113558   2.022   3.457   9.440 -0.1018  0.8368  0.1961
  923MPD2    C213559   2.108   3.573   9.438 -0.2970  0.0382 -0.3060
  923MPD2    C313560   2.234   3.570   9.493 -0.2604 -0.3115 -0.5046
  923MPD2    C413561   2.272   3.467   9.577  0.6820 -0.0681 -0.1377
  923MPD2    C513562   2.191   3.353   9.581 -0.1211  0.1565 -0.3252
  923MPD2     H13563   2.078   3.664   9.388 -0.4279  0.3487  0.3424
  923MPD2    H113564   2.359   3.483   9.640  0.2799  2.1343 -0.1341
  923MPD2    H213565   2.004   3.255   9.531  0.7801 -1.3501 -1.4136
  923MPD2    H313566   2.228   3.275   9.648  0.8721  3.4378  2.9743
  923MPD2     N13567   2.320   3.686   9.504 -0.1454 -0.1016 -0.0646
  923MPD2    H513568   2.393   3.694   9.573 -0.6381 -2.7338  0.7734
  923MPD2    N113569   1.882   3.464   9.401  0.0710 -0.2713  0.3483
  923MPD2    H713570   1.834   3.375   9.413  0.7306 -0.5864  0.6744
  924MPD2     C13571   2.147   0.656  15.531  0.2142 -0.2401 -0.6583
  924MPD2    C113572   2.083   0.566  15.612 -0.0676  0.2091  0.0498
  924MPD2    C213573   2.108   0.571  15.746  0.0356 -0.1078 -0.5252
  924MPD2    C313574   2.191   0.669  15.802 -0.1705  0.3007  0.7373
  924MPD2    C413575   2.264   0.749  15.722  0.1829  0.4469  0.5910
  924MPD2    C513576   2.238   0.750  15.587  0.0396  0.2829 -0.6222
  924MPD2     H13577   2.053   0.500  15.807  2.9022  0.1374  2.3644
  924MPD2    H113578   2.335   0.822  15.759  2.1940 -0.3866 -1.6416
  924MPD2    H213579   2.134   0.657  15.423  0.6986  0.2369 -0.7119
  924MPD2    H313580   2.297   0.811  15.520  0.6868  0.8232  0.4410
  924MPD2     N13581   2.189   0.693  15.940 -0.2428 -0.2050  0.8423
  924MPD2    H513582   2.215   0.787  15.967 -2.2583  1.0255 -1.4058
  924MPD2    N113583   1.994   0.467  15.561  0.1383  0.6508  0.0902
  924MPD2    H713584   1.994   0.459  15.460  1.7430  1.1953  0.0532
  925MPD2     C13585   0.342   3.456  14.957 -0.9726  1.0431 -0.8698
  925MPD2    C113586   0.254   3.401  14.868 -0.0570  0.0980  0.0162
  925MPD2    C213587   0.138   3.342  14.913  0.6093  0.0634 -0.3684
  925MPD2    C313588   0.126   3.318  15.047 -0.3708 -0.0312  0.5130
  925MPD2    C413589   0.229   3.347  15.135 -0.3647  1.0591  0.2864
  925MPD2    C513590   0.327   3.429  15.095  0.3152 -0.1683  0.0898
  925MPD2     H13591   0.067   3.302  14.842 -1.8931  0.3831  1.9544
  925MPD2    H113592   0.233   3.312  15.238  0.3531 -0.5700 -0.2941
  925MPD2    H213593   0.425   3.519  14.926 -0.7806  1.3567  0.2864
  925MPD2    H313594   0.406   3.443  15.168  0.8075 -0.6466 -0.3518
  925MPD2     N13595   0.023   3.246  15.099  0.2881 -0.6875 -0.5198
  925MPD2    H513596   0.019   3.217  15.196  0.3539 -0.4973 -0.4591
  925MPD2    N113597   0.262   3.416  14.727  0.3954 -0.3693 -0.6210
  925MPD2    H713598   0.188   3.369  14.675 -0.6520  0.3156  0.2455
  926MPD2     C13599   4.295   1.724  13.428  0.7521 -0.0522  0.4338
  926MPD2    C113600   4.174   1.771  13.382 -0.1641 -0.4110  0.0254
  926MPD2    C213601   4.178   1.871  13.284 -0.1420  0.3806 -0.4530
  926MPD2    C313602   4.293   1.932  13.245  0.1006 -0.7068  0.0088
  926MPD2    C413603   4.409   1.900  13.302 -0.2626  0.1719  0.0938
  926MPD2    C513604   4.414   1.793  13.391 -0.2664  0.3738  0.1057
  926MPD2     H13605   4.085   1.903  13.237 -0.1667  0.2348 -0.5040
  926MPD2    H113606   4.502   1.956  13.298 -1.1193  1.6136  0.4069
  926MPD2    H213607   4.301   1.642  13.498 -0.7944 -0.3985  0.1737
  926MPD2    H313608   4.509   1.766  13.434  0.1556  2.5564  0.5458
  926MPD2     N13609   4.291   2.043  13.156  0.0506  0.4755 -0.6556
  926MPD2    H513610   4.375   2.101  13.159 -0.1295  0.7861 -1.3985
  926MPD2    N113611   4.050   1.735  13.428  0.4488 -0.1215 -0.0674
  926MPD2    H713612   3.976   1.795  13.393  0.4726 -0.2785 -0.3838
  927MPD2     C13613   3.937   3.908   0.353  0.6022  0.9140 -0.1465
  927MPD2    C113614   3.946   3.788   0.288  0.0466 -0.2049  0.2793
  927MPD2    C213615   4.033   3.772   0.189 -0.7185  0.7731  0.3245
  927MPD2    C313616   4.101   3.874   0.139 -0.1620 -0.0379 -0.1842
  927MPD2    C413617   4.093   3.999   0.198  0.0630  1.0996 -0.7430
  927MPD2    C513618   4.011   4.011   0.312  0.1975  0.0072 -0.3843
  927MPD2     H13619   4.032   3.676   0.138 -2.1632  0.8565  0.2072
  927MPD2    H113620   4.147   4.090   0.173  1.0341  0.5936 -0.4840
  927MPD2    H213621   3.874   3.914   0.440  0.8560  0.5065  0.0706
  927MPD2    H313622   4.019   4.105   0.366  1.1247  1.0000 -2.2083
  927MPD2     N13623   4.173   3.854   0.015  0.4560 -0.2818 -0.4821
  927MPD2    H513624   4.189   3.757  17.718  2.1873 -0.6087  1.9513
  927MPD2    N113625   3.845   3.692   0.323  0.5462 -0.0498 -0.1806
  927MPD2    H713626   3.771   3.730   0.382  1.6753  0.6933  0.7569
  928MPD2     C13627   1.130   2.497   0.710  0.9145 -0.6682  0.4955
  928MPD2    C113628   1.245   2.511   0.794  0.6219 -0.0995 -0.0486
  928MPD2    C213629   1.367   2.457   0.755  0.4235 -0.4183 -0.1275
  928MPD2    C313630   1.382   2.392   0.637  0.3184  0.1682  0.5753
  928MPD2    C413631   1.275   2.384   0.556 -0.2285  0.4275 -0.3523
  928MPD2    C513632   1.154   2.434   0.592 -0.3527 -0.7999  0.2308
  928MPD2     H13633   1.445   2.472   0.829 -0.6464 -0.5129  1.0336
  928MPD2    H113634   1.295   2.332   0.463  0.1635 -1.9830  1.0760
  928MPD2    H213635   1.037   2.546   0.737 -0.7022 -2.5618 -1.6169
  928MPD2    H313636   1.076   2.422   0.518 -0.0503 -1.6062  0.0455
  928MPD2     N13637   1.504   2.354   0.579  0.5420 -0.1197  0.3136
  928MPD2    H513638   1.496   2.313   0.486  0.4529  0.6402 -0.0150
  928MPD2    N113639   1.220   2.576   0.920  0.4175 -0.4599  0.5272
  928MPD2    H713640   1.130   2.620   0.937  0.2931  0.1055 -1.6471
  929MPD2     C13641   1.758   3.422   9.741  0.0930  0.1550  0.0368
  929MPD2    C113642   1.623   3.387   9.739  0.3814  0.3581  0.4223
  929MPD2    C213643   1.537   3.480   9.687 -0.5079  0.3095  0.0893
  929MPD2    C313644   1.578   3.614   9.667  0.4003  0.6097  0.0842
  929MPD2    C413645   1.710   3.645   9.690 -0.4895  0.4928 -0.2024
  929MPD2    C513646   1.802   3.553   9.725  0.0954  0.0627  0.1465
  929MPD2     H13647   1.430   3.465   9.684 -0.3842 -0.4064 -0.7777
  929MPD2    H113648   1.749   3.743   9.668  1.3278  0.0093  0.8855
  929MPD2    H213649   1.832   3.356   9.787  0.1559  0.7024  0.7153
  929MPD2    H313650   1.908   3.577   9.721 -0.3499  1.9204 -0.5250
  929MPD2     N13651   1.494   3.715   9.631  0.1061  0.0838  0.2708
  929MPD2    H513652   1.537   3.806   9.646  1.0157 -0.1040 -1.2802
  929MPD2    N113653   1.588   3.251   9.762  0.2635  0.1479 -0.1518
  929MPD2    H713654   1.663   3.186   9.784 -0.6379 -0.9912 -0.4408
  930MPD2     C13655   3.449   0.178  14.237 -0.2697  0.8348 -0.3838
  930MPD2    C113656   3.518   0.063  14.235  0.4510 -0.2082 -0.4702
  930MPD2    C213657   3.458   4.686  14.304  0.2298 -0.9296  0.0496
  930MPD2    C313658   3.331   4.701  14.363 -0.2541 -0.3925  0.1260
  930MPD2    C413659   3.264   0.087  14.359 -0.0678  0.1102  0.2288
  930MPD2    C513660   3.327   0.187  14.293  0.1336 -0.0411  0.2429
  930MPD2     H13661   3.520   4.604  14.338 -0.7338 -0.0900  3.8861
  930MPD2    H113662   3.164   0.106  14.394  0.1475  0.6660  0.5480
  930MPD2    H213663   3.487   0.268  14.190  1.5657 -0.1080 -0.7274
  930MPD2    H313664   3.282   0.285  14.295 -0.4290 -0.2525 -1.6809
  930MPD2     N13665   3.262   4.596  14.415 -0.2927 -0.7558  0.3921
  930MPD2    H513666   3.172   4.617  14.458  0.1757  0.0622  0.9707
  930MPD2    N113667   3.653   0.055  14.193 -0.4475  0.7349  0.1521
  930MPD2    H713668   3.697   0.139  14.154 -0.9402  0.5906 -0.7154
  931MPD2     C13669   3.874   3.033   0.732 -0.4191 -0.2114 -0.1631
  931MPD2    C113670   3.810   3.153   0.747  0.5410  0.0621  0.3964
  931MPD2    C213671   3.795   3.201   0.875  0.1810 -0.2754  0.1398
  931MPD2    C313672   3.809   3.124   0.987 -0.1929 -0.4229  0.2191
  931MPD2    C413673   3.843   2.997   0.966 -0.4338  0.1853 -0.4269
  931MPD2    C513674   3.875   2.950   0.844  0.4116  0.4712 -1.0415
  931MPD2     H13675   3.762   3.304   0.883  0.0165 -0.1695 -1.9060
  931MPD2    H113676   3.844   2.926   1.048 -3.0213 -0.0482 -0.6258
  931MPD2    H213677   3.900   2.993   0.634 -2.3828  0.6134 -1.0332
  931MPD2    H313678   3.925   2.854   0.835  0.8962  0.6769 -0.5594
  931MPD2     N13679   3.788   3.163   1.117 -0.5648 -0.7406  0.3356
  931MPD2    H513680   3.788   3.088   1.186  0.3695  1.0903  2.3376
  931MPD2    N113681   3.774   3.232   0.633  0.4668 -0.0135  0.1911
  931MPD2    H713682   3.779   3.180   0.546 -0.1838 -1.3770  0.9698
  932MPD2     C13683   0.546   3.490  11.246 -0.1010  0.0768  0.8755
  932MPD2    C113684   0.605   3.540  11.361  0.3385  0.8400 -0.7432
  932MPD2    C213685   0.643   3.445  11.464 -0.0703 -0.5556  0.2055
  932MPD2    C313686   0.617   3.310  11.447  0.1024 -0.3819  0.2660
  932MPD2    C413687   0.564   3.265  11.334  0.3050 -0.0494  0.8344
  932MPD2    C513688   0.518   3.353  11.242  0.4913 -0.5823  0.1282
  932MPD2     H13689   0.667   3.485  11.561  1.8468  0.3235 -0.6510
  932MPD2    H113690   0.547   3.159  11.317 -0.2850 -0.3599  3.2605
  932MPD2    H213691   0.528   3.561  11.166  1.6792  0.8642  1.1835
  932MPD2    H313692   0.466   3.317  11.154 -0.2877  0.8541 -0.0061
  932MPD2     N13693   0.653   3.209  11.538  0.2320 -0.5843  0.8936
  932MPD2    H513694   0.626   3.117  11.505 -1.6334 -0.4179  1.9775
  932MPD2    N113695   0.626   3.677  11.375 -0.0574  0.6009 -0.4036
  932MPD2    H713696   0.675   3.707  11.459 -2.9035 -2.0023  2.1785
  933MPD2     C13697   0.733   2.964   0.999 -0.4057 -0.3737 -0.3501
  933MPD2    C113698   0.810   2.990   1.111  0.5959  0.8001  0.4662
  933MPD2    C213699   0.796   3.106   1.176 -1.2484  0.5669  0.7896
  933MPD2    C313700   0.701   3.195   1.139 -0.4783  0.1208 -0.2182
  933MPD2    C413701   0.616   3.168   1.033 -0.5305 -0.6651  0.0392
  933MPD2    C513702   0.626   3.043   0.969 -0.7659 -0.0147 -0.3953
  933MPD2     H13703   0.859   3.142   1.256  0.8414  0.7326 -0.9352
  933MPD2    H113704   0.540   3.236   0.996  0.0692 -0.5455 -0.9953
  933MPD2    H213705   0.749   2.872   0.944  1.9521 -1.1152  1.5604
  933MPD2    H313706   0.559   3.004   0.893 -1.5277  2.4120 -0.9591
  933MPD2     N13707   0.693   3.318   1.217  0.1917  0.6291 -0.2236
  933MPD2    H513708   0.768   3.329   1.284 -1.0225  1.1902  1.0390
  933MPD2    N113709   0.912   2.898   1.142  0.6064  0.1041 -0.1547
  933MPD2    H713710   0.920   2.811   1.090  3.1766  0.0206  0.3703
  934MPD2     C13711   2.428   4.654   1.952 -0.5187 -0.4014  0.2758
  934MPD2    C113712   2.501   4.552   1.902  0.0272  0.0744  0.8234
  934MPD2    C213713   2.467   4.506   1.776  0.0719  0.8064  0.0250
  934MPD2    C313714   2.359   4.556   1.703 -0.1526 -0.8627 -0.1313
  934MPD2    C413715   2.279   4.643   1.766 -0.3609 -0.1076  0.4422
  934MPD2    C513716   2.314   4.695   1.886 -0.1452 -0.8429  0.2468
  934MPD2     H13717   2.522   4.418   1.748 -0.2366  0.8527 -0.7301
  934MPD2    H113718   2.188   4.679   1.720  2.0917  2.0847 -2.7355
  934MPD2    H213719   2.438   4.703   2.048 -3.7761  1.3862 -0.2894
  934MPD2    H313720   2.250   0.041   1.926  1.7709  1.7559 -1.6983
  934MPD2     N13721   2.328   4.511   1.574 -0.0570  0.1666  0.0123
  934MPD2    H513722   2.235   4.527   1.536 -0.3245 -0.9418  0.1941
  934MPD2    N113723   2.608   4.485   1.965  0.3089 -0.3261  0.1516
  934MPD2    H713724   2.644   4.401   1.921  1.7079  0.0612  0.5462
  935MPD2     C13725   2.675   3.660   1.303  0.2580 -0.1114  0.3917
  935MPD2    C113726   2.608   3.689   1.183 -0.2574 -0.4345 -0.5319
  935MPD2    C213727   2.544   3.806   1.171 -0.6915 -0.4869  0.4016
  935MPD2    C313728   2.535   3.893   1.275  0.4444 -0.2421  0.4430
  935MPD2    C413729   2.596   3.856   1.393 -0.1701 -0.4580 -0.6821
  935MPD2    C513730   2.668   3.744   1.406  0.0695  0.8738  0.7733
  935MPD2     H13731   2.489   3.821   1.078 -0.5490 -1.8129  0.1025
  935MPD2    H113732   2.594   3.924   1.478  0.1991 -0.2751 -0.8202
  935MPD2    H213733   2.743   3.578   1.322 -0.4091 -1.3551 -2.6299
  935MPD2    H313734   2.728   3.718   1.493 -0.0242 -2.4398 -0.1542
  935MPD2     N13735   2.471   4.019   1.272  0.9225 -0.4955 -0.0578
  935MPD2    H513736   2.474   4.073   1.359 -1.5593  0.7871 -0.7789
  935MPD2    N113737   2.599   3.597   1.072  0.1151 -0.4320  0.3186
  935MPD2    H713738   2.551   3.627   0.987  1.2545  0.4723 -0.0095
  936MPD2     C13739   0.523   2.347  12.329 -0.2228 -0.1045 -0.0130
  936MPD2    C113740   0.633   2.265  12.344 -0.6605 -0.0826 -0.0784
  936MPD2    C213741   0.741   2.286  12.263 -0.0380  0.5239  0.1681
  936MPD2    C313742   0.736   2.385  12.166 -0.0009  0.0523  0.5385
  936MPD2    C413743   0.631   2.470  12.160 -0.3293  0.5013 -0.3083
  936MPD2    C513744   0.520   2.440  12.232 -0.6810 -0.0064  0.0598
  936MPD2     H13745   0.827   2.223  12.279 -0.4136 -0.6162 -2.3685
  936MPD2    H113746   0.623   2.546  12.083  0.9032 -0.2883 -1.2109
  936MPD2    H213747   0.432   2.328  12.385 -0.7491  1.0884 -0.4617
  936MPD2    H313748   0.431   2.501  12.224  0.2910  1.5491  1.1892
  936MPD2     N13749   0.852   2.399  12.085  0.2116  0.0685 -0.2483
  936MPD2    H513750   0.927   2.331  12.095 -0.0960 -0.6374 -2.6848
  936MPD2    N113751   0.640   2.141  12.415 -0.2296 -0.8073 -0.1393
  936MPD2    H713752   0.732   2.098  12.415 -0.7439 -1.9102 -0.9284
  937MPD2     C13753   3.637   3.231  11.723  0.6554  1.0149 -0.4963
  937MPD2    C113754   3.604   3.358  11.678  0.8478 -0.2624  0.3304
  937MPD2    C213755   3.705   3.413  11.599  0.4897  0.6843  0.1224
  937MPD2    C313756   3.804   3.333  11.539  0.1694 -0.3460 -0.3011
  937MPD2    C413757   3.812   3.199  11.569  0.1594  0.9309 -0.0658
  937MPD2    C513758   3.727   3.147  11.658 -0.5376  0.5243  0.0488
  937MPD2     H13759   3.702   3.513  11.559  2.3904 -0.3759 -2.6319
  937MPD2    H113760   3.884   3.136  11.517 -1.4049  1.3770 -2.7671
  937MPD2    H213761   3.577   3.176  11.794  2.8451 -0.0154  0.5500
  937MPD2    H313762   3.722   3.040  11.677 -1.1574  0.5519  0.0425
  937MPD2     N13763   3.888   3.391  11.445 -0.1097  0.5106  0.8809
  937MPD2    H513764   3.881   3.492  11.437 -1.4583  0.1933 -1.7456
  937MPD2    N113765   3.505   3.438  11.742  0.2108  0.4472 -0.0971
  937MPD2    H713766   3.486   3.531  11.706 -0.5391  0.0860 -0.6110
  938MPD2     C13767   1.898   3.774   0.491  0.0776 -0.5921 -0.1092
  938MPD2    C113768   1.808   3.878   0.504 -0.4271  0.4011 -0.5841
  938MPD2    C213769   1.720   3.885   0.614  0.2665 -0.0645  0.0797
  938MPD2    C313770   1.715   3.779   0.703  0.5032 -0.3300 -0.3072
  938MPD2    C413771   1.797   3.674   0.678 -0.1416  0.8426  0.2278
  938MPD2    C513772   1.885   3.664   0.567 -0.5194 -0.3456 -0.0511
  938MPD2     H13773   1.652   3.969   0.624  1.4225  0.8971 -0.2001
  938MPD2    H113774   1.800   3.592   0.749  0.0969  1.8142  1.3369
  938MPD2    H213775   1.966   3.768   0.407 -0.3834 -1.5199 -0.4163
  938MPD2    H313776   1.944   3.574   0.562  2.4176  1.5282  0.9247
  938MPD2     N13777   1.649   3.787   0.828 -0.4706 -0.4233  0.5287
  938MPD2    H513778   1.658   3.705   0.888  0.0982 -0.2391  0.6984
  938MPD2    N113779   1.813   3.996   0.424 -0.2456 -0.0722  0.6069
  938MPD2    H713780   1.743   4.067   0.444 -0.5829 -0.9495  2.5428
  939MPD2     C13781   2.496   0.415   1.242  0.2642 -0.2011 -0.3234
  939MPD2    C113782   2.399   0.461   1.154  0.3312  0.3860 -0.0001
  939MPD2    C213783   2.426   0.451   1.010 -0.4798 -0.5734 -0.3589
  939MPD2    C313784   2.552   0.419   0.962 -0.4387  0.0900 -0.0792
  939MPD2    C413785   2.649   0.385   1.054  0.3443  0.6554 -0.8116
  939MPD2    C513786   2.619   0.379   1.188 -0.0965  0.1630 -0.0238
  939MPD2     H13787   2.348   0.484   0.942  0.0544  2.2006  0.3752
  939MPD2    H113788   2.745   0.348   1.021 -0.1510  1.3197 -2.9645
  939MPD2    H213789   2.480   0.409   1.349 -0.2662  1.8957 -0.2890
  939MPD2    H313790   2.701   0.359   1.255 -0.3678  0.9998  0.5497
  939MPD2     N13791   2.563   0.418   0.821 -0.1583 -0.3415 -0.0473
  939MPD2    H513792   2.481   0.455   0.775  0.8257 -0.5267 -1.9512
  939MPD2    N113793   2.279   0.498   1.214  0.4372  0.8862 -0.4664
  939MPD2    H713794   2.286   0.507   1.315  0.8292  0.1763 -0.4354
  940MPD2     C13795   1.336   1.553  12.606 -0.1281 -0.0846 -0.4281
  940MPD2    C113796   1.470   1.538  12.647 -0.9919 -0.7769  0.2428
  940MPD2    C213797   1.568   1.506  12.554 -0.1496  0.5105 -1.1510
  940MPD2    C313798   1.538   1.486  12.418  0.4380  0.3838  0.7741
  940MPD2    C413799   1.403   1.488  12.381 -0.0077 -0.1291  0.1001
  940MPD2    C513800   1.304   1.530  12.474 -0.7019  0.5799 -0.6914
  940MPD2     H13801   1.669   1.496  12.592  0.0436 -0.3316 -1.8869
  940MPD2    H113802   1.372   1.475  12.278  0.7571  0.7498 -0.2425
  940MPD2    H213803   1.257   1.576  12.676 -0.1140  2.8050 -1.3753
  940MPD2    H313804   1.201   1.554  12.452 -1.7994 -0.9144  2.9013
  940MPD2     N13805   1.635   1.461  12.317  0.1996 -0.4322 -0.1768
  940MPD2    H513806   1.605   1.458  12.220 -0.2410 -1.7912  0.0093
  940MPD2    N113807   1.513   1.559  12.784  0.1024 -0.9903 -0.3089
  940MPD2    H713808   1.610   1.534  12.800  0.8779  1.9093 -0.4591
  941MPD2     C13809   0.490   1.245  10.337  0.3748  0.0580 -0.2062
  941MPD2    C113810   0.596   1.188  10.402  0.5616 -0.1281  0.4463
  941MPD2    C213811   0.578   1.056  10.441  0.0654 -0.4193  0.1309
  941MPD2    C313812   0.459   0.986  10.415  0.4785  0.4345 -0.4238
  941MPD2    C413813   0.351   1.052  10.347  0.3153 -0.1280  0.6252
  941MPD2    C513814   0.372   1.185  10.317  0.8156  0.0552  0.3873
  941MPD2     H13815   0.663   1.013  10.493 -0.2885 -0.4278  0.7024
  941MPD2    H113816   0.258   1.001  10.325 -1.2135  1.2152  4.0339
  941MPD2    H213817   0.501   1.348  10.306  1.3128  0.0881  0.2195
  941MPD2    H313818   0.291   1.238  10.267  0.4323 -0.0276  0.9205
  941MPD2     N13819   0.442   0.849  10.452  0.0499 -0.0480 -0.0841
  941MPD2    H513820   0.364   0.797  10.413  0.5402  0.2622 -1.4663
  941MPD2    N113821   0.727   1.241  10.409  0.4971  0.2717 -0.3542
  941MPD2    H713822   0.801   1.181  10.443  1.2683  0.0784 -2.3781
  942MPD2     C13823   0.875   3.234   8.506  0.1435 -0.0830 -0.9280
  942MPD2    C113824   0.792   3.125   8.512 -0.1323  0.3904 -0.0473
  942MPD2    C213825   0.816   3.037   8.614  0.0523 -0.2480  0.1648
  942MPD2    C313826   0.915   3.047   8.714 -0.3074 -0.3853 -0.4797
  942MPD2    C413827   0.997   3.154   8.705  0.0208 -0.3944  0.4412
  942MPD2    C513828   0.979   3.247   8.600 -0.7598  0.0597 -0.3580
  942MPD2     H13829   0.751   2.949   8.614 -0.6650  0.2765  1.2396
  942MPD2    H113830   1.084   3.169   8.768 -1.2000 -1.2764  2.3227
  942MPD2    H213831   0.869   3.309   8.429 -1.3361 -0.8303 -1.5457
  942MPD2    H313832   1.057   3.322   8.606  0.6617 -1.2884 -2.2495
  942MPD2     N13833   0.944   2.948   8.819  0.0218 -0.0742 -0.2470
  942MPD2    H513834   1.015   2.983   8.882 -0.1528  1.6938 -1.0277
  942MPD2    N113835   0.679   3.099   8.434  0.6270  0.1578 -0.2511
  942MPD2    H713836   0.621   3.025   8.471  1.8328 -0.6452  0.0099
  943MPD2     C13837   4.526   1.496   9.450  0.6885 -0.0630 -0.0877
  943MPD2    C113838   4.480   1.404   9.539 -0.9766  0.2724  0.2416
  943MPD2    C213839   4.483   1.428   9.675 -0.1562  0.1425  0.3050
  943MPD2    C313840   4.541   1.541   9.727  0.2456 -0.4494  0.7488
  943MPD2    C413841   4.581   1.635   9.631 -0.2554 -0.1085  0.8721
  943MPD2    C513842   4.568   1.621   9.491  0.4682  0.0475  0.3410
  943MPD2     H13843   4.443   1.349   9.739  1.3013 -0.8734 -0.0355
  943MPD2    H113844   4.628   1.727   9.665  2.6913 -1.5659  0.7357
  943MPD2    H213845   4.539   1.469   9.346 -2.0802  0.8146 -0.6691
  943MPD2    H313846   4.619   1.690   9.425 -0.3865  1.8284  1.5386
  943MPD2     N13847   4.560   1.559   9.863 -0.0451  0.3790 -0.5823
  943MPD2    H513848   4.610   1.644   9.884 -1.3243  1.2779 -1.1724
  943MPD2    N113849   4.436   1.277   9.495  0.6770 -0.3044  0.2060
  943MPD2    H713850   4.419   1.274   9.395  0.7535 -1.5795  0.2257
  944MPD2     C13851   3.927   4.475  10.853 -0.4353  1.0432 -0.0621
  944MPD2    C113852   3.921   4.607  10.815 -0.6180 -0.1852  0.6620
  944MPD2    C213853   3.895   4.699  10.913 -0.0229  0.2284 -0.2541
  944MPD2    C313854   3.895   4.676  11.048  0.4525 -0.6017  0.2987
  944MPD2    C413855   3.912   4.542  11.086 -0.4623 -0.1226 -0.2151
  944MPD2    C513856   3.927   4.448  10.993 -0.3115  0.3630 -1.3742
  944MPD2     H13857   3.880   0.070  10.883 -0.1519 -0.2805 -1.9321
  944MPD2    H113858   3.904   4.507  11.188 -0.6937 -0.0511 -0.2090
  944MPD2    H213859   3.937   4.397  10.779 -2.5447 -0.6558  1.4517
  944MPD2    H313860   3.925   4.342  11.019 -0.0926 -0.1003 -3.1913
  944MPD2     N13861   3.882   0.055  11.140 -0.5474  0.0074 -0.7524
  944MPD2    H513862   3.860   0.144  11.096  0.5750  0.2268 -0.8601
  944MPD2    N113863   3.922   4.634  10.677  0.0716  0.4970 -0.1721
  944MPD2    H713864   3.908   4.551  10.619  0.3119 -0.3386  0.9611
    1TMC1    C113865   2.874   1.510  14.859 -0.3140 -0.3663 -0.2043
    1TMC1    C213866   2.988   1.447  14.910 -0.3713 -1.0409  0.4065
    1TMC1    C313867   2.987   1.375  15.026  0.1599  0.0743 -0.2516
    1TMC1    C413868   2.753   1.512  14.936  0.1769 -0.5328 -0.3946
    1TMC1    C513869   2.760   1.438  15.050 -0.1466 -0.3191  0.0831
    1TMC1    C613870   2.872   1.370  15.095 -0.8852 -0.0489 -0.2589
    1TMC1     C13871   2.907   1.606  14.751 -0.6602 -0.4385  0.4129
    1TMC1     O13872   3.020   1.605  14.704  0.0344 -0.4873  0.3796
    1TMC1     H13873   3.082   1.441  14.856  1.3736  3.1110  3.0131
    1TMC1    H113874   2.674   1.583  14.915  1.2833  1.5485  2.5158
    1TMC1    H213875   2.868   1.329  15.195 -0.3573  0.5708  0.0166
    1TMC1    C713876   2.650   1.450  15.138  0.6257 -0.4160  0.5799
    1TMC1    C813877   3.110   1.332  15.082  0.3460 -0.6639  0.0529
    1TMC1    O113878   2.663   1.443  15.260  0.0249  0.0401 -0.2950
    1TMC1    O213879   3.221   1.376  15.053 -1.0091  0.2210  0.0776
    1TMC1    O313880   2.534   1.410  15.071 -0.5678  0.5821  0.3129
    1TMC1    H313881   2.532   1.428  14.974 -0.8269  0.2554  0.2604
    1TMC1    O513882   3.089   1.219  15.143 -0.2658 -0.6987 -0.2263
    1TMC1    H513883   2.994   1.199  15.147 -0.3411 -0.2460  0.3317
    2MPD2     C13884   2.778   1.980  14.438  0.6288 -0.0430 -0.2989
    2MPD2    C113885   2.668   1.902  14.469 -0.2346  0.2238 -0.5252
    2MPD2    C213886   2.675   1.811  14.571  0.3015 -0.8581 -0.2896
    2MPD2    C313887   2.793   1.776  14.634  0.3499 -1.0777  0.7981
    2MPD2    C413888   2.898   1.851  14.599 -0.0122 -0.6150 -0.4685
    2MPD2    C513889   2.890   1.956  14.508 -0.1766  0.2371 -0.0711
    2MPD2     H13890   2.584   1.755  14.589  0.3816 -0.0034  2.7392
    2MPD2    H113891   2.987   1.838  14.660  0.0308  1.7239 -0.0443
    2MPD2    H213892   2.779   2.059  14.364  1.5621  0.7771  0.5869
    2MPD2    H313893   2.973   2.025  14.499  0.1623 -0.0364  0.9824
    2MPD2     N13894   2.796   1.670  14.724 -1.0147 -0.0033  0.7738
    2MPD2    H513895   2.711   1.627  14.758 -1.3219 -0.4665 -0.5821
    2MPD2    N113896   2.552   1.935  14.393 -0.1476  0.2678 -0.8375
    2MPD2    H713897   2.566   2.013  14.329  0.8635 -0.3530 -1.3797
    3TMC2    C113898   2.331   1.923  14.299 -0.0682 -0.1212 -0.0772
    3TMC2    C213899   2.315   2.060  14.321  0.1061  0.3588 -0.9528
    3TMC2    C313900   2.222   2.123  14.241 -0.7964  0.5502  0.1184
    3TMC2    C413901   2.262   1.861  14.197  0.2272 -0.2313 -0.0837
    3TMC2    C513902   2.171   1.927  14.120 -0.1762 -0.4550 -0.4577
    3TMC2    C613903   2.146   2.057  14.146  0.5670 -0.1201 -0.1375
    3TMC2     C13904   2.440   1.859  14.385 -0.1272  0.1076  0.0590
    3TMC2     O13905   2.424   1.738  14.407 -0.7688  0.1768  0.2247
    3TMC2     H13906   2.364   2.116  14.400 -1.0229  0.2741 -0.1901
    3TMC2    H113907   2.294   1.759  14.178  1.4253 -0.0110  0.7389
    3TMC2    H213908   2.083   2.118  14.081 -0.7957 -0.9130  0.4471
    3TMC2    C713909   2.085   1.845  14.035  0.4756 -0.5227  0.4372
    3TMC2    C813910   2.214   2.261  14.228 -0.3508  0.0381 -0.0553
    3TMC2    O113911   2.091   1.724  14.051 -0.3860  0.7311  0.0627
    3TMC2    O213912   2.163   2.309  14.131  0.3318 -0.5479 -0.1571
    3TMC2    O513913   2.254   2.317  14.347  0.3184  0.1761 -0.2204
    3TMC2    H513914   2.295   2.256  14.412  0.3727  0.0815 -0.3443
    4TMC2    C113915   1.489   2.396  13.452 -0.1500 -0.1373 -0.3783
    4TMC2    C213916   1.544   2.381  13.326 -0.7639 -0.1669  0.6976
    4TMC2    C313917   1.646   2.297  13.303  0.2092 -0.5902  0.1566
    4TMC2    C413918   1.543   2.318  13.551 -0.4193 -1.0823 -0.1581
    4TMC2    C513919   1.638   2.226  13.518 -0.2209 -0.3366 -0.3464
    4TMC2    C613920   1.693   2.214  13.397  0.1100  0.1770 -0.5756
    4TMC2     C13921   1.346   2.423  13.451  0.1275  0.2558  0.0417
    4TMC2     O13922   1.300   2.457  13.558 -0.1607  0.4236 -0.4067
    4TMC2     H13923   1.512   2.448  13.246  2.0516 -0.2704 -0.5147
    4TMC2    H113924   1.488   2.310  13.644 -0.1979  3.4552  0.3705
    4TMC2    H213925   1.776   2.145  13.378  0.2551  0.1905  0.0292
    4TMC2    C713926   1.705   2.148  13.619 -1.1042  0.4599 -0.3973
    4TMC2    C813927   1.691   2.263  13.167  0.9650  0.1879  0.6821
    4TMC2    O113928   1.712   2.216  13.718  0.6800  0.7432  0.1096
    4TMC2    O213929   1.760   2.168  13.135  0.2989 -0.0252 -0.3559
    4TMC2    O513930   1.702   2.379  13.092 -0.4465 -0.0935 -0.1503
    4TMC2    H513931   1.656   2.463  13.114 -0.5589 -0.2560  0.2240
    5MPD2     C13932   0.876   2.448  13.250 -0.3948 -0.0857 -0.2861
    5MPD2    C113933   0.953   2.345  13.188  0.4175 -0.1767  0.8047
    5MPD2    C213934   1.091   2.333  13.215  0.1993  0.4293  1.1222
    5MPD2    C313935   1.149   2.408  13.314  0.0717  0.6903 -0.4945
    5MPD2    C413936   1.068   2.499  13.377 -0.4076  0.3889 -0.3970
    5MPD2    C513937   0.935   2.523  13.346  0.4796 -0.0362 -0.9164
    5MPD2     H13938   1.151   2.252  13.174 -1.9822 -0.8806  0.5426
    5MPD2    H113939   1.106   2.563  13.456  2.0572 -0.6315 -0.7532
    5MPD2    H213940   0.769   2.452  13.235 -0.6638 -0.3325  1.5583
    5MPD2    H313941   0.874   2.592  13.404  1.5871 -0.8324  1.2036
    5MPD2     N13942   1.281   2.392  13.336 -0.0312  0.4144 -0.7907
    5MPD2    H513943   1.329   2.346  13.259 -1.4869 -1.8635 -0.3225
    5MPD2    N113944   0.881   2.276  13.090  0.0936  0.2339 -0.1512
    5MPD2    H713945   0.780   2.284  13.082  0.0191  1.0192  1.4118
    6MPD1     C13946   0.394   3.738  13.355  0.3928  0.1622  0.5812
    6MPD1    C113947   0.528   3.721  13.336 -0.0362  0.2831 -0.0986
    6MPD1    C213948   0.572   3.591  13.330  0.2870 -0.1341  0.1884
    6MPD1    C313949   0.480   3.487  13.326  0.1139  0.3417  0.2397
    6MPD1    C413950   0.348   3.501  13.347 -0.1366  0.8008  0.4908
    6MPD1    C513951   0.304   3.630  13.357 -0.6987 -1.1025 -0.0576
    6MPD1     H13952   0.679   3.576  13.318  0.1215 -1.7461  0.7063
    6MPD1    H113953   0.269   3.426  13.345  0.5500  0.0286  1.9513
    6MPD1    H213954   0.341   3.831  13.370  0.2096 -0.1272  1.6545
    6MPD1    H313955   0.200   3.659  13.362 -1.1106 -2.3955 -1.2964
    6MPD1     N13956   0.527   3.352  13.313  0.6977 -0.4881  0.3386
    6MPD1    H513957   0.452   3.285  13.325 -0.6849  1.0500  0.1911
    6MPD1    N113958   0.615   3.827  13.373  0.3662  0.1374 -0.1549
    6MPD1    H613959   0.570   3.919  13.368 -0.4226 -0.2852 -0.9753
    6MPD1    H713960   0.706   3.829  13.328  0.4265 -0.2235 -0.0411
    7MPD2     C13961   0.260   2.740  13.024 -0.4226  0.3453  0.3207
    7MPD2    C113962   0.368   2.692  13.102  0.4780  0.3061  0.1017
    7MPD2    C213963   0.411   2.567  13.065 -0.5075 -0.3938 -0.0803
    7MPD2    C313964   0.360   2.494  12.952 -0.1064  0.1858 -0.8123
    7MPD2    C413965   0.249   2.544  12.886  0.3921 -0.0073 -0.4581
    7MPD2    C513966   0.204   2.668  12.920  0.1411  0.0485 -0.3241
    7MPD2     H13967   0.501   2.529  13.112 -0.4526  1.2995  1.1966
    7MPD2    H113968   0.215   2.500  12.793 -0.0751  0.3016 -0.4309
    7MPD2    H213969   0.221   2.838  13.049 -0.4878  0.4513 -0.1965
    7MPD2    H313970   0.117   2.719  12.880 -0.6522  0.1548  1.5675
    7MPD2     N13971   0.423   2.377  12.904  0.1328 -0.3101  0.0776
    7MPD2    H513972   0.382   2.330  12.824 -0.3661  0.4980 -0.1435
    7MPD2    N113973   0.443   2.762  13.197  0.5688  0.3914  0.4368
    7MPD2    H713974   0.515   2.717  13.252  0.4813  0.0296  0.2519
    8TMC3    C113975   0.606   2.237  12.877  0.0500  0.2346  0.1196
    8TMC3    C213976   0.692   2.163  12.942 -0.3524 -0.6186  0.1325
    8TMC3    C313977   0.827   2.153  12.903 -0.0572 -0.0818 -0.1407
    8TMC3    C413978   0.648   2.311  12.768  0.4145  0.2019 -0.0780
    8TMC3    C513979   0.782   2.314  12.731  0.0764  0.2694 -0.1435
    8TMC3    C613980   0.868   2.220  12.791  0.5200  0.5603  0.3951
    8TMC3     C13981   0.531   2.318  12.961  0.1486  0.7011  0.3690
    8TMC3     O13982   0.583   2.334  13.070 -0.1452  0.4046 -0.4368
    8TMC3     H13983   0.671   2.106  13.032 -1.4050  1.5246  1.2347
    8TMC3    H113984   0.583   2.387  12.727  1.8643  1.8187  0.6541
    8TMC3    H213985   0.974   2.221  12.772  0.5615 -4.5449  0.3943
    8TMC3    C713986   0.825   2.450  12.754  0.2617 -0.0201  0.2517
    8TMC3    C813987   0.923   2.176  13.005 -0.2440 -0.1313 -0.3477
    8TMC3    O113988   0.741   2.535  12.763  0.3465  0.0377  0.1646
    8TMC3    O213989   1.039   2.134  13.002  0.2569 -0.5693 -0.3537
    9TMC3    C113990   0.659   3.161  13.308  0.3398 -0.0678  0.8353
    9TMC3    C213991   0.781   3.104  13.281 -0.1397 -0.3300 -0.2576
    9TMC3    C313992   0.788   2.969  13.255  0.7256  0.2690  0.1380
    9TMC3    C413993   0.547   3.082  13.313  0.0305  0.2029  0.7045
    9TMC3    C513994   0.557   2.947  13.280  0.4117  0.5497 -0.3820
    9TMC3    C613995   0.681   2.885  13.257  0.5679 -0.7563  0.2180
    9TMC3     C13996   0.659   3.305  13.301 -0.0534 -0.0834 -0.9253
    9TMC3     O13997   0.766   3.359  13.310 -0.0183  0.2887 -0.0040
    9TMC3     H13998   0.877   3.156  13.280 -0.3347  0.0670  1.7084
    9TMC3    H113999   0.450   3.117  13.346  0.3148  0.9035  0.8011
    9TMC3    H214000   0.686   2.779  13.235 -0.7430 -1.0697  1.4124
    9TMC3    C714001   0.431   2.893  13.220  0.3348 -0.4521 -0.0779
    9TMC3    C814002   0.910   2.908  13.217 -0.6635 -0.2241 -0.1363
    9TMC3    O114003   0.351   2.978  13.175 -0.7191  0.5108  0.5979
    9TMC3    O214004   1.014   2.933  13.274  0.4559 -0.7983 -0.2437
   10MPD2     C14005   1.134   2.537  12.938 -0.0890 -0.1805  0.4416
   10MPD2    C114006   1.003   2.554  12.894 -0.0100 -0.4146 -0.6787
   10MPD2    C214007   0.931   2.657  12.953 -1.2781  0.0012  0.4021
   10MPD2    C314008   0.981   2.739  13.049 -0.8104  0.1158  0.1786
   10MPD2    C414009   1.115   2.723  13.086 -0.1655 -0.0332 -0.8128
   10MPD2    C514010   1.189   2.626  13.028 -0.2919  0.3479  0.1378
   10MPD2     H14011   0.827   2.672  12.930 -1.2936 -1.8291 -0.7244
   10MPD2    H114012   1.157   2.786  13.164  0.6483  0.5328 -1.7090
   10MPD2    H214013   1.190   2.453  12.899  3.0580  1.8752  0.5288
   10MPD2    H314014   1.285   2.604  13.074 -0.2512 -0.3480 -0.2855
   10MPD2     N14015   0.891   2.827  13.106 -0.7090  0.4757  0.3569
   10MPD2    H514016   0.801   2.846  13.063  0.2918  1.3592 -1.4009
   10MPD2    N114017   0.953   2.458  12.806  0.6231  0.0301 -0.6414
   10MPD2    H714018   1.019   2.381  12.796 -0.3554 -0.7526 -1.0447
   11MPD2     C14019   1.937   1.746  13.816 -0.3462 -0.0420  0.0974
   11MPD2    C114020   1.922   1.876  13.860 -0.0618  0.5180  0.7861
   11MPD2    C214021   1.840   1.966  13.791 -1.2001  0.8723 -0.1028
   11MPD2    C314022   1.786   1.927  13.672  0.7307 -0.2192  0.5695
   11MPD2    C414023   1.805   1.800  13.623 -0.4327 -0.0796 -0.8041
   11MPD2    C514024   1.880   1.710  13.697 -0.2111  0.0717 -0.0328
   11MPD2     H14025   1.846   2.073  13.811 -0.3849  0.7152  0.5193
   11MPD2    H114026   1.771   1.775  13.523  1.3076  1.2489 -1.7289
   11MPD2    H214027   1.994   1.670  13.868 -1.0195 -1.4454 -1.2497
   11MPD2    H314028   1.877   1.605  13.672 -0.1553  0.2721 -0.8879
   11MPD2     N14029   1.731   2.019  13.585 -0.1652  0.2157  0.4222
   11MPD2    H514030   1.691   1.993  13.495  1.4098 -0.6828 -0.0148
   11MPD2    N114031   1.999   1.922  13.962 -0.1745  0.0706  0.1706
   11MPD2    H714032   2.006   2.024  13.961 -2.2149  0.1890 -1.4513
    1MPD1     C14033   4.575   2.479  17.629  0.1978  0.9298 -0.7365
    1MPD1    C114034   4.478   2.494  17.527 -0.4952 -0.3206 -0.5899
    1MPD1    C214035   4.518   2.531  17.394  0.4461  0.2314 -0.3738
    1MPD1    C314036   4.658   2.539  17.364 -0.2532 -0.0924 -0.4314
    1MPD1    C414037   0.013   2.505  17.468 -0.1348 -0.0374  0.3318
    1MPD1    C514038   4.706   2.477  17.595  0.0640 -0.1601 -0.6010
    1MPD1     H14039   4.442   2.545  17.318  1.0779 -0.7166 -1.1825
    1MPD1    H114040   0.119   2.496  17.445 -0.1435 -0.6894  0.5251
    1MPD1    H214041   4.553   2.463   0.006 -2.7669  2.2334 -1.1694
    1MPD1    H314042   0.048   2.473  17.674  0.3467  0.0784 -0.8554
    1MPD1     N14043   4.715   2.567  17.235  0.1867 -0.2660 -0.2589
    1MPD1    H514044   0.083   2.583  17.235 -0.2525  2.3870 -0.3468
    1MPD1    N114045   4.346   2.493  17.566  0.6688 -0.8709  0.2643
    1MPD1    H614046   4.325   2.433  17.646 -0.0699 -1.2871 -0.2345
    1MPD1    H714047   4.295   2.458  17.485  1.8621  1.7755 -1.6211
    2MPD1     C14048   0.735   2.296  17.183 -0.0203 -0.5266 -0.2168
    2MPD1    C114049   0.653   2.371  17.266  0.5461 -0.4933 -0.0495
    2MPD1    C214050   0.530   2.410  17.211  0.4954  0.7112  0.1411
    2MPD1    C314051   0.506   2.407  17.075  1.2253  0.4706 -0.2178
    2MPD1    C414052   0.601   2.350  16.993  0.3740  0.5747 -0.0203
    2MPD1    C514053   0.717   2.304  17.046 -0.9088  0.5038 -0.1209
    2MPD1     H14054   0.467   2.452  17.288  1.1153 -0.4314  1.2785
    2MPD1    H114055   0.588   2.346  16.886  0.1227 -0.0087  0.0310
    2MPD1    H214056   0.819   2.234  17.211  0.9570  1.3522  0.9634
    2MPD1    H314057   0.794   2.250  16.993 -0.4688 -0.0930  1.1403
    2MPD1     N14058   0.377   2.447  17.042  0.8043 -0.2004  0.1265
    2MPD1    H514059   0.317   2.492  17.110  0.8057 -0.7082  0.4682
    2MPD1    N114060   0.664   2.367  17.406 -0.6882  0.0451 -0.5653
    2MPD1    H614061   0.650   2.459  17.448 -0.9059 -0.4619  0.4518
    2MPD1    H714062   0.761   2.343  17.428 -1.1952  0.0966  1.7260
    3TMC3    C114063   0.196   2.497  16.903 -0.4762 -0.3389 -0.3377
    3TMC3    C214064   0.149   2.530  16.776 -0.2422 -0.0490 -0.4333
    3TMC3    C314065   0.024   2.595  16.764  0.6777  0.4069 -0.4801
    3TMC3    C414066   0.120   2.505  17.011 -0.4110  0.6045  0.2965
    3TMC3    C514067   0.000   2.578  17.004 -0.1218  0.2064  0.9250
    3TMC3    C614068   4.681   2.626  16.879 -0.6546 -0.1885 -1.6558
    3TMC3     C14069   0.330   2.454  16.909 -0.3120 -0.1774  0.1484
    3TMC3     O14070   0.384   2.433  16.805 -0.2553 -0.0969  0.2025
    3TMC3     H14071   0.208   2.513  16.687  1.6972 -1.9104  1.2121
    3TMC3    H114072   0.146   2.457  17.105 -1.5018 -1.6369 -0.5487
    3TMC3    H214073   4.596   2.691  16.865 -1.4433 -1.2192 -1.6798
    3TMC3    C714074   4.646   2.582  17.114 -0.9256  0.6709  0.0363
    3TMC3    C814075   4.710   2.650  16.640  0.7137 -0.5828  0.4823
    3TMC3    O114076   4.526   2.577  17.088  0.3069 -0.2392  0.6652
    3TMC3    O214077   4.584   2.652  16.640 -0.6631  0.0360 -0.1074
    4MPD1     C14078   4.715   2.888  16.181  0.6528 -0.4923 -0.1533
    4MPD1    C114079   0.109   2.840  16.212  0.4993 -1.0299 -0.1586
    4MPD1    C214080   0.130   2.774  16.336  0.0708 -0.5239  0.6298
    4MPD1    C314081   0.036   2.760  16.428 -0.4430  0.1269 -0.2384
    4MPD1    C414082   4.644   2.808  16.403  0.1632  0.8497 -0.1180
    4MPD1    C514083   4.623   2.873  16.282 -0.4228  0.1984 -0.2442
    4MPD1     H14084   0.227   2.727  16.342  0.5359  0.5937  1.7570
    4MPD1    H114085   4.562   2.815  16.473  0.6182 -1.4613  0.6207
    4MPD1    H214086   4.690   2.937  16.087  1.6424 -3.2550 -1.8671
    4MPD1    H314087   4.523   2.909  16.259  0.3584  1.1407 -2.1131
    4MPD1     N14088   0.070   2.690  16.546  0.5361 -0.3716  0.1343
    4MPD1    H514089   0.169   2.669  16.547  0.2056 -1.9381  0.1627
    4MPD1    N114090   0.206   2.816  16.114 -0.3865  0.6012 -0.0254
    4MPD1    H614091   0.303   2.802  16.141  0.1460  4.2971 -0.0181
    4MPD1    H714092   0.201   2.875  16.031  3.1917 -1.2602 -1.5471
    1TCq1    O114093   1.466   1.898  11.729  0.3671  0.0677 -0.1484
    1TCq1    C114094   1.397   2.003  11.692  0.0840  0.1181  0.7512
    1TCq1    O214095   1.279   2.026  11.724  0.0090 -0.0344 -0.0652
    1TCq1    C214096   1.495   2.106  11.675  0.3245 -0.2476  0.1188
    1TCq1    C314097   1.567   2.148  11.786  0.3098  0.6893 -0.2204
    1TCq1    C414098   1.635   2.273  11.778  0.3995  0.3458  0.8888
    1TCq1    C514099   1.601   2.366  11.686 -0.6515 -0.9065 -0.1541
    1TCq1    C614100   1.510   2.320  11.588  0.4539  0.0558  0.2648
    1TCq1    C714101   1.460   2.199  11.576  0.4331 -0.7227 -0.0730
    1TCq1    C814102   1.429   2.413  11.510 -0.1660 -1.0905  0.0810
    1TCq1    O414103   1.375   2.369  11.410  0.3695  0.7193 -0.0341
    1TCq1    C914104   1.690   2.313  11.904  0.5847  0.4609 -0.5696
    1TCq1    O514105   1.738   2.429  11.913  0.0457 -0.2254  0.8425
    1TCq1    O614106   1.652   2.247  12.009  0.4505  0.4016 -0.0799
    1TCq1    H114107   1.558   1.899  11.693  0.8543 -0.2385  1.0789
    1TCq1    H214108   1.602   2.073  11.856 -1.2143 -0.3848 -0.6133
    1TCq1    H314109   1.649   2.463  11.683 -0.0790 -1.1579  0.6538
    1TCq1    H414110   1.416   2.157  11.485 -1.9914  1.5535  0.0500
    2MPD1     C14111   1.340   2.904  11.387  0.4673  0.3209 -0.1660
    2MPD1    C114112   1.368   2.900  11.520  0.2017 -0.3772  1.1256
    2MPD1    C214113   1.409   2.780  11.574  0.1400 -0.5321  0.1724
    2MPD1    C314114   1.400   2.660  11.506 -0.0020  0.1848  0.1277
    2MPD1    C414115   1.354   2.663  11.378 -0.2560 -0.3830  0.1618
    2MPD1    C514116   1.326   2.784  11.322 -0.6307 -0.1237  0.4518
    2MPD1     H14117   1.435   2.754  11.676  0.4499  1.9658  0.7480
    2MPD1    H114118   1.334   2.573  11.320  0.2401 -1.6406  1.9590
    2MPD1    H214119   1.328   3.003  11.343  0.2852  0.0194 -0.7925
    2MPD1    H314120   1.289   2.793  11.221  1.1247 -1.6194 -0.3359
    2MPD1     N14121   1.436   2.541  11.571 -0.5780 -0.0348 -0.1028
    2MPD1    H514122   1.477   2.536  11.663 -1.0566  1.6836  0.1979
    2MPD1    N114123   1.383   3.021  11.584 -0.6132 -0.3858 -0.3803
    2MPD1    H614124   1.306   3.079  11.552  0.3010 -0.4416 -2.6623
    2MPD1    H714125   1.362   3.001  11.682 -0.7534 -1.8446 -0.7081
    1TMC1    C114126   1.052   2.880   8.392 -1.0387 -0.1480 -0.3867
    1TMC1    C214127   1.097   2.974   8.313  0.5090  0.1349 -0.3318
    1TMC1    C314128   1.030   2.995   8.197 -0.6680  0.0576  0.0505
    1TMC1    C414129   0.937   2.807   8.367  0.4469 -0.0748 -0.0756
    1TMC1    C514130   0.872   2.827   8.246 -0.1282 -0.6143  0.6701
    1TMC1    C614131   0.921   2.917   8.157 -0.4945  0.0489  0.1960
    1TMC1     C14132   1.130   2.880   8.518  0.3198 -0.8823  0.4891
    1TMC1     O14133   1.206   2.974   8.544  0.0186  0.3093 -0.0035
    1TMC1     H14134   1.192   3.025   8.326 -0.2918  1.4011  0.4357
    1TMC1    H114135   0.910   2.732   8.441 -0.4887  0.4674  0.1351
    1TMC1    H214136   0.868   2.938   8.065 -1.2378 -0.6718  0.4529
    1TMC1    C714137   0.789   2.719   8.198  0.2934  0.0004 -0.1385
    1TMC1    C814138   1.095   3.060   8.094 -0.4035 -0.1928  0.4800
    1TMC1    O114139   0.740   2.724   8.082  0.2649 -0.1403  0.4742
    1TMC1    O214140   1.124   2.994   7.993 -0.4565 -0.1176  0.9701
    1TMC1    O314141   0.732   2.655   8.306  0.4002  0.0399  0.1641
    1TMC1    H314142   0.770   2.657   8.396  0.8700 -2.0889  0.0301
    1TMC1    O514143   1.157   3.171   8.131  0.0734 -0.3050  0.2982
    1TMC1    H514144   1.128   3.205   8.218 -0.0722 -0.8999  0.4865
    2MPD1     C14145   1.353   2.598   8.866 -0.5523 -0.0044 -0.5542
    2MPD1    C114146   1.263   2.512   8.801 -0.0171  0.3023 -0.0747
    2MPD1    C214147   1.186   2.580   8.712 -0.2272 -0.9127 -0.6861
    2MPD1    C314148   1.188   2.717   8.690  0.0688 -0.1425  0.2028
    2MPD1    C414149   1.268   2.790   8.760  0.6457 -0.1812  0.8751
    2MPD1    C514150   1.357   2.736   8.850 -0.0512  0.3990  0.0329
    2MPD1     H14151   1.120   2.515   8.656  1.3629 -3.0894 -0.0152
    2MPD1    H114152   1.282   2.895   8.738  0.3062 -0.7664 -2.1244
    2MPD1    H214153   1.423   2.548   8.933  0.9025 -0.9735 -2.7978
    2MPD1    H314154   1.429   2.801   8.900 -1.4223  1.5174  0.5497
    2MPD1     N14155   1.106   2.769   8.584 -0.4892  0.3072 -0.0754
    2MPD1    H514156   1.034   2.708   8.547  0.9145 -0.5251 -1.3950
    2MPD1    N114157   1.276   2.371   8.811  0.2203 -0.4511  0.3804
    2MPD1    H614158   1.289   2.337   8.907  1.2382 -0.0880  0.3732
    2MPD1    H714159   1.195   2.327   8.769 -0.5207 -0.4823  1.8183
    1MPD1     C14160   3.303   2.580  11.138  0.9135 -0.5714 -0.0667
    1MPD1    C114161   3.242   2.706  11.126  0.4023  0.1727 -0.8129
    1MPD1    C214162   3.213   2.764  11.245 -0.0618 -0.3322  0.3224
    1MPD1    C314163   3.233   2.713  11.369  0.1630  0.0938 -0.0115
    1MPD1    C414164   3.292   2.591  11.381 -0.4464 -0.5417 -0.0778
    1MPD1    C514165   3.333   2.528  11.267  0.2492  0.2191 -0.2109
    1MPD1     H14166   3.172   2.864  11.239  0.4865 -0.0175  1.8129
    1MPD1    H114167   3.328   2.560  11.478  1.3450 -0.5262 -0.7284
    1MPD1    H214168   3.336   2.522  11.053 -0.2918 -0.0224 -0.9041
    1MPD1    H314169   3.394   2.438  11.266 -1.6287 -1.0588 -0.0298
    1MPD1     N14170   3.181   2.782  11.482 -0.3836  0.0052  0.1734
    1MPD1    H514171   3.150   2.878  11.479 -0.7682 -0.1792 -2.2361
    1MPD1    N114172   3.242   2.781  11.002  0.0289 -1.0350  0.0607
    1MPD1    H614173   3.246   2.722  10.919  2.2786 -1.3593  0.3975
    1MPD1    H714174   3.164   2.846  10.998  2.4258  1.7696 -1.1407
    2MPD1     C14175   3.242   3.763  10.605 -0.8917  0.7087  0.2320
    2MPD1    C114176   3.138   3.785  10.518  0.5628 -0.1480  0.4152
    2MPD1    C214177   3.019   3.724  10.541 -0.8521 -0.5544  0.8918
    2MPD1    C314178   2.998   3.630  10.640 -0.1597 -0.0633 -0.1435
    2MPD1    C414179   3.102   3.617  10.734  0.1869  0.5490 -0.5962
    2MPD1    C514180   3.220   3.688  10.716  0.7261 -0.8778  0.8136
    2MPD1     H14181   2.933   3.747  10.479 -0.2684 -0.9582 -0.0529
    2MPD1    H114182   3.089   3.553  10.821  1.5170 -0.3260 -1.0399
    2MPD1    H214183   3.339   3.812  10.602 -0.8189  0.7550  3.2567
    2MPD1    H314184   3.298   3.674  10.790 -2.2156 -2.1351  3.6722
    2MPD1     N14185   2.882   3.542  10.651 -0.0858 -0.5250  0.5143
    2MPD1    H514186   2.878   3.485  10.735  1.2950  1.3561  1.8491
    2MPD1    N114187   3.144   3.874  10.411  0.0964  0.3648 -0.4983
    2MPD1    H614188   3.241   3.885  10.381  0.3279  0.3365  0.2361
    2MPD1    H714189   3.090   3.837  10.333 -1.0607  1.5285 -0.2414
    3MPD1     C14190   2.434   2.933  10.054  0.3403 -0.2141 -0.6329
    3MPD1    C114191   2.419   3.071  10.020  0.4994  0.0007  0.0406
    3MPD1    C214192   2.435   3.164  10.118 -0.0666  0.0622  0.0274
    3MPD1    C314193   2.457   3.123  10.246  0.1879  0.4767  0.9807
    3MPD1    C414194   2.484   2.993  10.275  0.2904 -0.3897  0.6549
    3MPD1    C514195   2.476   2.896  10.185 -0.4752 -0.1469  0.7781
    3MPD1     H14196   2.442   3.271  10.105 -0.0191  0.0362 -0.1716
    3MPD1    H114197   2.521   2.966  10.374  2.6575 -2.8654 -0.9243
    3MPD1    H214198   2.411   2.849   9.989 -2.3777  0.0299  0.0191
    3MPD1    H314199   2.485   2.791  10.209 -1.1171 -0.2354  0.6281
    3MPD1     N14200   2.466   3.222  10.347  0.5583 -0.4112 -0.4664
    3MPD1    H514201   2.472   3.321  10.325  0.9449 -0.7414 -1.8423
    3MPD1    N114202   2.401   3.106   9.891  0.0990  0.2083 -0.1462
    3MPD1    H614203   2.443   3.197   9.874  0.0621  0.4087  0.7847
    3MPD1    H714204   2.443   3.041   9.825 -0.4433 -2.6070  2.2712
    4MPD2     C14205   2.579   2.941  12.043 -0.3817  0.5256  0.5306
    4MPD2    C114206   2.678   3.011  11.988 -0.1276 -0.2321  0.4617
    4MPD2    C214207   2.655   3.144  11.952 -1.0818  0.2267  0.0646
    4MPD2    C314208   2.535   3.205  11.975 -0.8620  0.0998  0.2417
    4MPD2    C414209   2.433   3.128  12.023 -0.5350 -1.0106 -0.1940
    4MPD2    C514210   2.460   3.000  12.053 -0.0172 -0.7887  0.7278
    4MPD2     H14211   2.741   3.200  11.914 -0.5895 -1.7104 -1.6692
    4MPD2    H114212   2.331   3.162  12.043 -0.7728 -1.8677  0.0480
    4MPD2    H214213   2.595   2.836  12.068  1.2254  0.9905  1.4434
    4MPD2    H314214   2.380   2.939  12.094 -0.2330  1.5729  3.8362
    4MPD2     N14215   2.498   3.328  11.926  0.4898  0.2968 -0.1285
    4MPD2    H514216   2.405   3.361  11.948  0.1407 -0.0479 -1.0643
    4MPD2    N114217   2.807   2.962  11.951  1.1043 -0.5308 -0.0677
    4MPD2    H714218   2.864   3.039  11.917  1.9912 -0.5756  1.3136
    5TMC3    C114219   2.990   2.832  11.906 -0.1520 -0.5108 -0.9220
    5TMC3    C214220   3.012   2.751  11.797  0.0784  0.2121  0.1725
    5TMC3    C314221   3.073   2.814  11.690  0.6264  0.2732  0.4582
    5TMC3    C414222   3.047   2.957  11.909  0.0071 -0.0386  0.0877
    5TMC3    C514223   3.099   3.014  11.798  0.8547 -0.4047 -0.4926
    5TMC3    C614224   3.100   2.947  11.682 -0.3117  0.0664  0.3230
    5TMC3     C14225   2.857   2.838  11.947 -0.6739  0.6484  0.4326
    5TMC3     O14226   2.787   2.737  11.953 -0.1387  0.0821  0.3750
    5TMC3     H14227   2.977   2.649  11.787 -1.6491  0.8896 -0.6336
    5TMC3    H114228   3.057   3.011  12.002  3.2326 -0.6088  0.0574
    5TMC3    H214229   3.158   2.981  11.597 -1.8484  0.7903 -0.4387
    5TMC3    C714230   3.078   3.153  11.799  0.4750  0.1553 -0.0231
    5TMC3    C814231   3.148   2.720  11.607  0.3873 -0.5064  0.6871
    5TMC3    O114232   3.014   3.199  11.894  0.5578  0.0266  0.3505
    5TMC3    O214233   3.146   2.602  11.640 -0.0066 -0.0662  0.0826
    6TMC3    C114234   2.671   3.444  10.616  0.2430  0.0080  0.0808
    6TMC3    C214235   2.593   3.377  10.524  0.6381  0.0490  0.4776
    6TMC3    C314236   2.479   3.313  10.566 -0.3510 -0.6314  0.0172
    6TMC3    C414237   2.625   3.446  10.747 -0.1826  0.0697 -0.4531
    6TMC3    C514238   2.514   3.378  10.786 -0.4787 -0.5362 -0.6445
    6TMC3    C614239   2.445   3.297  10.699  0.5045  0.0222  0.0272
    6TMC3     C14240   2.779   3.533  10.561 -0.0796  0.0878 -0.0788
    6TMC3     O14241   2.772   3.582  10.450 -0.2728  0.0932  0.1294
    6TMC3     H14242   2.607   3.399  10.419 -0.2055  0.6504  0.4969
    6TMC3    H114243   2.679   3.507  10.817 -0.4979 -1.7644  1.3836
    6TMC3    H214244   2.365   3.233  10.734 -0.0542  1.2503  1.0190
    6TMC3    C714245   2.491   3.392  10.932  0.0329 -0.6949 -0.1529
    6TMC3    C814246   2.448   3.195  10.483 -0.4411 -0.0646 -0.1272
    6TMC3    O114247   2.563   3.461  10.996 -0.2469  0.2470 -0.7008
    6TMC3    O214248   2.381   3.100  10.528 -0.8762 -0.2960 -0.1386
    7MPD2     C14249   3.034   3.603  11.567  0.2630  0.4050 -0.2016
    7MPD2    C114250   2.966   3.551  11.669  0.0091 -0.0531 -0.0308
    7MPD2    C214251   3.000   3.424  11.714  0.3106  0.7392  0.4997
    7MPD2    C314252   3.091   3.346  11.644  0.5712  0.5292 -1.0386
    7MPD2    C414253   3.149   3.401  11.537  0.3222 -0.2697  0.2764
    7MPD2    C514254   3.133   3.532  11.504  0.1366 -0.4022  1.0659
    7MPD2     H14255   2.938   3.379  11.791 -1.3161  0.0862 -1.1778
    7MPD2    H114256   3.222   3.337  11.488  0.4325  1.0265 -1.2566
    7MPD2    H214257   3.018   3.704  11.532 -0.5751  0.1910 -0.4467
    7MPD2    H314258   3.174   3.570  11.410  0.0791  1.4540  1.7877
    7MPD2     N14259   3.126   3.216  11.687  0.1882 -0.6223 -0.4257
    7MPD2    H514260   3.186   3.167  11.621  2.1388  1.5162 -0.2583
    7MPD2    N114261   2.842   3.604  11.723 -0.0743 -0.3370 -0.0742
    7MPD2    H714262   2.795   3.540  11.785 -0.5276 -0.2985 -0.3802
    8TMC3    C114263   2.636   3.728  11.725  0.6699  0.9188 -0.9422
    8TMC3    C214264   2.551   3.715  11.622 -0.1517 -0.1067  0.5054
    8TMC3    C314265   2.487   3.593  11.610 -0.7277 -0.2052  0.0951
    8TMC3    C414266   2.612   3.641  11.831  0.3954 -0.2764 -0.2831
    8TMC3    C514267   2.517   3.542  11.830  0.0190  1.1852 -0.2676
    8TMC3    C614268   2.455   3.518  11.713 -0.6224 -0.2480  0.5201
    8TMC3     C14269   2.774   3.718  11.671  0.1014  0.3425 -0.0859
    8TMC3     O14270   2.793   3.781  11.566  0.5832 -0.3494  0.1342
    8TMC3     H14271   2.565   3.779  11.535 -1.1729 -0.9070 -0.2417
    8TMC3    H114272   2.674   3.648  11.919 -0.9918 -0.2512  0.6838
    8TMC3    H214273   2.392   3.430  11.717 -1.4328  0.2228 -1.8461
    8TMC3    C714274   2.580   3.426  11.882  0.0207 -0.1318 -0.0447
    8TMC3    C814275   2.461   3.539  11.477  0.5672 -0.2413  0.9180
    8TMC3    O114276   2.698   3.426  11.871 -0.1116  0.2921 -0.0322
    8TMC3    O214277   2.498   3.603  11.381  0.1370  0.1750 -0.3122
    9MPD2     C14278   2.231   3.269  11.372 -0.8308  0.0214  0.4835
    9MPD2    C114279   2.336   3.360  11.360 -0.2791  0.0380 -0.8620
    9MPD2    C214280   2.380   3.389  11.230 -0.2229 -0.2397 -0.1691
    9MPD2    C314281   2.353   3.308  11.118 -0.1822 -0.7052  0.2034
    9MPD2    C414282   2.262   3.207  11.140  0.0837 -0.4043  0.3301
    9MPD2    C514283   2.204   3.194  11.265  0.0021  0.6751 -0.1220
    9MPD2     H14284   2.443   3.475  11.210  0.9054 -0.2172  3.5684
    9MPD2    H114285   2.219   3.156  11.055 -0.4858  0.7563 -0.0758
    9MPD2    H214286   2.178   3.261  11.466 -0.9233 -0.3327  0.4001
    9MPD2    H314287   2.129   3.116  11.276 -0.3095  1.1631  1.2083
    9MPD2     N14288   2.384   3.321  10.973 -0.8151  0.0234 -0.4028
    9MPD2    H514289   2.323   3.273  10.908  1.0288 -0.8808 -1.4712
    9MPD2    N114290   2.374   3.432  11.477  0.8215  0.6119  0.0022
    9MPD2    H714291   2.332   3.404  11.565 -0.1915  1.3207 -0.2614
    1MPD1     C14292   3.408   1.841  16.149 -0.2978  0.0127 -0.5284
    1MPD1    C114293   3.278   1.784  16.166 -0.9291 -0.5176  0.3851
    1MPD1    C214294   3.205   1.819  16.280  0.1792  0.2255  0.1586
    1MPD1    C314295   3.257   1.905  16.380  0.3521 -0.3365 -0.4827
    1MPD1    C414296   3.385   1.948  16.358 -0.1760  0.5679  0.2256
    1MPD1    C514297   3.458   1.926  16.247 -0.1713 -0.2678 -0.6275
    1MPD1     H14298   3.104   1.784  16.292  1.0118 -2.0694  0.5627
    1MPD1    H114299   3.435   2.007  16.435  0.9684  0.4212 -0.4139
    1MPD1    H214300   3.461   1.829  16.055  1.7475  1.9787  0.3731
    1MPD1    H314301   3.563   1.952  16.240 -0.2748 -0.0866 -1.4905
    1MPD1     N14302   3.179   1.957  16.494 -0.0003 -0.1081  0.0962
    1MPD1    H514303   3.225   2.022  16.558 -1.2222  0.0279  0.8387
    1MPD1    N114304   3.209   1.718  16.065 -0.7866 -0.5548  0.0632
    1MPD1    H614305   3.152   1.642  16.101  0.1071  0.0310  2.7053
    1MPD1    H714306   3.266   1.676  15.992  2.3500  3.1096  0.3821
    2TMC2    C114307   2.835   1.941  16.828 -0.8814  0.0968 -0.5122
    2TMC2    C214308   2.855   2.073  16.864  0.2426 -0.2225  0.0510
    2TMC2    C314309   2.960   2.137  16.806 -0.0551 -0.3243  0.0368
    2TMC2    C414310   2.915   1.880  16.731 -0.5725  0.3677 -0.6669
    2TMC2    C514311   3.018   1.944  16.674 -0.5626 -0.6860 -0.1997
    2TMC2    C614312   3.046   2.073  16.707 -0.1290 -0.2827  0.5590
    2TMC2     C14313   2.713   1.881  16.875  0.4089 -0.6563 -0.3492
    2TMC2     O14314   2.652   1.941  16.962  0.0280  0.3403 -0.1496
    2TMC2     H14315   2.799   2.122  16.943  0.0515 -0.2190 -0.0863
    2TMC2    H114316   2.893   1.782  16.689  0.7581 -0.9312  1.6906
    2TMC2    H214317   3.126   2.125  16.656 -0.2169 -0.6580  0.0412
    2TMC2    C714318   3.064   1.894  16.546 -0.3403  0.2819  0.0819
    2TMC2    C814319   2.983   2.281  16.815 -0.2387  1.3156  0.2523
    2TMC2    O114320   2.982   1.828  16.479 -0.7104  0.5679  0.1046
    2TMC2    O214321   3.090   2.325  16.780 -0.0459 -0.2459  0.5846
    2TMC2    O514322   2.868   2.350  16.848  0.8131 -0.1196 -0.5336
    2TMC2    H514323   2.789   2.293  16.840 -0.0608  1.1503 -0.9052
    3MPD1     C14324   2.378   1.481  16.903  0.0997 -0.0343  0.4107
    3MPD1    C114325   2.465   1.455  16.797  0.4353 -0.1991 -0.3533
    3MPD1    C214326   2.557   1.555  16.768  0.1506  0.3222  0.2552
    3MPD1    C314327   2.576   1.673  16.845 -0.3272 -0.6425 -0.1280
    3MPD1    C414328   2.493   1.688  16.950  0.2135  0.1644 -0.0927
    3MPD1    C514329   2.400   1.588  16.981 -0.3885 -0.9383  0.4946
    3MPD1     H14330   2.618   1.558  16.679 -0.0599 -0.7748  0.0786
    3MPD1    H114331   2.490   1.777  17.012 -0.2323  0.0163  0.0971
    3MPD1    H214332   2.292   1.419  16.926  1.8580 -2.8778 -0.6574
    3MPD1    H314333   2.342   1.607  17.071 -1.9262  0.1658 -0.7467
    3MPD1     N14334   2.675   1.766  16.810  0.3206 -0.2690 -0.1319
    3MPD1    H514335   2.743   1.731  16.743 -0.5973 -2.5236  0.0989
    3MPD1    N114336   2.461   1.348  16.712  0.3776  0.6204  0.6037
    3MPD1    H614337   2.432   1.260  16.755 -2.0297  1.2690  0.3071
    3MPD1    H714338   2.545   1.327  16.659 -0.1873  0.1862 -0.1278
    1TMC1    C114339   1.135   0.851  13.270  0.0507  0.4509 -0.8966
    1TMC1    C214340   1.163   0.824  13.139 -0.1813 -0.0536 -0.0010
    1TMC1    C314341   1.050   0.782  13.067  0.8278  0.2813 -0.3268
    1TMC1    C414342   1.013   0.868  13.325 -0.6626 -0.2533  0.1270
    1TMC1    C514343   0.910   0.824  13.251 -0.2894 -0.2337  0.2168
    1TMC1    C614344   0.925   0.788  13.121  0.5527  0.8294 -0.1509
    1TMC1     C14345   1.256   0.884  13.346  0.1854 -0.3332 -0.0827
    1TMC1     O14346   1.356   0.890  13.278 -0.6404  0.3390  0.1133
    1TMC1     H14347   1.263   0.823  13.096 -0.1466 -0.2643  0.0888
    1TMC1    H114348   0.992   0.910  13.423  3.6345  3.1566 -0.3931
    1TMC1    H214349   0.841   0.780  13.053  0.3322 -0.4241  0.2716
    1TMC1    C714350   0.778   0.818  13.300  0.0079  0.3928 -0.0076
    1TMC1    C814351   1.059   0.774  12.924  0.0522 -0.4869 -0.7155
    1TMC1    O114352   0.702   0.904  13.253 -0.1405  0.3620 -0.8633
    1TMC1    O214353   0.959   0.770  12.853  0.2690  0.0464  0.1696
    1TMC1    O314354   0.804   0.797  13.433  0.4689 -0.5583 -0.0692
    1TMC1    H314355   0.849   0.713  13.455  1.5110  0.0636  0.1895
    1TMC1    O514356   1.184   0.735  12.886  0.1768  0.5397 -0.2131
    1TMC1    H514357   1.246   0.708  12.957 -2.8848 -0.7043  1.9872
    2MPD2     C14358   1.475   0.952  13.520  0.8554  0.1263  0.1956
    2MPD2    C114359   1.367   0.888  13.570 -0.4528 -0.4614  0.4704
    2MPD2    C214360   1.367   0.846  13.706  0.3443 -0.3107 -0.2666
    2MPD2    C314361   1.484   0.870  13.777 -0.1150  0.2294  0.6234
    2MPD2    C414362   1.591   0.944  13.720  0.2194  0.4699  0.5175
    2MPD2    C514363   1.587   0.980  13.590  0.1371  0.1027 -0.0740
    2MPD2     H14364   1.280   0.795  13.746  1.4449 -1.9277  0.0588
    2MPD2    H114365   1.669   0.984  13.783  1.5072 -2.1897  0.6088
    2MPD2    H214366   1.485   0.998  13.423  0.7171 -1.5211 -0.6056
    2MPD2    H314367   1.669   1.030  13.539  0.5727  0.1930  0.7183
    2MPD2     N14368   1.491   0.812  13.904 -0.3148  0.4848  0.0824
    2MPD2    H514369   1.405   0.781  13.947 -0.3668  2.2178  1.2430
    2MPD2    N114370   1.250   0.860  13.486 -0.0488 -0.0754 -0.0520
    2MPD2    H714371   1.169   0.813  13.525 -0.4162  0.5999 -0.0057
    3TCq1    O114372   1.649   0.694  14.552 -0.6043 -0.6369  0.3218
    3TCq1    C114373   1.705   0.742  14.442 -0.4290 -0.0881  1.6567
    3TCq1    O214374   1.777   0.837  14.441 -0.0336 -0.3013  0.3042
    3TCq1    C214375   1.605   0.703  14.341 -0.0925 -0.4790 -0.5139
    3TCq1    C314376   1.487   0.640  14.355 -0.8902 -0.6024 -0.4338
    3TCq1    C414377   1.409   0.617  14.241 -0.2634  0.4832  0.2142
    3TCq1    C514378   1.443   0.681  14.119 -0.5557 -0.3295  0.8174
    3TCq1    C614379   1.566   0.742  14.107  0.0301 -0.1480  0.0986
    3TCq1    C714380   1.640   0.762  14.217 -0.4511 -0.1346 -0.7659
    3TCq1    C814381   1.602   0.816  13.985  0.5656  0.0842 -0.1821
    3TCq1    O414382   1.710   0.872  13.977 -0.1720 -0.3295  0.6381
    3TCq1    C914383   1.298   0.526  14.238  0.1593  0.2761 -0.2600
    3TCq1    O514384   1.219   0.533  14.137 -0.1661  0.3786 -0.9160
    3TCq1    O614385   1.328   0.427  14.313  0.8912  0.2696 -0.6771
    3TCq1    H114386   1.607   0.606  14.541 -2.0529 -0.1322  1.8421
    3TCq1    H214387   1.460   0.584  14.444  0.1979 -1.1415 -0.4435
    3TCq1    H314388   1.381   0.653  14.034 -0.4038  0.8674  0.3081
    3TCq1    H414389   1.735   0.813  14.206  0.2097 -0.5407  2.9264
    1MPD2     C14390   0.682   1.932  14.822 -0.2496  0.2534 -0.4388
    1MPD2    C114391   0.576   1.837  14.818 -0.4749 -0.0955  0.1621
    1MPD2    C214392   0.596   1.710  14.765  0.4255 -0.7171  0.0925
    1MPD2    C314393   0.711   1.677  14.705  0.3154  0.7363 -0.4784
    1MPD2    C414394   0.823   1.762  14.699 -0.2935  0.1956 -0.1337
    1MPD2    C514395   0.807   1.886  14.770 -0.0327 -0.2131  0.5956
    1MPD2     H14396   0.514   1.640  14.755  0.1473 -0.3366 -0.2820
    1MPD2    H114397   0.920   1.726  14.666 -1.2125 -1.0229 -1.5493
    1MPD2    H214398   0.677   2.032  14.863 -0.4806 -0.0142  0.1940
    1MPD2    H314399   0.889   1.955  14.787  0.6178 -0.3075 -2.2024
    1MPD2     N14400   0.694   1.558  14.630  0.1497  0.4121 -0.1748
    1MPD2    H514401   0.597   1.528  14.627 -0.2327  1.7313 -1.3318
    1MPD2    N114402   0.455   1.884  14.880 -0.2840  0.6323  0.3716
    1MPD2    H714403   0.458   1.983  14.905 -0.7250  0.8979 -0.6392
    2TMC3    C114404   0.232   1.885  14.944  0.2999  0.2748 -0.4354
    2TMC3    C214405   0.141   1.792  14.997  0.3464  0.6484  0.5413
    2TMC3    C314406   0.011   1.808  14.963  0.0703  0.2771 -0.5430
    2TMC3    C414407   0.201   1.977  14.849 -0.5906  0.4742 -0.1499
    2TMC3    C514408   0.068   1.987  14.810  0.0388 -0.6145 -0.2674
    2TMC3    C614409   4.702   1.904  14.870 -0.5845 -0.6134  0.1472
    2TMC3     C14410   0.346   1.807  14.917 -0.5985 -0.5527  0.3211
    2TMC3     O14411   0.337   1.682  14.924  0.3683 -0.3429 -0.2132
    2TMC3     H14412   0.164   1.717  15.072 -1.4071  0.0781  0.5019
    2TMC3    H114413   0.281   2.042  14.817  1.5205 -1.0011  2.0488
    2TMC3    H214414   4.603   1.892  14.828  0.2407 -2.0062 -1.4033
    2TMC3    C714415   0.026   2.058  14.694 -0.5715 -0.3782  0.5919
    2TMC3    C814416   4.685   1.678  14.920 -0.4876 -0.8394  0.5376
    2TMC3    O114417   4.640   2.034  14.658 -0.3950 -0.4122  0.2345
    2TMC3    O214418   4.565   1.676  14.890 -0.3274  0.1270  0.1619
    3TCq1    O114419   0.692   2.942  14.136  0.0565 -0.2549 -0.6353
    3TCq1    C114420   0.558   2.971  14.159  0.8087 -0.6786  0.7710
    3TCq1    O214421   0.475   2.980  14.067  0.2677  0.1669  0.0419
    3TCq1    C214422   0.538   2.898  14.281  0.5571  0.1448  0.0345
    3TCq1    C314423   0.600   2.917  14.399  0.5453  0.9759 -0.1092
    3TCq1    C414424   0.563   2.848  14.508  0.5920  0.1138  0.2780
    3TCq1    C514425   0.470   2.747  14.503 -0.1886 -0.5971 -0.1821
    3TCq1    C614426   0.400   2.737  14.384  0.2306 -0.0150  0.1599
    3TCq1    C714427   0.432   2.807  14.275  0.1002 -0.2086  0.7727
    3TCq1    C814428   0.282   2.654  14.358  0.0826 -0.4168 -0.6507
    3TCq1    O414429   0.203   2.690  14.275  0.2291 -0.0551 -0.2131
    3TCq1    C914430   0.645   2.862  14.629  0.1859 -0.4931  0.1607
    3TCq1    O514431   0.613   2.788  14.721  0.1382 -0.4962  0.4126
    3TCq1    O614432   0.714   2.964  14.641 -0.2627 -0.4342  0.1907
    3TCq1    H114433   0.740   2.897  14.208  1.4758  2.4030  0.0814
    3TCq1    H214434   0.684   2.986  14.409  0.1343  1.3156  1.0193
    3TCq1    H314435   0.444   2.686  14.589 -3.2257 -2.8721 -2.7573
    3TCq1    H414436   0.390   2.777  14.180  0.7044  1.5773 -0.0651
    4MPD2     C14437   0.083   2.429  14.351 -0.2022  1.1475  0.3135
    4MPD2    C114438   0.184   2.437  14.446 -0.4588 -0.4469  0.0692
    4MPD2    C214439   0.201   2.334  14.540 -0.1961 -0.2745 -0.3503
    4MPD2    C314440   0.102   2.241  14.547  0.1402 -0.0310  0.8987
    4MPD2    C414441   4.722   2.245  14.469  0.1766  0.3715  0.0276
    4MPD2    C514442   4.714   2.343  14.369 -0.9294  0.2810 -0.2708
    4MPD2     H14443   0.286   2.335  14.608 -0.1166  0.2666 -0.4506
    4MPD2    H114444   4.639   2.175  14.478 -0.8265  1.6175  0.4337
    4MPD2    H214445   0.067   2.495  14.267  1.8298  0.8214 -0.3228
    4MPD2    H314446   4.632   2.343  14.299 -1.9419  1.7975  0.9327
    4MPD2     N14447   0.118   2.145  14.652  0.1739  0.3890 -0.3340
    4MPD2    H514448   0.213   2.123  14.680 -0.8393 -1.8405  1.3303
    4MPD2    N114449   0.282   2.540  14.438  0.4731 -0.6382  0.4521
    4MPD2    H714450   0.358   2.535  14.505  0.4951  0.6353  0.5216
    5TMC2    C114451   0.511   1.281  14.560  0.7689 -0.4309 -0.8565
    5TMC2    C214452   0.550   1.170  14.638 -0.1456 -0.3092  0.3942
    5TMC2    C314453   0.684   1.155  14.652 -0.3486  0.0182  0.1308
    5TMC2    C414454   0.597   1.373  14.511  0.0132 -0.2083  1.0066
    5TMC2    C514455   0.732   1.355  14.547 -0.6274 -0.1226 -0.5056
    5TMC2    C614456   0.777   1.248  14.617  0.2919  0.1566  0.0599
    5TMC2     C14457   0.392   1.356  14.599  0.2878 -0.1033  0.1722
    5TMC2     O14458   0.411   1.477  14.597 -0.2704 -0.0622  0.1477
    5TMC2     H14459   0.478   1.092  14.661  1.4506 -1.4637  1.4587
    5TMC2    H114460   0.567   1.456  14.449 -0.8605 -1.5119 -0.3247
    5TMC2    H214461   0.883   1.250  14.644 -0.0186  0.4575  1.2616
    5TMC2    C714462   0.795   1.482  14.580 -0.3154 -0.1792 -0.1638
    5TMC2    C814463   0.730   1.067  14.755  0.5823 -0.4774 -0.5162
    5TMC2    O114464   0.913   1.495  14.588  0.4173  0.0870  0.2416
    5TMC2    O214465   0.848   1.037  14.759  0.1182 -0.1990  0.7485
    5TMC2    O514466   0.670   1.135  14.856  0.2191  0.0226  0.1101
    5TMC2    H514467   0.572   1.126  14.860  0.3574 -2.6592 -2.2678
    6MPD2     C14468   4.667   1.411  14.784 -0.1590 -0.4127 -0.2715
    6MPD2    C114469   0.053   1.484  14.797  0.9712  0.1996  0.4338
    6MPD2    C214470   0.170   1.443  14.743 -0.3734 -0.0906  0.0328
    6MPD2    C314471   0.164   1.322  14.674 -0.0408 -0.1047 -0.9661
    6MPD2    C414472   0.044   1.252  14.659 -0.6334  0.1929  0.3379
    6MPD2    C514473   4.657   1.295  14.717  0.0143  0.0963 -0.0418
    6MPD2     H14474   0.262   1.493  14.771 -0.5421  0.3265 -0.1608
    6MPD2    H114475   0.051   1.161  14.600  0.4034  1.0192 -0.8070
    6MPD2    H214476   4.577   1.442  14.836  0.0847 -0.7899  0.3735
    6MPD2    H314477   4.558   1.253  14.705 -0.3839  0.7166  1.0921
    6MPD2     N14478   0.284   1.275  14.621  0.7380 -0.3651  0.1399
    6MPD2    H514479   0.285   1.177  14.595 -1.7451 -0.4896  0.4568
    6MPD2    N114480   0.059   1.600  14.875  0.5187 -0.4162  0.1284
    6MPD2    H714481   0.148   1.647  14.891  1.5928 -2.8361  1.3201
  945NH3     N114482   0.033   3.732   8.629  0.0594  0.3631 -0.1159
  945NH3     H214483   4.693   3.740   8.558  1.5440  0.2626 -1.6595
  945NH3     H314484   4.721   3.732   8.720 -0.1212  1.8773 -0.2132
  945NH3     H414485   0.060   3.635   8.617  2.1320  0.5897  2.5943
  946SOD     NA14486   0.889   1.305  15.250  0.3888  0.2169 -0.0722
  947SOD     NA14487   3.990   2.768  13.115  0.7837 -0.2498 -0.2814
  948SOD     NA14488   1.526   3.304   7.389 -0.1620  0.4195 -0.1633
  949SOD     NA14489   3.726   0.626   8.394 -0.1816  0.7400 -0.2819
  950SOD     NA14490   0.973   3.004   9.655  0.5288 -0.0202 -0.3992
  951SOD     NA14491   1.325   1.837  17.527  0.1933  0.4041 -0.0166
  952SOD     NA14492   2.619   3.587  17.428  0.2862 -0.1586 -0.2685
  953SOD     NA14493   2.204   3.845  16.062  0.2944  0.3049  0.0984
  954SOL     OW14494   1.086   2.638   4.698  0.5529 -0.2537  0.3425
  954SOL    HW114495   1.055   2.727   4.717  1.3786 -0.1449  1.1699
  954SOL    HW214496   1.057   2.590   4.776 -1.0751 -1.0970 -0.7825
  955SOL     OW14497   0.164   4.066   4.500  0.2112 -0.0925  0.2086
  955SOL    HW114498   0.176   3.972   4.484  0.6978 -0.1015  0.6314
  955SOL    HW214499   0.113   4.058   4.581  0.1231 -0.7730  0.0845
  956SOL     OW14500   4.254   1.535  15.736  0.2986 -0.7682 -0.0585
  956SOL    HW114501   4.176   1.485  15.759  0.2970 -0.4211  0.6766
  956SOL    HW214502   4.323   1.470  15.723  1.3759  0.2866  0.3532
  957SOL     OW14503   2.041   0.932   5.863 -0.0886  0.2500  0.0296
  957SOL    HW114504   2.103   0.929   5.790  1.1463 -3.1242  1.2400
  957SOL    HW214505   1.970   0.879   5.827 -0.0870  1.6637 -2.0454
  958SOL     OW14506   3.043   1.799  13.399  0.2339 -0.4478  0.0685
  958SOL    HW114507   3.050   1.777  13.492  1.3782  0.9981  0.3137
  958SOL    HW214508   3.043   1.894  13.394 -0.6798 -0.5780 -2.4004
  959SOL     OW14509   4.581   1.952   7.144 -0.1293  0.5573  0.0602
  959SOL    HW114510   4.673   1.932   7.123 -0.8645 -2.4796 -0.2492
  959SOL    HW214511   4.538   1.934   7.060  0.7816  2.2880 -0.7758
  960SOL     OW14512   3.564   0.299   2.173 -0.2032  0.2360  0.2325
  960SOL    HW114513   3.518   0.318   2.255 -2.4037  1.3665 -1.2352
  960SOL    HW214514   3.613   0.381   2.163 -0.4473  0.2611 -0.7588
  961SOL     OW14515   4.373   0.861  11.984  0.4218 -0.4054 -0.5042
  961SOL    HW114516   4.282   0.854  11.957 -0.2663  1.9305  1.1531
  961SOL    HW214517   4.392   0.947  11.946  1.4845 -0.4491 -0.0727
  962SOL     OW14518   3.737   4.341   9.056 -0.2897  0.1959  0.0953
  962SOL    HW114519   3.767   4.426   9.088  1.1433 -0.1534 -0.3377
  962SOL    HW214520   3.719   4.294   9.138  1.4713 -0.7786 -0.0794
  963SOL     OW14521   4.660   4.280   7.604  0.1548  0.1144  0.1966
  963SOL    HW114522   4.578   4.257   7.559  0.4046  0.0679 -0.2302
  963SOL    HW214523   4.635   4.283   7.697  0.3818 -0.0519  0.2613
  964SOL     OW14524   4.265   3.241  14.583  0.1936 -0.2388 -0.1281
  964SOL    HW114525   4.221   3.174  14.530  0.0120 -0.2876  0.0835
  964SOL    HW214526   4.354   3.208  14.578  0.7526  1.2810 -0.4087
  965SOL     OW14527   1.335   3.154   6.792  0.1936 -0.3542  0.2622
  965SOL    HW114528   1.324   3.239   6.751  1.9105  1.1130  2.8106
  965SOL    HW214529   1.290   3.089   6.738 -1.2155 -0.1473  1.1853
  966SOL     OW14530   3.992   1.282   7.719  0.6012  0.2982  0.6007
  966SOL    HW114531   3.947   1.364   7.739  3.8524  1.3610  3.6271
  966SOL    HW214532   3.914   1.239   7.684  1.0156  0.9357 -1.1166
  967SOL     OW14533   1.439   3.316  13.974  0.1572 -0.0110 -0.4497
  967SOL    HW114534   1.362   3.258  13.972  0.4129 -0.3755  0.0951
  967SOL    HW214535   1.402   3.399  13.944  1.8370  0.5119 -1.0576
  968SOL     OW14536   0.169   1.364   4.634 -0.4008  0.1995 -0.7412
  968SOL    HW114537   0.256   1.397   4.610 -1.0761  0.9275 -2.2225
  968SOL    HW214538   0.129   1.327   4.555 -0.0378 -2.6083  0.3825
  969SOL     OW14539   1.744   3.562  14.877 -0.4076  0.0419 -0.4903
  969SOL    HW114540   1.773   3.653  14.881  1.2470 -0.4427 -1.3394
  969SOL    HW214541   1.822   3.509  14.859 -0.8825 -0.0702 -2.2091
  970SOL     OW14542   4.235   1.266   6.023  0.0580  0.2036 -0.0846
  970SOL    HW114543   4.277   1.181   6.039 -1.0548 -0.1379  1.0100
  970SOL    HW214544   4.303   1.331   6.039  0.9392 -0.2311 -2.0364
  971SOL     OW14545   3.498   4.021   2.780  0.0542  0.4169 -0.9975
  971SOL    HW114546   3.490   4.019   2.684  1.2001 -3.2540 -0.9948
  971SOL    HW214547   3.439   4.095   2.797 -1.9234 -0.8151 -2.5087
  972SOL     OW14548   2.878   3.695   8.141  0.3631 -0.4750 -0.3169
  972SOL    HW114549   2.826   3.614   8.144 -0.9460  0.4189  1.1687
  972SOL    HW214550   2.798   3.747   8.142  2.2713  2.4191  0.5317
  973SOL     OW14551   3.625   3.755   3.137  0.1112 -0.1497 -0.0775
  973SOL    HW114552   3.641   3.700   3.060 -0.1232 -0.3803  0.0426
  973SOL    HW214553   3.636   3.684   3.200 -0.3008 -0.5944 -0.5078
  974SOL     OW14554   2.491   0.309   2.257  0.1096  0.1818 -0.0222
  974SOL    HW114555   2.552   0.237   2.239  1.1424  1.4508 -1.6545
  974SOL    HW214556   2.548   0.385   2.260  0.1748  0.1125  0.5080
  975SOL     OW14557   3.498   2.896   7.414 -0.3648  0.1864 -0.3500
  975SOL    HW114558   3.458   2.832   7.473 -1.3297  0.6958 -0.4576
  975SOL    HW214559   3.554   2.842   7.359 -1.1825 -0.9211 -0.0780
  976SOL     OW14560   3.524   4.110   2.472 -0.0689 -0.0540 -0.3853
  976SOL    HW114561   3.429   4.105   2.485  0.0228 -3.2826 -1.0081
  976SOL    HW214562   3.521   4.115   2.377 -0.9380 -0.8994 -0.4008
  977SOL     OW14563   2.846   3.243   2.032 -0.2883  0.0097 -0.1723
  977SOL    HW114564   2.760   3.252   1.991 -0.5992 -0.4101  0.3822
  977SOL    HW214565   2.905   3.306   1.990 -0.6166  0.2307 -0.2982
  978SOL     OW14566   1.396   2.552  15.247  0.0989  0.4540  0.1707
  978SOL    HW114567   1.424   2.575  15.159 -2.8427 -0.4233 -0.9779
  978SOL    HW214568   1.335   2.484  15.217 -0.4918  0.9876  0.1495
  979SOL     OW14569   3.198   0.269  12.043 -0.0088 -0.3269 -0.1200
  979SOL    HW114570   3.146   0.209  11.989 -0.1202  0.3067 -0.7095
  979SOL    HW214571   3.288   0.248  12.018 -0.3196 -0.5817 -0.9926
  980SOL     OW14572   3.383   3.917   3.451  0.7450  0.2695 -0.4283
  980SOL    HW114573   3.445   3.990   3.456  0.8003 -0.0335  3.3027
  980SOL    HW214574   3.420   3.864   3.521 -0.7572 -0.5190 -0.2337
  981SOL     OW14575   3.589   3.338   6.034  0.0854 -0.4866 -0.0497
  981SOL    HW114576   3.607   3.344   6.128  1.5160  0.3619 -0.3857
  981SOL    HW214577   3.604   3.244   6.027 -0.4897 -0.5387 -0.5732
  982SOL     OW14578   4.110   2.608  11.957  0.5563 -0.1466  0.4600
  982SOL    HW114579   4.111   2.699  11.985 -0.3616  0.5884 -1.8573
  982SOL    HW214580   4.027   2.620  11.911  1.8934  4.0897 -0.8982
  983SOL     OW14581   1.067   3.398   6.390  0.4449  0.5427 -0.0219
  983SOL    HW114582   1.158   3.403   6.421 -0.3055  1.6234  1.9900
  983SOL    HW214583   1.011   3.439   6.456  1.3600  2.7918 -0.6565
  984SOL     OW14584   3.619   1.477   7.173  0.7095  0.2106  0.0848
  984SOL    HW114585   3.575   1.492   7.090  0.3390  2.1113  0.6086
  984SOL    HW214586   3.571   1.403   7.208  0.0041  0.8622  0.5048
  985SOL     OW14587   3.935   1.348  12.018  0.4514  0.4936 -0.3183
  985SOL    HW114588   3.970   1.367  11.931  0.2544 -2.5988 -1.0757
  985SOL    HW214589   3.956   1.430  12.063  0.5119 -1.0145  2.4044
  986SOL     OW14590   3.360   0.782   9.104 -0.6168 -0.2798  0.3676
  986SOL    HW114591   3.450   0.755   9.122  0.4303  3.9826  1.4390
  986SOL    HW214592   3.339   0.839   9.178 -1.2493  1.7022 -1.3454
  987SOL     OW14593   0.713   0.812   9.656  0.9078 -0.6354 -0.6010
  987SOL    HW114594   0.684   0.854   9.737 -1.7195  0.4645 -2.1154
  987SOL    HW214595   0.631   0.799   9.609  0.9402  0.1037 -0.8741
  988SOL     OW14596   2.557   4.248   4.547 -1.0303  0.4303 -0.2603
  988SOL    HW114597   2.553   4.270   4.454  1.0633  2.0138  0.0173
  988SOL    HW214598   2.511   4.323   4.585 -1.8486  0.4878 -1.3672
  989SOL     OW14599   0.240   4.027   3.345  0.0137  0.5259 -0.1666
  989SOL    HW114600   0.305   4.011   3.413 -2.3500  0.0858  1.9728
  989SOL    HW214601   0.306   4.069   3.289 -1.0102  1.9271 -0.3114
  990SOL     OW14602   2.099   3.168   8.739 -0.0047 -0.0803  0.1160
  990SOL    HW114603   2.183   3.171   8.693 -0.0597 -0.2769  0.0028
  990SOL    HW214604   2.083   3.260   8.762 -0.7114 -0.1174 -0.2440
  991SOL     OW14605   0.584   1.860  17.279  0.1494 -0.1347  0.2602
  991SOL    HW114606   0.523   1.899  17.216 -0.0881 -1.8828 -0.5943
  991SOL    HW214607   0.530   1.866  17.358 -0.3290 -1.5083  0.0338
  992SOL     OW14608   3.402   1.294   6.165  0.2110 -0.4330  0.1228
  992SOL    HW114609   3.348   1.284   6.086 -0.7423 -1.2613  0.8895
  992SOL    HW214610   3.416   1.388   6.154 -0.4645 -0.6397 -2.5603
  993SOL     OW14611   3.408   1.337   3.124 -0.4672  0.4280  0.0621
  993SOL    HW114612   3.469   1.286   3.070 -0.6462 -0.8115  1.0249
  993SOL    HW214613   3.457   1.347   3.206 -3.5348  1.7327  1.7390
  994SOL     OW14614   0.270   0.083  16.698 -0.1758 -0.3402  0.8397
  994SOL    HW114615   0.309   0.110  16.615  0.5408 -0.6550  1.0748
  994SOL    HW214616   0.229   4.732  16.676 -1.4352  1.2672 -2.9388
  995SOL     OW14617   0.211   2.870   6.089 -0.8906  0.2085  0.0487
  995SOL    HW114618   0.236   2.916   6.008 -2.1672  0.8385  0.0074
  995SOL    HW214619   0.295   2.871   6.134 -0.6212  0.8926 -0.4722
  996SOL     OW14620   1.902   0.815  11.007 -0.1988  0.2946  0.1625
  996SOL    HW114621   1.835   0.873  11.044 -0.5955  0.1604 -0.3402
  996SOL    HW214622   1.987   0.855  11.027 -0.6296  0.1625  2.2100
  997SOL     OW14623   4.334   1.937   8.252  0.0442 -0.1526 -0.2326
  997SOL    HW114624   4.290   1.932   8.167  0.9242  0.1856 -0.7011
  997SOL    HW214625   4.257   1.926   8.308  0.1583  0.6027  0.0740
  998SOL     OW14626   2.816   2.172  12.202 -0.1947 -0.1973 -0.1523
  998SOL    HW114627   2.878   2.215  12.260 -0.2202  1.9809 -1.6886
  998SOL    HW214628   2.741   2.146  12.256  0.3868  0.9564  1.1891
  999SOL     OW14629   2.946   1.148   5.987 -0.2875 -0.9403  0.3083
  999SOL    HW114630   2.910   1.228   5.951  2.6369 -0.7018 -2.0821
  999SOL    HW214631   2.867   1.108   6.024 -0.1177  1.0873  2.8137
 1000SOL     OW14632   1.321   2.498   4.697 -0.2756  0.0699 -0.1470
 1000SOL    HW114633   1.239   2.547   4.710 -0.6962 -1.1544  1.8650
 1000SOL    HW214634   1.280   2.421   4.656 -0.1509 -0.4074  0.6180
 1001SOL     OW14635   0.662   0.758   2.524 -0.2692  0.3966 -0.3439
 1001SOL    HW114636   0.621   0.759   2.610  1.6501 -0.5074  0.6012
 1001SOL    HW214637   0.706   0.673   2.520  0.2642  0.6613 -0.1062
 1002SOL     OW14638   0.218   0.822   0.345 -0.3708  0.1577  0.4502
 1002SOL    HW114639   0.128   0.849   0.329 -0.9000 -1.8487 -0.0039
 1002SOL    HW214640   0.271   0.869   0.280 -2.7738  1.6653 -0.3801
 1003SOL     OW14641   1.496   1.973  17.419  0.4007  0.2283  0.3684
 1003SOL    HW114642   1.573   1.919  17.406 -0.9332 -1.0422 -2.3617
 1003SOL    HW214643   1.487   2.004  17.329 -0.3887 -0.7931  0.0980
 1004SOL     OW14644   2.511   2.421  11.188 -0.2339  0.7031 -0.4936
 1004SOL    HW114645   2.498   2.350  11.251  0.6836  2.2130  1.3977
 1004SOL    HW214646   2.496   2.501  11.239  0.2020 -1.2069  2.6508
 1005SOL     OW14647   4.110   4.283   9.720 -0.2472 -0.2102 -0.4632
 1005SOL    HW114648   4.124   4.203   9.770  0.2713  0.5585  0.6361
 1005SOL    HW214649   4.195   4.323   9.738 -1.2239  1.1219  1.1916
 1006SOL     OW14650   4.553   0.678   8.663  0.2255  0.0224  0.2479
 1006SOL    HW114651   4.573   0.596   8.708  1.5732  0.1362 -0.1403
 1006SOL    HW214652   4.481   0.710   8.717 -1.4228 -2.8968 -0.2474
 1007SOL     OW14653   2.565   1.738   4.351 -0.9570  0.3134 -0.0066
 1007SOL    HW114654   2.493   1.799   4.339  0.5695  1.6012 -2.6561
 1007SOL    HW214655   2.545   1.676   4.280 -3.9845  0.2288  0.9594
 1008SOL     OW14656   1.992   0.328   6.637  0.1101  0.0704  0.0676
 1008SOL    HW114657   2.035   0.403   6.595 -0.3944 -0.1966 -0.9126
 1008SOL    HW214658   2.072   0.278   6.658  0.6331  0.9471  0.1529
 1009SOL     OW14659   3.154   2.367   6.117 -0.1407 -0.2992  0.1445
 1009SOL    HW114660   3.110   2.385   6.201  1.7654 -1.5515  1.3971
 1009SOL    HW214661   3.242   2.378   6.151 -0.5582  0.6276  0.9444
 1010SOL     OW14662   4.539   0.274  17.504 -0.3880 -0.7214 -0.3504
 1010SOL    HW114663   4.485   0.220  17.447  0.4145 -1.9920  0.0853
 1010SOL    HW214664   4.553   0.216  17.579  0.2941 -2.3127 -1.7112
 1011SOL     OW14665   2.018   4.573   3.230  0.3736  0.1901 -0.4389
 1011SOL    HW114666   1.993   4.568   3.138  0.3791 -1.2580 -0.3761
 1011SOL    HW214667   2.105   4.533   3.224  0.7251  0.8430  0.4551
 1012SOL     OW14668   4.329   2.471   8.350  0.3179  0.2130  0.2843
 1012SOL    HW114669   4.406   2.442   8.398 -0.0921  0.2692  0.9747
 1012SOL    HW214670   4.372   2.512   8.275  0.6646  0.0240  0.3777
 1013SOL     OW14671   1.301   3.668   0.010  0.2133 -0.5308 -0.1492
 1013SOL    HW114672   1.335   3.720   0.083  1.9223  0.4413 -1.6180
 1013SOL    HW214673   1.300   3.730  17.665  0.1119  1.6187  1.6700
 1014SOL     OW14674   0.458   1.990   8.836  0.8240 -0.7348 -0.3505
 1014SOL    HW114675   0.407   1.912   8.857 -0.8492 -0.1377 -2.1688
 1014SOL    HW214676   0.385   2.049   8.855  1.4556  0.2367 -0.9588
 1015SOL     OW14677   0.151   2.994  10.541  0.2879 -0.4548  0.3665
 1015SOL    HW114678   0.235   2.948  10.537  1.3797  1.5840 -0.6027
 1015SOL    HW214679   0.153   3.010  10.635  0.7418  0.4696  0.1994
 1016SOL     OW14680   4.355   1.550   9.130 -0.3996  0.3164 -0.1208
 1016SOL    HW114681   4.322   1.611   9.196  0.3855  1.0771 -0.4317
 1016SOL    HW214682   4.314   1.597   9.058  1.2750  0.2831 -1.0907
 1017SOL     OW14683   0.236   0.867  15.491 -0.1121 -0.4959 -0.1205
 1017SOL    HW114684   0.313   0.896  15.541 -0.3167 -2.1481  1.1156
 1017SOL    HW214685   0.172   0.919  15.538 -1.6952 -1.7441 -0.9230
 1018SOL     OW14686   1.278   3.362   5.145 -0.5846 -0.6121 -0.7778
 1018SOL    HW114687   1.257   3.415   5.068 -1.9971 -0.0650 -0.0295
 1018SOL    HW214688   1.194   3.322   5.166  0.2332 -1.2287  1.2466
 1019SOL     OW14689   2.023   0.729   8.776  0.5894  0.6843  0.6156
 1019SOL    HW114690   2.030   0.666   8.705 -1.3114  1.0755  0.0803
 1019SOL    HW214691   1.932   0.726   8.806  0.9699 -0.1425  1.6834
 1020SOL     OW14692   1.774   1.457   7.534 -0.1441 -0.3425  0.1575
 1020SOL    HW114693   1.773   1.388   7.468 -0.7594  0.0154 -0.2009
 1020SOL    HW214694   1.810   1.525   7.477 -1.4253 -0.0449 -0.2973
 1021SOL     OW14695   2.668   1.868   1.661  0.1738 -0.2376 -0.7218
 1021SOL    HW114696   2.629   1.858   1.574 -1.9205  0.3244  0.1553
 1021SOL    HW214697   2.594   1.909   1.706  0.6734  0.4475 -0.5015
 1022SOL     OW14698   2.448   3.353   4.800 -0.5905  0.2158  0.4670
 1022SOL    HW114699   2.398   3.434   4.793 -1.6455 -0.3602  1.2171
 1022SOL    HW214700   2.380   3.291   4.772  1.3784 -1.9633  0.5503
 1023SOL     OW14701   1.279   2.387   6.532  0.3068 -0.1474  0.0485
 1023SOL    HW114702   1.292   2.311   6.475 -0.0339 -0.8688  0.9409
 1023SOL    HW214703   1.196   2.425   6.503 -0.0341 -0.5673  0.4741
 1024SOL     OW14704   0.595   4.560  13.672 -0.1175  0.3646  0.5277
 1024SOL    HW114705   0.598   4.648  13.711  0.2903  0.7747 -0.4345
 1024SOL    HW214706   0.519   4.563  13.613  0.8250 -0.6258 -0.7385
 1025SOL     OW14707   3.650   4.543  17.573 -0.1556 -0.3289  0.2371
 1025SOL    HW114708   3.702   4.621  17.593 -0.7197  0.1675 -0.2354
 1025SOL    HW214709   3.632   4.559  17.480 -1.5258 -0.1700  0.5330
 1026SOL     OW14710   3.175   0.667   7.886 -0.0123 -0.0719  0.4964
 1026SOL    HW114711   3.211   0.579   7.897  0.0701  0.0681  1.3499
 1026SOL    HW214712   3.093   0.667   7.936  0.0571 -1.1798  0.5959
 1027SOL     OW14713   2.245   2.988  12.403 -0.2993  0.0708 -0.3666
 1027SOL    HW114714   2.190   2.916  12.434 -1.3624  0.7465 -0.6895
 1027SOL    HW214715   2.335   2.958  12.416 -0.4874  0.0580  0.9004
 1028SOL     OW14716   3.256   4.110   6.477  0.3315  0.6092 -0.0754
 1028SOL    HW114717   3.214   4.113   6.563  0.1576  0.2912 -0.1463
 1028SOL    HW214718   3.188   4.142   6.417  0.1401 -0.7982 -0.6316
 1029SOL     OW14719   2.649   3.037   6.699 -0.2675 -0.2249  0.5009
 1029SOL    HW114720   2.717   3.045   6.632 -1.3375 -1.8461 -0.7942
 1029SOL    HW214721   2.623   3.128   6.712  0.8235  0.0323  0.9194
 1030SOL     OW14722   3.979   3.963  16.216  0.0779 -0.4114  0.5600
 1030SOL    HW114723   3.956   4.055  16.208  3.2240  0.3876  0.9010
 1030SOL    HW214724   4.005   3.945  16.126 -0.5606 -0.8590  0.4669
 1031SOL     OW14725   3.871   2.498   9.218  0.1143  0.1158 -0.4185
 1031SOL    HW114726   3.794   2.484   9.162  1.3984 -1.8517 -1.7020
 1031SOL    HW214727   3.912   2.416   9.189  2.0275  0.9406 -0.0577
 1032SOL     OW14728   2.925   4.469   8.041  0.4224  0.4898 -0.1785
 1032SOL    HW114729   2.891   4.401   7.983  1.9489 -0.2506 -0.1949
 1032SOL    HW214730   2.857   4.476   8.108  0.0772 -2.6912 -0.1717
 1033SOL     OW14731   0.361   4.301   3.648 -0.2476 -0.4847  0.0814
 1033SOL    HW114732   0.372   4.313   3.554  0.6570  0.8705  0.3542
 1033SOL    HW214733   0.291   4.236   3.649  0.8492 -1.6705 -2.3183
 1034SOL     OW14734   1.864   2.666   3.792 -0.2187 -0.0490  0.4901
 1034SOL    HW114735   1.809   2.617   3.853  1.2026 -2.5562 -0.2647
 1034SOL    HW214736   1.893   2.597   3.733  0.2669  1.1412 -0.6574
 1035SOL     OW14737   3.764   4.481   7.260 -0.2394 -0.1515 -0.3878
 1035SOL    HW114738   3.680   4.440   7.284 -0.3327 -0.8011 -1.8461
 1035SOL    HW214739   3.744   4.566   7.300  0.4223  0.5963 -1.6629
 1036SOL     OW14740   2.045   4.426   6.198  0.4793 -1.0292 -0.0936
 1036SOL    HW114741   1.968   4.446   6.144  0.1108 -0.0184  0.8137
 1036SOL    HW214742   2.039   4.486   6.272 -1.5214 -3.2058  1.5025
 1037SOL     OW14743   2.599   1.027   8.942 -0.0072 -1.0047  0.0322
 1037SOL    HW114744   2.685   1.008   8.980  1.2622 -0.2707 -2.4765
 1037SOL    HW214745   2.557   1.061   9.021  1.3071  0.0649  0.2548
 1038SOL     OW14746   3.182   2.892   4.021  0.9449 -0.1250  0.2452
 1038SOL    HW114747   3.193   2.798   4.038  1.0316 -0.2159 -0.3195
 1038SOL    HW214748   3.205   2.901   3.929 -0.1986 -2.1693 -0.2269
 1039SOL     OW14749   2.283   3.779   4.234  0.5213  0.7578 -0.0391
 1039SOL    HW114750   2.377   3.783   4.250  0.5943 -1.5744  0.1636
 1039SOL    HW214751   2.278   3.684   4.225  0.2275  0.6704  1.0279
 1040SOL     OW14752   0.622   3.748   5.485 -0.0581 -0.0843  0.3606
 1040SOL    HW114753   0.542   3.708   5.450 -0.1260  0.3149  0.0566
 1040SOL    HW214754   0.684   3.735   5.413 -3.4887 -1.6755 -2.3419
 1041SOL     OW14755   2.839   1.650   3.596 -0.4180 -0.2605 -0.3202
 1041SOL    HW114756   2.781   1.627   3.669  0.8888  0.8554  1.0541
 1041SOL    HW214757   2.904   1.708   3.634 -1.0569  0.4830 -0.3646
 1042SOL     OW14758   3.155   4.391  17.027  0.1594  0.0799  0.2674
 1042SOL    HW114759   3.060   4.405  17.023  0.2580 -0.0117 -2.3616
 1042SOL    HW214760   3.175   4.459  17.092  0.2139  1.3881 -1.1082
 1043SOL     OW14761   0.790   3.439   5.407  0.1270 -0.4720  0.5483
 1043SOL    HW114762   0.841   3.360   5.386  0.9133  0.4529 -0.9974
 1043SOL    HW214763   0.775   3.435   5.501  0.0403 -0.6631  0.5280
 1044SOL     OW14764   4.089   0.993   2.504 -0.3205 -0.5968 -0.4856
 1044SOL    HW114765   4.146   0.933   2.456  0.0075 -0.2826 -0.4968
 1044SOL    HW214766   4.074   1.061   2.439  0.0558 -1.6530 -1.6771
 1045SOL     OW14767   1.919   3.901   1.717  0.0034 -0.0230  0.0800
 1045SOL    HW114768   1.960   3.956   1.783 -1.7035  0.3333  0.8407
 1045SOL    HW214769   1.997   3.879   1.665  1.0302  1.0577  1.1695
 1046SOL     OW14770   2.909   1.192  14.719  0.5326  0.1757 -0.0665
 1046SOL    HW114771   2.909   1.150  14.805 -1.7425 -0.0269 -0.1533
 1046SOL    HW214772   2.818   1.169  14.696 -0.2582  0.6349  2.6233
 1047SOL     OW14773   3.160   4.211   4.655  0.0957  0.2100  0.1231
 1047SOL    HW114774   3.139   4.130   4.701 -1.0731  0.9183  0.8400
 1047SOL    HW214775   3.104   4.205   4.577 -0.0047  1.3999  0.1018
 1048SOL     OW14776   1.998   3.233   4.349  0.2697  0.3342  0.1714
 1048SOL    HW114777   1.923   3.192   4.392 -0.0810  0.0285 -0.7208
 1048SOL    HW214778   1.984   3.207   4.258  0.3176  0.6843  0.0638
 1049SOL     OW14779   0.470   0.365  17.412 -0.0585 -0.2153 -0.1347
 1049SOL    HW114780   0.471   0.299  17.482 -1.3588 -1.5274 -1.3714
 1049SOL    HW214781   0.560   0.398  17.416 -0.7190  1.4009  1.3049
 1050SOL     OW14782   3.357   3.590   2.376  0.0850  0.1398  0.3286
 1050SOL    HW114783   3.438   3.588   2.325  0.1674  2.2753  0.3884
 1050SOL    HW214784   3.326   3.679   2.363 -0.1289 -0.3394 -2.5920
 1051SOL     OW14785   4.732   3.046   4.086 -0.2487 -0.2632  0.3566
 1051SOL    HW114786   4.720   2.969   4.030 -1.2558  1.0936 -1.2555
 1051SOL    HW214787   4.684   3.110   4.034 -0.9726 -0.1994  1.0989
 1052SOL     OW14788   1.215   0.613   2.052  0.1290 -0.3936  0.0790
 1052SOL    HW114789   1.160   0.646   2.123 -0.5108 -1.0567 -0.1158
 1052SOL    HW214790   1.279   0.683   2.039 -0.5917  0.0215 -1.2395
 1053SOL     OW14791   2.126   0.115  13.110  0.1985  0.2063 -0.1167
 1053SOL    HW114792   2.217   0.089  13.120  0.7449  2.4385  0.7920
 1053SOL    HW214793   2.138   0.206  13.136  0.3424 -0.2109  1.2713
 1054SOL     OW14794   3.463   0.477   4.522 -0.0966 -0.0210  0.3667
 1054SOL    HW114795   3.451   0.526   4.440 -0.0005  0.1260  0.4394
 1054SOL    HW214796   3.543   0.506   4.566 -0.1123  0.9777 -0.2745
 1055SOL     OW14797   1.151   0.519   3.712  0.4114  0.4161  0.3574
 1055SOL    HW114798   1.163   0.604   3.671 -3.1380  0.1503 -1.1994
 1055SOL    HW214799   1.227   0.478   3.670  1.2181 -0.0741  2.2715
 1056SOL     OW14800   3.329   4.404   4.083 -0.3217  0.0957  0.1129
 1056SOL    HW114801   3.419   4.396   4.116  0.0127 -1.8015 -1.2399
 1056SOL    HW214802   3.340   4.461   4.006  0.4281 -0.2223 -0.0239
 1057SOL     OW14803   3.177   1.578   1.968 -0.0736 -0.7109  0.7272
 1057SOL    HW114804   3.094   1.609   2.005  1.3934  1.5325  2.1601
 1057SOL    HW214805   3.246   1.606   2.028 -0.2168 -1.9843  1.4764
 1058SOL     OW14806   0.912   0.744   4.727 -0.0425 -0.2323 -0.1682
 1058SOL    HW114807   0.963   0.673   4.765 -0.2828 -0.6798 -0.6718
 1058SOL    HW214808   0.873   0.777   4.808 -1.3644 -0.1951 -0.8181
 1059SOL     OW14809   0.333   1.274   8.525  0.0605  0.3318 -0.0968
 1059SOL    HW114810   0.302   1.225   8.449 -0.7340  0.6646  0.0186
 1059SOL    HW214811   0.257   1.262   8.582 -0.0739 -0.3241 -0.4137
 1060SOL     OW14812   4.705   0.193  11.245 -0.0550  0.9158  0.4087
 1060SOL    HW114813   0.056   0.186  11.198 -1.3608 -1.3739 -1.5910
 1060SOL    HW214814   4.729   0.255  11.314 -0.1945  1.3162  0.0991
 1061SOL     OW14815   4.515   3.220   0.653 -0.5349  0.3898  0.6818
 1061SOL    HW114816   4.505   3.151   0.718  3.6662 -0.6099  0.2848
 1061SOL    HW214817   4.430   3.212   0.610 -0.8342  0.5376  1.2580
 1062SOL     OW14818   3.932   4.695   4.642 -0.0065 -0.2541 -0.3721
 1062SOL    HW114819   3.867   0.015   4.594  0.9130  0.1228 -1.2015
 1062SOL    HW214820   3.963   4.645   4.567 -2.1731  0.6107 -1.8545
 1063SOL     OW14821   1.466   0.119   4.687  0.4203 -0.4056  0.1524
 1063SOL    HW114822   1.557   0.103   4.711  0.7862  0.9381 -0.3378
 1063SOL    HW214823   1.456   0.091   4.595  0.6357  1.9146 -0.5674
 1064SOL     OW14824   1.127   3.551   2.135  0.5736 -0.1386  0.2548
 1064SOL    HW114825   1.219   3.539   2.112  0.6475  0.1094  0.4167
 1064SOL    HW214826   1.079   3.573   2.055  0.3261 -1.2598  0.0891
 1065SOL     OW14827   3.715   1.831  10.302  0.2597  0.0884  0.6060
 1065SOL    HW114828   3.806   1.847  10.325  0.3023  1.4689 -0.5500
 1065SOL    HW214829   3.669   1.808  10.384 -0.2725  2.6630  1.0465
 1066SOL     OW14830   0.966   0.521   6.759 -0.3433 -0.5923 -0.9504
 1066SOL    HW114831   0.910   0.598   6.765  1.8003  0.7110  2.2304
 1066SOL    HW214832   1.056   0.554   6.764 -0.6118  0.1652 -1.1635
 1067SOL     OW14833   1.864   2.837   2.422 -0.3270  0.4476  0.4248
 1067SOL    HW114834   1.827   2.828   2.509  0.5920 -0.4112  0.7323
 1067SOL    HW214835   1.846   2.746   2.399  1.0282 -0.0816  1.4368
 1068SOL     OW14836   2.672   3.201   4.700 -0.1279 -0.1204 -0.3015
 1068SOL    HW114837   2.637   3.130   4.753 -1.2251 -1.3524 -2.7247
 1068SOL    HW214838   2.653   3.276   4.758 -1.3261 -0.2166 -0.5789
 1069SOL     OW14839   3.848   0.806   5.065 -0.1245  0.4887  0.4692
 1069SOL    HW114840   3.838   0.822   5.158 -1.8262  1.1113  0.1770
 1069SOL    HW214841   3.828   0.889   5.021  0.5535  0.8327  0.8146
 1070SOL     OW14842   2.845   2.410  10.251 -0.3981 -0.2027  0.7361
 1070SOL    HW114843   2.888   2.325  10.255  0.4488  0.1638 -0.6936
 1070SOL    HW214844   2.754   2.381  10.260  0.3095 -2.1721  1.4329
 1071SOL     OW14845   4.723   1.624   2.342 -0.5522 -0.0796 -0.0114
 1071SOL    HW114846   0.083   1.617   2.317  0.0066  0.5844  1.8336
 1071SOL    HW214847   4.666   1.563   2.295 -1.3657 -0.7206  1.8332
 1072SOL     OW14848   0.433   0.041  12.444 -0.2416 -0.2051 -0.5430
 1072SOL    HW114849   0.425   0.126  12.401 -2.3175 -1.4230 -2.5353
 1072SOL    HW214850   0.526   0.030  12.426  0.4892  0.4199  2.8278
 1073SOL     OW14851   0.978   4.162   8.734  0.9154  0.4399 -0.1858
 1073SOL    HW114852   0.891   4.148   8.696  1.4221 -0.6977 -0.9092
 1073SOL    HW214853   0.976   4.245   8.782 -1.3817 -0.8055  1.8567
 1074SOL     OW14854   4.571   0.632   7.279  1.1158  0.4588  0.0083
 1074SOL    HW114855   4.545   0.683   7.355 -0.5900  0.8192 -0.8119
 1074SOL    HW214856   4.530   0.547   7.296 -3.1414  1.8500 -3.3822
 1075SOL     OW14857   0.297   4.332   2.695 -0.0607  0.1495 -0.2985
 1075SOL    HW114858   0.205   4.317   2.672  0.0427  1.6257 -1.6821
 1075SOL    HW214859   0.304   4.318   2.790 -1.4075  0.2675 -0.1709
 1076SOL     OW14860   0.567   4.642   0.496 -0.4631  0.4043  0.2853
 1076SOL    HW114861   0.637   4.707   0.495 -0.3277  0.2657  0.7069
 1076SOL    HW214862   0.573   4.616   0.404 -0.7774  1.7547 -0.1103
 1077SOL     OW14863   0.628   0.601   4.981 -0.1062  0.0706 -0.1613
 1077SOL    HW114864   0.722   0.589   4.966  0.2786 -0.3445  2.6386
 1077SOL    HW214865   0.635   0.626   5.073 -0.6175  2.1221 -0.6595
 1078SOL     OW14866   2.542   0.165  13.559  0.1889  0.0938 -0.5114
 1078SOL    HW114867   2.577   0.188  13.645 -0.0612 -1.2598 -0.0531
 1078SOL    HW214868   2.569   0.074  13.555  1.9095  0.4767  2.9118
 1079SOL     OW14869   2.422   3.625   4.963 -0.0369  0.1583 -0.0082
 1079SOL    HW114870   2.414   3.647   4.870  2.3315  0.2178 -0.1984
 1079SOL    HW214871   2.329   3.619   4.982  0.3090  0.5730  1.7970
 1080SOL     OW14872   2.802   3.810   3.307 -0.3644  0.0855 -0.4844
 1080SOL    HW114873   2.737   3.818   3.378 -0.1096  2.4621 -0.5366
 1080SOL    HW214874   2.882   3.842   3.348 -0.0580 -0.3822 -0.7259
 1081SOL     OW14875   2.044   2.648   4.610 -0.4703 -0.0684  0.1725
 1081SOL    HW114876   2.001   2.656   4.525 -0.1841  2.5240  0.2855
 1081SOL    HW214877   1.981   2.694   4.665 -0.1838 -0.5937  0.9491
 1082SOL     OW14878   1.125   1.905   6.080 -0.3662  0.5505  0.0321
 1082SOL    HW114879   1.191   1.872   6.018 -1.5660 -1.1561 -0.3416
 1082SOL    HW214880   1.125   1.830   6.139 -2.4556  1.1855  0.8149
 1083SOL     OW14881   0.767   3.436   5.945  0.4876  0.2950 -0.1710
 1083SOL    HW114882   0.696   3.423   6.008  0.2989 -2.3789 -0.9340
 1083SOL    HW214883   0.833   3.388   5.995  0.5328  0.6084  0.0686
 1084SOL     OW14884   3.700   1.456   8.686 -0.2596 -0.7644  0.3397
 1084SOL    HW114885   3.660   1.389   8.742 -1.0308  1.1452  2.0623
 1084SOL    HW214886   3.641   1.531   8.687 -1.8117 -1.9769  0.9473
 1085SOL     OW14887   1.737   4.556   1.646  0.1948  0.6047 -0.0783
 1085SOL    HW114888   1.703   4.466   1.650 -0.8870  0.9117 -2.2156
 1085SOL    HW214889   1.661   4.609   1.622 -0.2024 -0.7833 -1.9009
 1086SOL     OW14890   0.739   0.637   0.442 -0.7188 -0.1668  0.4435
 1086SOL    HW114891   0.790   0.713   0.470 -0.6519  0.5402 -1.6178
 1086SOL    HW214892   0.732   0.596   0.528 -2.4643  1.4506  1.0850
 1087SOL     OW14893   2.173   0.539   6.540  0.3375  0.6805 -0.0159
 1087SOL    HW114894   2.162   0.587   6.458 -0.6217  3.3574  1.6795
 1087SOL    HW214895   2.235   0.591   6.590  1.1163  0.5158 -0.8188
 1088SOL     OW14896   0.662   3.627   2.824  0.4609 -0.2588 -0.5276
 1088SOL    HW114897   0.605   3.603   2.751  0.9543  1.0982 -1.3548
 1088SOL    HW214898   0.609   3.593   2.896  1.8574 -1.5814 -0.1273
 1089SOL     OW14899   1.540   0.134  15.638 -0.0957 -0.2391  0.1583
 1089SOL    HW114900   1.564   0.216  15.594  0.2779 -0.4376 -0.0095
 1089SOL    HW214901   1.596   0.069  15.596 -0.8085 -0.3856 -0.5807
 1090SOL     OW14902   3.938   2.134  10.469  0.3355 -0.0755 -0.1790
 1090SOL    HW114903   3.973   2.062  10.521  2.1102  1.6282  0.9266
 1090SOL    HW214904   3.843   2.126  10.480  0.2930  1.4218  0.4928
 1091SOL     OW14905   0.448   0.240   1.166 -0.1130  0.0587 -0.2176
 1091SOL    HW114906   0.411   0.159   1.133 -1.3561  0.5218  0.0540
 1091SOL    HW214907   0.505   0.269   1.095  0.4251  0.9431  0.5755
 1092SOL     OW14908   4.079   1.636   8.200 -0.2067 -0.0405 -0.0861
 1092SOL    HW114909   4.122   1.560   8.161 -2.9603 -1.9609  0.6196
 1092SOL    HW214910   4.014   1.652   8.132  0.6327 -0.2070 -0.9120
 1093SOL     OW14911   1.455   3.876   5.889 -0.2008  0.4150  0.0478
 1093SOL    HW114912   1.518   3.877   5.962  1.0123 -2.2241 -0.9764
 1093SOL    HW214913   1.508   3.931   5.831 -1.3235  0.3613 -1.0136
 1094SOL     OW14914   3.987   3.703   8.938 -0.3445 -0.6235  0.4229
 1094SOL    HW114915   3.961   3.625   8.985  0.2772  0.6489  2.8733
 1094SOL    HW214916   3.899   3.740   8.933  1.4979  3.4911 -2.7304
 1095SOL     OW14917   2.441   1.013   7.592 -0.7572  0.6706  0.3538
 1095SOL    HW114918   2.380   1.029   7.520 -2.1103 -0.4212  1.2556
 1095SOL    HW214919   2.469   1.104   7.605 -0.2651  0.1733  2.8012
 1096SOL     OW14920   1.029   2.062   4.503 -0.4918 -0.5112 -0.0872
 1096SOL    HW114921   0.947   2.054   4.454 -2.0002 -1.3089  2.5533
 1096SOL    HW214922   0.994   2.075   4.592  1.9255 -1.5309  1.0260
 1097SOL     OW14923   2.968   2.247   4.085 -0.6869  0.0175  0.3004
 1097SOL    HW114924   2.993   2.189   4.013  0.0363  0.0913  0.4932
 1097SOL    HW214925   3.008   2.200   4.158  0.4807  1.7332  0.7427
 1098SOL     OW14926   4.584   0.158   5.781  0.1352 -0.3516  0.5302
 1098SOL    HW114927   4.554   0.075   5.819 -1.0245 -1.0283 -1.8628
 1098SOL    HW214928   4.517   0.224   5.796  2.2163  1.5304  1.4908
 1099SOL     OW14929   0.594   3.276   2.072  0.4048 -0.4916 -0.1495
 1099SOL    HW114930   0.552   3.190   2.067 -0.4228 -0.2550  2.6192
 1099SOL    HW214931   0.688   3.256   2.070  1.0670  2.6725  0.3864
 1100SOL     OW14932   3.385   3.542   4.972  0.3960  0.3467 -0.0343
 1100SOL    HW114933   3.461   3.485   4.983  1.3276  0.9335 -3.3419
 1100SOL    HW214934   3.423   3.630   4.980  1.8838 -0.3015  0.1074
 1101SOL     OW14935   3.829   0.147   9.283  0.7809  0.8753  0.0177
 1101SOL    HW114936   3.867   0.104   9.207 -1.7659  0.1212 -0.8127
 1101SOL    HW214937   3.856   0.101   9.363  3.0260  2.7064  0.3011
 1102SOL     OW14938   1.584   2.423   2.355 -0.6788 -0.0577  0.2468
 1102SOL    HW114939   1.558   2.333   2.377 -0.0232 -0.7642 -1.8859
 1102SOL    HW214940   1.505   2.476   2.357 -2.2439 -2.3363 -1.1888
 1103SOL     OW14941   1.539   3.700   3.700  0.6176  0.0895 -0.4308
 1103SOL    HW114942   1.504   3.612   3.711 -1.3910  0.9620  0.0603
 1103SOL    HW214943   1.628   3.686   3.732  0.5652  0.8068  0.0507
 1104SOL     OW14944   0.218   1.485   7.928  0.4175 -0.0674 -0.6240
 1104SOL    HW114945   0.154   1.447   7.989  2.9232  0.1267  2.1512
 1104SOL    HW214946   0.255   1.536   8.001  0.4414 -0.4212 -0.3873
 1105SOL     OW14947   3.771   0.156   8.599  0.4513  0.3143 -0.0425
 1105SOL    HW114948   3.829   0.229   8.579  0.0357  0.9164  0.9193
 1105SOL    HW214949   3.827   0.115   8.665 -0.5032 -0.0373  0.5499
 1106SOL     OW14950   2.714   4.384   6.805 -0.0735 -0.6118  0.7527
 1106SOL    HW114951   2.703   4.314   6.869 -0.3143  0.0105  1.3936
 1106SOL    HW214952   2.687   4.342   6.723 -1.1461  1.3574  0.0975
 1107SOL     OW14953   0.978   2.070   6.394 -0.3268 -0.0065  0.3379
 1107SOL    HW114954   0.927   2.071   6.313  1.1894  1.4277 -0.6086
 1107SOL    HW214955   0.998   2.162   6.376 -0.7928 -0.2599 -1.5281
 1108SOL     OW14956   1.127   4.694   7.829  0.0916 -0.4534 -0.2104
 1108SOL    HW114957   1.095   4.659   7.912  2.2802 -2.0225 -0.0371
 1108SOL    HW214958   1.085   0.047   7.839  4.5842  1.6043  0.9929
 1109SOL     OW14959   1.849   0.787   9.718  0.0426  0.3192 -0.2645
 1109SOL    HW114960   1.852   0.879   9.692 -0.1676 -0.3958 -2.8267
 1109SOL    HW214961   1.840   0.810   9.810  1.3094 -1.6063  0.3406
 1110SOL     OW14962   4.514   3.468   5.329  0.3316  0.4287  0.6829
 1110SOL    HW114963   4.603   3.434   5.330  0.1272 -0.1379 -0.7717
 1110SOL    HW214964   4.484   3.414   5.402  1.8406 -0.7899  0.3895
 1111SOL     OW14965   3.521   4.690   7.105  0.0590 -0.6840 -0.2886
 1111SOL    HW114966   3.584   4.665   7.037  1.7770  0.7792  0.7516
 1111SOL    HW214967   3.519   4.621   7.171 -0.2245 -0.2135  0.1977
 1112SOL     OW14968   4.003   4.416   1.522  0.1643  0.0580 -0.6724
 1112SOL    HW114969   4.027   4.508   1.516 -2.4274  0.6470 -1.7349
 1112SOL    HW214970   3.912   4.424   1.548  0.1128 -1.5028 -0.3856
 1113SOL     OW14971   0.500   4.091   5.376  0.1844  0.6038 -0.7291
 1113SOL    HW114972   0.462   4.089   5.289  1.9990 -0.9237 -1.4800
 1113SOL    HW214973   0.509   4.186   5.385 -1.8157  0.6979  0.2918
 1114SOL     OW14974   2.079   3.419   8.795  0.2433  0.1942 -0.2854
 1114SOL    HW114975   2.076   3.437   8.889  0.2454  0.7635 -0.3938
 1114SOL    HW214976   2.009   3.476   8.763 -2.3955 -1.7069  2.1245
 1115SOL     OW14977   3.219   2.004  15.908  0.2851 -0.1179  0.2526
 1115SOL    HW114978   3.141   1.992  15.854  1.7354  1.1774 -2.1271
 1115SOL    HW214979   3.221   1.915  15.942  0.3551 -0.4098 -0.5245
 1116SOL     OW14980   3.372   1.534  15.870  0.1547  0.2857  0.2064
 1116SOL    HW114981   3.353   1.443  15.846  0.5135  0.6000 -1.2529
 1116SOL    HW214982   3.409   1.574  15.792  0.7917  2.4365  1.6208
 1117SOL     OW14983   1.883   1.627   8.354  0.0690 -0.9145 -0.9867
 1117SOL    HW114984   1.915   1.717   8.364 -1.4203 -0.3932 -0.8842
 1117SOL    HW214985   1.838   1.630   8.438  0.8492 -1.3721 -0.5531
 1118SOL     OW14986   4.363   4.144  15.396 -0.4438  0.5491 -0.3393
 1118SOL    HW114987   4.428   4.114  15.333 -1.3932  0.5032 -1.2961
 1118SOL    HW214988   4.409   4.202  15.456 -0.2633 -1.1406  1.1534
 1119SOL     OW14989   3.579   3.116   2.953  0.2354  0.1132  0.4416
 1119SOL    HW114990   3.553   3.070   2.872  1.4569  0.4420 -0.1368
 1119SOL    HW214991   3.528   3.197   2.959 -0.4430 -0.1878 -1.0522
 1120SOL     OW14992   0.803   4.370  13.748 -0.2053  0.1561 -0.2309
 1120SOL    HW114993   0.771   4.338  13.833 -0.0258 -0.2005 -0.2973
 1120SOL    HW214994   0.735   4.435  13.729 -1.8042 -1.4442  0.0279
 1121SOL     OW14995   3.935   1.127  16.301  0.6837 -0.0076 -0.2229
 1121SOL    HW114996   3.910   1.035  16.304 -0.6261  0.3874  0.9899
 1121SOL    HW214997   3.860   1.170  16.343  0.3275 -0.5072 -0.3481
 1122SOL     OW14998   2.168   0.090   6.209  0.3724 -0.2449 -0.1723
 1122SOL    HW114999   2.091   0.046   6.174 -0.1593  1.4707 -1.1753
 1122SOL    HW215000   2.144   0.179   6.183 -0.0140 -0.2688  0.1016
 1123SOL     OW15001   4.405   2.515   7.586  0.3562 -0.1639  0.0699
 1123SOL    HW115002   4.387   2.436   7.535 -1.3359  1.4150 -1.7621
 1123SOL    HW215003   4.499   2.499   7.583  0.2749 -0.6188 -0.1041
 1124SOL     OW15004   0.852   4.652   3.309  0.0223  0.1957  0.2047
 1124SOL    HW115005   0.885   4.615   3.228 -0.6809  0.2334 -0.0950
 1124SOL    HW215006   0.761   4.672   3.288  0.1218 -0.4855 -0.8576
 1125SOL     OW15007   2.065   0.539   8.603 -0.6368 -0.1876 -0.0116
 1125SOL    HW115008   2.036   0.448   8.605  0.2136 -0.4113  2.1485
 1125SOL    HW215009   2.159   0.523   8.614 -0.4179 -0.0408 -1.6211
 1126SOL     OW15010   2.282   1.650   6.331  0.2036 -0.0096 -0.2658
 1126SOL    HW115011   2.210   1.676   6.273  0.0754 -1.6282 -0.8597
 1126SOL    HW215012   2.360   1.644   6.275  1.0520  1.9806  0.7245
 1127SOL     OW15013   1.438   2.421   1.582 -0.1468  0.5924  0.2285
 1127SOL    HW115014   1.442   2.376   1.498  0.5646  2.4060 -0.6965
 1127SOL    HW215015   1.357   2.471   1.571 -0.1914  0.3242 -0.6597
 1128SOL     OW15016   2.451   0.303   5.424  0.5618  0.1836  0.4370
 1128SOL    HW115017   2.391   0.377   5.416  0.3363  0.0428  0.8273
 1128SOL    HW215018   2.469   0.287   5.331  0.1863  1.8755  0.0568
 1129SOL     OW15019   4.639   4.188   5.534  0.5672 -0.6612 -0.7235
 1129SOL    HW115020   4.617   4.275   5.503  2.4800 -0.1819 -0.7602
 1129SOL    HW215021   4.554   4.145   5.522 -1.1238  2.8790 -1.2586
 1130SOL     OW15022   2.492   1.248   3.362 -0.4861 -0.5638  0.6162
 1130SOL    HW115023   2.538   1.327   3.389  0.0676 -0.4510 -0.6545
 1130SOL    HW215024   2.444   1.211   3.436 -1.3014 -0.3551  0.1975
 1131SOL     OW15025   1.753   1.356   9.611 -0.6725 -0.2449  0.2036
 1131SOL    HW115026   1.681   1.399   9.657 -0.0676  0.6003  0.3651
 1131SOL    HW215027   1.818   1.426   9.616  1.0367 -1.7893 -0.3451
 1132SOL     OW15028   4.424   1.000   1.259  0.2655  0.3643 -0.2552
 1132SOL    HW115029   4.406   0.956   1.176  2.7375 -0.6859 -0.2517
 1132SOL    HW215030   4.370   0.960   1.328 -1.9475  1.7546 -1.2017
 1133SOL     OW15031   4.368   3.581  12.085  0.3758  0.5447 -0.0096
 1133SOL    HW115032   4.294   3.605  12.029  1.0766 -0.2275 -1.2550
 1133SOL    HW215033   4.407   3.668  12.097  0.1073  0.8938 -1.5939
 1134SOL     OW15034   1.118   1.535   6.964  0.3817  0.5040 -0.5889
 1134SOL    HW115035   1.024   1.552   6.968 -0.3229 -3.0219 -1.8904
 1134SOL    HW215036   1.156   1.619   6.935  0.9599  0.6022  0.4536
 1135SOL     OW15037   3.971   0.428  10.263  0.0338 -0.7246 -0.0169
 1135SOL    HW115038   3.953   0.522  10.272 -0.1558 -0.5433 -2.3364
 1135SOL    HW215039   4.029   0.419  10.339 -2.5452  0.7551  2.1302
 1136SOL     OW15040   4.416   4.676   7.935  0.7115 -0.6405  0.1469
 1136SOL    HW115041   4.451   4.720   8.012  0.6651  0.4043 -0.4264
 1136SOL    HW215042   4.441   4.584   7.947 -0.4732 -1.1106 -0.9117
 1137SOL     OW15043   1.064   1.484  14.829  0.3776  0.4824 -0.0324
 1137SOL    HW115044   1.074   1.389  14.829 -0.1076  0.4411  1.5380
 1137SOL    HW215045   1.005   1.493  14.754 -0.2004 -0.8095  0.2581
 1138SOL     OW15046   3.698   1.324   4.299  0.0417  0.0163  0.0345
 1138SOL    HW115047   3.763   1.268   4.342  0.1412  0.5703  0.5949
 1138SOL    HW215048   3.763   1.390   4.278  1.9843 -2.0603 -0.4954
 1139SOL     OW15049   3.577   3.156   2.290  0.8178 -0.6934  0.0297
 1139SOL    HW115050   3.626   3.224   2.244 -2.2164  1.8927  0.5958
 1139SOL    HW215051   3.525   3.116   2.220 -0.1279  1.6290 -0.6075
 1140SOL     OW15052   4.213   0.567   8.652  0.1675  0.2473 -0.7288
 1140SOL    HW115053   4.250   0.547   8.566  1.0395 -0.0692 -0.2813
 1140SOL    HW215054   4.291   0.585   8.704  0.3480 -1.4827 -0.3832
 1141SOL     OW15055   0.874   2.991   5.268 -0.1928 -0.3328  0.2586
 1141SOL    HW115056   0.954   3.017   5.223 -1.7586  1.0345 -1.7514
 1141SOL    HW215057   0.904   2.965   5.355  0.1856 -1.5011 -0.2174
 1142SOL     OW15058   3.929   0.812  16.507 -0.2164  0.0243  0.2701
 1142SOL    HW115059   3.998   0.863  16.549  0.6716 -3.4509  3.0497
 1142SOL    HW215060   3.950   0.729  16.550  0.3290 -0.0265 -0.0966
 1143SOL     OW15061   2.160   2.473   6.239  0.5426  0.4504  0.2095
 1143SOL    HW115062   2.066   2.483   6.253  0.0266 -3.0586 -0.7423
 1143SOL    HW215063   2.163   2.419   6.160 -0.3520 -0.0088  0.4897
 1144SOL     OW15064   2.438   2.622   8.860 -0.3782  0.5181 -0.1220
 1144SOL    HW115065   2.507   2.579   8.910  0.3355  0.8458 -0.8026
 1144SOL    HW215066   2.365   2.618   8.921 -1.0564 -0.3579 -1.0007
 1145SOL     OW15067   2.355   1.427  15.709  0.0417 -0.7055  0.0630
 1145SOL    HW115068   2.411   1.497  15.744  1.5380 -2.0013  0.2420
 1145SOL    HW215069   2.382   1.428  15.617 -0.2912  0.9107 -0.0231
 1146SOL     OW15070   2.176   1.361   4.335 -0.3870 -0.1436  0.2453
 1146SOL    HW115071   2.103   1.312   4.371  0.2660 -0.3795  1.2484
 1146SOL    HW215072   2.244   1.296   4.351  1.0997  1.1066 -0.9430
 1147SOL     OW15073   3.064   2.330   5.220  0.1599 -0.0608 -0.0968
 1147SOL    HW115074   3.027   2.415   5.241 -1.2164 -0.0162 -2.7717
 1147SOL    HW215075   3.009   2.300   5.148 -0.2656 -2.1458  1.0823
 1148SOL     OW15076   4.328   2.329   4.193 -1.0387 -0.6041  0.2249
 1148SOL    HW115077   4.255   2.328   4.255 -0.7221  1.0503  0.6217
 1148SOL    HW215078   4.323   2.413   4.148  1.4470 -0.0660  0.9735
 1149SOL     OW15079   3.290   3.650   0.954  0.7627 -0.0046 -0.2008
 1149SOL    HW115080   3.280   3.558   0.980  1.2271  0.4549  1.6643
 1149SOL    HW215081   3.228   3.666   0.884 -0.0377 -0.9039  0.2977
 1150SOL     OW15082   4.202   4.692   6.474  0.3903  0.4412 -0.2215
 1150SOL    HW115083   4.223   4.707   6.566 -0.4263 -0.1458  0.0564
 1150SOL    HW215084   4.211   4.599   6.454 -1.9355 -0.3291  2.4446
 1151SOL     OW15085   0.361   4.409   6.177 -0.0043  1.1821 -0.4775
 1151SOL    HW115086   0.449   4.446   6.169  0.2085  1.1653  1.9639
 1151SOL    HW215087   0.309   4.460   6.115  0.3832  1.7071 -0.3705
 1152SOL     OW15088   0.491   0.389   2.777 -0.3304  0.2011 -0.6814
 1152SOL    HW115089   0.464   0.471   2.737 -3.8877 -1.1578 -1.0077
 1152SOL    HW215090   0.548   0.424   2.845  0.3923  0.7213 -1.5464
 1153SOL     OW15091   0.837   1.762   4.953  0.9806  0.0298 -0.0500
 1153SOL    HW115092   0.889   1.687   4.925 -2.4975 -1.6699 -1.8497
 1153SOL    HW215093   0.857   1.833   4.892  0.0332 -1.9937 -2.7381
 1154SOL     OW15094   1.340   2.716  10.190 -0.1579  0.6448 -0.2985
 1154SOL    HW115095   1.257   2.762  10.204 -0.9744 -0.5975 -1.0344
 1154SOL    HW215096   1.343   2.667  10.272 -0.6044 -0.4405 -0.9322
 1155SOL     OW15097   3.887   4.011   2.869  0.3449  0.4787 -0.0449
 1155SOL    HW115098   3.823   4.003   2.940  1.7919  1.2760  1.3458
 1155SOL    HW215099   3.973   3.996   2.906  0.8253 -1.0415 -1.7500
 1156SOL     OW15100   0.662   1.408   5.858 -0.0852  0.0206  0.1040
 1156SOL    HW115101   0.741   1.444   5.818 -1.5392  1.6542 -1.2682
 1156SOL    HW215102   0.699   1.394   5.946  0.0597 -0.2270  0.0043
 1157SOL     OW15103   4.300   1.784  14.324 -0.1922  0.4057  0.2824
 1157SOL    HW115104   4.291   1.697  14.362  0.2756  0.1221 -0.2605
 1157SOL    HW215105   4.374   1.821  14.371  0.0124 -0.1733  0.4189
 1158SOL     OW15106   1.799   3.927  14.506 -0.1390 -0.1729 -0.2311
 1158SOL    HW115107   1.867   3.964  14.562 -0.8394  0.5811  0.1091
 1158SOL    HW215108   1.840   3.840  14.502 -0.7553 -0.4777  0.0996
 1159SOL     OW15109   3.595   3.145   1.822 -0.4022 -0.0306 -0.2738
 1159SOL    HW115110   3.537   3.080   1.782  1.2582 -0.3553 -2.1595
 1159SOL    HW215111   3.675   3.091   1.826 -0.7682 -0.5965 -0.5269
 1160SOL     OW15112   2.880   4.117  13.324 -0.3516  0.3070  0.1362
 1160SOL    HW115113   2.893   4.081  13.412  0.9745 -0.9967 -0.5906
 1160SOL    HW215114   2.970   4.130  13.295 -0.7157  0.5285 -0.8687
 1161SOL     OW15115   1.602   0.361   5.247  0.6104 -0.3542  0.1261
 1161SOL    HW115116   1.582   0.370   5.340  0.3600 -0.8581  0.1217
 1161SOL    HW215117   1.600   0.265   5.244  1.6894 -0.3997  0.8516
 1162SOL     OW15118   2.769   1.944   3.776 -0.2839  0.7100 -0.2673
 1162SOL    HW115119   2.862   1.921   3.764 -0.8620 -1.3713 -0.8198
 1162SOL    HW215120   2.771   2.038   3.790  1.6069  0.2652  2.5197
 1163SOL     OW15121   1.905   2.748  15.505  0.3084  0.2790 -0.7935
 1163SOL    HW115122   1.817   2.718  15.480  0.5568 -0.1585 -1.1500
 1163SOL    HW215123   1.944   2.662  15.492  0.1297 -0.0036  0.5344
 1164SOL     OW15124   4.307   2.304   3.850 -0.0535 -0.0329 -0.0339
 1164SOL    HW115125   4.219   2.315   3.886 -0.8714  0.1139 -2.1051
 1164SOL    HW215126   4.329   2.214   3.877 -0.9497 -0.5335 -1.0045
 1165SOL     OW15127   2.533   4.053   2.733  0.3223  0.1302 -0.4951
 1165SOL    HW115128   2.512   4.147   2.738 -2.7284 -0.4848 -1.7787
 1165SOL    HW215129   2.522   4.027   2.825  2.4673 -0.0491 -0.2923
 1166SOL     OW15130   4.415   2.495   5.737  0.2620 -0.1325  0.0789
 1166SOL    HW115131   4.492   2.544   5.709 -0.2671  0.0046 -1.1259
 1166SOL    HW215132   4.454   2.418   5.778 -2.9843 -1.2162  1.1436
 1167SOL     OW15133   0.908   1.214   0.343  0.2896  0.0999 -0.1328
 1167SOL    HW115134   0.977   1.167   0.296 -1.3940 -0.7249 -1.7465
 1167SOL    HW215135   0.890   1.285   0.282 -1.9900  1.0977  1.6948
 1168SOL     OW15136   1.126   1.309   2.111 -0.3829  0.4520  0.1852
 1168SOL    HW115137   1.147   1.218   2.128  0.1043  0.9793  2.4521
 1168SOL    HW215138   1.051   1.310   2.051  1.6099  0.9140 -2.2573
 1169SOL     OW15139   2.869   3.220   6.792 -0.4373  0.0366 -0.0526
 1169SOL    HW115140   2.867   3.162   6.715  0.0940  0.3605 -0.3135
 1169SOL    HW215141   2.961   3.224   6.818 -0.8388  0.9782  1.2194
 1170SOL     OW15142   1.694   2.041   3.211 -0.3950  0.7458 -0.3392
 1170SOL    HW115143   1.756   1.992   3.156  0.7949 -0.7887  2.2977
 1170SOL    HW215144   1.736   2.023   3.296  0.1634  1.9682 -0.3583
 1171SOL     OW15145   0.412   0.259  11.641 -0.9780 -0.3024  0.1296
 1171SOL    HW115146   0.505   0.242  11.628 -0.5493  2.9386 -1.0027
 1171SOL    HW215147   0.392   0.182  11.694  0.9969 -1.1025 -0.2820
 1172SOL     OW15148   2.709   4.300   3.402  0.2963 -0.1039 -0.0421
 1172SOL    HW115149   2.762   4.224   3.426 -2.6982 -1.8612  1.0898
 1172SOL    HW215150   2.631   4.258   3.365 -1.2070  0.0843  2.9072
 1173SOL     OW15151   1.441   2.356   7.585 -0.3207  0.3135 -0.1000
 1173SOL    HW115152   1.423   2.437   7.539 -1.8557 -0.8079 -1.4863
 1173SOL    HW215153   1.494   2.321   7.513 -1.9700 -0.4730 -0.9303
 1174SOL     OW15154   2.373   4.018  15.002 -0.0071  0.4875 -0.2337
 1174SOL    HW115155   2.335   4.076  14.935  0.7748 -2.5561 -3.3213
 1174SOL    HW215156   2.459   4.060  15.009  0.4465 -0.5676  0.3771
 1175SOL     OW15157   1.225   1.835   9.652 -0.0169 -0.8808  0.1683
 1175SOL    HW115158   1.251   1.904   9.712  0.4931 -0.8352 -0.1007
 1175SOL    HW215159   1.132   1.851   9.639  0.4335  0.3946 -1.5751
 1176SOL     OW15160   3.388   1.260  10.863 -0.3084  0.1238  0.1456
 1176SOL    HW115161   3.309   1.276  10.914 -1.7276  0.3372 -2.1175
 1176SOL    HW215162   3.405   1.168  10.881  1.9768  0.1119 -1.9798
 1177SOL     OW15163   3.405   3.021   8.853 -0.0229 -0.6926 -0.2360
 1177SOL    HW115164   3.456   3.005   8.932  1.2987 -1.1089 -1.1669
 1177SOL    HW215165   3.322   3.036   8.898 -0.3628 -2.6683 -0.1982
 1178SOL     OW15166   4.228   2.760   4.939  0.2546 -0.4837 -0.1455
 1178SOL    HW115167   4.279   2.832   4.976 -1.2249  0.2702  0.4339
 1178SOL    HW215168   4.161   2.809   4.891 -0.4017 -0.8015  0.4323
 1179SOL     OW15169   1.700   1.923   1.325 -0.3086  0.2275 -0.0868
 1179SOL    HW115170   1.753   2.003   1.329  2.3937 -1.6609  1.5589
 1179SOL    HW215171   1.679   1.903   1.234  0.6942  2.3009 -0.7565
 1180SOL     OW15172   3.474   3.760   2.815  0.1787 -0.4824  0.3687
 1180SOL    HW115173   3.515   3.846   2.810  0.1563 -0.5773 -1.6065
 1180SOL    HW215174   3.406   3.782   2.879  0.3723 -0.6390  0.6290
 1181SOL     OW15175   4.091   1.183   4.545 -0.2007  0.1601  0.1539
 1181SOL    HW115176   4.026   1.150   4.482  0.2266 -2.0473  0.8624
 1181SOL    HW215177   4.158   1.219   4.488  1.7264 -1.6009  1.3138
 1182SOL     OW15178   0.948   3.040  16.924  0.2662  0.1841  0.0996
 1182SOL    HW115179   0.991   3.125  16.910  1.5194 -0.4500  0.0539
 1182SOL    HW215180   0.987   3.020  17.009  1.9687  1.7158 -0.3345
 1183SOL     OW15181   0.660   3.244  15.636  0.5789  0.4199  0.5195
 1183SOL    HW115182   0.596   3.314  15.626  1.1695  1.2152  2.2570
 1183SOL    HW215183   0.669   3.203  15.550  0.2514 -1.0680  1.1945
 1184SOL     OW15184   1.454   1.099   5.872  0.1153  0.0083  0.3029
 1184SOL    HW115185   1.488   1.034   5.933  2.4387  1.2694  0.3585
 1184SOL    HW215186   1.508   1.176   5.891  0.9834 -0.1957 -1.2976
 1185SOL     OW15187   1.319   0.558   2.389  0.0413 -0.2422 -0.1078
 1185SOL    HW115188   1.329   0.647   2.355 -1.8570  0.1411  0.3290
 1185SOL    HW215189   1.363   0.574   2.473 -0.7752 -0.7695  0.4143
 1186SOL     OW15190   3.809   3.865   4.981  0.2837  0.2164  0.3163
 1186SOL    HW115191   3.714   3.868   4.991  0.3660  1.2241  0.8364
 1186SOL    HW215192   3.840   3.878   5.071 -2.2943 -0.0282  1.2173
 1187SOL     OW15193   0.804   0.087   0.461 -0.0097 -0.1882 -0.4702
 1187SOL    HW115194   0.834   0.064   0.373  2.5465  0.3169  0.2850
 1187SOL    HW215195   0.802   0.182   0.458  0.8520 -0.1935 -1.0617
 1188SOL     OW15196   3.524   3.290   7.229  0.8176 -0.6318  0.4215
 1188SOL    HW115197   3.500   3.340   7.151  2.3229  0.3864  0.6048
 1188SOL    HW215198   3.442   3.275   7.276  0.9962 -0.7272  0.7056
 1189SOL     OW15199   4.673   2.106   9.335 -0.1045 -0.0886 -0.1519
 1189SOL    HW115200   4.603   2.061   9.288 -0.1300 -0.5559  0.3325
 1189SOL    HW215201   0.016   2.069   9.290  0.6043  2.7788 -1.3446
 1190SOL     OW15202   4.414   3.546   6.626 -0.3344  0.1704  0.0349
 1190SOL    HW115203   4.452   3.490   6.558  1.0592  1.7806 -0.5119
 1190SOL    HW215204   4.490   3.601   6.646 -2.0537  2.1782  1.0596
 1191SOL     OW15205   0.762   0.079   2.815  0.1151  0.3518  0.3178
 1191SOL    HW115206   0.795   0.168   2.799  3.1878 -0.6193  1.2704
 1191SOL    HW215207   0.790   0.031   2.737 -0.1838 -1.1680  1.1565
 1192SOL     OW15208   1.546   2.660   3.645  0.4517 -1.0176 -0.0345
 1192SOL    HW115209   1.602   2.627   3.575 -0.7635 -1.1176 -0.9607
 1192SOL    HW215210   1.537   2.589   3.708 -1.4015  0.1781  1.0738
 1193SOL     OW15211   1.772   4.560  15.167 -0.0428 -0.9739 -0.0648
 1193SOL    HW115212   1.750   4.639  15.215  0.6059  1.0027 -3.0685
 1193SOL    HW215213   1.785   4.506  15.245 -1.1643 -2.6103 -0.9990
 1194SOL     OW15214   3.835   3.747   2.776  0.3822 -0.2709  0.1277
 1194SOL    HW115215   3.830   3.842   2.787 -0.3244 -0.3068  0.1196
 1194SOL    HW215216   3.917   3.719   2.815 -0.8359 -1.9009  1.5219
 1195SOL     OW15217   2.407   4.090  14.159 -0.3626  0.1001  0.6242
 1195SOL    HW115218   2.375   4.022  14.217 -0.3678  1.3396  2.0608
 1195SOL    HW215219   2.332   4.106  14.102 -0.3751 -0.7966  0.3902
 1196SOL     OW15220   3.463   3.057  12.409 -0.6136 -0.2879  0.1730
 1196SOL    HW115221   3.380   3.021  12.376 -0.4909  1.5016 -2.1414
 1196SOL    HW215222   3.498   3.091  12.326 -1.7800 -1.5262 -0.8330
 1197SOL     OW15223   4.465   4.185   6.795  0.0496 -0.2662 -0.5366
 1197SOL    HW115224   4.412   4.106   6.795 -1.0678  0.4888 -1.9117
 1197SOL    HW215225   4.545   4.154   6.838  0.8375 -0.2959 -2.0238
 1198SOL     OW15226   4.651   0.943  12.140 -0.3719  0.6516  0.3192
 1198SOL    HW115227   4.561   0.917  12.121  0.0998 -0.7989  0.0343
 1198SOL    HW215228   4.709   0.867  12.149  1.1980  1.7777 -0.2513
 1199SOL     OW15229   0.809   1.942   7.106 -0.0549  0.1466  0.4076
 1199SOL    HW115230   0.854   1.861   7.130 -1.1842 -1.3276 -2.3710
 1199SOL    HW215231   0.736   1.901   7.059 -0.7087  0.9336  0.7421
 1200SOL     OW15232   0.134   0.637   0.551 -0.6844 -0.4510 -0.2480
 1200SOL    HW115233   0.172   0.678   0.473  1.7266 -2.7369 -0.2812
 1200SOL    HW215234   0.101   0.717   0.591  0.8673 -0.0840  0.2828
 1201SOL     OW15235   1.558   3.035   6.479  0.0332  0.4454  0.4278
 1201SOL    HW115236   1.474   3.013   6.440 -1.4366 -0.1164  3.9024
 1201SOL    HW215237   1.559   3.128   6.458  0.9976 -0.2941 -2.7562
 1202SOL     OW15238   4.596   1.935   6.657  0.0807 -0.3548  0.2552
 1202SOL    HW115239   4.608   2.010   6.598 -0.0419 -1.1251 -0.7585
 1202SOL    HW215240   4.672   1.941   6.714  0.6805 -0.6221 -0.5056
 1203SOL     OW15241   2.702   2.166  11.309 -0.3029 -0.2711 -0.1674
 1203SOL    HW115242   2.609   2.144  11.307 -0.7182  1.4302  1.3341
 1203SOL    HW215243   2.744   2.080  11.299 -0.7393 -0.4841 -0.1923
 1204SOL     OW15244   0.516   1.209   0.854  0.3776  0.3237  0.1822
 1204SOL    HW115245   0.581   1.148   0.820 -1.5620 -1.9484  0.5526
 1204SOL    HW215246   0.530   1.211   0.948  2.4582 -0.8246 -0.1246
 1205SOL     OW15247   0.252   1.750  15.881  0.1850  0.0100  0.2453
 1205SOL    HW115248   0.292   1.782  15.962  0.3982 -1.2571  0.6446
 1205SOL    HW215249   0.241   1.836  15.840 -2.0820  0.5014  1.9075
 1206SOL     OW15250   0.734   2.282   4.507 -0.3258  0.3971 -0.0741
 1206SOL    HW115251   0.644   2.248   4.511  0.2933 -0.9503  3.0506
 1206SOL    HW215252   0.759   2.269   4.599  0.6418  2.7996  0.0031
 1207SOL     OW15253   1.229   3.264   8.364  0.3970  0.0503 -0.2088
 1207SOL    HW115254   1.179   3.342   8.384  0.3537  0.5817 -2.3574
 1207SOL    HW215255   1.258   3.236   8.450  0.3540 -0.6538 -0.4225
 1208SOL     OW15256   2.214   1.395   7.196  0.4443  1.0944 -0.0300
 1208SOL    HW115257   2.295   1.349   7.221 -0.8616 -0.0121  2.1660
 1208SOL    HW215258   2.249   1.433   7.115 -0.5504  1.8122 -0.1225
 1209SOL     OW15259   2.412   0.223   8.009  0.3234  0.4422  0.1352
 1209SOL    HW115260   2.331   0.273   8.015  0.2526  0.3450 -0.0522
 1209SOL    HW215261   2.471   0.294   7.982 -0.9956  1.8774  1.0267
 1210SOL     OW15262   0.921   0.786  11.208 -0.5395  0.4335  1.0128
 1210SOL    HW115263   0.866   0.768  11.131  2.0567 -0.0796 -0.7017
 1210SOL    HW215264   0.936   0.880  11.204  1.2017  0.1579  1.1116
 1211SOL     OW15265   3.619   0.807   7.681 -0.9789 -0.2506  0.0211
 1211SOL    HW115266   3.573   0.748   7.740 -0.4676 -1.3209 -0.6337
 1211SOL    HW215267   3.628   0.886   7.734  1.2397 -0.6059  0.1808
 1212SOL     OW15268   1.427   1.117  13.977 -0.1731 -0.1169  0.4145
 1212SOL    HW115269   1.368   1.059  14.026 -3.0059  2.3911 -0.0217
 1212SOL    HW215270   1.447   1.063  13.900 -0.3438  0.1096  0.2118
 1213SOL     OW15271   4.054   0.122   5.264  0.1835  0.2747 -0.6558
 1213SOL    HW115272   4.026   0.152   5.177  1.6395 -0.6109 -1.4230
 1213SOL    HW215273   4.092   0.206   5.289  0.1052  0.5667 -1.5107
 1214SOL     OW15274   1.452   3.828   3.035  0.0340  0.0041  0.0307
 1214SOL    HW115275   1.419   3.744   3.005 -0.7970  0.9284 -1.6329
 1214SOL    HW215276   1.456   3.810   3.129 -1.2747 -1.1922 -0.1484
 1215SOL     OW15277   4.213   3.092   5.396 -0.7307 -0.7160  0.0969
 1215SOL    HW115278   4.118   3.082   5.404 -1.0136  2.1774  0.2419
 1215SOL    HW215279   4.237   3.024   5.332  2.3115  1.5909 -1.2471
 1216SOL     OW15280   3.079   0.940   3.370  0.0005  0.7317  0.7003
 1216SOL    HW115281   3.001   0.940   3.425 -0.2507  1.5491  0.3537
 1216SOL    HW215282   3.044   0.984   3.292  2.1277 -0.7498 -1.1056
 1217SOL     OW15283   4.113   2.014   5.978 -0.1518 -0.2216 -0.2858
 1217SOL    HW115284   4.145   1.995   5.890  1.2283  0.6849  0.0103
 1217SOL    HW215285   4.070   2.096   5.951  0.0395 -0.4243 -1.2106
 1218SOL     OW15286   0.357   1.764   4.797 -0.2080 -1.0314  0.6261
 1218SOL    HW115287   0.268   1.772   4.763  1.2789  3.3664 -2.1038
 1218SOL    HW215288   0.392   1.851   4.778  2.2250 -1.8977  1.1495
 1219SOL     OW15289   1.846   1.103   5.953  0.1724  0.2488 -0.0411
 1219SOL    HW115290   1.917   1.039   5.950 -1.4863 -1.6083  0.6133
 1219SOL    HW215291   1.860   1.149   5.869  2.0198 -0.7409 -0.2707
 1220SOL     OW15292   4.165   1.293   1.105  0.4423 -0.1912 -0.2690
 1220SOL    HW115293   4.083   1.293   1.155  0.5264  1.0034 -0.1212
 1220SOL    HW215294   4.171   1.203   1.073  1.0558  0.2369 -1.3463
 1221SOL     OW15295   3.919   2.377   2.145  0.3795 -0.2532 -0.5067
 1221SOL    HW115296   4.010   2.398   2.164  0.2987 -0.6605  0.3426
 1221SOL    HW215297   3.873   2.435   2.205 -0.2810 -1.8394  0.5275
 1222SOL     OW15298   1.185   3.448   4.894 -0.6823  0.3224  0.2351
 1222SOL    HW115299   1.178   3.532   4.848 -0.0422  2.0915  3.3551
 1222SOL    HW215300   1.269   3.435   4.850 -0.0580 -1.4948  1.9616
 1223SOL     OW15301   1.860   4.502  12.767  0.6083  0.0634 -0.6711
 1223SOL    HW115302   1.832   4.504  12.859  1.6062 -0.4908 -0.3583
 1223SOL    HW215303   1.922   4.429  12.765  2.4953  1.6683 -1.2119
 1224SOL     OW15304   1.082   2.202   0.015 -0.1467  0.0751  0.4223
 1224SOL    HW115305   1.078   2.246   0.100  0.5723  0.7714  0.1051
 1224SOL    HW215306   1.081   2.109   0.038  1.0732 -0.4813 -1.7631
 1225SOL     OW15307   3.707   0.384   4.317 -0.2897  0.0191  0.1959
 1225SOL    HW115308   3.778   0.397   4.381 -1.1167  1.0896  0.8936
 1225SOL    HW215309   3.654   0.460   4.339  1.3548  1.2307  0.0332
 1226SOL     OW15310   3.532   1.391  10.675 -0.4148 -0.0014  0.5297
 1226SOL    HW115311   3.470   1.351  10.735 -1.0090  2.1602  1.3480
 1226SOL    HW215312   3.510   1.343  10.595 -1.2682 -0.7184  1.2107
 1227SOL     OW15313   3.053   0.887   3.894  0.1097 -0.4732  0.1507
 1227SOL    HW115314   3.052   0.828   3.970 -1.4934 -0.0956  0.4177
 1227SOL    HW215315   2.963   0.890   3.864  0.3275  1.6100 -0.3054
 1228SOL     OW15316   2.728   2.696   8.977  0.1025  0.2425 -0.3879
 1228SOL    HW115317   2.669   2.685   9.051 -0.2393 -0.8107 -0.8141
 1228SOL    HW215318   2.732   2.792   8.977  0.4106  0.2280 -0.6388
 1229SOL     OW15319   1.476   1.664   5.636 -0.4185 -0.1717  0.1850
 1229SOL    HW115320   1.485   1.587   5.579  2.5627  0.4881 -0.2376
 1229SOL    HW215321   1.562   1.650   5.675  0.0627  0.7437 -0.5531
 1230SOL     OW15322   2.615   2.873  14.742 -0.1426  0.2032  0.0157
 1230SOL    HW115323   2.630   2.793  14.793 -1.2482 -0.4774 -0.7066
 1230SOL    HW215324   2.694   2.858  14.690 -1.0770 -0.3386 -1.2682
 1231SOL     OW15325   3.257   3.230   7.259 -0.3309  0.1099  0.3401
 1231SOL    HW115326   3.226   3.202   7.346 -0.6404  0.1574  0.2443
 1231SOL    HW215327   3.179   3.275   7.225  0.2180  0.3537 -0.5903
 1232SOL     OW15328   2.933   4.655   6.420  0.2760  0.0458 -0.0073
 1232SOL    HW115329   3.025   4.664   6.445  0.6253 -2.2578 -0.4554
 1232SOL    HW215330   2.891   4.672   6.504  2.9050 -0.6625  1.4465
 1233SOL     OW15331   4.126   1.507   7.506  0.2247 -0.2886 -0.1401
 1233SOL    HW115332   4.130   1.603   7.503  2.6489 -0.3387  1.3404
 1233SOL    HW215333   4.073   1.491   7.428 -1.0691  1.3263  0.4104
 1234SOL     OW15334   3.447   1.825   6.478  0.1248  0.3167 -0.2796
 1234SOL    HW115335   3.497   1.787   6.405  1.0865  0.1790  0.4529
 1234SOL    HW215336   3.483   1.768   6.546 -0.0706  0.5798  0.0401
 1235SOL     OW15337   3.031   1.921   3.394 -0.3465  0.1292 -0.2231
 1235SOL    HW115338   2.955   1.978   3.384  1.7059  2.5910 -1.7103
 1235SOL    HW215339   3.095   1.961   3.336  0.4150  0.2895  0.7291
 1236SOL     OW15340   2.045   3.927   6.583  0.8104  0.3454  0.1941
 1236SOL    HW115341   1.969   3.904   6.636  0.9660 -0.7845 -0.0622
 1236SOL    HW215342   2.001   3.958   6.505  1.6874  0.4641 -0.2592
 1237SOL     OW15343   4.562   2.422  11.036 -0.2371 -0.3601 -0.4577
 1237SOL    HW115344   4.602   2.336  11.022 -1.1785 -0.6810 -1.1931
 1237SOL    HW215345   4.576   2.455  10.948  0.7099  0.5075  0.0155
 1238SOL     OW15346   3.287   0.601   3.877  0.8224 -0.0287 -0.3914
 1238SOL    HW115347   3.207   0.555   3.901  0.7997  0.1918 -0.0476
 1238SOL    HW215348   3.286   0.607   3.781 -1.1229  2.3237 -0.2169
 1239SOL     OW15349   1.993   4.480  11.226  0.2793  0.1909 -0.1002
 1239SOL    HW115350   1.997   4.387  11.248  1.1628  0.6213  1.6225
 1239SOL    HW215351   2.079   4.501  11.190 -0.1654  1.2888 -0.5022
 1240SOL     OW15352   1.786   3.854  16.613 -0.4408 -0.8991 -0.3582
 1240SOL    HW115353   1.728   3.781  16.596 -1.0518 -0.2757 -0.9419
 1240SOL    HW215354   1.868   3.825  16.572  0.3015  1.5640 -0.6595
 1241SOL     OW15355   0.593   2.381   3.122 -0.0266  0.2021 -0.2013
 1241SOL    HW115356   0.659   2.397   3.189 -1.1299 -2.0606  1.4118
 1241SOL    HW215357   0.606   2.439   3.046  1.2354  0.5576  0.2879
 1242SOL     OW15358   0.442   3.491   7.441  0.2403  0.1457 -0.0232
 1242SOL    HW115359   0.422   3.423   7.378  0.4166 -0.3839  0.4949
 1242SOL    HW215360   0.503   3.443   7.497 -1.7802 -2.0435  0.2803
 1243SOL     OW15361   4.469   4.229   6.221  0.0692  0.4108 -0.0647
 1243SOL    HW115362   4.421   4.294   6.171  0.1319  0.9469  0.5715
 1243SOL    HW215363   4.397   4.187   6.268 -1.4021 -0.4333 -3.0387
 1244SOL     OW15364   2.441   0.582   5.678 -0.2151  0.0800  0.3278
 1244SOL    HW115365   2.460   0.494   5.710 -1.0136  0.0325  0.6622
 1244SOL    HW215366   2.523   0.631   5.674  0.6762 -1.2621  2.1816
 1245SOL     OW15367   0.931   4.682   2.645  0.3015  0.2010 -0.1967
 1245SOL    HW115368   0.998   4.694   2.712 -0.6757  2.0976  0.4424
 1245SOL    HW215369   0.950   4.590   2.627  1.5392  0.7023 -1.4563
 1246SOL     OW15370   2.095   2.580   4.217 -0.6442 -0.0732 -0.5058
 1246SOL    HW115371   2.050   2.616   4.294  1.8329 -1.7837  1.7710
 1246SOL    HW215372   2.081   2.636   4.141 -2.4549 -2.6344 -2.0571
 1247SOL     OW15373   1.601   2.169  14.836 -0.2018  0.5584  0.1617
 1247SOL    HW115374   1.574   2.159  14.744 -1.1511 -2.5063  0.8069
 1247SOL    HW215375   1.536   2.226  14.878 -0.8796  0.1670 -0.3570
 1248SOL     OW15376   3.970   0.491   7.103 -0.0856 -0.0405 -0.0113
 1248SOL    HW115377   4.013   0.570   7.070 -0.1517  0.1612  0.3863
 1248SOL    HW215378   3.921   0.465   7.025 -0.1091  1.4487 -0.4995
 1249SOL     OW15379   4.309   4.462   5.787  0.5596 -0.2375  0.7922
 1249SOL    HW115380   4.246   4.390   5.774  0.2539  0.1506  0.1153
 1249SOL    HW215381   4.300   4.512   5.706 -0.8871 -0.1120  1.0327
 1250SOL     OW15382   2.404   4.340   3.702 -0.3256  0.2908  0.3406
 1250SOL    HW115383   2.496   4.349   3.678 -0.9981 -0.8089 -2.6524
 1250SOL    HW215384   2.365   4.427   3.709 -0.6773  0.1210  0.5384
 1251SOL     OW15385   2.380   1.752   1.766 -0.3811  0.0055 -0.2518
 1251SOL    HW115386   2.406   1.746   1.674  0.0087 -1.4047 -0.0478
 1251SOL    HW215387   2.308   1.689   1.777 -0.1760 -0.0678  0.7150
 1252SOL     OW15388   0.740   2.425   0.175 -0.9436 -0.1302  0.0139
 1252SOL    HW115389   0.718   2.464   0.259  1.9715  0.1016  0.6735
 1252SOL    HW215390   0.698   2.488   0.116  1.6913 -0.0699 -1.7849
 1253SOL     OW15391   3.233   3.942   8.068  0.2864 -0.3573  0.6304
 1253SOL    HW115392   3.194   4.013   8.119 -1.8848 -1.0944 -0.0132
 1253SOL    HW215393   3.308   3.925   8.125  0.9666  0.3919 -0.0352
 1254SOL     OW15394   1.120   2.151  12.337 -0.2892  0.7335 -0.1095
 1254SOL    HW115395   1.088   2.155  12.247  1.1797  1.8291 -0.5744
 1254SOL    HW215396   1.129   2.244  12.355 -3.7633  1.1860 -0.6725
 1255SOL     OW15397   3.569   2.499   6.366 -0.1047  0.5171 -0.3475
 1255SOL    HW115398   3.600   2.443   6.438 -0.6453 -1.8822 -1.9953
 1255SOL    HW215399   3.568   2.585   6.407  1.5232  1.1666 -1.6649
 1256SOL     OW15400   2.103   3.746   6.185  0.3532  0.3008  0.4514
 1256SOL    HW115401   2.127   3.796   6.263 -0.1522  1.6418 -0.2355
 1256SOL    HW215402   2.095   3.653   6.206 -0.2067 -0.3894 -2.8482
 1257SOL     OW15403   2.879   3.939   6.212 -0.7555  0.3599 -0.0007
 1257SOL    HW115404   2.803   3.882   6.196 -0.7711 -0.1101  1.7604
 1257SOL    HW215405   2.878   3.973   6.123 -0.3938  0.0319 -0.1324
 1258SOL     OW15406   3.599   4.288   5.521 -0.4973 -0.2229 -0.4341
 1258SOL    HW115407   3.543   4.340   5.579  0.9516  1.0597 -0.1852
 1258SOL    HW215408   3.666   4.353   5.499 -0.1877 -0.8740 -1.4053
 1259SOL     OW15409   1.809   4.185   6.024  0.2076  0.5948 -0.2576
 1259SOL    HW115410   1.885   4.158   6.076 -1.4216 -2.6234  0.3977
 1259SOL    HW215411   1.766   4.246   6.084 -0.2663  0.3378 -0.3394
 1260SOL     OW15412   4.148   4.504   8.299  0.2652  0.2904  0.1430
 1260SOL    HW115413   4.129   4.437   8.364  2.9037 -0.2924  0.2996
 1260SOL    HW215414   4.209   4.560   8.346  0.7392 -0.3008  0.2340
 1261SOL     OW15415   3.786   1.849   5.980 -0.2682  0.2157  0.4580
 1261SOL    HW115416   3.705   1.801   5.967  0.2933 -0.9058  1.1170
 1261SOL    HW215417   3.839   1.797   6.040 -0.1510 -1.1442 -0.8495
 1262SOL     OW15418   1.823   1.262   2.924  0.6113  0.1555  0.7177
 1262SOL    HW115419   1.889   1.302   2.981  0.8201 -0.6018  1.0003
 1262SOL    HW215420   1.821   1.337   2.864 -0.4015 -0.6206 -0.2184
 1263SOL     OW15421   4.693   3.436   3.854 -0.0073 -0.2580 -0.2157
 1263SOL    HW115422   4.663   3.443   3.763 -0.2801 -1.7885 -0.2392
 1263SOL    HW215423   4.700   3.529   3.876  0.1978 -0.7931  1.9770
 1264SOL     OW15424   1.066   1.524   6.108  0.3518  0.0860 -0.8483
 1264SOL    HW115425   0.978   1.486   6.109  0.1955  0.4531 -0.5630
 1264SOL    HW215426   1.095   1.514   6.018 -1.7951  2.3741 -1.7896
 1265SOL     OW15427   0.786   2.661   4.400 -0.0296  0.2153  0.2461
 1265SOL    HW115428   0.782   2.746   4.443  0.2668  0.0174  0.6581
 1265SOL    HW215429   0.713   2.679   4.341 -0.3787  0.1219  0.6514
 1266SOL     OW15430   2.202   3.028  12.826  0.1564  0.4797 -0.0179
 1266SOL    HW115431   2.197   3.049  12.920 -3.4835 -0.2571 -0.0681
 1266SOL    HW215432   2.120   2.980  12.814  1.3785 -2.0654  1.6972
 1267SOL     OW15433   3.421   0.466   6.544 -0.2339  0.0450  0.3533
 1267SOL    HW115434   3.481   0.433   6.611  0.1096 -0.2693 -0.1085
 1267SOL    HW215435   3.363   0.391   6.530 -0.2161  0.1283 -0.1530
 1268SOL     OW15436   0.725   0.875   3.471 -0.2595  0.0787 -0.4277
 1268SOL    HW115437   0.635   0.898   3.496 -0.4125  0.0720 -0.9876
 1268SOL    HW215438   0.733   0.784   3.501 -1.1411  0.0836 -0.1826
 1269SOL     OW15439   2.848   3.336  16.965  0.7134  0.1607  0.3193
 1269SOL    HW115440   2.890   3.418  16.990  0.4709  0.5047 -0.4149
 1269SOL    HW215441   2.917   3.270  16.966  0.2445 -0.3554 -0.8266
 1270SOL     OW15442   2.084   1.471   9.066  0.2315  0.5274  0.3553
 1270SOL    HW115443   1.992   1.490   9.051 -0.3634 -3.5265 -1.3050
 1270SOL    HW215444   2.128   1.527   9.003  1.1798 -1.8599 -1.1225
 1271SOL     OW15445   0.574   2.435   5.234  0.4034  0.4303 -0.1228
 1271SOL    HW115446   0.644   2.491   5.267  0.1457 -0.0013  1.1755
 1271SOL    HW215447   0.599   2.347   5.261 -0.5740 -0.0449 -0.7783
 1272SOL     OW15448   4.698   0.134   1.554 -0.0299 -0.7906  0.6007
 1272SOL    HW115449   4.684   0.064   1.617 -1.9768 -1.6586 -0.7924
 1272SOL    HW215450   4.724   0.200   1.619 -1.1603  0.6567 -0.4007
 1273SOL     OW15451   2.219   0.188   4.301 -0.2564  0.2371 -0.0568
 1273SOL    HW115452   2.213   0.284   4.293  0.1313  0.1531 -1.3007
 1273SOL    HW215453   2.191   0.161   4.214  0.4033 -1.9043  0.4014
 1274SOL     OW15454   4.696   1.859   5.114 -0.5001 -0.0810  0.9976
 1274SOL    HW115455   4.621   1.919   5.106  0.4962  1.0415  0.0145
 1274SOL    HW215456   4.642   1.782   5.130  0.8065 -1.1498  0.2553
 1275SOL     OW15457   1.272   2.087   8.058 -0.8798 -0.4247  0.0288
 1275SOL    HW115458   1.331   2.107   8.131  0.3978  0.1179 -1.1564
 1275SOL    HW215459   1.332   2.089   7.984 -0.5108  0.0694  0.3449
 1276SOL     OW15460   1.332   3.442   8.093  0.6688  0.7591  0.1581
 1276SOL    HW115461   1.283   3.401   8.163  2.7768  0.9400  1.7162
 1276SOL    HW215462   1.279   3.517   8.063 -1.5542  0.0459  2.3084
 1277SOL     OW15463   1.484   4.326   9.885  0.3280 -0.5966 -0.3337
 1277SOL    HW115464   1.529   4.264   9.942  0.4387 -0.5509 -0.3702
 1277SOL    HW215465   1.396   4.289   9.883  0.3723 -0.8093  2.0274
 1278SOL     OW15466   3.084   0.327   7.267 -0.2545  0.4428 -0.5294
 1278SOL    HW115467   3.143   0.252   7.259 -0.4371  0.0852  1.5180
 1278SOL    HW215468   3.012   0.284   7.221 -0.9167  1.2150 -0.2186
 1279SOL     OW15469   2.696   0.863   8.739 -0.4785 -0.1533  1.0690
 1279SOL    HW115470   2.692   0.781   8.690 -1.6004  1.1981 -1.1185
 1279SOL    HW215471   2.623   0.864   8.801 -0.9533  0.7304  0.4984
 1280SOL     OW15472   2.890   3.545  15.440 -0.2483 -0.3498 -0.0459
 1280SOL    HW115473   2.852   3.554  15.353 -0.2541 -0.1376 -0.0213
 1280SOL    HW215474   2.968   3.600  15.432 -0.9644  0.8456  0.9919
 1281SOL     OW15475   2.130   1.786  17.452  0.8838  0.4093 -0.5315
 1281SOL    HW115476   2.079   1.859  17.417  0.0349  0.4639  0.8249
 1281SOL    HW215477   2.139   1.725  17.378 -0.3921 -2.0158  1.3445
 1282SOL     OW15478   0.705   4.448   6.739  0.2543  0.0463  0.1768
 1282SOL    HW115479   0.702   4.356   6.712 -2.5494  0.7626 -1.8660
 1282SOL    HW215480   0.618   4.477   6.713 -0.2611 -1.9571 -0.3836
 1283SOL     OW15481   3.425   2.740  10.583 -0.2976  0.2690  0.4637
 1283SOL    HW115482   3.470   2.660  10.556 -1.5964  0.0662 -1.0924
 1283SOL    HW215483   3.425   2.791  10.502 -2.5243  2.3135  1.7671
 1284SOL     OW15484   0.682   1.162   0.496 -0.6228 -0.5256  0.4913
 1284SOL    HW115485   0.638   1.247   0.502 -0.5068 -0.3666 -1.0145
 1284SOL    HW215486   0.764   1.175   0.449 -0.3854 -1.0808  0.7561
 1285SOL     OW15487   0.949   2.156  11.280 -0.0446  0.5640 -0.3956
 1285SOL    HW115488   0.892   2.080  11.280  2.2229 -1.1577  0.9131
 1285SOL    HW215489   0.918   2.213  11.351  0.1193 -2.2216  1.8889
 1286SOL     OW15490   3.688   0.571   4.617  0.1061 -0.3202  0.3489
 1286SOL    HW115491   3.765   0.600   4.568 -1.2450  2.1410 -0.3161
 1286SOL    HW215492   3.713   0.585   4.708 -0.6750  0.7707  0.3948
 1287SOL     OW15493   3.948   3.896  11.595  0.6958  0.0529  0.1016
 1287SOL    HW115494   3.981   3.865  11.680 -0.0246 -0.5757  0.1532
 1287SOL    HW215495   4.019   3.863  11.541 -0.0463 -1.3264 -0.0305
 1288SOL     OW15496   2.574   3.510   2.066 -0.3738  0.0656 -0.5508
 1288SOL    HW115497   2.590   3.444   1.999  0.9668  1.2028 -1.3650
 1288SOL    HW215498   2.592   3.593   2.020  0.5477  0.4659  0.5389
 1289SOL     OW15499   0.925   4.109  11.161  0.3985  0.1665  0.2525
 1289SOL    HW115500   1.020   4.122  11.164  0.6147 -0.8969 -1.7536
 1289SOL    HW215501   0.902   4.090  11.252  1.1279 -0.1544  0.3759
 1290SOL     OW15502   1.642   4.253   1.640  0.5670 -0.5487 -0.0953
 1290SOL    HW115503   1.665   4.164   1.664  2.0616  0.3729  1.8780
 1290SOL    HW215504   1.551   4.236   1.617  0.9168 -1.6739 -0.6118
 1291SOL     OW15505   2.624   2.156   3.525  0.0814 -0.2518 -0.5562
 1291SOL    HW115506   2.654   2.175   3.614  2.0938 -0.5955 -1.1525
 1291SOL    HW215507   2.632   2.241   3.483  1.2519 -0.6370 -1.1355
 1292SOL     OW15508   0.225   3.435   4.143  0.2606  0.2617 -0.1113
 1292SOL    HW115509   0.153   3.454   4.202  1.4659  1.9299  0.8437
 1292SOL    HW215510   0.224   3.521   4.101  1.8052  0.4748  0.2783
 1293SOL     OW15511   3.765   0.424   4.060 -0.2096 -0.4781  0.0410
 1293SOL    HW115512   3.670   0.435   4.063  0.0468  1.8861 -0.5911
 1293SOL    HW215513   3.764   0.382   4.147 -0.4018  1.6895  1.0809
 1294SOL     OW15514   2.212   2.814   3.678  0.4553  0.0022  0.4953
 1294SOL    HW115515   2.295   2.809   3.632  0.0568 -1.0019 -0.1369
 1294SOL    HW215516   2.188   2.721   3.669  1.7000 -0.2837  0.1368
 1295SOL     OW15517   0.747   1.826   3.452  0.0605  0.2960 -0.2923
 1295SOL    HW115518   0.828   1.860   3.491 -0.6351  0.2922  1.1418
 1295SOL    HW215519   0.750   1.862   3.363  0.3261  0.2353 -0.3090
 1296SOL     OW15520   4.027   0.222   3.087 -0.1979 -0.1035 -0.5523
 1296SOL    HW115521   3.960   0.286   3.110 -0.1806 -0.9705  1.9104
 1296SOL    HW215522   4.008   0.143   3.136  0.1207 -0.2887 -0.7206
 1297SOL     OW15523   0.508   0.790   1.061 -0.0382  0.3446  0.3475
 1297SOL    HW115524   0.468   0.703   1.059 -1.1109  0.8058  1.8612
 1297SOL    HW215525   0.444   0.832   1.118  0.2736  0.7698  0.3885
 1298SOL     OW15526   1.610   0.566  15.327 -0.5340  0.2544 -0.4292
 1298SOL    HW115527   1.555   0.643  15.342  0.6555  0.8308  0.9029
 1298SOL    HW215528   1.676   0.595  15.264  1.6067  1.9245  2.6179
 1299SOL     OW15529   2.865   1.214   8.831 -0.2137 -0.6280  0.2435
 1299SOL    HW115530   2.830   1.257   8.909 -0.3520  0.0339 -0.1837
 1299SOL    HW215531   2.813   1.263   8.769 -1.0294 -0.3871  1.1171
 1300SOL     OW15532   1.373   2.309  13.064  0.0512  0.4253  0.2807
 1300SOL    HW115533   1.409   2.255  12.994  0.7965  0.5109  0.5933
 1300SOL    HW215534   1.303   2.351  13.014  2.7548  2.1389 -2.0994
 1301SOL     OW15535   3.538   2.239  14.582  0.2029  0.2794 -0.2756
 1301SOL    HW115536   3.591   2.252  14.503  1.4826 -0.7502  0.4149
 1301SOL    HW215537   3.580   2.160  14.615 -1.2552  0.0164  0.9549
 1302SOL     OW15538   3.328   3.569  11.142  0.1109 -0.4631 -0.2358
 1302SOL    HW115539   3.281   3.652  11.148 -0.3050 -0.5797 -1.7574
 1302SOL    HW215540   3.254   3.510  11.155  0.6426 -1.4633 -1.6602
 1303SOL     OW15541   0.198   4.557   7.109 -0.2613 -0.6002  0.6118
 1303SOL    HW115542   0.287   4.590   7.117 -0.9507  1.5111 -0.3375
 1303SOL    HW215543   0.146   4.590   7.182  1.9167  2.1763  0.9005
 1304SOL     OW15544   1.447   3.706  15.131  0.2035  0.0950 -0.0420
 1304SOL    HW115545   1.476   3.752  15.053  0.5582  0.8369  0.5305
 1304SOL    HW215546   1.385   3.769  15.167  0.8226  0.8046 -0.2260
 1305SOL     OW15547   1.524   4.375   1.953  0.3380 -0.2159  0.0634
 1305SOL    HW115548   1.574   4.314   2.007  0.0626  0.6886  1.3392
 1305SOL    HW215549   1.440   4.334   1.974 -0.1742 -1.1997 -3.9605
 1306SOL     OW15550   1.578   2.089  14.583  0.0829  0.2807  0.0737
 1306SOL    HW115551   1.533   2.005  14.595 -0.9511  0.1838 -4.3841
 1306SOL    HW215552   1.587   2.085  14.487 -1.2378 -1.1047  0.0191
 1307SOL     OW15553   3.092   3.198  16.971 -0.0472  0.0845 -0.1667
 1307SOL    HW115554   3.152   3.140  16.924  1.3637 -0.3745  2.2140
 1307SOL    HW215555   3.133   3.209  17.057  0.6762 -1.8484 -0.2794
 1308SOL     OW15556   0.931   4.685   4.275 -0.0551 -0.3113  0.0189
 1308SOL    HW115557   0.897   4.643   4.354 -1.7419 -0.1104 -0.5816
 1308SOL    HW215558   1.024   4.664   4.279  0.2113  0.9596  0.2886
 1309SOL     OW15559   2.092   1.203   6.471  0.3035  0.1534  0.0664
 1309SOL    HW115560   2.188   1.210   6.468  0.1726  1.3048 -1.4295
 1309SOL    HW215561   2.057   1.292   6.479  1.2762  0.4553  0.9647
 1310SOL     OW15562   2.525   0.678   4.329  0.2741  0.4143  0.1836
 1310SOL    HW115563   2.554   0.724   4.251  0.0284  2.9871  1.5723
 1310SOL    HW215564   2.492   0.596   4.292 -0.2741  1.6242 -1.9908
 1311SOL     OW15565   0.874   2.153  16.282 -0.8312 -0.0961 -0.0953
 1311SOL    HW115566   0.851   2.180  16.371 -2.1402 -2.8436  0.4159
 1311SOL    HW215567   0.963   2.187  16.269 -1.1535  1.0785  0.7436
 1312SOL     OW15568   3.911   3.105   6.429  0.2854 -0.4229 -0.0397
 1312SOL    HW115569   3.938   3.180   6.482  1.6760 -2.1628  1.7368
 1312SOL    HW215570   3.901   3.138   6.340  1.4456  0.9105  0.3332
 1313SOL     OW15571   1.225   2.997  16.156 -0.0225 -0.1117 -0.4833
 1313SOL    HW115572   1.258   2.918  16.198 -0.4379 -0.2138 -0.3565
 1313SOL    HW215573   1.304   3.042  16.125 -0.2816  0.4680 -0.3042
 1314SOL     OW15574   1.781   0.109   6.444 -0.3106  0.2155  0.4759
 1314SOL    HW115575   1.781   0.177   6.377  0.5644  0.3630  0.6266
 1314SOL    HW215576   1.845   0.135   6.511  1.6840 -3.1197 -0.1141
 1315SOL     OW15577   0.276   0.098   5.426 -0.1192  0.1321  0.3883
 1315SOL    HW115578   0.230   0.103   5.510 -0.6806  0.8557  0.0367
 1315SOL    HW215579   0.249   0.012   5.393 -1.6987  0.8381 -0.1566
 1316SOL     OW15580   2.938   4.647   3.679  0.0464 -0.2798 -0.1840
 1316SOL    HW115581   2.968   4.557   3.667  1.2698  0.1625 -0.4518
 1316SOL    HW215582   2.959   4.647   3.772 -0.2380  2.7668 -0.1046
 1317SOL     OW15583   3.429   0.037   8.057  0.7092  0.0948  0.0175
 1317SOL    HW115584   3.524   0.038   8.057  0.7096  0.1331 -0.1874
 1317SOL    HW215585   3.416   4.701   7.991 -0.6407 -0.6074  1.0107
 1318SOL     OW15586   0.743   4.654  10.118 -0.3794 -0.0550 -0.1576
 1318SOL    HW115587   0.808   4.621  10.180 -2.3372 -1.0014  1.3863
 1318SOL    HW215588   0.785   4.725  10.068  0.2834 -1.1696 -1.1946
 1319SOL     OW15589   3.177   2.295   5.861  0.3801 -0.7958 -0.0837
 1319SOL    HW115590   3.178   2.304   5.957 -1.2749 -1.8997  0.0471
 1319SOL    HW215591   3.267   2.321   5.845  0.8931 -1.4824  1.6598
 1320SOL     OW15592   3.033   4.631   6.771 -0.1100 -0.1932  0.3484
 1320SOL    HW115593   3.034   4.536   6.784  0.8317 -0.4359 -1.5326
 1320SOL    HW215594   3.033   4.661   6.862  0.3850  1.1625 -0.0984
 1321SOL     OW15595   2.530   4.705  15.384  0.1319  0.1138 -0.3429
 1321SOL    HW115596   2.460   4.723  15.321 -1.6381  0.3694  1.7002
 1321SOL    HW215597   2.603   4.687  15.326 -0.9749 -3.8461 -0.4711
 1322SOL     OW15598   1.345   1.550   7.758 -0.0923 -0.4676 -0.1005
 1322SOL    HW115599   1.431   1.524   7.791 -1.0012 -1.1189  1.7455
 1322SOL    HW215600   1.276   1.531   7.822 -0.3543  2.1597  0.4192
 1323SOL     OW15601   0.071   1.623   6.669  0.3140  0.2355  0.2141
 1323SOL    HW115602   4.731   1.615   6.607  0.5644  2.0001 -0.3308
 1323SOL    HW215603   0.025   1.617   6.752 -1.8586 -0.2136 -1.0396
 1324SOL     OW15604   3.901   0.827   6.057 -0.1457 -0.5304  0.6318
 1324SOL    HW115605   3.875   0.811   5.967  2.0217 -1.9931  0.2576
 1324SOL    HW215606   3.817   0.856   6.093  0.2883  0.9984  0.3843
 1325SOL     OW15607   4.617   1.922   5.840 -0.3649  0.4326  0.6375
 1325SOL    HW115608   4.528   1.893   5.859 -0.5214  0.3924 -0.1706
 1325SOL    HW215609   4.662   1.851   5.887  2.0718  2.1145  0.8770
 1326SOL     OW15610   1.552   3.973   4.021  1.1632  0.6658 -0.6965
 1326SOL    HW115611   1.542   4.066   3.998 -0.3263  0.1597 -2.1221
 1326SOL    HW215612   1.634   3.955   3.975  1.4827  0.5939 -0.1035
 1327SOL     OW15613   1.639   1.263   8.684 -0.0465 -1.1967  0.3256
 1327SOL    HW115614   1.584   1.338   8.708  0.7417 -0.6629  0.4758
 1327SOL    HW215615   1.595   1.207   8.620  0.4598 -1.8678  0.5630
 1328SOL     OW15616   3.416   3.633  16.785  0.3807 -0.3712 -0.1113
 1328SOL    HW115617   3.365   3.556  16.810 -0.7985  0.3256 -0.3921
 1328SOL    HW215618   3.347   3.680  16.739  0.0201  0.9625  1.8182
 1329SOL     OW15619   0.598   3.909  16.046  0.3691  0.7985  0.0221
 1329SOL    HW115620   0.505   3.934  16.053  0.3376  0.5822  0.3860
 1329SOL    HW215621   0.603   3.856  16.126  0.0580  2.0102  0.8607
 1330SOL     OW15622   2.617   4.375   7.948  0.1020  0.0327 -0.1140
 1330SOL    HW115623   2.646   4.440   7.883 -1.7139 -0.6068 -1.5343
 1330SOL    HW215624   2.523   4.372   7.935  0.2448  0.7410 -1.3462
 1331SOL     OW15625   2.210   1.188   8.662  0.0022 -0.1149  0.4059
 1331SOL    HW115626   2.127   1.142   8.646  0.1660 -0.1265 -0.3994
 1331SOL    HW215627   2.219   1.143   8.746  0.6035 -0.3877  0.1944
 1332SOL     OW15628   0.306   0.135   0.896 -0.5867 -0.0401 -0.3185
 1332SOL    HW115629   0.249   0.195   0.848  2.1228  1.7931 -1.2158
 1332SOL    HW215630   0.347   0.096   0.819 -0.2655  1.4921 -0.9358
 1333SOL     OW15631   1.766   4.198   9.279  0.0689  0.0997  0.2727
 1333SOL    HW115632   1.751   4.266   9.345  2.1675  2.3516 -1.5435
 1333SOL    HW215633   1.685   4.218   9.232 -0.7829 -2.7428  0.5374
 1334SOL     OW15634   2.038   1.850   4.344 -0.1971 -0.1257 -0.1761
 1334SOL    HW115635   2.112   1.804   4.383  0.6933  1.2229 -0.2947
 1334SOL    HW215636   2.024   1.792   4.269  1.6557 -0.5160 -0.2085
 1335SOL     OW15637   4.255   0.145   5.974  0.0906 -0.1924  0.6930
 1335SOL    HW115638   4.169   0.159   5.935  0.9013 -0.5230 -1.2211
 1335SOL    HW215639   4.237   0.104   6.059  1.6302  0.0498  1.1422
 1336SOL     OW15640   0.688   0.991   8.934 -0.0173 -0.1145 -0.1723
 1336SOL    HW115641   0.748   1.028   8.869  0.0397  1.5605  0.8289
 1336SOL    HW215642   0.643   0.917   8.893  0.1958 -0.6877  0.6416
 1337SOL     OW15643   2.622   4.099  12.730  0.3998 -0.8333  0.1059
 1337SOL    HW115644   2.541   4.080  12.778  0.9079 -0.0866  1.2438
 1337SOL    HW215645   2.635   4.185  12.771  0.7126 -0.6730 -0.3314
 1338SOL     OW15646   4.286   3.508  14.519  0.6067  0.6894 -0.2180
 1338SOL    HW115647   4.260   3.418  14.536  1.4959  0.8165  1.7547
 1338SOL    HW215648   4.270   3.540  14.608  0.8430 -2.0344  0.8102
 1339SOL     OW15649   3.711   2.420  17.369  0.4303 -0.4858 -0.5583
 1339SOL    HW115650   3.731   2.498  17.317  0.3659 -0.8828 -1.1833
 1339SOL    HW215651   3.798   2.381  17.368  1.3353  1.5349 -0.3691
 1340SOL     OW15652   4.285   4.725   5.196 -0.0191  0.3957 -0.1267
 1340SOL    HW115653   4.252   4.646   5.154 -0.6567  0.6889 -0.1804
 1340SOL    HW215654   4.198   0.028   5.216  0.2242  1.0852 -0.2702
 1341SOL     OW15655   0.034   2.652  11.324 -0.2646  0.2930 -0.3442
 1341SOL    HW115656   0.100   2.717  11.301  0.9611 -0.5407  0.8438
 1341SOL    HW215657   4.693   2.667  11.264 -1.3960 -0.1856  0.9157
 1342SOL     OW15658   2.213   2.536  14.832  0.2671 -0.3457  0.1071
 1342SOL    HW115659   2.233   2.530  14.738  0.5298 -1.4103  0.2336
 1342SOL    HW215660   2.285   2.492  14.876 -0.9700 -0.2069  2.2484
 1343SOL     OW15661   1.901   0.050   4.783  0.0729 -0.1286  0.3452
 1343SOL    HW115662   1.944   0.116   4.729 -1.5457 -0.5503 -1.4528
 1343SOL    HW215663   1.942   4.704   4.747 -0.1699  0.3870 -1.0728
 1344SOL     OW15664   0.269   1.578   8.174 -0.5161 -0.6471  1.0649
 1344SOL    HW115665   0.303   1.632   8.245  2.2413 -0.4300 -0.4137
 1344SOL    HW215666   0.197   1.531   8.215  0.3575 -0.6267  2.6511
 1345SOL     OW15667   3.480   1.201  12.321 -0.2163 -0.2942  0.4382
 1345SOL    HW115668   3.477   1.289  12.283  2.2925 -1.2359 -1.9209
 1345SOL    HW215669   3.567   1.167  12.301 -1.3922 -3.3034  0.5111
 1346SOL     OW15670   3.702   2.297   7.721  0.2158  0.2124  0.2136
 1346SOL    HW115671   3.702   2.392   7.704 -0.5932 -0.3112 -2.7279
 1346SOL    HW215672   3.662   2.300   7.807 -1.2107 -0.6561 -0.4276
 1347SOL     OW15673   2.562   2.876  14.146 -0.4518  0.1579  0.0447
 1347SOL    HW115674   2.636   2.917  14.101 -0.7903 -0.3996 -1.0130
 1347SOL    HW215675   2.535   2.944  14.208 -0.0235 -0.8120  1.2957
 1348SOL     OW15676   3.134   2.066   5.707  0.3519 -0.2399 -0.4900
 1348SOL    HW115677   3.178   2.094   5.627  0.0405  1.7161  0.0426
 1348SOL    HW215678   3.149   2.145   5.758 -0.1828 -0.4704  0.0175
 1349SOL     OW15679   0.242   3.292  13.564 -0.0287 -0.6608  0.2333
 1349SOL    HW115680   0.236   3.278  13.470 -0.8517  2.6772 -0.2049
 1349SOL    HW215681   0.313   3.229  13.575 -0.6860 -1.0666  2.1772
 1350SOL     OW15682   0.493   4.134   6.536 -0.5210 -0.0683 -0.2966
 1350SOL    HW115683   0.421   4.071   6.533  0.2626 -1.0943  2.0002
 1350SOL    HW215684   0.552   4.085   6.594  0.4780  0.5986 -0.7597
 1351SOL     OW15685   0.263   0.267  15.154  0.3405  0.0345 -0.2371
 1351SOL    HW115686   0.246   0.360  15.169  0.7989  0.1526 -0.4254
 1351SOL    HW215687   0.299   0.268  15.065  0.1764 -3.1561 -0.3423
 1352SOL     OW15688   0.603   1.222  17.605  0.2648 -0.0978 -0.2486
 1352SOL    HW115689   0.619   1.217  17.699  1.7459  0.1572 -0.4968
 1352SOL    HW215690   0.510   1.199  17.598 -0.0887  1.1122  0.5061
 1353SOL     OW15691   3.004   4.501   4.918  0.4551  0.7877  0.1737
 1353SOL    HW115692   2.954   4.579   4.941 -1.5365 -0.0604 -1.2648
 1353SOL    HW215693   2.966   4.483   4.833  0.8652 -1.3152  0.4185
 1354SOL     OW15694   3.909   0.647   9.176  0.2724  0.2900 -0.0185
 1354SOL    HW115695   3.902   0.643   9.272 -1.0804 -0.2630 -0.1415
 1354SOL    HW215696   3.900   0.552   9.169  1.6824  0.1909 -0.5222
 1355SOL     OW15697   4.729   3.621   2.599  0.2102  0.2738 -0.6765
 1355SOL    HW115698   4.702   3.593   2.686  0.3569  0.3269 -0.6129
 1355SOL    HW215699   0.092   3.621   2.601  0.1924  1.0100  0.1819
 1356SOL     OW15700   4.368   1.708   3.031 -0.2707 -0.1716 -0.1225
 1356SOL    HW115701   4.461   1.724   3.017 -0.2556 -1.6950 -1.7173
 1356SOL    HW215702   4.379   1.624   3.076 -0.8095  0.2828  0.8816
 1357SOL     OW15703   0.727   0.289   6.336 -0.1238 -0.4768  0.3668
 1357SOL    HW115704   0.740   0.243   6.419 -0.2758 -1.8718 -0.3692
 1357SOL    HW215705   0.781   0.365   6.358  0.7976 -1.2392  0.7610
 1358SOL     OW15706   4.324   1.066   1.832 -0.2670 -0.1472  0.0849
 1358SOL    HW115707   4.330   1.055   1.927  0.5824  3.0805  0.3957
 1358SOL    HW215708   4.232   1.040   1.820 -1.1766  2.3010  1.7532
 1359SOL     OW15709   2.283   1.383  11.267  0.2636  0.0972 -0.2302
 1359SOL    HW115710   2.357   1.368  11.326  1.2964 -1.5144 -1.9384
 1359SOL    HW215711   2.290   1.472  11.232  0.0611  0.0204 -0.4648
 1360SOL     OW15712   3.090   4.114   8.476 -0.6028 -0.0394  0.1443
 1360SOL    HW115713   3.050   4.034   8.442  1.0928 -0.4901 -0.7852
 1360SOL    HW215714   3.092   4.100   8.571  2.2575  0.7873  0.2015
 1361SOL     OW15715   1.815   0.487   5.804  0.0919  0.1111  0.6693
 1361SOL    HW115716   1.749   0.420   5.821 -2.8179  2.1606 -2.4880
 1361SOL    HW215717   1.881   0.423   5.776 -0.6571  0.8143 -2.6920
 1362SOL     OW15718   0.541   1.383   8.390 -0.0195  0.7201 -0.3889
 1362SOL    HW115719   0.510   1.457   8.442 -0.5570 -0.1286  0.5116
 1362SOL    HW215720   0.480   1.315   8.419  2.5045 -0.5711  1.8258
 1363SOL     OW15721   1.628   4.225   5.106 -0.4329  0.4814  0.0885
 1363SOL    HW115722   1.693   4.160   5.132 -0.4841  0.1567 -0.6092
 1363SOL    HW215723   1.585   4.243   5.190  0.2969  0.2317  0.5197
 1364SOL     OW15724   0.470   3.432   6.129 -0.3222  0.1925 -0.4521
 1364SOL    HW115725   0.433   3.510   6.169 -1.2576 -0.4108 -0.1412
 1364SOL    HW215726   0.447   3.370   6.198 -0.2330  2.2203  1.4013
 1365SOL     OW15727   0.961   2.998   7.125  0.4789  0.0234 -0.2637
 1365SOL    HW115728   1.038   3.053   7.114  1.3574 -1.0717  0.5169
 1365SOL    HW215729   0.909   3.066   7.170  0.5007  0.5101 -0.9719
 1366SOL     OW15730   4.199   3.688   7.362  0.1815 -0.1291  0.2330
 1366SOL    HW115731   4.224   3.619   7.423 -1.6215 -1.0860 -0.0950
 1366SOL    HW215732   4.222   3.639   7.283 -0.3759  1.3661 -0.8467
 1367SOL     OW15733   3.626   1.525   0.312  0.3825  0.1322  0.0742
 1367SOL    HW115734   3.638   1.616   0.339  1.1832  0.4111 -1.2778
 1367SOL    HW215735   3.651   1.483   0.394  1.3000  3.0796  1.3135
 1368SOL     OW15736   0.724   3.038  16.147 -0.1380  0.9394  0.2081
 1368SOL    HW115737   0.818   3.049  16.132 -0.0595 -0.7458 -0.4820
 1368SOL    HW215738   0.699   3.072  16.062 -0.5106 -0.1958 -0.1393
 1369SOL     OW15739   4.094   1.101   0.335 -0.5438  0.3029 -0.3494
 1369SOL    HW115740   4.098   1.194   0.358 -4.2606  0.3211  0.2942
 1369SOL    HW215741   4.136   1.098   0.249 -1.5656  0.7966 -0.8686
 1370SOL     OW15742   1.005   1.786  12.932  0.7730 -0.5953 -0.0625
 1370SOL    HW115743   1.083   1.817  12.886  1.1223  0.3022  1.1369
 1370SOL    HW215744   0.939   1.842  12.892  1.8719  0.3473 -0.5427
 1371SOL     OW15745   3.222   1.904  14.714  0.3183  0.0900  0.0453
 1371SOL    HW115746   3.297   1.953  14.748  0.4876  0.2126 -0.4917
 1371SOL    HW215747   3.144   1.935  14.761 -0.5145 -0.5211 -0.9373
 1372SOL     OW15748   4.533   1.308  17.565  0.5666 -0.3220 -0.6080
 1372SOL    HW115749   4.506   1.277  17.478  4.1405 -0.6722 -1.5944
 1372SOL    HW215750   4.557   1.226  17.608  3.5528  1.0886  0.3738
 1373SOL     OW15751   4.506   4.595   9.020  0.2021  0.5800 -0.4197
 1373SOL    HW115752   4.502   4.512   9.068 -0.1005  0.7087 -0.2242
 1373SOL    HW215753   4.511   4.658   9.092  0.4594  0.1797 -0.0857
 1374SOL     OW15754   3.440   0.268  13.898  0.0906  0.4361  0.2336
 1374SOL    HW115755   3.527   0.267  13.940  1.1706  0.5554 -1.9812
 1374SOL    HW215756   3.428   0.363  13.897  0.0408  0.4004 -2.0916
 1375SOL     OW15757   3.384   2.750   5.252  0.0474 -0.1032 -0.6676
 1375SOL    HW115758   3.340   2.712   5.176 -2.8855  1.1311  0.4310
 1375SOL    HW215759   3.369   2.676   5.310  0.6705 -0.1341 -0.5467
 1376SOL     OW15760   3.360   4.432   0.837  0.6574 -0.2230  0.3413
 1376SOL    HW115761   3.421   4.414   0.909  0.2494  0.4150  0.8587
 1376SOL    HW215762   3.287   4.374   0.857  1.4157 -1.4837 -0.6011
 1377SOL     OW15763   4.404   4.597   7.534 -0.0427  0.8027  0.2406
 1377SOL    HW115764   4.330   4.623   7.589 -0.4605  0.4609 -0.1610
 1377SOL    HW215765   4.373   4.632   7.451  0.2610  0.2883 -0.0931
 1378SOL     OW15766   4.157   4.175  13.928  0.8520 -0.1083 -0.4853
 1378SOL    HW115767   4.075   4.218  13.903  1.2875  0.4825 -0.8904
 1378SOL    HW215768   4.136   4.128  14.009 -0.0531 -1.5461 -1.5477
 1379SOL     OW15769   3.050   1.530   2.949  0.0457  0.1015  0.2659
 1379SOL    HW115770   3.081   1.605   3.000 -1.0171  0.6335  0.1219
 1379SOL    HW215771   3.114   1.532   2.877 -2.2172  0.9541 -1.7241
 1380SOL     OW15772   4.012   2.069   6.609  0.1901 -0.4713 -0.4225
 1380SOL    HW115773   4.099   2.093   6.642 -0.8748  0.2990  1.7773
 1380SOL    HW215774   3.957   2.145   6.628  2.9607  1.2970  0.5667
 1381SOL     OW15775   4.625   0.021   2.953 -0.3769  0.4176 -0.1484
 1381SOL    HW115776   4.593   4.709   2.875 -1.0544 -0.0212  0.3746
 1381SOL    HW215777   4.613   4.685   3.019 -0.8722  1.7835  1.1701
 1382SOL     OW15778   4.556   1.011  14.905  0.0773 -0.1428  0.0156
 1382SOL    HW115779   4.590   0.925  14.880  0.5228 -0.7532  2.7680
 1382SOL    HW215780   4.477   1.002  14.851  0.4775  0.4692 -0.6730
 1383SOL     OW15781   1.661   3.228   6.001 -0.0728 -0.1151  0.2422
 1383SOL    HW115782   1.721   3.231   5.926  0.6462  0.0148  0.8267
 1383SOL    HW215783   1.575   3.259   5.973 -0.0781 -0.2744  0.0800
 1384SOL     OW15784   4.423   0.715   1.151 -0.7008  0.5051  0.3038
 1384SOL    HW115785   4.454   0.637   1.106 -0.5337  1.0269 -0.4800
 1384SOL    HW215786   4.499   0.718   1.208 -0.2687 -0.0823 -0.2451
 1385SOL     OW15787   0.990   1.333   8.963 -0.3988 -0.5436 -0.1577
 1385SOL    HW115788   0.922   1.349   9.029 -0.0704 -0.0878  0.0751
 1385SOL    HW215789   0.957   1.258   8.914 -3.1952  0.9344 -0.5281
 1386SOL     OW15790   1.052   0.723   0.807  0.5004 -0.5293  0.0410
 1386SOL    HW115791   1.089   0.731   0.720  2.5950  0.1878  1.0070
 1386SOL    HW215792   1.118   0.770   0.857  0.6661 -1.8214  1.0601
 1387SOL     OW15793   2.607   3.824   8.164 -0.1354  0.0585  0.1148
 1387SOL    HW115794   2.598   3.730   8.177  0.7177  0.3112  2.4898
 1387SOL    HW215795   2.601   3.852   8.255  0.3205  2.6332 -0.6453
 1388SOL     OW15796   0.400   4.246   7.317  0.0545  0.5873 -0.8265
 1388SOL    HW115797   0.448   4.168   7.344 -2.0596 -0.7604 -0.9242
 1388SOL    HW215798   0.344   4.260   7.393 -2.0047 -1.0202 -2.0471
 1389SOL     OW15799   0.144   4.512  11.006 -0.1773 -0.2212 -0.0419
 1389SOL    HW115800   0.078   4.493  10.940  1.5480  1.2682 -2.1975
 1389SOL    HW215801   0.102   4.494  11.090 -0.7384 -2.3054 -0.7856
 1390SOL     OW15802   4.609   2.261   1.399  0.4355 -0.2935  0.5798
 1390SOL    HW115803   4.587   2.212   1.479  1.4337  1.2935  1.8241
 1390SOL    HW215804   4.536   2.238   1.342 -0.6153  1.4790  1.2421
 1391SOL     OW15805   2.290   1.819   9.260  0.4303 -0.3470  0.0795
 1391SOL    HW115806   2.374   1.794   9.221  0.1444  0.3858 -1.0218
 1391SOL    HW215807   2.241   1.737   9.267  0.4732 -0.4775 -1.1483
 1392SOL     OW15808   2.435   0.597   5.149  0.2325 -0.1380  0.1337
 1392SOL    HW115809   2.465   0.659   5.216 -3.6343  0.2861  1.5030
 1392SOL    HW215810   2.474   0.651   5.081  0.4563  0.4521  0.7283
 1393SOL     OW15811   2.772   4.718   1.794  0.2157 -0.1280  0.1146
 1393SOL    HW115812   2.688   4.724   1.840  0.2671 -0.9433  0.3104
 1393SOL    HW215813   2.768   4.639   1.740  0.5211  0.4130 -0.7083
 1394SOL     OW15814   4.171   1.080   8.825 -0.2500 -0.0861  0.0734
 1394SOL    HW115815   4.125   0.999   8.847 -1.8587 -0.2050 -3.6366
 1394SOL    HW215816   4.129   1.120   8.749  1.3257  2.9879  0.8525
 1395SOL     OW15817   3.207   1.040  13.172  0.0497  0.4013 -0.1235
 1395SOL    HW115818   3.116   1.069  13.183  0.5754  1.5365  1.2258
 1395SOL    HW215819   3.208   1.012  13.081 -3.5111  0.5150 -0.2053
 1396SOL     OW15820   1.678   3.881   4.786  0.2860  0.5140 -0.6970
 1396SOL    HW115821   1.611   3.884   4.717 -1.2874  4.0348  0.9523
 1396SOL    HW215822   1.637   3.844   4.864  1.3425 -0.2174 -0.4948
 1397SOL     OW15823   2.927   2.742   6.883 -0.4690  0.3456  0.3863
 1397SOL    HW115824   2.918   2.647   6.887 -1.2447  0.3897 -0.2621
 1397SOL    HW215825   2.975   2.749   6.800 -1.9784  3.9180 -0.1806
 1398SOL     OW15826   0.100   4.517   3.786 -0.5409 -0.5152  0.0508
 1398SOL    HW115827   0.084   4.435   3.833  0.7366 -0.8440 -0.0803
 1398SOL    HW215828   0.195   4.509   3.777 -0.5646 -1.9262  1.0006
 1399SOL     OW15829   3.175   3.059   7.042 -0.2820  0.0550  0.0947
 1399SOL    HW115830   3.243   3.098   7.096  0.1497  0.6058 -0.8415
 1399SOL    HW215831   3.103   3.118   7.063 -1.4398 -2.1841  2.4806
 1400SOL     OW15832   3.053   4.701   4.633  0.2981 -0.0489  0.0530
 1400SOL    HW115833   2.971   4.658   4.608 -1.2453  2.4411  0.8834
 1400SOL    HW215834   3.041   0.051   4.680  3.1284 -0.2961  1.1782
 1401SOL     OW15835   1.753   1.033  17.240 -0.4911 -0.1877 -0.6145
 1401SOL    HW115836   1.810   1.069  17.172 -0.2519  0.4491 -0.0856
 1401SOL    HW215837   1.726   0.952  17.197  2.3104 -1.3613 -0.1279
 1402SOL     OW15838   1.299   4.265   2.707 -0.3150  0.0612  0.4679
 1402SOL    HW115839   1.332   4.331   2.645 -1.9920  1.5798  1.1865
 1402SOL    HW215840   1.244   4.214   2.648 -0.1575 -1.3251  1.5297
 1403SOL     OW15841   2.150   1.897  11.286 -0.1710  0.2599 -0.1692
 1403SOL    HW115842   2.173   1.968  11.226 -2.4581  1.0243 -0.1599
 1403SOL    HW215843   2.237   1.886  11.325 -0.6278  0.4805  0.9032
 1404SOL     OW15844   0.215   0.124   4.439  0.3996 -0.1640 -0.6245
 1404SOL    HW115845   0.193   0.072   4.361 -0.3125  0.6190 -0.9487
 1404SOL    HW215846   0.308   0.101   4.447 -0.2323 -2.6114 -0.3922
 1405SOL     OW15847   2.855   1.479   3.116 -0.2412 -0.1807 -0.0170
 1405SOL    HW115848   2.882   1.542   3.183 -1.3193  0.0240  0.2275
 1405SOL    HW215849   2.912   1.508   3.044  2.5514 -1.6751  1.5965
 1406SOL     OW15850   1.544   3.595  10.018  0.3527  0.1873  0.2461
 1406SOL    HW115851   1.587   3.666  10.064  1.4070 -0.2481 -0.0566
 1406SOL    HW215852   1.621   3.548   9.985 -0.5251 -1.4827  0.5758
 1407SOL     OW15853   1.228   1.527   5.393 -0.6621  0.2898 -0.4249
 1407SOL    HW115854   1.316   1.552   5.367 -0.5089  0.1031 -0.0900
 1407SOL    HW215855   1.230   1.431   5.393 -0.3704  0.2970  1.6678
 1408SOL     OW15856   1.030   0.518   5.448 -0.2583 -0.0845  0.7549
 1408SOL    HW115857   0.975   0.570   5.388 -2.3788 -2.9723  0.1874
 1408SOL    HW215858   0.968   0.503   5.519  0.0951 -2.1577  0.6013
 1409SOL     OW15859   2.618   0.269   4.664 -0.2509  0.2765 -0.1187
 1409SOL    HW115860   2.630   0.225   4.579 -1.4036 -1.2027  0.4824
 1409SOL    HW215861   2.524   0.269   4.680  0.1128 -1.1455  1.9665
 1410SOL     OW15862   1.752   2.747   8.015  0.8463  0.4522 -0.1465
 1410SOL    HW115863   1.679   2.805   7.992  2.2034  1.2219 -2.4901
 1410SOL    HW215864   1.829   2.801   7.999  1.0157  0.7202  1.6127
 1411SOL     OW15865   2.503   4.241  13.289  0.0454 -0.3484  0.1599
 1411SOL    HW115866   2.595   4.264  13.279  0.4216 -1.0847  1.7889
 1411SOL    HW215867   2.483   4.170  13.228  1.8210 -1.2341  0.5954
 1412SOL     OW15868   1.788   3.605   3.773 -0.0884  0.0023  0.0301
 1412SOL    HW115869   1.795   3.601   3.678  0.2951  2.5614 -0.0419
 1412SOL    HW215870   1.842   3.529   3.798 -1.7260 -0.9120  0.8000
 1413SOL     OW15871   1.611   4.187   8.112  0.3330  0.1150 -0.1793
 1413SOL    HW115872   1.659   4.122   8.061 -0.3900 -0.8910  0.4314
 1413SOL    HW215873   1.681   4.244   8.145 -0.3082  1.5771 -1.3084
 1414SOL     OW15874   1.933   0.126   5.082 -0.1199 -0.9822  0.1523
 1414SOL    HW115875   1.877   0.203   5.085 -1.5076 -2.0085  0.8065
 1414SOL    HW215876   1.933   0.100   4.990  0.9942  1.8259 -0.6320
 1415SOL     OW15877   4.178   3.622  14.745 -0.0447  0.1870 -0.2254
 1415SOL    HW115878   4.219   3.705  14.772 -2.0505  0.8134  0.9579
 1415SOL    HW215879   4.156   3.585  14.830  0.5597 -1.6925 -0.8966
 1416SOL     OW15880   2.938   0.347   8.203  0.2087  0.0890  0.1285
 1416SOL    HW115881   2.902   0.259   8.211 -1.7953  0.8624 -0.5857
 1416SOL    HW215882   3.003   0.338   8.273 -1.5180 -2.3657  1.4169
 1417SOL     OW15883   3.814   0.332  12.440 -0.1400  0.4372  0.5829
 1417SOL    HW115884   3.896   0.321  12.489  1.7612  0.1416 -2.6939
 1417SOL    HW215885   3.827   0.422  12.411 -2.0774  0.8103  0.8292
 1418SOL     OW15886   3.075   2.830   7.111 -0.2975  0.1991 -0.4663
 1418SOL    HW115887   3.017   2.817   7.036 -0.2271 -1.0118 -0.3092
 1418SOL    HW215888   3.102   2.920   7.093 -0.2949  0.8028  2.4640
 1419SOL     OW15889   1.357   4.068   8.330 -0.4953  0.4774 -0.4361
 1419SOL    HW115890   1.430   4.128   8.316 -0.9941  1.1818 -0.0195
 1419SOL    HW215891   1.350   4.039   8.239 -1.6384 -1.4810  0.2739
 1420SOL     OW15892   2.211   1.173  10.497  0.4703  0.0390 -0.2461
 1420SOL    HW115893   2.245   1.083  10.503  1.9338  0.6049 -0.0256
 1420SOL    HW215894   2.140   1.158  10.434 -1.0708 -3.1862  2.2532
 1421SOL     OW15895   1.018   4.378   5.104 -0.1716 -0.1914  0.4551
 1421SOL    HW115896   1.051   4.301   5.058  0.1207 -0.6175  1.3764
 1421SOL    HW215897   0.939   4.391   5.052  1.4941  2.1244 -1.4668
 1422SOL     OW15898   1.941   1.757   5.638  0.0545 -0.5432 -0.3611
 1422SOL    HW115899   1.995   1.697   5.586  1.6583  0.8359 -0.2990
 1422SOL    HW215900   1.978   1.834   5.595  0.1179 -0.0672  0.5662
 1423SOL     OW15901   3.892   4.374   4.057 -0.1036  0.0660  0.3229
 1423SOL    HW115902   3.834   4.299   4.068 -0.6432  0.3813 -0.4036
 1423SOL    HW215903   3.909   4.399   4.148 -0.0942  1.7888 -0.1623
 1424SOL     OW15904   2.184   3.818  13.712  0.1372  0.1149 -0.0266
 1424SOL    HW115905   2.159   3.892  13.768  1.8055  0.4461  0.2859
 1424SOL    HW215906   2.125   3.818  13.637  1.0038  0.4319 -0.7009
 1425SOL     OW15907   1.594   1.639  10.371 -0.5568 -0.0669  0.2934
 1425SOL    HW115908   1.567   1.723  10.334  2.5464  1.4415  1.4373
 1425SOL    HW215909   1.549   1.639  10.456  3.0226 -1.7782  2.1690
 1426SOL     OW15910   3.183   3.483   4.809  0.6598  0.5667  0.4587
 1426SOL    HW115911   3.247   3.495   4.879  0.5385 -0.0455  0.6689
 1426SOL    HW215912   3.143   3.398   4.824 -0.1691  0.6885 -1.0414
 1427SOL     OW15913   3.430   0.248   9.410 -0.0050  0.8825 -0.1790
 1427SOL    HW115914   3.403   0.268   9.499 -1.2184  1.7366 -0.7413
 1427SOL    HW215915   3.474   0.331   9.390  1.6699  0.6641  2.5809
 1428SOL     OW15916   2.204   1.152   0.348 -0.4944 -0.1375  0.4317
 1428SOL    HW115917   2.219   1.234   0.299 -2.5090  1.2878  2.1913
 1428SOL    HW215918   2.167   1.095   0.280 -1.2786 -0.5552  1.2041
 1429SOL     OW15919   2.258   2.118   6.207 -0.3613 -0.0662  0.2611
 1429SOL    HW115920   2.271   2.069   6.126  1.2282  1.2957 -0.3106
 1429SOL    HW215921   2.175   2.165   6.200  0.7283  2.2558  2.4497
 1430SOL     OW15922   1.531   0.397   5.508 -0.3527  0.2085 -0.2406
 1430SOL    HW115923   1.447   0.378   5.466 -0.6256 -0.3184  0.5508
 1430SOL    HW215924   1.504   0.390   5.600  1.8170 -0.5119  0.3300
 1431SOL     OW15925   3.723   1.193   7.635  0.2774  0.2910 -0.2071
 1431SOL    HW115926   3.742   1.164   7.546  0.7100  0.6558 -0.2308
 1431SOL    HW215927   3.679   1.113   7.664  0.7185  0.4830  1.0099
 1432SOL     OW15928   0.287   3.857   3.789  0.4982  0.1636 -0.2783
 1432SOL    HW115929   0.192   3.866   3.802  0.1768 -1.3790 -1.5409
 1432SOL    HW215930   0.293   3.766   3.759 -0.5925  0.5650 -1.7584
 1433SOL     OW15931   1.843   0.625   3.185  0.3664  0.0335 -0.7326
 1433SOL    HW115932   1.787   0.549   3.201  1.5108 -0.9448 -1.3906
 1433SOL    HW215933   1.775   0.692   3.177  1.0953  0.8560  0.0172
 1434SOL     OW15934   0.856   0.792   1.794  0.0988 -0.4071 -0.1222
 1434SOL    HW115935   0.822   0.802   1.883 -1.3951 -0.2313 -0.7101
 1434SOL    HW215936   0.799   0.846   1.739 -1.6415  0.3514  2.3993
 1435SOL     OW15937   2.530   2.520  14.268  0.0625  0.6393 -0.2836
 1435SOL    HW115938   2.554   2.586  14.333  1.6382 -0.8187  0.6308
 1435SOL    HW215939   2.442   2.554  14.252 -0.5952 -0.1648  1.7323
 1436SOL     OW15940   1.799   3.868  10.316 -0.2934  0.2930  0.0569
 1436SOL    HW115941   1.776   3.810  10.243 -2.2815  0.1875  0.7766
 1436SOL    HW215942   1.723   3.923  10.331  0.3783  0.8926  1.2052
 1437SOL     OW15943   0.062   0.158   9.764 -1.0383  0.4564  0.4852
 1437SOL    HW115944   0.153   0.131   9.747 -1.4584 -0.0354 -1.0123
 1437SOL    HW215945   0.084   0.244   9.800 -1.7690  0.9517 -0.2591
 1438SOL     OW15946   1.917   0.470   9.074 -0.5285 -0.0247 -0.3030
 1438SOL    HW115947   1.958   0.501   9.155  0.6551 -1.9210 -0.1674
 1438SOL    HW215948   1.990   0.466   9.011 -0.2092  0.2201  0.0562
 1439SOL     OW15949   2.347   0.144  13.333 -0.0798 -0.2830 -0.1442
 1439SOL    HW115950   2.283   0.215  13.329 -1.4801 -1.6674 -2.0872
 1439SOL    HW215951   2.380   0.140  13.422 -1.6340  0.4326  0.4662
 1440SOL     OW15952   3.830   1.625   9.738  0.3850 -0.1551  0.7280
 1440SOL    HW115953   3.833   1.680   9.660 -0.8122 -2.3900 -0.8823
 1440SOL    HW215954   3.793   1.682   9.805 -0.1366 -1.3823  1.4817
 1441SOL     OW15955   3.077   4.645   7.866 -0.0274  0.0902 -0.2638
 1441SOL    HW115956   3.053   4.622   7.955  2.5553 -2.4103 -0.2430
 1441SOL    HW215957   3.031   4.574   7.821 -2.0935  1.0956  0.2572
 1442SOL     OW15958   1.528   3.827  16.859  0.5630 -0.3387 -0.1293
 1442SOL    HW115959   1.583   3.882  16.805  0.8737 -0.2985  0.2259
 1442SOL    HW215960   1.467   3.898  16.881 -0.2542 -0.7501 -1.0936
 1443SOL     OW15961   2.782   4.693   5.391  0.0121  0.4690 -0.0149
 1443SOL    HW115962   2.741   4.723   5.310 -1.6463  1.2995  1.1181
 1443SOL    HW215963   2.869   4.729   5.381 -0.4255  0.7225 -2.7147
 1444SOL     OW15964   4.669   1.755   3.334 -0.2068  0.0587 -0.4587
 1444SOL    HW115965   4.659   1.743   3.428  0.3795 -1.9379 -0.6548
 1444SOL    HW215966   4.719   1.675   3.320 -1.3109 -0.8416  0.7854
 1445SOL     OW15967   4.538   1.370   0.629  0.0532 -0.0320  0.0540
 1445SOL    HW115968   4.611   1.309   0.642 -1.7457 -2.4852 -1.3963
 1445SOL    HW215969   4.458   1.318   0.629  0.3576 -0.5037  0.6642
 1446SOL     OW15970   2.247   2.883   9.275  0.8122 -0.1256  0.4802
 1446SOL    HW115971   2.314   2.881   9.343  1.7066 -1.7549 -0.4527
 1446SOL    HW215972   2.281   2.951   9.216  0.7074 -1.3231 -0.9521
 1447SOL     OW15973   3.530   1.729   4.665  0.4115 -0.5860 -0.1966
 1447SOL    HW115974   3.580   1.799   4.625  0.4048 -0.4882 -0.0317
 1447SOL    HW215975   3.438   1.756   4.665 -0.3295 -3.0999 -0.5073
 1448SOL     OW15976   3.326   4.112   6.039  0.0694 -0.3291  0.9455
 1448SOL    HW115977   3.325   4.017   6.042 -1.1428 -0.3153  1.2947
 1448SOL    HW215978   3.380   4.126   6.116  0.0552  0.5974  0.7878
 1449SOL     OW15979   1.143   0.278   6.631  0.0804  0.7767  0.2515
 1449SOL    HW115980   1.055   0.257   6.663 -0.6146  1.0940 -1.4619
 1449SOL    HW215981   1.202   0.242   6.698  1.5911 -0.0208 -1.5138
 1450SOL     OW15982   3.306   3.721  14.893 -0.4265  0.3372  0.6455
 1450SOL    HW115983   3.274   3.743  14.806  1.1621  2.1513  0.5070
 1450SOL    HW215984   3.305   3.803  14.943  0.1635  1.1954 -0.7521
 1451SOL     OW15985   2.495   0.250   7.446  0.0957  0.4161  0.3224
 1451SOL    HW115986   2.432   0.245   7.518 -0.2697  0.3035 -0.0030
 1451SOL    HW215987   2.458   0.210   7.367  1.0415 -0.7899  0.4997
 1452SOL     OW15988   2.853   4.202   8.263 -0.0707  0.1160 -0.0199
 1452SOL    HW115989   2.924   4.205   8.200  0.5688 -2.7772  0.5813
 1452SOL    HW215990   2.892   4.139   8.324 -0.0868  1.8923  1.8327
 1453SOL     OW15991   4.560   2.488   3.488  0.2258  0.6155  0.7232
 1453SOL    HW115992   4.496   2.434   3.534 -0.4938  1.5206  0.7751
 1453SOL    HW215993   4.508   2.527   3.419  0.8039  1.0324  0.5250
 1454SOL     OW15994   1.834   3.020  16.325  0.4043 -0.0951 -0.0004
 1454SOL    HW115995   1.880   3.055  16.249 -3.1119 -0.7891 -2.4026
 1454SOL    HW215996   1.910   2.971  16.359  0.7403  0.6841  0.3675
 1455SOL     OW15997   2.280   2.586   5.468  0.1812 -0.3526 -0.5245
 1455SOL    HW115998   2.225   2.599   5.391 -1.0971 -0.2113  0.4314
 1455SOL    HW215999   2.367   2.605   5.433 -0.5751  0.7755 -1.7588
 1456SOL     OW16000   3.844   4.220  17.400 -0.4666  0.4355 -0.4944
 1456SOL    HW116001   3.930   4.255  17.425 -0.8690 -0.1040  1.6229
 1456SOL    HW216002   3.826   4.258  17.314 -1.3531  0.1021 -0.4482
 1457SOL     OW16003   4.141   4.371  14.587  0.1625 -0.6598  0.3929
 1457SOL    HW116004   4.072   4.418  14.539 -1.3702 -1.9701  1.3297
 1457SOL    HW216005   4.097   4.287  14.599 -0.2179 -0.7700 -1.7274
 1458SOL     OW16006   0.200   0.571   2.060 -0.2767 -0.7031  0.1068
 1458SOL    HW116007   0.193   0.542   1.969  2.0550 -0.9443 -0.0058
 1458SOL    HW216008   0.130   0.519   2.099 -0.0470 -0.5435  0.7279
 1459SOL     OW16009   3.847   1.860  15.482 -0.8797 -0.0826 -0.7554
 1459SOL    HW116010   3.926   1.904  15.451 -0.5137 -0.1243  0.1158
 1459SOL    HW216011   3.860   1.853  15.577  0.5368 -3.1649 -1.1809
 1460SOL     OW16012   3.858   3.540  10.512  0.3003 -0.0816  0.2008
 1460SOL    HW116013   3.810   3.561  10.432  0.9544  1.6900  0.2658
 1460SOL    HW216014   3.861   3.627  10.551  0.1035  0.4291 -0.9237
 1461SOL     OW16015   0.327   3.807   1.635  0.2883 -0.0466 -0.0775
 1461SOL    HW116016   0.363   3.734   1.585  0.3619 -1.3360  1.8740
 1461SOL    HW216017   0.234   3.811   1.612 -0.1108  0.7659  1.6306
 1462SOL     OW16018   2.075   0.187   4.022  0.3774  0.2782 -0.3536
 1462SOL    HW116019   1.982   0.178   4.040  0.0413  1.1281 -1.6222
 1462SOL    HW216020   2.097   0.097   3.998 -3.0510 -0.8682  0.9132
 1463SOL     OW16021   3.064   1.016   7.107  0.4580 -0.0325 -0.6120
 1463SOL    HW116022   3.114   1.015   7.189  0.4746  0.9627 -0.6071
 1463SOL    HW216023   2.974   1.018   7.141  1.5074  0.7470  2.1078
 1464SOL     OW16024   2.231   4.672   2.656 -0.3662 -0.7595  0.0171
 1464SOL    HW116025   2.219   4.577   2.653 -1.7478 -0.6465  1.6667
 1464SOL    HW216026   2.263   4.685   2.567  2.1458  1.4094  1.2440
 1465SOL     OW16027   4.165   3.333   3.031  0.4536  0.0878 -0.2889
 1465SOL    HW116028   4.134   3.366   2.946 -2.7315  1.9094  1.5886
 1465SOL    HW216029   4.242   3.286   2.999  0.7265 -0.5501  1.3304
 1466SOL     OW16030   1.404   4.192  14.746  0.6261 -0.0895  0.4469
 1466SOL    HW116031   1.376   4.280  14.719  3.4730  0.2263 -1.4893
 1466SOL    HW216032   1.498   4.208  14.744  0.2403  2.6158  2.6581
 1467SOL     OW16033   3.932   0.629   3.000  0.1408  0.9649 -0.1826
 1467SOL    HW116034   4.025   0.644   2.981  0.2891  1.8664  1.2393
 1467SOL    HW216035   3.907   0.715   3.033  1.8079  0.3598  2.6788
 1468SOL     OW16036   3.522   1.365   6.421 -0.4974  0.1796 -0.1174
 1468SOL    HW116037   3.492   1.360   6.330  2.6181  0.4410 -1.1876
 1468SOL    HW216038   3.609   1.326   6.412 -0.0533  0.9212  0.8940
 1469SOL     OW16039   3.457   4.517   8.438 -0.3532 -0.7498  0.0927
 1469SOL    HW116040   3.391   4.530   8.369 -1.3482  0.4459  1.2597
 1469SOL    HW216041   3.525   4.582   8.422  0.6445 -1.7658  0.2366
 1470SOL     OW16042   0.896   0.831   0.546  0.4791 -0.1541  0.3073
 1470SOL    HW116043   0.840   0.846   0.622 -0.3552  2.3011 -0.7944
 1470SOL    HW216044   0.943   0.914   0.538  1.5837 -1.1169 -3.3892
 1471SOL     OW16045   4.325   0.792  14.184  0.0602  0.1268 -0.4918
 1471SOL    HW116046   4.296   0.816  14.096  1.1617  0.8696 -0.6558
 1471SOL    HW216047   4.407   0.842  14.192 -0.0381 -0.0084  1.5084
 1472SOL     OW16048   1.309   4.696   6.759 -0.0394 -0.1352 -0.3802
 1472SOL    HW116049   1.238   4.702   6.695 -0.3177 -0.0001 -0.0538
 1472SOL    HW216050   1.252   4.696   6.836  1.1056  3.2072  0.4526
 1473SOL     OW16051   0.807   3.196   7.996  0.2811 -0.4378  0.2514
 1473SOL    HW116052   0.796   3.281   7.955  1.0795 -0.2304  0.4683
 1473SOL    HW216053   0.776   3.209   8.086  0.1712 -0.2607  0.1884
 1474SOL     OW16054   1.558   2.232   3.522  0.4260  0.0181  0.4284
 1474SOL    HW116055   1.515   2.259   3.441  0.3930  0.5173  0.6121
 1474SOL    HW216056   1.528   2.309   3.570  0.5652 -1.1068  2.3060
 1475SOL     OW16057   0.655   0.156   6.091  0.7303 -0.5652 -0.2982
 1475SOL    HW116058   0.675   0.207   6.170  1.3258  0.9082 -1.3787
 1475SOL    HW216059   0.739   0.140   6.048  1.7416  0.0085  1.4258
 1476SOL     OW16060   4.302   2.874   5.229 -0.8741  0.6583 -0.4069
 1476SOL    HW116061   4.231   2.822   5.267  1.0803 -2.0025 -0.3548
 1476SOL    HW216062   4.371   2.809   5.246 -3.4938 -1.1284  3.3879
 1477SOL     OW16063   1.364   3.634   5.939 -0.3999 -0.2076  0.0064
 1477SOL    HW116064   1.413   3.709   5.906 -2.4351  0.8154 -0.6740
 1477SOL    HW216065   1.300   3.625   5.869 -0.2472  1.5826 -0.3515
 1478SOL     OW16066   1.205   0.078   0.169  0.1099 -0.0755  0.2574
 1478SOL    HW116067   1.283   0.100   0.119 -1.3345  0.0945 -1.9345
 1478SOL    HW216068   1.239   0.022   0.239 -0.5624  1.7351  2.0695
 1479SOL     OW16069   2.636   4.699  10.823 -0.0075  0.1174  0.3982
 1479SOL    HW116070   2.650   0.014  10.741  0.4399  2.4188  1.8000
 1479SOL    HW216071   2.589   0.036  10.869  0.3848  0.9770 -0.4955
 1480SOL     OW16072   4.244   0.541   7.205  0.0026 -0.0857  0.1428
 1480SOL    HW116073   4.177   0.479   7.233 -0.1596  0.3352  0.6830
 1480SOL    HW216074   4.196   0.597   7.144  0.0478  0.3278  0.4863
 1481SOL     OW16075   4.079   2.797   4.681 -0.3790  0.1396  0.3631
 1481SOL    HW116076   4.004   2.759   4.636  0.5944 -0.9330 -0.3402
 1481SOL    HW216077   4.145   2.796   4.612  0.7659 -1.2147  1.4870
 1482SOL     OW16078   3.341   3.931   9.049 -0.0585  0.2138  0.0393
 1482SOL    HW116079   3.264   3.874   9.059  0.2036  0.0305  0.9562
 1482SOL    HW216080   3.387   3.869   8.991 -1.3216 -1.7427  1.1092
 1483SOL     OW16081   1.040   1.494  11.286  0.0932  0.8823  0.1978
 1483SOL    HW116082   0.984   1.478  11.210 -1.1631  3.4034  0.5689
 1483SOL    HW216083   1.110   1.543  11.242  1.5251 -0.1629  1.2944
 1484SOL     OW16084   2.173   0.612   0.781  0.4319 -0.5822 -0.3965
 1484SOL    HW116085   2.147   0.610   0.874 -1.2060  3.2158 -0.7754
 1484SOL    HW216086   2.092   0.638   0.736  0.7404 -1.1755 -1.2860
 1485SOL     OW16087   0.275   0.160   6.044  0.3136  0.0356  0.1742
 1485SOL    HW116088   0.202   0.098   6.032 -0.8571  1.6098 -0.9316
 1485SOL    HW216089   0.237   0.232   5.993 -2.1078 -1.8657 -0.7101
 1486SOL     OW16090   1.759   4.510   4.467  0.1997 -0.0088 -0.5066
 1486SOL    HW116091   1.843   4.488   4.428  0.4628  1.2656 -0.6754
 1486SOL    HW216092   1.751   4.445   4.536 -0.2657 -2.0177 -2.4778
 1487SOL     OW16093   3.187   4.528   8.326 -0.0432  1.3211 -0.4988
 1487SOL    HW116094   3.181   4.622   8.340 -0.1772  1.1080  0.9368
 1487SOL    HW216095   3.124   4.502   8.394 -0.6344  0.3306 -1.4288
 1488SOL     OW16096   2.189   0.653   4.130  0.1955  0.2444 -0.8123
 1488SOL    HW116097   2.220   0.569   4.098  1.2001  0.5383 -0.6100
 1488SOL    HW216098   2.218   0.640   4.221  0.5386 -0.8938 -1.0801
 1489SOL     OW16099   1.111   1.753   1.588  0.2215 -0.3127 -0.1506
 1489SOL    HW116100   1.052   1.751   1.663 -0.3738 -2.4911 -0.6572
 1489SOL    HW216101   1.180   1.691   1.610  1.3610  0.0171 -2.7824
 1490SOL     OW16102   0.779   1.263   8.313 -0.1418  0.2902 -0.2323
 1490SOL    HW116103   0.782   1.281   8.219 -0.8257 -0.3973 -0.3821
 1490SOL    HW216104   0.691   1.289   8.340  0.5843  0.6226  1.8070
 1491SOL     OW16105   2.105   2.880   6.318  0.2807  0.3718  0.3409
 1491SOL    HW116106   2.063   2.965   6.303  0.4130  0.6887  1.7823
 1491SOL    HW216107   2.074   2.860   6.406  1.8003  2.3431  1.3341
 1492SOL     OW16108   1.024   0.720  13.643 -0.7473  0.4497 -0.6022
 1492SOL    HW116109   1.083   0.695  13.714 -1.4307  0.1543 -0.1307
 1492SOL    HW216110   0.937   0.691  13.671 -1.2479  2.6347  0.0894
 1493SOL     OW16111   0.915   3.171   9.817 -0.6426 -0.9824 -0.5216
 1493SOL    HW116112   0.892   3.137   9.904  0.2243  1.7598  0.7583
 1493SOL    HW216113   0.979   3.240   9.834 -3.8122  1.7937  0.2401
 1494SOL     OW16114   2.026   1.098  10.308 -0.3730  0.0240 -0.5150
 1494SOL    HW116115   1.942   1.141  10.324  0.1572 -0.0057  2.2146
 1494SOL    HW216116   1.997   1.017  10.267 -2.1844 -0.0597  0.9195
 1495SOL     OW16117   3.130   0.988   0.766 -0.1247 -0.0532  0.5479
 1495SOL    HW116118   3.082   0.905   0.766  0.8237 -0.6000 -2.7143
 1495SOL    HW216119   3.214   0.961   0.731 -0.9414  0.3818 -1.7392
 1496SOL     OW16120   2.695   2.737   4.555  0.1328  0.3321  0.2786
 1496SOL    HW116121   2.610   2.728   4.511  0.4133 -1.1574  0.0329
 1496SOL    HW216122   2.745   2.772   4.481  0.2333 -2.5720 -1.0367
 1497SOL     OW16123   2.290   0.959  16.015 -0.0146  0.1126 -0.3000
 1497SOL    HW116124   2.384   0.976  16.017  0.0348 -0.1363 -0.4268
 1497SOL    HW216125   2.256   1.020  16.081 -1.4270 -1.5187  0.5057
 1498SOL     OW16126   2.085   3.912   2.782  0.3454 -0.0672  0.2229
 1498SOL    HW116127   2.163   3.940   2.734 -0.5981  2.0769 -0.0481
 1498SOL    HW216128   2.131   3.838   2.823 -0.8092 -1.4097 -0.8924
 1499SOL     OW16129   0.094   0.809   8.986 -0.3981 -0.1209  0.3313
 1499SOL    HW116130   0.169   0.805   9.044  0.1900  0.9800 -0.3326
 1499SOL    HW216131   0.050   0.727   9.008  0.2851 -0.5501  0.0956
 1500SOL     OW16132   1.404   2.405   3.681 -0.0941  0.5925 -0.2895
 1500SOL    HW116133   1.334   2.344   3.658 -0.5290  0.1338  2.2589
 1500SOL    HW216134   1.377   2.478   3.626  1.2217  0.2326 -1.4128
 1501SOL     OW16135   2.323   0.858   0.236 -0.7157  0.1398 -0.1586
 1501SOL    HW116136   2.335   0.771   0.274  0.3505 -0.0804 -0.9941
 1501SOL    HW216137   2.412   0.894   0.229 -0.3130 -0.5450  1.2464
 1502SOL     OW16138   0.252   2.364   0.734 -0.2869 -0.0392 -0.1752
 1502SOL    HW116139   0.245   2.322   0.819 -0.6281 -0.7206 -0.5400
 1502SOL    HW216140   0.279   2.452   0.760 -1.9623  0.3903  0.1272
 1503SOL     OW16141   4.097   2.827  15.704 -0.0531 -0.0914  0.0450
 1503SOL    HW116142   4.050   2.910  15.698 -0.1952  0.0074  2.3305
 1503SOL    HW216143   4.042   2.772  15.760  0.4968 -0.5347  0.1434
 1504SOL     OW16144   1.758   1.170   1.961 -0.3720  0.4563  0.2107
 1504SOL    HW116145   1.799   1.111   2.023  2.1861  1.4236 -0.5705
 1504SOL    HW216146   1.784   1.130   1.878  0.3829  0.9441  0.2082
 1505SOL     OW16147   1.375   0.289   7.326  0.1829 -0.0230  0.6996
 1505SOL    HW116148   1.352   0.202   7.292 -2.2383  0.6227  0.7407
 1505SOL    HW216149   1.326   0.343   7.265 -1.1646 -2.0624  0.0029
 1506SOL     OW16150   3.135   1.450   0.910 -0.4980 -0.4967 -0.0521
 1506SOL    HW116151   3.185   1.417   0.835 -0.1982 -0.2791  0.0538
 1506SOL    HW216152   3.130   1.364   0.952  0.9466 -0.2141  0.6809
 1507SOL     OW16153   2.135   0.550   2.344 -0.6498  0.0038  0.2907
 1507SOL    HW116154   2.220   0.588   2.322 -0.0443 -0.2672  2.1952
 1507SOL    HW216155   2.159   0.458   2.336  0.4311  0.2949  0.1717
 1508SOL     OW16156   0.428   2.236   6.772  0.0742  0.5277  0.7110
 1508SOL    HW116157   0.363   2.266   6.835 -0.8132 -1.6921  0.8545
 1508SOL    HW216158   0.438   2.147   6.805 -1.4469 -0.4343 -1.4544
 1509SOL     OW16159   4.343   0.365   2.631 -0.5184  0.8141 -0.1276
 1509SOL    HW116160   4.286   0.438   2.656 -0.0428  0.8506  0.8240
 1509SOL    HW216161   4.424   0.378   2.680 -1.0255 -1.5804  1.3081
 1510SOL     OW16162   1.310   2.539   5.846  0.2941  0.5917 -0.5638
 1510SOL    HW116163   1.393   2.586   5.845  0.7031 -0.1161 -0.3554
 1510SOL    HW216164   1.337   2.451   5.872 -0.8954  0.2563 -0.4586
 1511SOL     OW16165   1.536   2.092   8.947 -0.0929  1.0160  0.1670
 1511SOL    HW116166   1.601   2.023   8.931 -1.5836 -0.3595  0.0695
 1511SOL    HW216167   1.449   2.059   8.926  0.4169  0.0433 -0.4499
 1512SOL     OW16168   0.675   1.533   2.790  0.5856 -0.3049 -0.1029
 1512SOL    HW116169   0.635   1.489   2.865  2.2711  0.8728  1.5212
 1512SOL    HW216170   0.627   1.491   2.719  0.8085 -3.2725  1.4938
 1513SOL     OW16171   3.746   1.078   8.456 -0.2241 -0.8560  0.0690
 1513SOL    HW116172   3.713   1.167   8.443  3.0290  0.2910 -0.3244
 1513SOL    HW216173   3.740   1.035   8.371 -1.6673 -0.8501  0.1665
 1514SOL     OW16174   0.174   0.244   7.916 -0.3234 -0.5357 -0.1475
 1514SOL    HW116175   0.118   0.308   7.871  0.6318  1.2516  1.2244
 1514SOL    HW216176   0.187   0.190   7.837  4.1973  0.2357  0.0363
 1515SOL     OW16177   4.406   0.319   8.780  0.6549 -0.0378 -0.1560
 1515SOL    HW116178   4.485   0.370   8.762  0.3666  0.6845  0.6067
 1515SOL    HW216179   4.375   0.302   8.691 -1.2580 -1.2951  0.7405
 1516SOL     OW16180   2.845   2.574  13.811  0.2300  0.1208  0.0798
 1516SOL    HW116181   2.770   2.606  13.862 -1.6018 -0.1615 -2.4069
 1516SOL    HW216182   2.790   2.539  13.741  0.6415 -0.3989  0.0175
 1517SOL     OW16183   0.368   0.811   5.128 -0.4490  0.0184 -0.2697
 1517SOL    HW116184   0.287   0.783   5.170  1.4355 -0.7131  2.8521
 1517SOL    HW216185   0.357   0.762   5.046  4.3682 -0.3798 -0.6823
 1518SOL     OW16186   0.105   1.445   6.034  0.3988 -0.2805 -0.2517
 1518SOL    HW116187   0.171   1.410   5.974  0.9522  0.2074  0.0709
 1518SOL    HW216188   0.024   1.411   5.996  1.0184 -1.8144 -0.2176
 1519SOL     OW16189   0.405   4.456   5.586 -0.1188  0.3565  0.0006
 1519SOL    HW116190   0.370   4.426   5.670 -1.5637  1.6906 -0.1104
 1519SOL    HW216191   0.320   4.457   5.541  0.3247 -1.7124 -0.9096
 1520SOL     OW16192   1.061   3.205   5.676  0.1474  0.5967  0.0154
 1520SOL    HW116193   1.143   3.191   5.627 -0.6873 -1.7636 -0.7292
 1520SOL    HW216194   1.094   3.252   5.752 -0.7150  0.3860  0.5211
 1521SOL     OW16195   2.851   3.428   9.191  0.1754 -0.1253  0.7324
 1521SOL    HW116196   2.877   3.431   9.099  0.1471 -0.2919  0.7184
 1521SOL    HW216197   2.882   3.512   9.223 -3.2510  2.6463 -3.1613
 1522SOL     OW16198   1.566   2.900   6.788 -0.3713 -0.0883 -0.5998
 1522SOL    HW116199   1.630   2.935   6.727  0.0002 -3.4721 -2.1509
 1522SOL    HW216200   1.487   2.934   6.747 -0.2192  0.0832 -0.7483
 1523SOL     OW16201   1.605   1.783  16.845  0.1120 -0.2051  0.6002
 1523SOL    HW116202   1.692   1.791  16.806  0.4283 -0.8107  1.1903
 1523SOL    HW216203   1.562   1.721  16.786 -0.8630 -0.1643  1.2825
 1524SOL     OW16204   2.006   0.361   4.435 -0.0942  0.6395 -0.1396
 1524SOL    HW116205   2.012   0.269   4.411  1.5186  0.2435  1.8197
 1524SOL    HW216206   1.915   0.390   4.428 -0.2293  0.7033  2.0133
 1525SOL     OW16207   4.221   3.915   8.505 -0.4938 -0.1283 -0.3470
 1525SOL    HW116208   4.156   3.896   8.572 -0.3204 -1.3355 -0.5241
 1525SOL    HW216209   4.182   3.981   8.447 -1.8074  0.0450  0.7330
 1526SOL     OW16210   1.522   3.777  10.523 -0.2862 -0.2971  0.1673
 1526SOL    HW116211   1.570   3.841  10.575 -0.9386 -0.4554  0.9715
 1526SOL    HW216212   1.458   3.740  10.584 -0.2021  0.2173  0.5653
 1527SOL     OW16213   3.341   0.868   3.925 -0.6471 -0.6449 -0.3256
 1527SOL    HW116214   3.248   0.889   3.914 -0.4897 -0.0500 -0.4684
 1527SOL    HW216215   3.329   0.773   3.922  2.7522 -1.1124  1.0062
 1528SOL     OW16216   4.119   0.156  13.304  0.4244  0.2487 -0.1398
 1528SOL    HW116217   4.206   0.196  13.301  0.4865 -0.0549 -2.0207
 1528SOL    HW216218   4.055   0.216  13.266 -0.4576 -2.2163 -2.4854
 1529SOL     OW16219   1.313   2.513   2.279 -0.0156  0.1662  0.4478
 1529SOL    HW116220   1.319   2.516   2.184 -0.4095  0.4247  0.4313
 1529SOL    HW216221   1.274   2.599   2.295 -2.0060 -0.1592 -2.8567
 1530SOL     OW16222   1.930   4.700   1.772  0.2181 -0.5594  0.1151
 1530SOL    HW116223   1.857   4.643   1.747  1.5569 -2.1539 -0.1433
 1530SOL    HW216224   1.955   4.646   1.847 -0.0968  0.2830  0.8115
 1531SOL     OW16225   4.663   4.398   6.919 -0.1254 -0.4530  0.1082
 1531SOL    HW116226   4.602   4.469   6.901  1.0433  0.7845  1.0183
 1531SOL    HW216227   4.685   4.373   6.830 -0.5164 -0.1255 -0.0798
 1532SOL     OW16228   0.300   0.580   1.719  0.3327  0.5827  0.1314
 1532SOL    HW116229   0.306   0.637   1.643 -2.7695 -0.9639 -1.3016
 1532SOL    HW216230   0.383   0.589   1.765  0.6078  0.6300 -0.3831
 1533SOL     OW16231   3.400   1.240   5.740  0.4042 -0.2305  0.4759
 1533SOL    HW116232   3.457   1.171   5.706  0.7601 -0.1367  0.8788
 1533SOL    HW216233   3.317   1.193   5.750 -1.7396  3.1643 -1.5038
 1534SOL     OW16234   1.356   4.096   3.216 -0.0333  0.0185 -0.2105
 1534SOL    HW116235   1.387   4.141   3.137  0.9278  0.0809  0.1965
 1534SOL    HW216236   1.338   4.005   3.193  0.6144 -0.6882  2.1224
 1535SOL     OW16237   2.541   0.833   5.064  0.1028 -0.6672 -0.4299
 1535SOL    HW116238   2.622   0.840   5.012  0.3910 -0.0549  0.0931
 1535SOL    HW216239   2.555   0.905   5.126  0.7525  0.7346 -2.1909
 1536SOL     OW16240   2.290   0.332   2.820  0.0011  0.0552  0.2386
 1536SOL    HW116241   2.237   0.255   2.838 -0.2618  0.0863 -0.3969
 1536SOL    HW216242   2.220   0.390   2.791 -0.0503 -0.6016 -0.9675
 1537SOL     OW16243   2.379   3.775   2.249  0.1663 -0.2745 -0.1202
 1537SOL    HW116244   2.377   3.737   2.336 -0.7715  0.2113  0.0752
 1537SOL    HW216245   2.465   3.816   2.259 -0.2042  0.2145  1.0383
 1538SOL     OW16246   1.567   4.476  10.757 -0.6916 -0.2771  0.2928
 1538SOL    HW116247   1.588   4.433  10.840  0.3300  0.0546  0.2074
 1538SOL    HW216248   1.583   4.567  10.780  0.0009 -0.5996  1.1175
 1539SOL     OW16249   1.901   3.745  12.983 -0.3966  0.2666 -0.1101
 1539SOL    HW116250   1.812   3.734  12.950 -0.2129 -2.8999  0.4210
 1539SOL    HW216251   1.954   3.756  12.904  0.5727  2.6075  0.8568
 1540SOL     OW16252   1.806   3.652   8.932  0.2367 -0.5497 -0.3522
 1540SOL    HW116253   1.830   3.726   8.988  1.3586 -1.1058 -0.1141
 1540SOL    HW216254   1.736   3.687   8.875 -1.1854 -1.2234  0.9844
 1541SOL     OW16255   4.674   3.575   2.860  0.2362 -0.6819  0.3240
 1541SOL    HW116256   4.663   3.481   2.875  0.8437 -0.7710  0.1805
 1541SOL    HW216257   4.671   3.600   2.953 -1.5680  4.0965 -1.0532
 1542SOL     OW16258   1.643   2.010   2.293 -0.4438 -0.2778  0.0272
 1542SOL    HW116259   1.672   2.075   2.357 -2.1669  2.5732 -2.0908
 1542SOL    HW216260   1.558   1.987   2.329 -0.0838  0.9416  1.6832
 1543SOL     OW16261   4.482   1.139   8.772 -0.0708  0.2002 -0.3318
 1543SOL    HW116262   4.512   1.222   8.807  1.5255 -1.0011  1.1862
 1543SOL    HW216263   4.389   1.140   8.794 -0.0104  2.1261 -0.2471
 1544SOL     OW16264   2.814   4.383   7.362  0.0608  0.7153  0.6066
 1544SOL    HW116265   2.812   4.305   7.418 -1.6239  0.1669 -0.2211
 1544SOL    HW216266   2.870   4.444   7.411  1.2348  0.2722 -0.1683
 1545SOL     OW16267   2.200   0.161   5.090 -0.1646 -0.2362  0.2444
 1545SOL    HW116268   2.105   0.150   5.084 -0.4827  3.5531 -1.9598
 1545SOL    HW216269   2.203   0.255   5.109  2.1502 -0.9414  3.4269
 1546SOL     OW16270   0.599   3.096   5.428  0.4250  0.1142 -0.0688
 1546SOL    HW116271   0.631   3.123   5.342 -1.6139 -2.1045 -1.5120
 1546SOL    HW216272   0.668   3.114   5.493  1.1086  1.6834 -1.2263
 1547SOL     OW16273   0.517   3.090   2.809 -0.0587  0.0388  0.3894
 1547SOL    HW116274   0.473   3.020   2.760  0.1204 -1.2140  2.0082
 1547SOL    HW216275   0.438   3.140   2.828  0.2618  0.4421  0.6418
 1548SOL     OW16276   2.951   1.030   1.622  0.1963 -0.0189  0.3392
 1548SOL    HW116277   2.892   1.075   1.682 -3.7399 -0.4306 -3.1935
 1548SOL    HW216278   2.892   1.011   1.549  1.7641 -1.0497 -0.6485
 1549SOL     OW16279   2.207   3.808  11.363 -0.0094 -0.0677  0.2958
 1549SOL    HW116280   2.301   3.803  11.349  0.2095  0.8252  1.3959
 1549SOL    HW216281   2.211   3.903  11.375  1.3747 -0.1921  0.8321
 1550SOL     OW16282   2.476   1.225  12.697 -0.2408  0.1025 -0.3922
 1550SOL    HW116283   2.389   1.216  12.659 -1.1047  1.1549  1.3196
 1550SOL    HW216284   2.472   1.317  12.723  1.7167 -0.2293  1.1289
 1551SOL     OW16285   3.478   3.662   0.734  0.4745 -0.6584  0.0768
 1551SOL    HW116286   3.441   3.692   0.817  0.9720  0.4913 -0.1182
 1551SOL    HW216287   3.505   3.573   0.754 -0.5059 -0.4707  2.2335
 1552SOL     OW16288   1.985   1.543   3.337 -0.9082  0.3773 -0.3379
 1552SOL    HW116289   2.015   1.499   3.257 -0.2246 -0.7752  0.5629
 1552SOL    HW216290   1.890   1.532   3.332 -0.9789  1.8524 -2.0808
 1553SOL     OW16291   3.247   1.726   4.300 -0.5006 -0.4757  0.3701
 1553SOL    HW116292   3.262   1.641   4.340  0.5782 -0.4691 -0.0090
 1553SOL    HW216293   3.321   1.744   4.241  1.7596 -2.7610  2.5476
 1554SOL     OW16294   4.097   2.694   9.555 -0.9836  0.8230  0.3383
 1554SOL    HW116295   4.038   2.691   9.480  2.6955  1.3764 -2.5690
 1554SOL    HW216296   4.099   2.607   9.596 -1.0731 -0.0264 -1.4907
 1555SOL     OW16297   2.496   1.001   9.990  0.1232 -0.3133  0.2363
 1555SOL    HW116298   2.461   0.929   9.937 -0.1610 -1.0311  1.4100
 1555SOL    HW216299   2.521   1.056   9.916  1.2659 -1.3336 -0.1322
 1556SOL     OW16300   2.282   3.575   7.717  0.2339  0.3337  0.3955
 1556SOL    HW116301   2.316   3.577   7.627  2.4212  2.1569  1.2619
 1556SOL    HW216302   2.216   3.642   7.703 -0.2735 -0.3995 -0.7023
 1557SOL     OW16303   1.860   1.406   3.802 -0.1419 -0.6032  0.2629
 1557SOL    HW116304   1.829   1.405   3.893  3.1736 -0.2973  1.3715
 1557SOL    HW216305   1.864   1.312   3.784 -1.9004 -0.3255 -1.6117
 1558SOL     OW16306   4.233   0.792   5.582  0.4177 -0.0661  0.7247
 1558SOL    HW116307   4.147   0.831   5.602 -0.0691 -1.2684  0.9962
 1558SOL    HW216308   4.210   0.712   5.630  0.0609 -1.2272 -1.3965
 1559SOL     OW16309   3.412   2.078   2.279 -0.0337 -0.5778  0.2904
 1559SOL    HW116310   3.349   2.080   2.207  0.2137  1.3356  0.1291
 1559SOL    HW216311   3.450   1.991   2.292  0.5976 -0.2337  0.7711
 1560SOL     OW16312   0.553   3.955   6.090 -0.0432  0.1805 -0.6270
 1560SOL    HW116313   0.635   3.924   6.051 -1.3298 -0.8022 -2.5953
 1560SOL    HW216314   0.563   4.049   6.078 -0.3155  0.4384  1.2773
 1561SOL     OW16315   2.553   3.006   4.867 -0.4215 -0.3000 -0.1799
 1561SOL    HW116316   2.551   3.041   4.956  0.9807  0.5020 -0.4678
 1561SOL    HW216317   2.467   2.967   4.858 -0.3998  0.1812 -2.5093
 1562SOL     OW16318   3.663   2.986   8.277  0.6128 -0.5936  0.4434
 1562SOL    HW116319   3.664   3.057   8.341 -1.5101 -1.0398  0.9415
 1562SOL    HW216320   3.575   2.956   8.299  1.1134 -2.1929  0.2586
 1563SOL     OW16321   4.314   0.187  10.571  0.2300  0.2683  0.0149
 1563SOL    HW116322   4.408   0.205  10.573  0.3493 -0.1478 -2.1187
 1563SOL    HW216323   4.314   0.097  10.539 -0.0530  0.8119 -1.5091
 1564SOL     OW16324   4.658   2.046   0.284  0.4147 -0.2783 -0.0892
 1564SOL    HW116325   4.700   2.113   0.339  1.9327 -0.3141 -1.1914
 1564SOL    HW216326   4.709   1.966   0.295 -0.9979 -0.7925  2.5390
 1565SOL     OW16327   0.319   0.455  12.082  0.5757 -0.1915  0.3011
 1565SOL    HW116328   0.245   0.467  12.141 -0.6346  0.5846 -1.3678
 1565SOL    HW216329   0.278   0.397  12.018  1.0319  1.1063 -1.1661
 1566SOL     OW16330   0.682   1.019   0.722  0.0551  0.1251  0.1781
 1566SOL    HW116331   0.641   0.939   0.689 -1.3231  0.2251  1.6634
 1566SOL    HW216332   0.679   1.069   0.640  1.9101  0.5981  0.3980
 1567SOL     OW16333   2.601   1.064   5.180  0.0375  0.2633  0.1290
 1567SOL    HW116334   2.531   1.055   5.245 -0.4627 -0.9940 -0.5972
 1567SOL    HW216335   2.622   1.158   5.174 -1.3275  0.7582  2.9132
 1568SOL     OW16336   0.574   4.080   4.697  0.1628 -0.0185  0.4193
 1568SOL    HW116337   0.587   3.996   4.653 -1.6304 -0.3999  0.6505
 1568SOL    HW216338   0.479   4.082   4.700  0.1024 -0.1917 -1.0858
 1569SOL     OW16339   1.742   2.617   3.057 -0.0421 -0.1390 -0.3711
 1569SOL    HW116340   1.712   2.644   2.970 -1.1458 -1.2979 -0.3415
 1569SOL    HW216341   1.726   2.523   3.061 -1.1895  0.0326 -1.0331
 1570SOL     OW16342   3.798   3.343   8.613  0.0647  0.0666  0.0645
 1570SOL    HW116343   3.880   3.387   8.635 -0.2977  0.5568  0.4001
 1570SOL    HW216344   3.738   3.409   8.647  0.4458  0.2879  0.3110
 1571SOL     OW16345   2.209   3.206   7.957 -0.6502 -0.2843  0.2005
 1571SOL    HW116346   2.183   3.162   8.037 -1.3481 -1.5566 -0.7237
 1571SOL    HW216347   2.237   3.131   7.904 -1.4346 -0.1943 -0.3468
 1572SOL     OW16348   3.239   3.371   5.453  0.2838  0.1717 -0.2232
 1572SOL    HW116349   3.242   3.377   5.358 -0.2037  0.9652 -0.1912
 1572SOL    HW216350   3.298   3.439   5.486 -0.5071  0.2805  0.9822
 1573SOL     OW16351   1.405   1.416   4.091  0.1812  0.6131  0.1974
 1573SOL    HW116352   1.425   1.323   4.103 -0.3895  0.0635 -3.0172
 1573SOL    HW216353   1.458   1.458   4.159 -0.1648 -1.5216  1.7607
 1574SOL     OW16354   3.685   4.034   5.444  0.4569 -0.1280  0.1060
 1574SOL    HW116355   3.657   4.125   5.458 -1.4169 -0.7971  0.6502
 1574SOL    HW216356   3.742   4.047   5.369 -0.0834  0.0293 -0.2735
 1575SOL     OW16357   3.618   2.541   9.068  0.7150 -0.1448 -0.0171
 1575SOL    HW116358   3.558   2.559   9.140 -0.7743 -0.8762 -1.0695
 1575SOL    HW216359   3.573   2.588   8.997  1.0558 -0.6291 -0.5546
 1576SOL     OW16360   1.098   3.488   8.410  0.3164 -0.1457 -0.0012
 1576SOL    HW116361   1.014   3.506   8.367  1.1950 -0.4487 -1.8395
 1576SOL    HW216362   1.080   3.528   8.495 -0.0856  0.7744 -0.5246
 1577SOL     OW16363   4.478   4.549   6.793 -0.1308  0.1560  0.1778
 1577SOL    HW116364   4.385   4.553   6.815 -0.5364 -2.1788 -1.1977
 1577SOL    HW216365   4.475   4.603   6.714  1.4884 -2.5262 -1.6762
 1578SOL     OW16366   0.448   4.402  12.393  0.0530 -0.5295 -0.0099
 1578SOL    HW116367   0.429   4.469  12.328 -0.6989 -0.4006  0.3463
 1578SOL    HW216368   0.408   4.439  12.472 -0.0993 -3.1097  1.1356
 1579SOL     OW16369   2.676   4.669   9.145 -0.2993  0.5406  0.2285
 1579SOL    HW116370   2.641   4.581   9.160 -1.9871  1.7006  2.9172
 1579SOL    HW216371   2.595   4.719   9.160  1.0365  1.7802  3.1286
 1580SOL     OW16372   3.684   2.829   7.006 -0.1829  0.4389  0.3424
 1580SOL    HW116373   3.653   2.802   7.093  0.3096  0.5163  0.5408
 1580SOL    HW216374   3.772   2.847   7.039  0.3711 -0.5656 -0.6081
 1581SOL     OW16375   0.817   3.461   4.048 -0.2421 -0.7233 -0.5584
 1581SOL    HW116376   0.884   3.496   3.989 -0.7952  0.4799 -0.4596
 1581SOL    HW216377   0.769   3.405   3.986 -1.1498 -0.1896 -0.3378
 1582SOL     OW16378   1.677   1.795  17.347  0.5655 -0.9255  0.5557
 1582SOL    HW116379   1.754   1.786  17.291 -0.1829 -1.5640 -0.3674
 1582SOL    HW216380   1.612   1.797  17.277 -1.1209 -0.4164  2.1344
 1583SOL     OW16381   1.954   3.198  13.195  0.2114  0.2194  0.2349
 1583SOL    HW116382   1.912   3.124  13.238 -3.0199  0.5551 -2.4169
 1583SOL    HW216383   1.886   3.266  13.197 -0.0072  0.0971 -3.5959
 1584SOL     OW16384   4.421   1.661   8.183  0.0828  0.2663  0.1230
 1584SOL    HW116385   4.495   1.711   8.217 -2.0360  3.0573  0.7066
 1584SOL    HW216386   4.351   1.721   8.210  0.2374  1.5821 -2.4263
 1585SOL     OW16387   3.913   0.312  13.217 -0.0781  0.1253 -0.5113
 1585SOL    HW116388   3.961   0.394  13.210 -1.3226  0.8346 -0.6697
 1585SOL    HW216389   3.822   0.339  13.207 -0.4739 -1.0091 -0.0203
 1586SOL     OW16390   2.266   2.327  13.081  0.5997  0.3240  0.3710
 1586SOL    HW116391   2.214   2.253  13.110 -1.6926  0.9797 -2.0138
 1586SOL    HW216392   2.257   2.338  12.986  1.9712  1.7094  0.3842
 1587SOL     OW16393   1.220   0.836   4.428  0.3024  0.4650 -0.2138
 1587SOL    HW116394   1.308   0.800   4.434 -1.1769 -3.3208 -1.5137
 1587SOL    HW216395   1.214   0.838   4.332  2.2173  0.1769 -0.3495
 1588SOL     OW16396   4.023   0.640  12.504  0.6456  0.1857  0.3323
 1588SOL    HW116397   4.090   0.614  12.440 -0.0423  1.9266 -1.1143
 1588SOL    HW216398   3.938   0.625  12.464  0.0946  1.2059  1.1361
 1589SOL     OW16399   4.361   1.379   2.605  0.1975 -0.0068  0.2489
 1589SOL    HW116400   4.326   1.446   2.665 -0.2741 -0.6426  0.6829
 1589SOL    HW216401   4.366   1.431   2.525  1.7667  0.9206  0.9385
 1590SOL     OW16402   0.302   2.113   5.261  0.2345 -0.5182 -0.0775
 1590SOL    HW116403   0.397   2.122   5.258  0.0609  0.6135 -1.9862
 1590SOL    HW216404   0.294   2.024   5.228  2.1196 -1.3341  1.6663
 1591SOL     OW16405   2.623   4.207   1.811 -1.7549  0.8637  0.2013
 1591SOL    HW116406   2.640   4.119   1.844  0.9893  0.4265 -2.2889
 1591SOL    HW216407   2.528   4.207   1.814 -1.7270 -3.3624  1.5745
 1592SOL     OW16408   1.001   1.095  12.137 -0.3405  0.2361  0.2769
 1592SOL    HW116409   0.909   1.075  12.122  0.1355 -0.0849 -2.1660
 1592SOL    HW216410   1.022   1.012  12.180  0.2171  0.1865 -0.0977
 1593SOL     OW16411   1.987   0.206   8.787 -0.0038 -0.5563  0.6198
 1593SOL    HW116412   2.060   0.263   8.810 -0.5060  0.8134 -1.1668
 1593SOL    HW216413   1.942   0.210   8.872  0.6785  0.4399  0.9357
 1594SOL     OW16414   3.333   2.089   3.470  0.0753 -0.0071  0.0593
 1594SOL    HW116415   3.353   2.047   3.554 -1.0863 -1.2769 -0.3043
 1594SOL    HW216416   3.250   2.135   3.485  0.0111  0.0250 -0.4148
 1595SOL     OW16417   0.950   4.081   6.106 -0.3133  0.0157 -0.1508
 1595SOL    HW116418   1.022   4.019   6.117 -1.3658 -1.3950 -1.0213
 1595SOL    HW216419   0.888   4.014   6.138 -0.7459 -0.2259 -1.4956
 1596SOL     OW16420   4.659   1.858   8.143  0.1896  0.4859  0.3864
 1596SOL    HW116421   4.723   1.835   8.075  0.0452  1.1542  0.0314
 1596SOL    HW216422   4.719   1.869   8.217 -0.7399  0.7703  1.0849
 1597SOL     OW16423   2.657   0.882  15.939 -0.0588  0.0018 -0.3841
 1597SOL    HW116424   2.635   0.789  15.930 -1.7031  0.2600  1.0479
 1597SOL    HW216425   2.753   0.888  15.936 -0.0809 -0.3398 -1.8282
 1598SOL     OW16426   0.455   2.785   7.646  0.5049 -0.8366 -0.3575
 1598SOL    HW116427   0.485   2.694   7.637  1.1244 -0.5198 -1.4046
 1598SOL    HW216428   0.454   2.801   7.552 -2.5000  1.9127  0.1395
 1599SOL     OW16429   3.372   0.144   4.620  0.0174 -0.2689  0.8596
 1599SOL    HW116430   3.376   0.120   4.527  0.2501 -0.4067  0.9043
 1599SOL    HW216431   3.302   0.208   4.611 -1.6075 -2.2573 -0.6720
 1600SOL     OW16432   0.307   4.343   5.792  0.1167  0.1772 -0.3262
 1600SOL    HW116433   0.286   4.257   5.827  0.8961 -0.2386 -0.8744
 1600SOL    HW216434   0.238   4.396   5.832 -1.3907 -1.7393 -0.4519
 1601SOL     OW16435   2.064   0.579  10.705  0.5615  0.0229  0.3951
 1601SOL    HW116436   2.088   0.671  10.714  3.5712 -0.7076 -0.2806
 1601SOL    HW216437   1.983   0.593  10.655  1.1071  1.4224 -0.0994
 1602SOL     OW16438   3.873   0.339   0.920 -0.1797 -0.4258  1.0137
 1602SOL    HW116439   3.960   0.322   0.957  0.7651 -0.0247 -1.0282
 1602SOL    HW216440   3.819   0.279   0.971  0.7925 -2.0254  0.1606
 1603SOL     OW16441   2.161   3.027  15.311 -0.0830  0.0808  0.1781
 1603SOL    HW116442   2.086   2.977  15.342 -0.6475  0.1451 -1.0724
 1603SOL    HW216443   2.119   3.112  15.306  1.1424  0.4806 -3.3089
 1604SOL     OW16444   4.659   2.930   1.282  0.0980  0.1014 -0.1407
 1604SOL    HW116445   4.613   2.955   1.362 -0.0530  1.4440 -0.6480
 1604SOL    HW216446   0.014   2.961   1.309  0.2627 -1.7427  1.5039
 1605SOL     OW16447   4.199   1.637   5.298 -0.0276 -0.4955 -0.3220
 1605SOL    HW116448   4.143   1.659   5.224  0.9071  0.1058 -0.8396
 1605SOL    HW216449   4.151   1.683   5.366 -1.5456 -0.4284 -1.4502
 1606SOL     OW16450   3.944   1.816   9.077  0.5442  0.1402 -0.3837
 1606SOL    HW116451   3.987   1.744   9.123 -0.7905  0.7442  1.8544
 1606SOL    HW216452   4.023   1.858   9.045  0.3693 -0.6365 -1.8425
 1607SOL     OW16453   1.781   1.453   4.051 -0.0515 -0.2854  0.2665
 1607SOL    HW116454   1.779   1.455   4.147  0.7771  0.8433  0.2534
 1607SOL    HW216455   1.722   1.526   4.033 -0.7257 -0.8543  0.1677
 1608SOL     OW16456   1.323   0.207  17.185 -0.3202  0.3951  0.0233
 1608SOL    HW116457   1.362   0.124  17.213 -2.1239  0.0745  1.5474
 1608SOL    HW216458   1.261   0.175  17.119 -0.0899  1.4294 -0.6988
 1609SOL     OW16459   4.598   1.501   4.254  0.4345 -0.2847 -0.0705
 1609SOL    HW116460   4.577   1.537   4.341 -0.9170  0.2417 -0.6078
 1609SOL    HW216461   4.567   1.411   4.266  1.1700 -0.4146  0.8939
 1610SOL     OW16462   3.940   3.976   7.897 -0.2110 -0.1682  0.2085
 1610SOL    HW116463   3.966   3.970   7.989  1.1114  1.2635 -0.0633
 1610SOL    HW216464   3.961   4.066   7.873  0.9818 -0.1275  1.4116
 1611SOL     OW16465   3.795   3.708  13.939  0.1660 -0.5201  0.1113
 1611SOL    HW116466   3.719   3.676  13.987 -1.4473  0.9319 -1.4816
 1611SOL    HW216467   3.761   3.719  13.850  0.2890  0.7358  0.2264
 1612SOL     OW16468   1.589   0.822   2.907 -0.7523  0.8407 -0.0360
 1612SOL    HW116469   1.591   0.803   2.814  0.1843  0.9699 -0.0361
 1612SOL    HW216470   1.660   0.885   2.903  0.3864 -0.6527 -3.3036
 1613SOL     OW16471   3.878   2.705   9.388 -0.0218  0.1245 -0.0808
 1613SOL    HW116472   3.899   2.625   9.339 -0.0072 -0.4429  0.8412
 1613SOL    HW216473   3.786   2.691   9.412 -0.1992  0.6091 -0.4727
 1614SOL     OW16474   3.850   4.107  10.862 -0.4053 -0.6129 -0.0178
 1614SOL    HW116475   3.908   4.161  10.808 -0.0295 -1.4743 -0.4663
 1614SOL    HW216476   3.770   4.159  10.853  0.0878  0.4755  1.7165
 1615SOL     OW16477   1.647   3.746   8.742 -0.4331 -0.1904  0.2102
 1615SOL    HW116478   1.707   3.709   8.676  1.1921  2.2754  0.3200
 1615SOL    HW216479   1.594   3.805   8.689 -0.4259  1.3396  1.9482
 1616SOL     OW16480   2.958   3.482   0.918 -0.1430  0.0627 -0.1952
 1616SOL    HW116481   2.986   3.569   0.892  2.4967 -1.3806 -2.1824
 1616SOL    HW216482   2.979   3.493   1.010 -0.8418  0.7096 -0.1171
 1617SOL     OW16483   3.156   4.540   0.229 -0.0558 -0.3619  0.2346
 1617SOL    HW116484   3.235   4.583   0.261 -0.3727  0.4922 -0.1521
 1617SOL    HW216485   3.178   4.519   0.139 -0.7366 -0.0276 -0.0076
 1618SOL     OW16486   3.290   3.236  15.333 -0.1776  0.3705 -0.0300
 1618SOL    HW116487   3.240   3.312  15.364 -0.1782  0.5091 -0.3604
 1618SOL    HW216488   3.346   3.227  15.409 -0.8239 -1.4943  0.2084
 1619SOL     OW16489   3.726   1.615  12.167 -0.1623 -0.0829 -0.0899
 1619SOL    HW116490   3.715   1.521  12.185  1.8989 -0.8472 -2.8883
 1619SOL    HW216491   3.801   1.636  12.223 -0.0432 -0.4480 -0.1134
 1620SOL     OW16492   2.418   1.951   6.875  0.4737  0.1294 -0.3929
 1620SOL    HW116493   2.330   1.988   6.888 -0.5265 -1.8103 -1.5171
 1620SOL    HW216494   2.420   1.904   6.958  2.8925  0.6726 -0.1488
 1621SOL     OW16495   4.231   1.237   7.211  0.1951  0.2393  0.5032
 1621SOL    HW116496   4.250   1.226   7.304 -1.1762  1.5230  0.9500
 1621SOL    HW216497   4.277   1.316   7.183  0.1315  0.0522 -0.1355
 1622SOL     OW16498   2.868   1.322   8.183 -0.5214 -0.4347 -0.5856
 1622SOL    HW116499   2.781   1.283   8.182  0.0448 -1.8036  3.2109
 1622SOL    HW216500   2.878   1.347   8.091  1.0056  1.5089  0.1130
 1623SOL     OW16501   0.002   3.230   9.582 -0.6465  0.2713  0.4020
 1623SOL    HW116502   4.715   3.223   9.675  2.1813  2.1489  1.1099
 1623SOL    HW216503   0.065   3.301   9.589  0.6325 -0.8110 -0.1491
 1624SOL     OW16504   2.023   2.994   7.767 -0.5329  0.4601  0.4107
 1624SOL    HW116505   2.020   2.954   7.854  3.2692  0.7706  0.6707
 1624SOL    HW216506   2.110   3.033   7.766  0.1178 -1.0586 -1.6067
 1625SOL     OW16507   3.729   1.081  12.333 -0.5143  0.4105  0.0279
 1625SOL    HW116508   3.785   1.158  12.340 -1.7047  1.1055  1.9122
 1625SOL    HW216509   3.782   1.008  12.365  1.1248  1.5011 -0.2019
 1626SOL     OW16510   3.793   0.721   3.515  0.1578 -0.0477  0.0913
 1626SOL    HW116511   3.825   0.631   3.516  2.3960  0.7705  1.9568
 1626SOL    HW216512   3.718   0.708   3.458  0.8657 -1.4219 -0.5319
 1627SOL     OW16513   1.229   2.966   7.329 -0.8271  0.4390  0.5227
 1627SOL    HW116514   1.229   2.892   7.268 -0.5946 -1.4972  2.9013
 1627SOL    HW216515   1.234   3.039   7.266  0.1306 -0.7048 -0.7292
 1628SOL     OW16516   3.052   2.373   8.238  0.1077 -0.1071  0.1293
 1628SOL    HW116517   3.130   2.389   8.291  1.5398  1.5655 -2.5144
 1628SOL    HW216518   3.070   2.285   8.206  0.6515  0.1180 -0.1730
 1629SOL     OW16519   0.083   3.955   9.516 -0.4936 -0.4938 -0.3495
 1629SOL    HW116520   0.096   3.866   9.548  1.3340 -0.1607 -0.1322
 1629SOL    HW216521   4.732   3.943   9.470 -0.3039  1.9786 -1.3708
 1630SOL     OW16522   2.500   0.076   4.252 -0.1781  0.5891 -0.5200
 1630SOL    HW116523   2.426   0.110   4.301  2.0522  0.6799  2.8034
 1630SOL    HW216524   2.566   0.112   4.311  0.7171  0.9517 -1.7618
 1631SOL     OW16525   0.299   1.345   9.511  0.6785 -0.3493  0.2053
 1631SOL    HW116526   0.220   1.302   9.545  0.5229  0.5370  0.9601
 1631SOL    HW216527   0.371   1.283   9.517 -1.0101 -2.2928  0.6359
 1632SOL     OW16528   2.288   4.701   7.279  0.5537  0.5016  0.2934
 1632SOL    HW116529   2.294   4.676   7.187  0.1355 -1.0408  0.6826
 1632SOL    HW216530   2.379   4.693   7.307  0.6569 -1.0329 -0.4742
 1633SOL     OW16531   1.032   1.668   8.389 -0.1022 -0.3041  0.1087
 1633SOL    HW116532   1.052   1.683   8.296  3.3762 -0.8667  0.7408
 1633SOL    HW216533   1.026   1.573   8.393  1.2223 -0.4445 -1.0578
 1634SOL     OW16534   3.427   3.997   7.458 -0.1189  0.2012  0.1606
 1634SOL    HW116535   3.520   3.984   7.440 -0.5991 -0.8176 -1.6467
 1634SOL    HW216536   3.426   4.029   7.548  1.8498  0.0180  0.2362
 1635SOL     OW16537   4.418   4.250   1.918 -0.1890 -0.2381  0.0547
 1635SOL    HW116538   4.338   4.232   1.967 -0.7225 -0.7482 -1.0033
 1635SOL    HW216539   4.380   4.285   1.838  2.0294  1.1127 -0.4088
 1636SOL     OW16540   2.653   1.056   4.589 -0.0897 -0.1071 -0.4805
 1636SOL    HW116541   2.616   1.000   4.521 -0.2583  0.1578 -0.6077
 1636SOL    HW216542   2.723   1.100   4.540  0.7711 -2.4885 -1.3672
 1637SOL     OW16543   0.051   2.384   5.657  0.0948 -0.6397 -0.0279
 1637SOL    HW116544   0.043   2.370   5.562  0.6029  1.8990 -0.4438
 1637SOL    HW216545   0.038   2.298   5.695 -0.5994 -0.8164 -0.6543
 1638SOL     OW16546   0.033   4.546  15.219 -0.0046 -0.1417  0.0110
 1638SOL    HW116547   0.076   4.498  15.289 -2.0890  0.8914  2.0100
 1638SOL    HW216548   0.075   4.632  15.221  0.3375 -0.3329  0.8766
 1639SOL     OW16549   2.144   1.680   4.862 -0.0568  0.1259  0.1720
 1639SOL    HW116550   2.095   1.607   4.900 -1.4454  1.2009  0.4618
 1639SOL    HW216551   2.230   1.674   4.902 -0.4215  1.4759  1.1583
 1640SOL     OW16552   0.316   1.910   5.834  0.0427  0.4675 -0.5074
 1640SOL    HW116553   0.281   1.898   5.922 -0.0329  0.1766 -0.5745
 1640SOL    HW216554   0.240   1.952   5.794  1.3662 -0.2000 -3.7290
 1641SOL     OW16555   1.632   3.668  17.087 -0.7632 -0.1428 -0.4482
 1641SOL    HW116556   1.538   3.679  17.098 -0.9208 -1.2355 -0.6979
 1641SOL    HW216557   1.640   3.742  17.027  1.3698 -0.1585 -0.1874
 1642SOL     OW16558   1.318   3.426   0.322 -0.3966  0.2475 -0.1903
 1642SOL    HW116559   1.360   3.363   0.380  0.8024  1.6895  0.4882
 1642SOL    HW216560   1.365   3.506   0.343  1.0028 -0.7403  0.3909
 1643SOL     OW16561   2.011   0.999   8.647  0.3118  0.1148 -0.3728
 1643SOL    HW116562   2.033   0.909   8.670 -1.2679 -0.3520 -0.7200
 1643SOL    HW216563   1.925   1.005   8.687  1.2205 -0.5422  1.6467
 1644SOL     OW16564   2.786   3.802   4.033  0.3193  0.0861 -0.3086
 1644SOL    HW116565   2.881   3.808   4.045 -0.0564  2.3237  1.5015
 1644SOL    HW216566   2.773   3.713   4.067 -0.3799  0.9115  1.5738
 1645SOL     OW16567   4.560   1.662   5.204  0.1213  0.1870  0.1469
 1645SOL    HW116568   4.530   1.578   5.169  0.0591  0.4920 -0.5359
 1645SOL    HW216569   4.508   1.657   5.284 -0.2630 -2.3668 -0.2610
 1646SOL     OW16570   3.688   0.956   4.684  0.7341  0.0115  0.2853
 1646SOL    HW116571   3.782   0.969   4.693  0.6983  1.4273 -1.2395
 1646SOL    HW216572   3.682   0.906   4.603 -1.4564  1.1995 -0.2790
 1647SOL     OW16573   1.567   2.953   8.175  0.3058 -0.4612 -0.3252
 1647SOL    HW116574   1.529   2.912   8.253  1.5914  0.1446  0.6241
 1647SOL    HW216575   1.556   2.884   8.110  0.3327 -0.1065 -0.7091
 1648SOL     OW16576   1.947   1.681   4.118 -0.3800  0.2038 -0.3447
 1648SOL    HW116577   2.014   1.618   4.091 -0.6783 -0.5032  0.5659
 1648SOL    HW216578   1.902   1.698   4.036 -1.2341  0.1228  0.1146
 1649SOL     OW16579   3.490   0.189   4.314 -0.4206 -0.2780 -0.2955
 1649SOL    HW116580   3.540   0.270   4.326 -0.8230 -0.1605  0.6432
 1649SOL    HW216581   3.407   0.215   4.273 -0.9345 -0.2877  0.7374
 1650SOL     OW16582   0.564   1.323  12.480  0.1398 -0.1216  0.5087
 1650SOL    HW116583   0.651   1.306  12.444  0.5536  2.8357  0.0493
 1650SOL    HW216584   0.530   1.243  12.518  2.1584 -1.5067 -0.5982
 1651SOL     OW16585   1.417   3.537   8.890 -0.4629 -0.2270 -0.6583
 1651SOL    HW116586   1.349   3.602   8.911 -0.0282  0.1762 -0.5165
 1651SOL    HW216587   1.493   3.591   8.869 -0.6949  1.2807  2.5271
 1652SOL     OW16588   4.030   1.491   6.830  0.1109 -0.1194  0.0220
 1652SOL    HW116589   3.949   1.530   6.796 -1.5531 -3.5196  0.1304
 1652SOL    HW216590   4.025   1.396   6.825  0.1047 -0.1676  0.9403
 1653SOL     OW16591   0.734   1.127   3.711 -0.0634 -0.3086  0.5110
 1653SOL    HW116592   0.692   1.116   3.796 -0.5825  1.9327  0.5441
 1653SOL    HW216593   0.704   1.213   3.683 -1.1286 -1.0549 -0.5956
 1654SOL     OW16594   0.290   3.184  11.595 -0.0499  0.1879  0.3449
 1654SOL    HW116595   0.275   3.251  11.529  0.7759 -1.4287 -1.4975
 1654SOL    HW216596   0.339   3.120  11.543 -0.4534  2.0699 -2.4099
 1655SOL     OW16597   4.708   1.631   9.190 -0.6660 -0.2406  0.0533
 1655SOL    HW116598   4.689   1.573   9.264 -2.0208 -0.4904 -0.4905
 1655SOL    HW216599   4.632   1.689   9.196 -0.2755  0.1178  1.6904
 1656SOL     OW16600   4.183   1.611   6.155 -0.3400 -0.5716 -0.2421
 1656SOL    HW116601   4.149   1.575   6.073 -0.1162  1.8678 -1.4237
 1656SOL    HW216602   4.156   1.702   6.148  1.0801 -0.0783  0.6590
 1657SOL     OW16603   3.449   3.982   0.501 -0.0501  0.2055 -0.1677
 1657SOL    HW116604   3.457   4.005   0.409  1.5625  1.3475  0.2462
 1657SOL    HW216605   3.354   3.983   0.511 -0.1821 -0.8680 -1.3856
 1658SOL     OW16606   0.355   4.099   5.149 -0.3489  0.0456  0.4892
 1658SOL    HW116607   0.283   4.036   5.157  0.5203 -0.6939  2.4594
 1658SOL    HW216608   0.416   4.069   5.082  0.8936  0.9538  1.2128
 1659SOL     OW16609   2.138   0.267   7.784  0.1763 -0.2576  0.4446
 1659SOL    HW116610   2.222   0.263   7.738 -0.3292  3.3716 -0.8253
 1659SOL    HW216611   2.157   0.324   7.859  0.2268  2.1768 -1.4273
 1660SOL     OW16612   3.372   4.487   6.686 -0.5403  0.5859  0.4401
 1660SOL    HW116613   3.405   4.557   6.630  1.3308 -0.6407  0.0287
 1660SOL    HW216614   3.373   4.537   6.767 -2.7854  1.2134  0.0807
 1661SOL     OW16615   4.638   1.921   9.039 -0.0071  0.2897  0.2685
 1661SOL    HW116616   4.700   1.857   9.003 -0.9528  0.6659 -2.0105
 1661SOL    HW216617   4.560   1.867   9.043 -0.7642  1.1283 -2.8227
 1662SOL     OW16618   1.295   3.534  13.906  0.6797 -0.4326  0.1834
 1662SOL    HW116619   1.204   3.553  13.928  1.4025  2.0707  0.9852
 1662SOL    HW216620   1.315   3.616  13.860  0.4404  0.4405  1.6512
 1663SOL     OW16621   3.085   1.767   5.416 -0.6258  0.0447 -0.6481
 1663SOL    HW116622   3.109   1.756   5.508 -0.8685 -0.5886 -0.6569
 1663SOL    HW216623   3.161   1.806   5.374 -1.7283 -0.2555 -2.9333
 1664SOL     OW16624   3.976   1.283   2.071  0.2121 -0.2209 -0.3856
 1664SOL    HW116625   4.050   1.283   2.010  0.7919  0.2597  0.3129
 1664SOL    HW216626   3.900   1.296   2.014 -0.9675 -1.2126  0.9394
 1665SOL     OW16627   0.430   2.228   5.538  0.0446  0.2635 -0.0314
 1665SOL    HW116628   0.431   2.323   5.546 -0.8576  0.2903 -0.1831
 1665SOL    HW216629   0.401   2.205   5.627 -0.7901  1.1220 -0.0844
 1666SOL     OW16630   1.272   2.635   3.133 -0.8495  0.1869  0.2536
 1666SOL    HW116631   1.348   2.674   3.178 -1.6001  1.1201  0.7089
 1666SOL    HW216632   1.287   2.664   3.043 -2.9151 -0.5968 -0.3295
 1667SOL     OW16633   3.852   1.169  14.519  0.3909  0.9932  0.2942
 1667SOL    HW116634   3.860   1.222  14.598  2.0135 -0.2495  0.9792
 1667SOL    HW216635   3.939   1.129  14.512  0.5558  1.0921  1.8625
 1668SOL     OW16636   1.237   2.290   3.988  0.0892  0.1717  0.0132
 1668SOL    HW116637   1.183   2.251   4.057 -1.6592 -1.7312 -2.4236
 1668SOL    HW216638   1.218   2.381   4.009 -0.6772 -0.5021  2.1954
 1669SOL     OW16639   2.291   2.430   5.037  0.5365  0.3926 -0.4459
 1669SOL    HW116640   2.253   2.349   5.002  0.6981  0.2838 -0.3697
 1669SOL    HW216641   2.299   2.491   4.963  2.1089  1.1234  0.3201
 1670SOL     OW16642   4.526   2.329   8.442  0.4550  0.5632  0.5158
 1670SOL    HW116643   4.541   2.287   8.526  0.2312 -1.3869 -0.4177
 1670SOL    HW216644   4.541   2.251   8.388 -0.4830 -0.7821  2.2233
 1671SOL     OW16645   0.076   0.928   5.547 -0.2053 -0.9704  0.1007
 1671SOL    HW116646   0.140   0.937   5.618  0.2883 -0.7165 -0.3819
 1671SOL    HW216647   0.005   0.885   5.595 -0.7260 -0.2134 -0.0032
 1672SOL     OW16648   4.143   1.314   6.318  0.1325  0.3943  0.0584
 1672SOL    HW116649   4.206   1.379   6.287 -0.2975  0.5747 -0.4365
 1672SOL    HW216650   4.095   1.308   6.236  3.2231 -1.8046 -1.5907
 1673SOL     OW16651   4.386   3.428  15.395 -0.3128 -0.1389  0.0805
 1673SOL    HW116652   4.316   3.428  15.329  0.8159 -0.1158 -1.1027
 1673SOL    HW216653   4.345   3.448  15.479 -2.6435 -3.1178 -0.3332
 1674SOL     OW16654   4.657   3.075   7.016 -0.2746 -0.3324 -0.8353
 1674SOL    HW116655   4.622   3.001   6.966 -2.5212  1.3129 -1.7000
 1674SOL    HW216656   4.615   3.151   6.975  0.1553 -0.7268 -1.9964
 1675SOL     OW16657   1.624   4.176   6.437  0.1514  0.0675 -0.0848
 1675SOL    HW116658   1.655   4.225   6.361 -0.8168 -2.2061 -1.9439
 1675SOL    HW216659   1.602   4.250   6.493  2.1443 -0.4253  1.3260
 1676SOL     OW16660   0.627   2.053  16.190 -0.1568 -0.4175  0.2212
 1676SOL    HW116661   0.629   2.059  16.095 -0.4347  1.6194  0.3291
 1676SOL    HW216662   0.707   2.092  16.225 -1.3338 -0.5329  3.0315
 1677SOL     OW16663   0.795   1.301  11.966 -0.3037  0.2066 -0.3406
 1677SOL    HW116664   0.767   1.374  11.910 -1.0290  0.0904 -0.1309
 1677SOL    HW216665   0.884   1.328  11.987  0.1324  0.4246 -2.4442
 1678SOL     OW16666   1.303   0.643   6.229  0.2076  0.9862 -0.4388
 1678SOL    HW116667   1.276   0.714   6.286  1.0301  0.5370  0.5026
 1678SOL    HW216668   1.364   0.610   6.295  0.9022 -0.7867 -1.9784
 1679SOL     OW16669   3.161   0.799   8.520 -0.0837  0.0057 -0.1439
 1679SOL    HW116670   3.206   0.718   8.547 -1.0897 -0.5698 -0.1859
 1679SOL    HW216671   3.201   0.855   8.586 -1.6131  1.7033 -0.6551
 1680SOL     OW16672   0.809   2.676   3.738 -0.1875 -0.1913 -0.0891
 1680SOL    HW116673   0.751   2.609   3.774  0.1674  0.1612  1.1259
 1680SOL    HW216674   0.819   2.652   3.645  1.5088  1.3431 -0.2837
 1681SOL     OW16675   0.895   0.256   1.794  0.0066 -1.0814  0.1161
 1681SOL    HW116676   0.961   0.204   1.748  1.0337  0.1631  0.1781
 1681SOL    HW216677   0.942   0.283   1.873  0.0438 -2.4768  0.5751
 1682SOL     OW16678   2.010   2.432   6.798  0.1234  0.0540  0.3917
 1682SOL    HW116679   1.955   2.399   6.726 -0.1816  2.9017 -0.6913
 1682SOL    HW216680   1.964   2.510   6.829 -0.8796 -0.4311  0.1354
 1683SOL     OW16681   0.003   2.343   2.886  0.0370  0.0874 -0.5482
 1683SOL    HW116682   0.038   2.432   2.878  1.2227 -0.3915 -0.6491
 1683SOL    HW216683   0.005   2.329   2.980 -1.2868 -0.8422 -0.6596
 1684SOL     OW16684   0.826   4.618  12.360  0.0391 -0.2997 -0.2030
 1684SOL    HW116685   0.907   4.582  12.396  0.0738  0.5982  0.6397
 1684SOL    HW216686   0.824   4.702  12.406  1.6739  0.0644 -0.7948
 1685SOL     OW16687   3.886   2.833   5.397  0.1893 -0.0803 -0.6567
 1685SOL    HW116688   3.963   2.784   5.366  0.7765 -1.4862  3.0287
 1685SOL    HW216689   3.820   2.828   5.328  0.3408  2.1999 -0.9704
 1686SOL     OW16690   2.655   4.214  10.953  0.1022  0.4304 -0.1574
 1686SOL    HW116691   2.580   4.156  10.964  0.8715 -0.7036 -0.9912
 1686SOL    HW216692   2.700   4.189  11.033 -1.6877  1.4161  1.1563
 1687SOL     OW16693   4.359   2.976   3.353  0.2013  0.4111 -0.1838
 1687SOL    HW116694   4.326   2.935   3.274 -1.5467  0.1034  0.7182
 1687SOL    HW216695   4.420   2.909   3.383 -2.2472 -0.1045  3.6691
 1688SOL     OW16696   2.697   1.282   5.232 -0.0464 -0.5688 -0.3819
 1688SOL    HW116697   2.758   1.290   5.159  1.4550 -3.6909  0.5184
 1688SOL    HW216698   2.707   1.371   5.266 -2.2316  0.2243 -1.7791
 1689SOL     OW16699   1.404   1.828   4.651  0.2002 -0.3179 -0.6223
 1689SOL    HW116700   1.369   1.841   4.563 -1.5009 -0.7220  0.0039
 1689SOL    HW216701   1.372   1.908   4.692 -0.7909 -0.9829 -0.1072
 1690SOL     OW16702   4.000   2.292   7.840  0.4138 -0.3484  0.0455
 1690SOL    HW116703   3.945   2.217   7.861  1.0571 -0.4663  1.3311
 1690SOL    HW216704   4.083   2.247   7.823  2.8067  3.1604  2.3174
 1691SOL     OW16705   1.109   3.020   6.355  0.4032  0.0705  0.0290
 1691SOL    HW116706   1.063   2.955   6.302  2.1558 -1.3319  0.2182
 1691SOL    HW216707   1.038   3.050   6.412  0.4947  0.9618 -0.3185
 1692SOL     OW16708   0.068   0.283   1.897 -0.0759  0.0202 -0.0512
 1692SOL    HW116709   0.087   0.198   1.936  3.1365  0.3431 -0.8809
 1692SOL    HW216710   4.708   0.299   1.918 -0.5346 -0.9455 -1.3614
 1693SOL     OW16711   2.018   2.508  14.018 -0.3608 -0.3184 -0.3310
 1693SOL    HW116712   1.940   2.460  14.046 -0.5809  0.1626 -0.1105
 1693SOL    HW216713   2.077   2.433  14.023  2.4769  2.0173  1.4677
 1694SOL     OW16714   2.125   4.093   2.531  0.0823 -0.4639 -0.2501
 1694SOL    HW116715   2.095   4.071   2.443  2.8845 -1.1211 -1.0361
 1694SOL    HW216716   2.184   4.019   2.544  1.9157  1.5997  3.0632
 1695SOL     OW16717   3.132   2.453   2.867 -0.1615  0.0558 -0.4555
 1695SOL    HW116718   3.107   2.467   2.776  0.8000  0.0092 -0.7229
 1695SOL    HW216719   3.120   2.542   2.901 -0.0331  0.0800 -0.4718
 1696SOL     OW16720   3.540   1.725   8.883  0.3222 -0.3063  0.3071
 1696SOL    HW116721   3.566   1.641   8.920  0.6543  1.2356  3.5896
 1696SOL    HW216722   3.480   1.756   8.951 -1.8210 -1.6340 -0.9854
 1697SOL     OW16723   0.153   0.827   6.177 -0.0542 -0.2708 -0.2733
 1697SOL    HW116724   0.189   0.906   6.217 -0.9808 -0.8159  1.6396
 1697SOL    HW216725   0.185   0.769   6.247  0.0723 -0.3523 -0.3990
 1698SOL     OW16726   0.211   0.653  17.009 -0.0112 -0.0577  0.0234
 1698SOL    HW116727   0.130   0.627  17.052 -1.2573 -1.6233 -3.2106
 1698SOL    HW216728   0.177   0.649  16.919  2.3163  0.3321 -0.8570
 1699SOL     OW16729   2.235   3.046   4.295 -0.1517 -0.0263  0.3930
 1699SOL    HW116730   2.242   2.958   4.259  1.3691  0.6284 -0.8503
 1699SOL    HW216731   2.143   3.073   4.286 -0.2515 -1.0181 -1.3493
 1700SOL     OW16732   3.657   2.562   7.752 -0.2957 -0.3246 -0.0603
 1700SOL    HW116733   3.578   2.614   7.766 -1.1023 -1.9082  1.3518
 1700SOL    HW216734   3.722   2.630   7.739 -0.2937 -0.6690 -1.8281
 1701SOL     OW16735   0.154   3.719   2.275  0.1684  0.1304 -0.0538
 1701SOL    HW116736   0.168   3.811   2.253  1.2838 -0.0981 -0.3293
 1701SOL    HW216737   0.217   3.701   2.345  0.9215  0.8370 -0.5450
 1702SOL     OW16738   2.038   2.642   7.209  0.2568  0.3240  0.6274
 1702SOL    HW116739   2.096   2.599   7.271  0.0540 -1.1025 -0.1691
 1702SOL    HW216740   1.959   2.599   7.243  2.2798 -2.7318  1.4155
 1703SOL     OW16741   3.470   3.278   1.011 -0.0083 -0.3860  0.1359
 1703SOL    HW116742   3.402   3.345   1.017  0.1607  0.0503 -2.4593
 1703SOL    HW216743   3.550   3.331   1.019 -0.8053  1.0931 -1.6379
 1704SOL     OW16744   0.102   1.241   6.441  0.3591  0.0533 -0.1690
 1704SOL    HW116745   0.150   1.191   6.508  2.1358  0.8264 -0.8833
 1704SOL    HW216746   0.114   1.200   6.355  0.8207  0.9336 -0.5188
 1705SOL     OW16747   2.374   2.234   4.520 -0.3890 -0.7855  0.3494
 1705SOL    HW116748   2.337   2.211   4.435 -1.7678  1.8800  0.2201
 1705SOL    HW216749   2.319   2.312   4.531 -1.3761 -1.4565  0.1419
 1706SOL     OW16750   0.308   3.330   3.073 -0.0845 -0.3404 -0.3569
 1706SOL    HW116751   0.258   3.315   2.992 -1.3692 -2.4534  0.8301
 1706SOL    HW216752   0.391   3.286   3.058  0.0304  0.4602 -2.0975
 1707SOL     OW16753   4.200   1.815   7.489 -0.1016  0.1428 -0.2602
 1707SOL    HW116754   4.137   1.812   7.417  3.1547  0.0137 -3.0933
 1707SOL    HW216755   4.277   1.832   7.435  0.2579  2.2740  0.9187
 1708SOL     OW16756   0.743   2.479   6.918  0.5658 -0.2279  0.3718
 1708SOL    HW116757   0.790   2.396   6.911  0.2527 -0.4388  0.7617
 1708SOL    HW216758   0.793   2.517   6.990  0.2956  0.9192 -0.0409
 1709SOL     OW16759   1.800   1.682   3.020 -0.0863  0.0129  0.0005
 1709SOL    HW116760   1.837   1.605   2.978  1.3434 -0.1040  1.4559
 1709SOL    HW216761   1.708   1.689   2.993 -0.3718 -2.8195  0.3005
 1710SOL     OW16762   4.378   1.051   6.120 -0.3017  0.0053 -0.3704
 1710SOL    HW116763   4.330   0.979   6.080  0.8422 -0.9000 -0.1290
 1710SOL    HW216764   4.411   1.011   6.201 -0.5239  0.4296 -0.0731
 1711SOL     OW16765   0.449   1.231   6.012  0.1008  0.4903 -0.1681
 1711SOL    HW116766   0.530   1.181   6.001 -0.2374 -0.5343  2.0879
 1711SOL    HW216767   0.431   1.254   5.921  0.8638 -0.6725 -0.6023
 1712SOL     OW16768   1.089   3.044   3.774 -0.6537  0.4259  0.4410
 1712SOL    HW116769   1.143   2.977   3.731  2.6469  1.1363  3.4492
 1712SOL    HW216770   1.008   2.994   3.779 -0.6598  0.3926 -0.0089
 1713SOL     OW16771   4.045   2.811  11.112  0.6744  0.0460  0.2323
 1713SOL    HW116772   3.959   2.824  11.153  0.4141  2.2584 -1.0183
 1713SOL    HW216773   4.103   2.847  11.179 -3.2835  2.3237  2.4479
 1714SOL     OW16774   1.246   3.410  15.593 -0.1033 -0.0460  0.3098
 1714SOL    HW116775   1.275   3.386  15.681  1.0065 -0.4189 -0.1647
 1714SOL    HW216776   1.316   3.467  15.564  2.2072 -3.5330 -0.9340
 1715SOL     OW16777   0.309   2.302   2.109 -0.3042 -0.6431 -0.1435
 1715SOL    HW116778   0.356   2.376   2.071 -0.2486 -0.6879 -0.1623
 1715SOL    HW216779   0.377   2.236   2.097 -0.4699 -0.5256 -1.7915
 1716SOL     OW16780   1.419   4.397   5.891  0.3836  0.0460 -0.0273
 1716SOL    HW116781   1.371   4.476   5.915  1.7900  1.1450 -0.8381
 1716SOL    HW216782   1.345   4.342   5.917 -0.2429 -0.9655 -4.1017
 1717SOL     OW16783   4.648   1.786   3.072  0.1107 -0.0260 -0.7153
 1717SOL    HW116784   4.707   1.861   3.062  1.9791 -1.2308  1.2150
 1717SOL    HW216785   4.658   1.769   3.166 -0.0204 -1.7890 -1.0204
 1718SOL     OW16786   4.563   2.368   2.459  0.2030  0.4844 -0.3233
 1718SOL    HW116787   4.645   2.319   2.454 -0.6768 -0.9276 -0.9734
 1718SOL    HW216788   4.576   2.434   2.390  2.5894  0.2795 -0.0719
 1719SOL     OW16789   2.889   0.719   4.689 -0.0296  0.1733 -0.0668
 1719SOL    HW116790   2.796   0.716   4.665 -0.0433  2.1557 -0.3220
 1719SOL    HW216791   2.892   0.754   4.778  1.7356 -0.3846  0.0995
 1720SOL     OW16792   3.630   0.320   6.673 -0.8953  0.3264  0.0298
 1720SOL    HW116793   3.679   0.257   6.620  0.5518  1.2597  0.2669
 1720SOL    HW216794   3.599   0.264   6.745  1.4430 -1.1930 -0.1443
 1721SOL     OW16795   0.889   2.718   5.689 -0.0476 -0.6607  0.6139
 1721SOL    HW116796   0.977   2.678   5.688 -0.7240 -1.9726 -4.2235
 1721SOL    HW216797   0.867   2.700   5.780 -0.4637 -1.6275  0.3219
 1722SOL     OW16798   4.113   1.345  16.064  0.4446 -0.3197  0.7492
 1722SOL    HW116799   4.208   1.347  16.052  0.3442 -3.2692 -0.4926
 1722SOL    HW216800   4.078   1.431  16.038  0.5885  0.0105  1.6261
 1723SOL     OW16801   2.845   1.813   2.644 -0.1822 -0.0563 -0.1525
 1723SOL    HW116802   2.885   1.894   2.611  0.8231 -1.2012 -1.7258
 1723SOL    HW216803   2.756   1.817   2.608 -0.3327 -0.7378  0.1495
 1724SOL     OW16804   1.823   4.006  17.099  1.0561  0.2232 -0.2268
 1724SOL    HW116805   1.850   4.052  17.019 -0.6837 -0.7136 -1.3709
 1724SOL    HW216806   1.901   3.950  17.107 -0.5524 -1.8163  1.2109
 1725SOL     OW16807   4.527   3.955   9.631  0.1879 -0.3666  0.3151
 1725SOL    HW116808   4.493   3.876   9.590  0.2119 -0.4968  0.5445
 1725SOL    HW216809   4.570   4.001   9.560  0.4129 -1.7362 -0.4290
 1726SOL     OW16810   2.956   0.430   5.959  0.3348 -0.5242  0.0026
 1726SOL    HW116811   2.984   0.471   6.040 -1.1086 -1.9693  1.2340
 1726SOL    HW216812   2.948   0.344   6.001  1.6277 -0.6981 -0.1099
 1727SOL     OW16813   1.099   1.965   5.083  0.1085 -0.0955  0.0738
 1727SOL    HW116814   1.105   1.985   5.176  2.2515 -4.5267  0.8984
 1727SOL    HW216815   1.097   1.870   5.098  1.0342 -0.3587 -1.5059
 1728SOL     OW16816   1.967   2.515  13.125  0.2357 -0.1446  0.0256
 1728SOL    HW116817   1.937   2.503  13.215  3.6258  4.9540  1.7949
 1728SOL    HW216818   2.022   2.437  13.115  0.5673 -0.0967  1.4526
 1729SOL     OW16819   0.209   3.437   0.822 -0.0880  0.7262  0.2320
 1729SOL    HW116820   0.153   3.386   0.763  1.5055 -0.6767 -0.0603
 1729SOL    HW216821   0.190   3.523   0.785 -0.7649 -0.0406 -1.2100
 1730SOL     OW16822   1.219   2.731   6.461  0.3709  0.3725  0.0879
 1730SOL    HW116823   1.281   2.675   6.415  0.7483  0.3735  0.6004
 1730SOL    HW216824   1.137   2.707   6.418 -2.0454  2.4762  3.4875
 1731SOL     OW16825   4.180   2.221   8.243  0.5125  0.2963  0.2656
 1731SOL    HW116826   4.238   2.204   8.169 -0.1230 -1.5948  0.2044
 1731SOL    HW216827   4.216   2.303   8.276 -2.0455  1.9262 -0.9806
 1732SOL     OW16828   0.488   0.007  11.041  0.4448 -0.1345 -0.4116
 1732SOL    HW116829   0.454   4.650  11.043  3.3576 -1.1425  4.9275
 1732SOL    HW216830   0.541   0.011  10.962  0.6010 -0.5860 -0.3283
 1733SOL     OW16831   1.038   2.605   8.016 -0.6124 -0.1800  0.0804
 1733SOL    HW116832   1.032   2.521   7.972  0.9129 -0.3171  0.1684
 1733SOL    HW216833   0.943   2.617   8.027 -0.8517 -1.5730 -0.5108
 1734SOL     OW16834   2.741   4.372  16.857  0.1137  0.3033 -0.6135
 1734SOL    HW116835   2.791   4.422  16.922  0.2813  0.2195 -0.6789
 1734SOL    HW216836   2.769   4.410  16.774  1.3094  1.1276  0.1638
 1735SOL     OW16837   4.297   3.557   9.788 -0.0878 -0.2781  0.6147
 1735SOL    HW116838   4.213   3.599   9.806 -0.7241 -1.2131 -0.1471
 1735SOL    HW216839   4.289   3.481   9.845  0.7089  0.5533  1.8284
 1736SOL     OW16840   3.319   1.686   8.178 -0.2583 -0.2022  0.0643
 1736SOL    HW116841   3.300   1.689   8.085 -0.4220 -0.1411  0.0992
 1736SOL    HW216842   3.255   1.619   8.205  0.1050  0.2927  2.1505
 1737SOL     OW16843   4.442   4.063  10.090  0.3751 -0.8189  0.3415
 1737SOL    HW116844   4.507   4.094  10.152  1.6771  0.7416 -1.7949
 1737SOL    HW216845   4.493   4.053  10.010 -0.8658  2.8448 -0.9597
 1738SOL     OW16846   3.802   3.679  16.958  0.2580 -0.2317 -0.1851
 1738SOL    HW116847   3.892   3.650  16.946  0.8890  1.5023  0.3456
 1738SOL    HW216848   3.796   3.695  17.052 -1.8442 -1.9657 -0.0210
 1739SOL     OW16849   1.997   1.021  14.832 -0.0703  0.1301 -0.5426
 1739SOL    HW116850   1.977   1.113  14.847 -0.2063 -0.0442  0.3543
 1739SOL    HW216851   1.990   1.027  14.737  0.5889 -0.5632 -0.6362
 1740SOL     OW16852   2.012   2.896   2.763 -0.3820  0.6758  0.2191
 1740SOL    HW116853   2.046   2.954   2.695  2.2051 -1.5296 -0.3763
 1740SOL    HW216854   2.092   2.844   2.771 -0.5902  0.6495  2.0768
 1741SOL     OW16855   0.664   0.248  16.258  0.2405  0.0182 -0.1300
 1741SOL    HW116856   0.741   0.194  16.247 -0.6445 -1.2964  0.1520
 1741SOL    HW216857   0.603   0.203  16.200  2.0580 -0.4183 -1.6699
 1742SOL     OW16858   0.984   3.442   6.117 -0.4060 -0.0073  0.0695
 1742SOL    HW116859   1.033   3.429   6.199  0.3568 -0.0490 -0.3913
 1742SOL    HW216860   0.919   3.511   6.132  0.2636  0.5590  0.4208
 1743SOL     OW16861   2.771   0.486  13.909  0.1861  0.1053 -0.2503
 1743SOL    HW116862   2.831   0.477  13.835 -2.2080  2.3809 -2.4918
 1743SOL    HW216863   2.693   0.456  13.861 -0.5063 -0.4268  1.2138
 1744SOL     OW16864   2.272   4.548  11.188  0.3805 -0.7378 -0.4027
 1744SOL    HW116865   2.240   4.571  11.275  0.2370  2.0394 -1.2064
 1744SOL    HW216866   2.354   4.503  11.209  0.6465 -0.2371 -0.3836
 1745SOL     OW16867   0.703   1.028   8.620 -0.1131 -0.3445  0.1992
 1745SOL    HW116868   0.640   0.962   8.651  0.6323 -0.5246  1.3215
 1745SOL    HW216869   0.657   1.061   8.544 -0.0469  0.7167  0.6290
 1746SOL     OW16870   1.822   1.251  10.390 -0.1257  0.0834 -0.4312
 1746SOL    HW116871   1.749   1.312  10.383 -1.4364 -1.3644  0.7598
 1746SOL    HW216872   1.793   1.195  10.462  0.9916  0.4444  0.3006
 1747SOL     OW16873   3.541   2.766   8.139  0.0916  0.0188 -0.0330
 1747SOL    HW116874   3.449   2.792   8.137  0.6373  1.9384 -0.2318
 1747SOL    HW216875   3.577   2.807   8.060  0.9426 -1.0646 -0.2073
 1748SOL     OW16876   4.000   2.896   9.709 -0.0725  0.3747 -0.1776
 1748SOL    HW116877   4.058   2.831   9.671  0.0065  0.2940  0.0804
 1748SOL    HW216878   3.912   2.861   9.698  0.6278 -1.0183 -1.2733
 1749SOL     OW16879   4.121   2.079   8.764 -0.3065  0.0489  0.2333
 1749SOL    HW116880   4.073   2.092   8.682 -2.2224  0.7712  1.4673
 1749SOL    HW216881   4.128   1.984   8.765 -0.7811  0.0308  1.6081
 1750SOL     OW16882   1.458   2.067   9.224  0.2356 -0.1686 -0.1007
 1750SOL    HW116883   1.473   2.060   9.130 -0.0386 -0.6323 -0.1127
 1750SOL    HW216884   1.371   2.028   9.232  0.6207 -1.0756 -0.3879
 1751SOL     OW16885   1.806   1.999   7.423  0.2136  0.4892 -0.1694
 1751SOL    HW116886   1.773   1.927   7.369 -0.1816 -0.9147  1.9748
 1751SOL    HW216887   1.778   1.972   7.510  2.0254 -1.1831 -0.0862
 1752SOL     OW16888   1.540   0.106   3.653  0.5124 -0.2217  0.2077
 1752SOL    HW116889   1.514   0.024   3.610 -0.3033  0.2067 -0.1179
 1752SOL    HW216890   1.605   0.142   3.592 -0.5519  1.9355  0.3444
 1753SOL     OW16891   4.638   4.033   3.218  0.4431  0.2429  0.2860
 1753SOL    HW116892   4.585   4.010   3.142  2.6997 -1.7807 -0.6567
 1753SOL    HW216893   4.674   3.948   3.244  0.1366 -0.0348 -0.2153
 1754SOL     OW16894   4.561   1.997   3.284 -0.1670  0.1952 -0.2866
 1754SOL    HW116895   4.604   1.920   3.322 -1.2969 -0.6323 -0.6637
 1754SOL    HW216896   4.581   2.069   3.344  1.2996 -0.0293 -0.4913
 1755SOL     OW16897   1.178   0.694  15.771 -0.4025 -0.2344  0.0393
 1755SOL    HW116898   1.224   0.732  15.846 -1.4260 -2.2821  1.7025
 1755SOL    HW216899   1.148   0.777  15.735 -0.8807 -1.0332 -1.4139
 1756SOL     OW16900   2.285   1.031   1.050  0.2734 -0.2118 -0.2995
 1756SOL    HW116901   2.330   1.031   0.966  0.3739  0.6109 -0.2474
 1756SOL    HW216902   2.334   0.964   1.098  0.8155  0.4204  0.0307
 1757SOL     OW16903   3.116   2.075   3.913 -0.0501 -0.3783 -0.4063
 1757SOL    HW116904   3.184   2.032   3.862  0.1350 -3.0403  2.0577
 1757SOL    HW216905   3.109   2.021   3.992  1.7466  1.7817  1.2084
 1758SOL     OW16906   4.129   0.207  14.764 -0.9923 -0.5587  0.1824
 1758SOL    HW116907   4.058   0.267  14.741 -0.8210 -0.6266 -0.5237
 1758SOL    HW216908   4.109   0.174  14.852 -0.7897 -2.0537 -0.3256
 1759SOL     OW16909   4.477   0.429  11.416 -0.1443 -0.1312 -0.2340
 1759SOL    HW116910   4.446   0.516  11.441 -2.0786 -1.0241  0.4843
 1759SOL    HW216911   4.569   0.452  11.419 -0.3240  0.6323 -0.5833
 1760SOL     OW16912   3.692   2.325   4.263  0.7122  0.1656 -0.6035
 1760SOL    HW116913   3.726   2.278   4.339  3.0579  0.3594 -1.5268
 1760SOL    HW216914   3.767   2.379   4.238  0.1533  1.5120  0.6420
 1761SOL     OW16915   0.889   0.803  16.198  0.2680  0.4387 -0.2083
 1761SOL    HW116916   0.893   0.708  16.185  3.4078  0.5792 -0.3062
 1761SOL    HW216917   0.909   0.806  16.292 -1.3964  2.0067  0.0876
 1762SOL     OW16918   3.674   2.363   2.899 -0.0305  0.3797 -0.2152
 1762SOL    HW116919   3.712   2.318   2.975 -1.0941 -3.3353 -1.8649
 1762SOL    HW216920   3.641   2.446   2.934 -0.1950  0.4808 -0.6101
 1763SOL     OW16921   4.605   0.196  10.581  0.1568  0.3961 -0.4528
 1763SOL    HW116922   4.675   0.132  10.590 -0.9732 -0.7498  0.2544
 1763SOL    HW216923   4.642   0.255  10.647 -0.3902 -0.0807  0.2802
 1764SOL     OW16924   4.150   0.895   5.312 -0.6443 -0.1733 -0.3140
 1764SOL    HW116925   4.114   0.972   5.267 -0.2268  1.0787  1.5113
 1764SOL    HW216926   4.188   0.940   5.388  1.6756  0.2336 -1.6887
 1765SOL     OW16927   1.012   4.380  16.922  0.4409  0.0143  0.2389
 1765SOL    HW116928   0.967   4.452  16.878 -2.2979 -1.9465 -0.1685
 1765SOL    HW216929   1.086   4.428  16.959  0.7647  0.1259 -0.5392
 1766SOL     OW16930   1.066   2.295   6.985 -0.5188  0.0406 -0.3591
 1766SOL    HW116931   1.140   2.327   7.037 -0.2782  0.0641 -0.7213
 1766SOL    HW216932   1.014   2.249   7.052 -0.2211  0.9828  0.5222
 1767SOL     OW16933   3.789   2.769   7.673 -0.3189 -0.1547  0.9485
 1767SOL    HW116934   3.782   2.858   7.638 -0.1176 -0.5502 -0.1023
 1767SOL    HW216935   3.882   2.747   7.668 -0.8413 -2.0413 -0.5440
 1768SOL     OW16936   1.169   2.006   7.289 -0.5121 -0.1371  0.3304
 1768SOL    HW116937   1.136   1.918   7.273  0.8222 -1.0279  2.5918
 1768SOL    HW216938   1.226   2.006   7.365 -1.7269  0.8295  1.2537
 1769SOL     OW16939   4.295   4.131   0.807  0.2688  0.0356 -0.0141
 1769SOL    HW116940   4.208   4.131   0.767  0.4397 -0.4686 -0.3745
 1769SOL    HW216941   4.339   4.051   0.779  0.3531 -0.1178  0.5397
 1770SOL     OW16942   2.139   3.654   0.304 -0.3729  0.2083 -0.1292
 1770SOL    HW116943   2.206   3.606   0.257 -2.4674 -0.5093 -2.3563
 1770SOL    HW216944   2.177   3.728   0.352  1.0207 -0.9119  0.4735
 1771SOL     OW16945   3.501   0.195  13.639  0.6298 -0.2695  0.7369
 1771SOL    HW116946   3.496   0.289  13.619  0.2136  0.1962  3.0990
 1771SOL    HW216947   3.464   0.195  13.727 -2.8089  1.8569 -0.6837
 1772SOL     OW16948   2.756   3.517   7.285  0.0192 -0.1990 -0.1595
 1772SOL    HW116949   2.669   3.557   7.281  0.1231 -0.0215 -0.6024
 1772SOL    HW216950   2.821   3.576   7.249  0.7734 -0.2666  1.0853
 1773SOL     OW16951   3.872   0.823   3.164 -0.0970 -0.9496  0.3421
 1773SOL    HW116952   3.927   0.833   3.242  0.8076 -0.3189 -0.3828
 1773SOL    HW216953   3.788   0.834   3.210 -0.0097 -0.2607  0.3471
 1774SOL     OW16954   3.772   1.479   9.257  0.2738 -0.0801  0.2272
 1774SOL    HW116955   3.740   1.482   9.347 -1.4394 -0.1719 -0.3741
 1774SOL    HW216956   3.752   1.389   9.231 -1.8590  0.0082  1.5441
 1775SOL     OW16957   2.611   2.734  14.410  0.2865  0.4886  0.2168
 1775SOL    HW116958   2.610   2.761  14.318  0.5147 -0.1766  0.0215
 1775SOL    HW216959   2.545   2.791  14.450 -1.2245 -0.6570 -0.6299
 1776SOL     OW16960   0.611   0.183  17.217 -0.2067  0.1540 -0.2115
 1776SOL    HW116961   0.544   0.119  17.191 -3.0225  2.3309  1.6717
 1776SOL    HW216962   0.548   0.215  17.281 -1.1630 -0.2242 -0.9663
 1777SOL     OW16963   2.229   1.081   8.187 -0.4836  0.0810  0.0630
 1777SOL    HW116964   2.307   1.050   8.234  0.1061  1.1944 -0.1688
 1777SOL    HW216965   2.162   1.063   8.252 -0.1269 -2.0289 -0.1619
 1778SOL     OW16966   4.406   0.409   5.960  0.2812  0.3268 -0.4780
 1778SOL    HW116967   4.369   0.472   6.021  0.6624  1.6765 -1.6408
 1778SOL    HW216968   4.358   0.328   5.979  1.2988 -0.5961 -1.8472
 1779SOL     OW16969   1.209   1.239   5.422  0.2121 -0.0070  0.2390
 1779SOL    HW116970   1.303   1.233   5.443  0.2322 -0.0977  0.1234
 1779SOL    HW216971   1.172   1.157   5.454 -3.0961  0.9712 -1.1822
 1780SOL     OW16972   2.382   3.679   2.526 -0.3047 -0.0269 -0.0976
 1780SOL    HW116973   2.378   3.584   2.511  1.5365 -0.2003  0.4498
 1780SOL    HW216974   2.290   3.703   2.529  0.0468  1.5320 -2.0599
 1781SOL     OW16975   0.905   1.661   7.433  0.2702 -0.5609  0.0262
 1781SOL    HW116976   0.952   1.613   7.365  0.3945  1.3144 -1.2054
 1781SOL    HW216977   0.816   1.629   7.419  0.3618  0.3674 -2.6614
 1782SOL     OW16978   1.314   3.113   2.667  0.0758 -0.1922 -0.3231
 1782SOL    HW116979   1.352   3.088   2.751 -1.1058  1.3195  0.6581
 1782SOL    HW216980   1.355   3.199   2.660 -2.2661  0.8133 -1.6091
 1783SOL     OW16981   0.533   4.524   1.872 -0.0829 -0.1145 -0.2982
 1783SOL    HW116982   0.473   4.570   1.931 -0.3796  0.2223 -0.8593
 1783SOL    HW216983   0.529   4.592   1.804  3.1811  0.3727 -0.0092
 1784SOL     OW16984   3.908   0.652   4.477 -0.6725  0.1312 -0.1547
 1784SOL    HW116985   3.902   0.680   4.386  2.7296  1.9236  0.1647
 1784SOL    HW216986   3.971   0.718   4.507 -1.9894  1.7208 -0.9351
 1785SOL     OW16987   2.501   2.888   8.857 -0.0157 -0.4762 -0.2973
 1785SOL    HW116988   2.499   2.804   8.810  1.7109 -0.1487 -0.9448
 1785SOL    HW216989   2.408   2.908   8.862 -0.1409 -1.7968  2.8788
 1786SOL     OW16990   2.208   4.673   3.956  0.2588  0.4550  0.1342
 1786SOL    HW116991   2.148   4.599   3.943  0.1485  0.1922  2.0940
 1786SOL    HW216992   2.271   4.652   3.887 -0.5125 -0.7830 -0.2002
 1787SOL     OW16993   3.720   0.475   1.759  1.1092 -0.1757 -0.0543
 1787SOL    HW116994   3.731   0.382   1.779  1.7646 -0.1758 -0.4235
 1787SOL    HW216995   3.752   0.480   1.669 -1.3587 -0.4054 -0.9534
 1788SOL     OW16996   3.884   0.701   7.327  0.0666  0.2181 -0.1903
 1788SOL    HW116997   3.822   0.629   7.341  0.1591 -0.3706 -2.9544
 1788SOL    HW216998   3.853   0.741   7.246 -1.0198  4.0088  2.0752
 1789SOL     OW16999   0.144   4.666   0.796  0.4627  0.0818  0.2672
 1789SOL    HW117000   0.121   0.025   0.818 -2.1125 -0.6981  0.8807
 1789SOL    HW217001   0.230   4.675   0.755  0.7070  0.0799  0.7860
 1790SOL     OW17002   2.207   0.472   7.128 -0.2539  0.4221  0.3835
 1790SOL    HW117003   2.207   0.378   7.144  0.2033  0.1758 -1.1784
 1790SOL    HW217004   2.145   0.508   7.193  0.2259  0.6914  0.6901
 1791SOL     OW17005   3.538   3.785   3.638 -0.1405 -0.5032 -0.5437
 1791SOL    HW117006   3.528   3.854   3.704 -0.6407 -0.8934 -0.2152
 1791SOL    HW217007   3.628   3.793   3.608 -0.2114  0.3557 -0.5248
 1792SOL     OW17008   1.310   1.496   6.674  0.0462 -0.0695  0.1016
 1792SOL    HW117009   1.342   1.576   6.715  0.1269 -1.0868  2.0087
 1792SOL    HW217010   1.391   1.446   6.662 -0.9097 -1.0828 -2.1156
 1793SOL     OW17011   0.930   4.706  17.577 -0.1174 -0.3805  0.0494
 1793SOL    HW117012   0.948   4.613  17.585  1.9812  0.0393  0.2429
 1793SOL    HW217013   0.871   4.700  17.502 -0.7669 -0.7989  0.5931
 1794SOL     OW17014   3.672   2.057   5.734 -0.3084 -0.0419 -0.1484
 1794SOL    HW117015   3.661   1.995   5.662 -0.4493  0.9721 -0.9895
 1794SOL    HW217016   3.757   2.029   5.769  0.7180  2.8852 -0.3013
 1795SOL     OW17017   2.621   3.067   3.486  0.2883 -0.0340  0.1140
 1795SOL    HW117018   2.667   3.137   3.531  1.4426  0.4485 -1.8180
 1795SOL    HW217019   2.586   3.119   3.413 -1.4302 -0.8017  0.3874
 1796SOL     OW17020   1.122   2.284   1.375 -0.0147 -0.0215  0.0565
 1796SOL    HW117021   1.178   2.335   1.316 -1.4932  1.0077 -0.4693
 1796SOL    HW217022   1.169   2.278   1.458  0.8472  1.8872 -0.2947
 1797SOL     OW17023   0.354   2.983   2.255 -0.0485  0.0023  0.0258
 1797SOL    HW117024   0.398   2.898   2.245 -0.0108 -0.1514  1.4889
 1797SOL    HW217025   0.412   3.034   2.312 -0.3698  0.3345  0.0560
 1798SOL     OW17026   2.521   1.805   2.817  0.0111  0.1142  0.0464
 1798SOL    HW117027   2.591   1.770   2.872  0.3761 -0.1411 -0.5813
 1798SOL    HW217028   2.454   1.743   2.846 -0.6606  1.0639  0.5187
 1799SOL     OW17029   0.889   1.178  17.381 -0.9247 -0.4079 -0.2914
 1799SOL    HW117030   0.948   1.105  17.400  0.6573  0.6405 -1.1810
 1799SOL    HW217031   0.805   1.132  17.375  0.0184 -2.2463  0.4750
 1800SOL     OW17032   1.827   0.967   6.188  0.0576 -0.5917  0.3825
 1800SOL    HW117033   1.777   0.983   6.108 -0.1480 -0.6180  0.5072
 1800SOL    HW217034   1.771   0.899   6.226 -0.2119 -1.0181 -0.7845
 1801SOL     OW17035   1.054   3.239   2.936  0.2829 -0.2457  0.2377
 1801SOL    HW117036   0.985   3.305   2.926  0.3378 -0.0259  1.3689
 1801SOL    HW217037   1.012   3.153   2.927  0.7530 -0.5825  1.3544
 1802SOL     OW17038   0.791   0.708   3.975 -0.3500  0.8982  0.0923
 1802SOL    HW117039   0.833   0.682   4.057 -0.6606 -2.0092 -0.6682
 1802SOL    HW217040   0.857   0.755   3.924 -0.5944 -0.4484 -1.4395
 1803SOL     OW17041   0.440   3.294   5.909 -0.0425  0.4480  0.2362
 1803SOL    HW117042   0.463   3.335   5.992  0.1031 -1.1475  0.9913
 1803SOL    HW217043   0.491   3.213   5.916  0.8228  0.8927 -0.8410
 1804SOL     OW17044   3.684   3.988  16.049  0.3044 -0.1423  0.2677
 1804SOL    HW117045   3.622   3.968  15.979  0.5672  0.0814 -0.0253
 1804SOL    HW217046   3.694   3.905  16.095 -1.9534 -1.1024 -0.9505
 1805SOL     OW17047   1.166   0.709   8.514 -0.4628 -0.2052  0.4136
 1805SOL    HW117048   1.143   0.664   8.433  1.3030  0.5281 -0.5047
 1805SOL    HW217049   1.250   0.666   8.531 -0.5629 -0.7481 -0.4439
 1806SOL     OW17050   2.741   2.329  11.089 -0.1506  1.0003  0.2712
 1806SOL    HW117051   2.653   2.358  11.114 -0.9785  0.7799 -2.4058
 1806SOL    HW217052   2.742   2.257  11.152  2.3478 -0.0705 -0.9952
 1807SOL     OW17053   3.284   3.273   5.994  0.2898 -0.1496  0.1539
 1807SOL    HW117054   3.360   3.226   6.028  0.4973 -0.8104 -1.2122
 1807SOL    HW217055   3.281   3.236   5.905 -0.9699 -1.7160  0.8465
 1808SOL     OW17056   3.757   3.814   7.177 -0.1967  0.0566  0.6587
 1808SOL    HW117057   3.693   3.781   7.114 -0.5231  1.1913  0.3963
 1808SOL    HW217058   3.816   3.739   7.182 -0.9368 -0.5984 -0.4065
 1809SOL     OW17059   4.382   0.545   7.930  0.1293  0.2663 -0.1067
 1809SOL    HW117060   4.408   0.485   7.861 -0.2300 -0.7477  0.6526
 1809SOL    HW217061   4.460   0.552   7.985  0.3586 -1.2932 -0.2607
 1810SOL     OW17062   0.341   1.791   0.368  0.0720 -0.1132 -0.6540
 1810SOL    HW117063   0.383   1.707   0.348 -0.9477 -0.6249 -0.6309
 1810SOL    HW217064   0.405   1.851   0.330 -0.0115  0.7994  0.6371
 1811SOL     OW17065   0.550   4.211   2.259  0.1166  0.2451  0.0142
 1811SOL    HW117066   0.593   4.140   2.307 -0.4426  0.4092  0.7806
 1811SOL    HW217067   0.506   4.254   2.333  0.4927 -0.7525  0.8125
 1812SOL     OW17068   3.331   2.941  16.334  0.1895  0.2819 -0.1229
 1812SOL    HW117069   3.265   2.887  16.291  1.3153  0.1904 -1.7366
 1812SOL    HW217070   3.414   2.894  16.338  0.1116  0.1593  0.0209
 1813SOL     OW17071   0.085   4.335   9.839 -0.2398  0.6693 -0.5360
 1813SOL    HW117072   0.075   4.244   9.810  0.1424  0.6022 -0.4664
 1813SOL    HW217073   0.156   4.378   9.790 -1.4806  2.5869 -0.6209
 1814SOL     OW17074   0.587   4.630   9.053  0.1022 -0.4318 -0.1691
 1814SOL    HW117075   0.522   4.644   8.984  1.6571  0.8494 -1.3682
 1814SOL    HW217076   0.577   4.714   9.097 -0.1971 -0.7842  0.4338
 1815SOL     OW17077   1.442   0.948  10.769 -0.6775 -0.3306  0.2156
 1815SOL    HW117078   1.444   0.856  10.740  0.9812 -0.7566  1.6762
 1815SOL    HW217079   1.448   0.990  10.684 -1.9564 -0.9209 -0.1687
 1816SOL     OW17080   3.625   1.529   2.165  0.3596  0.2876  0.0538
 1816SOL    HW117081   3.704   1.493   2.205  0.4451 -0.1383 -0.5022
 1816SOL    HW217082   3.649   1.616   2.133 -0.1958 -0.3020 -1.9781
 1817SOL     OW17083   1.517   2.216  15.955  0.0331 -0.1817  0.1197
 1817SOL    HW117084   1.559   2.256  16.031 -2.3604 -0.3431  1.5232
 1817SOL    HW217085   1.593   2.197  15.899  0.8519 -0.2949  1.2755
 1818SOL     OW17086   3.349   1.974   5.881  0.0169 -0.2285  0.6263
 1818SOL    HW117087   3.273   1.984   5.823 -0.4124 -0.6390  1.1199
 1818SOL    HW217088   3.327   2.039   5.948  0.8406 -0.7274  1.3897
 1819SOL     OW17089   0.615   2.588  13.344 -0.1797 -0.1540 -0.7642
 1819SOL    HW117090   0.611   2.493  13.334 -2.1631  0.0547 -1.9621
 1819SOL    HW217091   0.626   2.599  13.438 -0.8671  2.3716 -0.9904
 1820SOL     OW17092   3.097   0.935   7.553 -0.2002  0.3613 -0.6792
 1820SOL    HW117093   3.156   0.909   7.623 -1.0179 -0.8552 -0.4324
 1820SOL    HW217094   3.015   0.895   7.581  0.2146  0.5542  0.7972
 1821SOL     OW17095   2.157   0.549  17.518 -0.7703  0.0832 -0.2378
 1821SOL    HW117096   2.148   0.541  17.423 -2.6306 -0.1802 -0.0447
 1821SOL    HW217097   2.208   0.469  17.532  0.2745  0.8794  0.4830
 1822SOL     OW17098   4.725   1.085   1.241  0.1982  0.2914  0.0570
 1822SOL    HW117099   0.007   1.033   1.320  2.0321 -0.7941 -1.0047
 1822SOL    HW217100   4.631   1.103   1.248  0.2800  1.1258 -0.9849
 1823SOL     OW17101   4.139   1.810   5.686 -0.4218 -0.0753  0.3401
 1823SOL    HW117102   4.232   1.829   5.688 -0.3618 -0.1878 -1.5711
 1823SOL    HW217103   4.122   1.817   5.592  1.2868 -0.7678 -0.0138
 1824SOL     OW17104   0.764   1.182  13.283  0.4278 -0.5722 -0.1469
 1824SOL    HW117105   0.729   1.093  13.285  1.1469 -0.8478  0.2262
 1824SOL    HW217106   0.736   1.204  13.371  1.3217 -1.2575  0.3085
 1825SOL     OW17107   0.460   4.096  13.635 -0.1275 -0.3887 -0.4052
 1825SOL    HW117108   0.518   4.022  13.654 -0.0914 -0.1834  0.3016
 1825SOL    HW217109   0.416   4.107  13.720 -0.5087  0.3857 -0.7053
 1826SOL     OW17110   0.804   3.883   8.153  0.0033  0.4313  0.0172
 1826SOL    HW117111   0.714   3.856   8.173 -0.0080  0.9048  0.6106
 1826SOL    HW217112   0.832   3.878   8.245 -0.4896  0.4887  0.1726
 1827SOL     OW17113   3.933   3.015  15.471  0.0303  0.0278 -0.1504
 1827SOL    HW117114   3.870   3.085  15.487  0.9071  0.9163 -0.5888
 1827SOL    HW217115   3.885   2.936  15.496 -0.4265  0.2605 -0.3029
 1828SOL     OW17116   2.540   4.213   5.697 -0.5687  0.1823 -0.2146
 1828SOL    HW117117   2.453   4.245   5.720 -1.0302  0.0818 -1.8406
 1828SOL    HW217118   2.558   4.126   5.731 -1.0292  0.0270 -0.3728
 1829SOL     OW17119   3.190   4.042   8.735  0.1230  0.1157  0.3655
 1829SOL    HW117120   3.247   3.989   8.680 -0.2580  0.3402 -0.2463
 1829SOL    HW217121   3.244   4.070   8.809  0.6489  0.0007  0.0232
 1830SOL     OW17122   2.585   3.583  17.203 -0.5699  0.2825  0.2879
 1830SOL    HW117123   2.607   3.520  17.134 -2.9447 -0.6619  0.4187
 1830SOL    HW217124   2.551   3.650  17.144  1.8144  1.9887  0.8352
 1831SOL     OW17125   3.989   3.284  10.907 -0.0837  0.3460 -0.6574
 1831SOL    HW117126   3.995   3.337  10.828  0.0021 -0.8868 -1.4859
 1831SOL    HW217127   4.001   3.192  10.883 -0.9470 -0.6906  2.7458
 1832SOL     OW17128   0.458   2.230   3.858  0.0476  0.6994  0.4462
 1832SOL    HW117129   0.382   2.277   3.826  1.5888  1.2070 -2.4498
 1832SOL    HW217130   0.458   2.156   3.797  0.0988  0.1948  1.0514
 1833SOL     OW17131   2.179   2.572  10.098  0.2573  0.2346 -0.6468
 1833SOL    HW117132   2.160   2.506  10.165  0.7956 -0.1855 -0.9049
 1833SOL    HW217133   2.143   2.522  10.025  0.6610  0.4592 -0.9945
 1834SOL     OW17134   4.325   0.867   5.886 -0.5839  0.0390 -0.0470
 1834SOL    HW117135   4.291   0.831   5.804  1.8041  0.2424 -1.1176
 1834SOL    HW217136   4.351   0.785   5.928  0.8109  0.2408 -0.5192
 1835SOL     OW17137   2.143   0.626   6.897 -0.0291 -0.0833 -0.1783
 1835SOL    HW117138   2.180   0.538   6.900 -1.1550 -0.5651 -0.4083
 1835SOL    HW217139   2.085   0.638   6.972 -1.6803  1.9781 -1.7827
 1836SOL     OW17140   1.175   4.005   1.795 -0.0373  0.3258  0.8359
 1836SOL    HW117141   1.166   4.024   1.701  0.2481  0.1049  0.7644
 1836SOL    HW217142   1.085   4.010   1.829  1.0374  0.5096  3.6304
 1837SOL     OW17143   2.942   4.488   3.304  0.0220 -0.7186  0.2773
 1837SOL    HW117144   2.879   4.430   3.347 -0.8598  0.4777  0.5980
 1837SOL    HW217145   2.975   4.432   3.233 -0.4607 -0.0151 -0.4949
 1838SOL     OW17146   1.081   3.210   4.081  0.1467  0.3181  0.2730
 1838SOL    HW117147   1.162   3.165   4.107 -1.4183 -2.1744  0.8097
 1838SOL    HW217148   1.029   3.130   4.071 -1.8098  1.4847  1.2145
 1839SOL     OW17149   1.401   3.324  11.203 -0.3166  0.1927  0.1464
 1839SOL    HW117150   1.486   3.319  11.160 -0.5585  0.5810 -0.3762
 1839SOL    HW217151   1.427   3.384  11.272  1.4778  0.6893 -0.9592
 1840SOL     OW17152   4.177   3.462   3.270  0.2270  0.1584 -0.1085
 1840SOL    HW117153   4.166   3.432   3.180  0.4020  0.0453 -0.0941
 1840SOL    HW217154   4.164   3.380   3.317  2.9478  0.6188  1.4375
 1841SOL     OW17155   3.974   0.027   7.176 -0.8826  0.0803 -0.4270
 1841SOL    HW117156   3.978   0.100   7.115  1.1588 -0.0412 -0.4265
 1841SOL    HW217157   3.893   0.043   7.226 -0.7020  1.0404 -0.4304
 1842SOL     OW17158   2.764   0.359  16.483  0.4276 -0.2474  0.7425
 1842SOL    HW117159   2.838   0.403  16.441 -1.5005 -0.2137 -2.6421
 1842SOL    HW217160   2.767   0.390  16.574 -1.4028  1.0909  0.3492
 1843SOL     OW17161   1.197   0.481  12.278  0.2338 -0.0211  0.2049
 1843SOL    HW117162   1.278   0.459  12.324  0.8452 -0.8582 -1.2681
 1843SOL    HW217163   1.231   0.516  12.195  1.1209  1.2632  1.1021
 1844SOL     OW17164   0.594   4.343   5.387  0.0957  0.4657 -0.8311
 1844SOL    HW117165   0.563   4.394   5.462  3.5945  1.2698  0.0652
 1844SOL    HW217166   0.662   4.396   5.347  1.1868 -0.2282  0.0949
 1845SOL     OW17167   3.038   3.402   7.782  0.0297  0.0809 -0.0012
 1845SOL    HW117168   3.123   3.436   7.754 -0.7483  0.3000 -2.0690
 1845SOL    HW217169   2.989   3.404   7.700 -2.3421 -1.1782  1.3927
 1846SOL     OW17170   1.448   2.172  17.616  0.9058  0.1209  0.1155
 1846SOL    HW117171   1.417   2.256  17.585  1.9031 -0.0894 -1.4271
 1846SOL    HW217172   1.441   2.131  17.530  1.9012  1.9876 -0.8365
 1847SOL     OW17173   1.644   2.825  16.290 -0.9158  0.2086  0.5339
 1847SOL    HW117174   1.717   2.880  16.319 -0.2395 -1.1426  1.3927
 1847SOL    HW217175   1.578   2.881  16.332 -2.2377 -0.2229 -1.0060
 1848SOL     OW17176   4.020   0.490   1.190 -0.4698 -0.1346  0.0156
 1848SOL    HW117177   3.931   0.519   1.210 -0.7595 -2.5584  2.2322
 1848SOL    HW217178   4.032   0.553   1.119  1.5237 -3.4090 -2.5664
 1849SOL     OW17179   0.487   3.106   7.524 -0.2012  0.0149  0.7333
 1849SOL    HW117180   0.483   3.038   7.456  0.4511  0.3248  0.3925
 1849SOL    HW217181   0.393   3.125   7.531 -0.4238 -0.9232  0.3217
 1850SOL     OW17182   4.467   3.358   7.834  0.2942 -0.7828  0.1687
 1850SOL    HW117183   4.470   3.286   7.771 -0.2639 -1.2479  0.6853
 1850SOL    HW217184   4.514   3.428   7.787 -0.2892  0.4787  1.4452
 1851SOL     OW17185   1.090   3.684   9.773 -0.0932  0.2199 -0.2899
 1851SOL    HW117186   1.163   3.662   9.832 -0.4822  1.8478  0.7821
 1851SOL    HW217187   1.082   3.610   9.713 -3.2331 -0.1365  0.6118
 1852SOL     OW17188   3.524   4.726   9.093 -0.1546 -0.7357 -0.2181
 1852SOL    HW117189   3.542   0.004   9.187  0.7399 -4.1846 -0.0321
 1852SOL    HW217190   3.442   4.679   9.108 -0.5650 -0.0661 -0.3457
 1853SOL     OW17191   2.899   1.084  14.960  0.3604 -0.1177  0.5433
 1853SOL    HW117192   2.804   1.082  14.975 -0.1272  1.4534 -2.3723
 1853SOL    HW217193   2.934   0.997  14.977 -1.0910 -0.6880  0.6165
 1854SOL     OW17194   2.739   0.427   6.984  0.5989 -0.4613  0.0679
 1854SOL    HW117195   2.787   0.496   7.029  0.5575 -0.8256  0.6710
 1854SOL    HW217196   2.649   0.449   7.006  0.6553 -0.3602  0.1949
 1855SOL     OW17197   3.827   3.068  11.239  0.1158  0.2141  0.2806
 1855SOL    HW117198   3.910   3.113  11.234  0.5169 -0.4143  1.1833
 1855SOL    HW217199   3.835   3.027  11.326  0.4130 -2.4546 -0.9988
 1856SOL     OW17200   1.921   0.072   3.462  0.4551 -0.0786  0.0183
 1856SOL    HW117201   1.913   0.044   3.371  3.4347  0.3910 -0.3624
 1856SOL    HW217202   1.992   0.019   3.498  1.6958  0.7929 -1.1938
 1857SOL     OW17203   4.119   3.430  10.218  0.0850  0.3515  0.0122
 1857SOL    HW117204   4.155   3.508  10.261  1.8886 -0.8775  0.7095
 1857SOL    HW217205   4.131   3.366  10.288 -0.6655  1.7678  1.4231
 1858SOL     OW17206   1.398   2.453   2.888 -0.2247  0.2662 -0.1773
 1858SOL    HW117207   1.383   2.544   2.863  1.0373  0.1638 -1.3168
 1858SOL    HW217208   1.313   2.414   2.867 -1.3923  2.0551  1.2887
 1859SOL     OW17209   3.210   0.684   6.640 -0.1071  0.0990 -0.0560
 1859SOL    HW117210   3.297   0.649   6.625 -0.3773 -0.6668  0.1698
 1859SOL    HW217211   3.235   0.766   6.683 -0.7789 -0.4869  1.4601
 1860SOL     OW17212   4.457   0.621  15.916 -0.2369  0.6255  0.1253
 1860SOL    HW117213   4.440   0.528  15.902  1.7881  0.1998  0.4513
 1860SOL    HW217214   4.545   0.622  15.878 -0.6950  0.1973 -0.9693
 1861SOL     OW17215   2.311   3.938   2.635 -0.1119  0.0931 -0.4141
 1861SOL    HW117216   2.386   3.981   2.677 -1.5698 -0.1479  2.4941
 1861SOL    HW217217   2.344   3.849   2.621 -0.0553 -0.0888  0.8437
 1862SOL     OW17218   4.258   3.430   7.644 -0.0124 -0.4135  0.1489
 1862SOL    HW117219   4.192   3.460   7.707  0.1729 -1.8861  1.0471
 1862SOL    HW217220   4.333   3.405   7.698  0.4403 -0.5386 -0.5503
 1863SOL     OW17221   4.483   3.725   7.230 -0.2126 -0.1110 -0.5243
 1863SOL    HW117222   4.448   3.711   7.318 -2.7744  0.7234 -1.4225
 1863SOL    HW217223   4.405   3.721   7.175 -1.5508 -1.2354  1.4235
 1864SOL     OW17224   4.689   2.843   3.907  0.3826 -0.3339  0.2907
 1864SOL    HW117225   0.014   2.834   3.831  0.6113 -1.9008  0.6510
 1864SOL    HW217226   4.701   2.764   3.960  1.8883  0.0841  0.5686
 1865SOL     OW17227   0.738   0.380  15.125  0.1265  0.3555 -0.2171
 1865SOL    HW117228   0.691   0.351  15.047  0.5440 -1.9200  0.3590
 1865SOL    HW217229   0.824   0.398  15.087  0.0107 -2.0089 -1.5900
 1866SOL     OW17230   4.588   3.371   2.105 -0.3340  0.6744  1.0478
 1866SOL    HW117231   4.660   3.417   2.062 -2.1048  1.5451 -1.0513
 1866SOL    HW217232   4.580   3.303   2.038  0.3537 -1.4538  3.1807
 1867SOL     OW17233   3.817   3.155  10.270 -0.0586 -0.4696 -0.7866
 1867SOL    HW117234   3.850   3.239  10.238  1.6830  0.1595  2.6642
 1867SOL    HW217235   3.897   3.103  10.272  0.6121  0.6511  0.8854
 1868SOL     OW17236   2.568   2.885   2.513  0.0507  0.6940 -0.1760
 1868SOL    HW117237   2.654   2.910   2.478 -0.1113  1.9453  0.3347
 1868SOL    HW217238   2.512   2.958   2.486  0.0945  0.5291 -0.7235
 1869SOL     OW17239   3.315   0.440   9.249 -0.6277  0.4525 -0.1370
 1869SOL    HW117240   3.251   0.483   9.304  1.5621 -0.6048  3.2264
 1869SOL    HW217241   3.312   0.348   9.277  1.1585  0.1889 -0.8071
 1870SOL     OW17242   2.941   2.895   4.600 -0.1874 -0.1599 -0.5823
 1870SOL    HW117243   2.998   2.832   4.643 -2.2875 -1.5316  0.2073
 1870SOL    HW217244   2.881   2.837   4.553 -0.4692  0.6048 -1.1715
 1871SOL     OW17245   3.636   1.523   9.008 -0.0100 -0.1489 -0.3227
 1871SOL    HW117246   3.642   1.437   8.965  1.4776 -0.0749 -0.2517
 1871SOL    HW217247   3.692   1.510   9.084 -0.6242 -0.4203  0.0778
 1872SOL     OW17248   3.085   2.441   3.285  0.2964 -0.0076 -0.1989
 1872SOL    HW117249   3.165   2.459   3.235 -0.3707  1.4379 -0.7579
 1872SOL    HW217250   3.015   2.449   3.220  1.4163 -2.2141 -1.6785
 1873SOL     OW17251   4.127   3.400   5.533  0.0297 -0.3010 -0.2550
 1873SOL    HW117252   4.198   3.364   5.479 -1.6342  0.2442 -2.8094
 1873SOL    HW217253   4.076   3.443   5.465  0.3593 -3.8503 -2.7651
 1874SOL     OW17254   3.844   3.282   9.537 -0.1268  0.3337  0.9999
 1874SOL    HW117255   3.803   3.210   9.586 -0.4285 -0.2582 -0.1152
 1874SOL    HW217256   3.801   3.363   9.563  2.0454  2.0648 -0.8421
 1875SOL     OW17257   2.664   1.776   5.165  0.0444 -0.5707  0.5839
 1875SOL    HW117258   2.731   1.766   5.098 -0.5686  0.1426 -0.1399
 1875SOL    HW217259   2.711   1.819   5.236 -0.5449 -0.1964  0.7500
 1876SOL     OW17260   0.440   0.928   3.480  0.0579 -0.1356  0.1267
 1876SOL    HW117261   0.353   0.891   3.491  0.4031 -1.1683 -0.6473
 1876SOL    HW217262   0.434   0.989   3.553  0.1282  1.1102 -0.8939
 1877SOL     OW17263   1.553   1.684   8.278 -0.2387  0.0225 -0.3776
 1877SOL    HW117264   1.633   1.640   8.308  0.1558  1.1577  0.2378
 1877SOL    HW217265   1.517   1.626   8.212  0.5592  1.5018 -2.1213
 1878SOL     OW17266   0.951   2.770   7.298 -0.1985  0.6918  0.1121
 1878SOL    HW117267   0.931   2.768   7.391  0.0745  0.3474  0.1635
 1878SOL    HW217268   0.948   2.864   7.277 -1.0915  0.6220 -0.1017
 1879SOL     OW17269   1.370   1.067   4.004 -0.3676  0.0995  0.2528
 1879SOL    HW117270   1.309   1.001   3.971  2.1922 -2.9349  1.5077
 1879SOL    HW217271   1.348   1.073   4.097  0.1477  2.0364  0.2495
 1880SOL     OW17272   1.024   4.045   5.319  0.2739  0.1911 -0.5480
 1880SOL    HW117273   1.094   4.011   5.374 -0.7558 -0.3908  0.4045
 1880SOL    HW217274   0.980   4.097   5.387  0.7899 -1.9424  1.3850
 1881SOL     OW17275   2.169   2.296   8.770  0.7251  0.3942  0.2083
 1881SOL    HW117276   2.190   2.218   8.718 -0.5757 -1.5981  2.6717
 1881SOL    HW217277   2.202   2.276   8.857  0.1616  2.3611  0.8824
 1882SOL     OW17278   3.168   4.012   3.757  0.3594 -0.5601  0.3626
 1882SOL    HW117279   3.169   3.919   3.777  0.4228 -0.6131  0.1178
 1882SOL    HW217280   3.091   4.012   3.700  0.6487  1.9017 -0.0465
 1883SOL     OW17281   1.111   3.587   5.419  0.1565 -0.0974  0.0981
 1883SOL    HW117282   1.081   3.546   5.337  1.5571 -0.5239 -0.2009
 1883SOL    HW217283   1.023   3.602   5.453  0.3942  0.0804  0.6182
 1884SOL     OW17284   1.733   0.066   2.299  0.3972  0.4525  0.0113
 1884SOL    HW117285   1.726   0.098   2.389  1.2166 -0.7055  0.4802
 1884SOL    HW217286   1.660   0.118   2.266  1.2665  1.2014 -0.7162
 1885SOL     OW17287   0.044   2.753   5.094 -0.5081 -0.7249 -0.1276
 1885SOL    HW117288   0.010   2.664   5.078  1.3873 -1.5051  0.1837
 1885SOL    HW217289   4.709   2.804   5.049 -1.0292 -1.9654 -0.7875
 1886SOL     OW17290   4.500   2.772   7.883 -0.3553  0.3495  0.0527
 1886SOL    HW117291   4.435   2.812   7.940 -0.9640  1.9985 -1.7809
 1886SOL    HW217292   4.508   2.840   7.816  0.7357  0.4071  0.2489
 1887SOL     OW17293   4.220   4.617  14.751  0.3667 -0.1581  0.1126
 1887SOL    HW117294   4.227   4.527  14.721  1.1790 -0.0963  0.1144
 1887SOL    HW217295   4.181   4.649  14.669 -1.8960 -0.4469  1.0580
 1888SOL     OW17296   2.937   3.001   1.277 -0.9524  0.7302 -0.1116
 1888SOL    HW117297   2.954   2.929   1.337 -1.3288  0.7505  0.0181
 1888SOL    HW217298   2.986   2.981   1.197 -1.7283 -2.8894  0.3094
 1889SOL     OW17299   0.446   3.276   7.272  0.2876  0.5801  0.3117
 1889SOL    HW117300   0.468   3.190   7.307 -2.6607 -0.8095 -1.2674
 1889SOL    HW217301   0.390   3.262   7.196 -0.4927 -1.0987  1.1994
 1890SOL     OW17302   4.084   0.537  14.154 -0.4082 -0.4626 -0.3399
 1890SOL    HW117303   4.039   0.616  14.123  1.7375  0.5546 -0.9395
 1890SOL    HW217304   4.031   0.467  14.116 -1.3533 -0.1862  0.4788
 1891SOL     OW17305   0.566   1.121   1.881  0.1202  0.5691  0.1398
 1891SOL    HW117306   0.656   1.154   1.882  0.5760 -0.6730 -0.0471
 1891SOL    HW217307   0.570   1.081   1.795  2.7858 -2.6633  1.7424
 1892SOL     OW17308   4.009   3.242   9.314 -0.3082  0.1727 -0.1509
 1892SOL    HW117309   3.949   3.248   9.389 -0.3109 -0.8802 -0.0764
 1892SOL    HW217310   4.066   3.169   9.337 -0.5648  0.8973  2.8474
 1893SOL     OW17311   4.679   2.461   6.060 -0.1066 -0.4346  0.0803
 1893SOL    HW117312   4.717   2.533   6.008  1.4849 -0.7648  0.7928
 1893SOL    HW217313   4.606   2.504   6.103 -1.4000 -0.4755 -2.0726
 1894SOL     OW17314   0.822   1.811   6.191  0.3030  0.7879 -0.6785
 1894SOL    HW117315   0.916   1.826   6.200  0.0185  0.6685  2.3181
 1894SOL    HW217316   0.792   1.901   6.183  0.9082  1.0094 -0.3713
 1895SOL     OW17317   2.539   0.569   1.557  0.3180 -0.3807 -0.0920
 1895SOL    HW117318   2.611   0.507   1.551 -1.0991 -2.2806  2.3675
 1895SOL    HW217319   2.561   0.615   1.638  3.6047 -0.9455 -0.6662
 1896SOL     OW17320   4.236   3.565  15.645  0.2074 -0.0135  0.9713
 1896SOL    HW117321   4.209   3.650  15.611 -1.0078 -0.5257  0.6582
 1896SOL    HW217322   4.157   3.511  15.653  0.3164 -0.3619 -0.3189
 1897SOL     OW17323   0.740   4.396   2.999 -0.4872  0.6158  0.0665
 1897SOL    HW117324   0.660   4.426   2.957 -0.1863  0.4119 -0.6535
 1897SOL    HW217325   0.812   4.428   2.944  0.7554  0.0031  1.3348
 1898SOL     OW17326   0.765   3.115  10.047 -0.3905  0.3540 -0.3888
 1898SOL    HW117327   0.714   3.164  10.111 -0.4769 -0.8936  0.5065
 1898SOL    HW217328   0.775   3.036  10.100 -4.3692  0.4071  0.4461
 1899SOL     OW17329   2.608   1.014   8.008  0.3284  0.5009  0.3661
 1899SOL    HW117330   2.682   0.959   8.034  0.4968  1.0284  0.9934
 1899SOL    HW217331   2.559   1.020   8.089 -0.5994  0.6919 -0.2125
 1900SOL     OW17332   2.930   1.659   3.284 -0.2025  0.3093  1.1522
 1900SOL    HW117333   2.949   1.753   3.274 -0.0802 -0.0164 -1.6579
 1900SOL    HW217334   2.892   1.650   3.372 -0.1695  3.8061  1.5451
 1901SOL     OW17335   2.488   0.668   8.408  0.4416 -0.1194 -0.0712
 1901SOL    HW117336   2.478   0.579   8.373 -0.6385  0.3976 -1.0712
 1901SOL    HW217337   2.582   0.657   8.422  0.0866 -1.3421  1.3179
 1902SOL     OW17338   0.762   0.381   8.471 -0.0310  0.0748  0.6977
 1902SOL    HW117339   0.686   0.354   8.419 -0.6330 -0.0864  1.6593
 1902SOL    HW217340   0.751   0.475   8.453 -1.7418 -0.8449 -3.2062
 1903SOL     OW17341   1.852   4.244   2.371 -0.1343  0.7136 -0.0519
 1903SOL    HW117342   1.831   4.232   2.279 -3.4402  0.5288  0.7129
 1903SOL    HW217343   1.769   4.269   2.412  0.0286  1.4136 -0.1483
 1904SOL     OW17344   2.054   1.023   9.443  0.6140  0.4702  0.1900
 1904SOL    HW117345   1.965   1.059   9.446 -0.2917 -1.5637 -2.0138
 1904SOL    HW217346   2.105   1.103   9.455  2.9254 -1.1616  1.2081
 1905SOL     OW17347   0.429   3.169  11.835 -0.2896  0.3942 -0.6850
 1905SOL    HW117348   0.396   3.163  11.745 -0.6763 -0.6066 -0.4691
 1905SOL    HW217349   0.352   3.196  11.886  1.0718  1.3489  0.8719
 1906SOL     OW17350   3.931   4.463   2.406  0.0207  0.3063  0.2416
 1906SOL    HW117351   3.907   4.529   2.342 -0.7528 -1.9857 -1.8511
 1906SOL    HW217352   3.910   4.378   2.368 -2.2447  1.2237 -0.5439
 1907SOL     OW17353   4.028   0.074   2.176 -0.0555 -0.5699  0.6792
 1907SOL    HW117354   4.002   0.152   2.126  1.1284 -0.8118 -0.2919
 1907SOL    HW217355   3.990   0.074   2.264  0.2342 -0.2352  0.8013
 1908SOL     OW17356   2.082   0.776  14.156  0.6113 -0.6291 -0.4394
 1908SOL    HW117357   2.167   0.800  14.117  0.2441 -0.1815 -0.9584
 1908SOL    HW217358   2.101   0.804  14.245  1.1307 -2.9509  0.1954
 1909SOL     OW17359   4.681   0.394   8.286 -0.3906 -0.3073 -0.1255
 1909SOL    HW117360   4.693   0.423   8.196 -0.9503  1.7748  0.4784
 1909SOL    HW217361   4.692   0.475   8.336 -4.6091  0.6141 -0.7719
 1910SOL     OW17362   0.165   3.101   7.135 -0.6675 -0.3247 -0.0672
 1910SOL    HW117363   0.072   3.095   7.113 -0.5134  1.7777 -1.2806
 1910SOL    HW217364   0.160   3.101   7.230  0.7736  2.5898  0.0111
 1911SOL     OW17365   2.943   3.369  15.669  0.7051 -0.1985  0.5318
 1911SOL    HW117366   2.897   3.433  15.614  1.6882  1.3101  1.4547
 1911SOL    HW217367   2.958   3.298  15.606 -0.6145 -1.6930  1.9234
 1912SOL     OW17368   3.818   3.512   3.033 -0.3606 -0.2531 -0.0102
 1912SOL    HW117369   3.810   3.526   3.128  0.7722  1.8887 -0.2416
 1912SOL    HW217370   3.818   3.417   3.026  1.6786 -0.0800 -2.0842
 1913SOL     OW17371   1.746   3.011   4.825 -0.3138  0.6221 -0.2877
 1913SOL    HW117372   1.651   2.997   4.829 -0.2888  0.7137  0.4866
 1913SOL    HW217373   1.760   3.053   4.909 -1.2572 -0.8093  0.5852
 1914SOL     OW17374   0.012   1.162   7.834  0.5799 -0.0352  0.6944
 1914SOL    HW117375   4.728   1.076   7.795 -0.4571  0.7233 -0.5545
 1914SOL    HW217376   0.076   1.194   7.770 -0.0802 -0.0584  0.0174
 1915SOL     OW17377   0.466   1.460   7.546 -0.1941 -0.0654 -0.1540
 1915SOL    HW117378   0.487   1.543   7.504  2.7881  0.6949  2.8407
 1915SOL    HW217379   0.403   1.491   7.611  0.4283  1.6860 -0.3725
 1916SOL     OW17380   4.343   3.871   3.360  0.4236  0.1565 -0.1379
 1916SOL    HW117381   4.428   3.879   3.404  0.7812  2.2995 -1.2595
 1916SOL    HW217382   4.306   3.950   3.399  0.4990  0.6085 -1.0031
 1917SOL     OW17383   4.495   1.982  15.080  0.3788  0.3249  0.0062
 1917SOL    HW117384   4.582   1.968  15.116 -0.4598  0.3050  1.9983
 1917SOL    HW217385   4.496   2.078  15.071 -2.1297  0.4296  0.6674
 1918SOL     OW17386   3.021   3.588   5.448 -0.5957  0.0202  0.7984
 1918SOL    HW117387   2.951   3.534   5.411  1.0045  0.1108 -2.3191
 1918SOL    HW217388   3.085   3.526   5.484 -0.6361 -0.1504  0.5739
 1919SOL     OW17389   1.012   0.414  16.926  0.1202 -0.1764  0.6584
 1919SOL    HW117390   1.022   0.507  16.909  0.6136 -0.6096 -1.5230
 1919SOL    HW217391   0.917   0.423  16.937 -0.1309 -2.2726  0.2195
 1920SOL     OW17392   1.682   0.751   2.663 -0.3662  0.3273  0.4417
 1920SOL    HW117393   1.631   0.752   2.582 -1.2005  0.8273  0.9809
 1920SOL    HW217394   1.772   0.758   2.631 -0.3833 -1.9941 -0.1230
 1921SOL     OW17395   1.777   2.994   0.874 -0.7425 -0.0727 -0.7689
 1921SOL    HW117396   1.704   2.936   0.854 -1.1953  1.3799 -3.3085
 1921SOL    HW217397   1.843   2.939   0.915  0.4485  2.5812  0.8930
 1922SOL     OW17398   0.087   0.624   4.560  0.0941 -0.2054  0.1729
 1922SOL    HW117399   0.116   0.533   4.553 -0.8354 -0.3996 -0.9716
 1922SOL    HW217400   0.170   0.668   4.582  0.0970  0.0393 -0.3315
 1923SOL     OW17401   3.573   1.802   3.492 -0.7436 -0.2566 -0.4526
 1923SOL    HW117402   3.522   1.816   3.572  1.4262  0.9653  0.7363
 1923SOL    HW217403   3.608   1.889   3.473 -1.4406  0.0747 -0.2213
 1924SOL     OW17404   0.552   0.408   2.161  0.0189  0.4788  0.6825
 1924SOL    HW117405   0.505   0.484   2.193 -0.5711  0.8019 -0.9533
 1924SOL    HW217406   0.578   0.372   2.246 -0.5783 -0.8415  0.3080
 1925SOL     OW17407   0.058   1.824   6.992 -0.2238  0.2932  0.0067
 1925SOL    HW117408   0.099   1.738   6.985  0.8121  0.6479  1.6030
 1925SOL    HW217409   4.700   1.794   6.981  0.0548 -0.4282 -0.2509
 1926SOL     OW17410   2.506   1.874   8.330  0.6587 -0.2047  0.0302
 1926SOL    HW117411   2.493   1.838   8.242 -0.6143 -1.7968  0.8527
 1926SOL    HW217412   2.584   1.823   8.354  0.8924  0.6737  1.1417
 1927SOL     OW17413   0.803   1.318   9.182  0.7001 -0.2966 -0.2108
 1927SOL    HW117414   0.753   1.241   9.208 -0.2987  0.8116  1.1746
 1927SOL    HW217415   0.734   1.385   9.188  0.0135 -1.0270  0.0429
 1928SOL     OW17416   1.083   1.362   9.267 -0.5669  0.2775  0.3491
 1928SOL    HW117417   0.995   1.363   9.230  0.2906  0.8825 -1.6581
 1928SOL    HW217418   1.069   1.353   9.362 -0.1701 -1.7231  0.2156
 1929SOL     OW17419   2.837   3.589  10.054  0.1044 -0.4211  0.3580
 1929SOL    HW117420   2.919   3.637  10.056 -0.3731  0.4300 -0.3901
 1929SOL    HW217421   2.778   3.632  10.115 -0.2454  0.3027 -0.4882
 1930SOL     OW17422   1.188   0.668   9.758  0.3775 -0.3451 -0.0406
 1930SOL    HW117423   1.211   0.576   9.747 -1.3892 -0.5187 -2.0776
 1930SOL    HW217424   1.148   0.672   9.845 -0.3944  0.5132 -0.4411
 1931SOL     OW17425   4.097   0.225   6.473  0.6596  0.3670  0.7958
 1931SOL    HW117426   4.168   0.247   6.533  1.0458 -2.5400  1.4104
 1931SOL    HW217427   4.134   0.147   6.431 -0.8641 -0.2867  0.6570
 1932SOL     OW17428   1.109   2.560   6.232 -0.1864  0.0395 -0.0393
 1932SOL    HW117429   1.097   2.472   6.269 -1.5085 -0.4286 -1.5601
 1932SOL    HW217430   1.197   2.548   6.196  0.4469  3.0910  0.5042
 1933SOL     OW17431   1.395   4.437   2.483  0.0115 -0.1610  0.8858
 1933SOL    HW117432   1.439   4.514   2.520  0.9783 -0.7315  0.9257
 1933SOL    HW217433   1.363   4.462   2.397 -0.6000  0.0524  1.1732
 1934SOL     OW17434   1.700   3.996   7.035 -0.0771 -0.5845 -0.1214
 1934SOL    HW117435   1.654   3.913   7.049 -0.5703 -0.2622  0.1488
 1934SOL    HW217436   1.763   3.979   7.105 -0.7256  0.7874  0.7798
 1935SOL     OW17437   2.132   3.921  10.220  0.9053  0.0685 -0.2542
 1935SOL    HW117438   2.060   3.917  10.283  2.7786 -2.6680  1.7264
 1935SOL    HW217439   2.173   4.005  10.241  1.0033  0.3074 -1.4216
 1936SOL     OW17440   4.511   2.960   2.892  0.2498 -0.1797  0.2000
 1936SOL    HW117441   4.596   2.997   2.915  0.4315  0.1980 -1.1046
 1936SOL    HW217442   4.521   2.865   2.889 -2.4891 -0.5691  2.7481
 1937SOL     OW17443   4.422   3.975   1.999  0.1413 -0.0018  0.3531
 1937SOL    HW117444   4.410   4.022   1.916  0.2084  0.0174  0.3544
 1937SOL    HW217445   4.453   4.052   2.048 -0.8727  2.8888 -3.5109
 1938SOL     OW17446   3.174   2.654   2.253 -0.1050 -0.4169  0.0854
 1938SOL    HW117447   3.079   2.650   2.263  0.0150  1.7716  1.9510
 1938SOL    HW217448   3.182   2.581   2.191  2.4025  2.0192 -2.4770
 1939SOL     OW17449   2.569   0.707   1.820 -0.5116 -0.7997  0.2605
 1939SOL    HW117450   2.562   0.798   1.850 -0.0742 -0.3411 -1.0417
 1939SOL    HW217451   2.578   0.663   1.904  0.8361  2.2409  1.6897
 1940SOL     OW17452   3.215   2.862   5.479 -0.4159 -0.1865 -0.0737
 1940SOL    HW117453   3.243   2.842   5.390 -0.3785  1.6473 -0.4684
 1940SOL    HW217454   3.290   2.905   5.522 -0.5386 -1.2028  1.1765
 1941SOL     OW17455   2.193   1.388  17.683  0.3113 -0.4453  0.1627
 1941SOL    HW117456   2.156   1.417   0.039  1.7048  0.0278  0.6182
 1941SOL    HW217457   2.275   1.438  17.690 -0.6947  0.9607  1.9717
 1942SOL     OW17458   2.289   4.534   7.684 -0.1563 -0.3672  0.2189
 1942SOL    HW117459   2.230   4.575   7.746 -0.6593 -0.8994  0.0946
 1942SOL    HW217460   2.359   4.599   7.680 -2.9297  2.7482  2.2423
 1943SOL     OW17461   3.670   1.286   2.487  0.2629 -0.0662 -0.4940
 1943SOL    HW117462   3.681   1.213   2.548 -1.2907  0.1689  0.0674
 1943SOL    HW217463   3.595   1.333   2.525  0.0888 -0.1922 -0.6803
 1944SOL     OW17464   1.925   4.246  14.607 -0.2914  0.1705 -0.6827
 1944SOL    HW117465   1.993   4.254  14.539  0.0652  1.2212 -0.1989
 1944SOL    HW217466   1.955   4.164  14.647 -1.0961 -0.0170 -0.4643
 1945SOL     OW17467   0.781   1.545  13.964 -0.2608  0.4166  0.3814
 1945SOL    HW117468   0.762   1.611  14.030 -1.4902  1.2884 -0.8236
 1945SOL    HW217469   0.705   1.551  13.906 -0.0612  0.9999  0.1796
 1946SOL     OW17470   3.682   4.289   6.483 -0.4172  0.8764  0.0296
 1946SOL    HW117471   3.614   4.269   6.547  0.8167 -0.9468  0.7778
 1946SOL    HW217472   3.669   4.383   6.469  0.6184  0.6923 -2.1401
 1947SOL     OW17473   1.921   2.850   0.053  0.1182 -0.5090  0.2196
 1947SOL    HW117474   2.017   2.843   0.051  0.2462  0.9806  1.2094
 1947SOL    HW217475   1.899   2.773   0.106 -0.3038  0.7808  1.9181
 1948SOL     OW17476   2.397   4.647   8.097  0.0361  0.4439  0.2283
 1948SOL    HW117477   2.398   4.637   8.192 -2.7780 -3.2533 -0.1180
 1948SOL    HW217478   2.446   4.728   8.087  0.0007  0.3199 -0.9999
 1949SOL     OW17479   3.547   1.782   7.014  0.1145  0.5227  0.8206
 1949SOL    HW117480   3.599   1.702   7.028 -0.3160  0.3250  1.2738
 1949SOL    HW217481   3.456   1.754   7.012  0.1563  0.2969  2.0639
 1950SOL     OW17482   2.614   2.310  16.180 -0.4027 -0.1366 -0.0261
 1950SOL    HW117483   2.677   2.369  16.220 -0.0209  0.3878 -1.4015
 1950SOL    HW217484   2.575   2.258  16.250  4.7885 -1.2875  1.9987
 1951SOL     OW17485   3.697   0.575  13.976 -0.5958 -0.1818  0.8349
 1951SOL    HW117486   3.657   0.488  13.971 -0.9197  0.0034  0.2191
 1951SOL    HW217487   3.618   0.618  13.943 -2.0797 -1.9759  2.0415
 1952SOL     OW17488   4.708   3.098   9.360  0.4352  0.3193  0.1992
 1952SOL    HW117489   4.622   3.062   9.383 -0.2054 -0.0663 -2.7477
 1952SOL    HW217490   0.003   3.160   9.427 -0.4332  2.4979 -1.4733
 1953SOL     OW17491   0.978   0.554   1.185  0.2895  0.3834  0.7470
 1953SOL    HW117492   0.896   0.540   1.231  0.3903  3.3033  1.8349
 1953SOL    HW217493   1.043   0.563   1.255 -1.3139  0.2583  2.2405
 1954SOL     OW17494   2.860   0.552   8.781  0.1119 -0.0012 -0.3622
 1954SOL    HW117495   2.886   0.630   8.731 -0.7865  1.0398  0.7942
 1954SOL    HW217496   2.947   0.519   8.804 -0.0495  1.3798  2.1990
 1955SOL     OW17497   3.979   3.144   3.201 -0.0135  0.1455 -0.6140
 1955SOL    HW117498   3.922   3.126   3.127 -2.3030 -3.0580  1.9871
 1955SOL    HW217499   4.030   3.214   3.160 -0.4294  2.3200  2.5971
 1956SOL     OW17500   1.151   0.957   9.644  0.1086  0.6570  0.3256
 1956SOL    HW117501   1.097   0.943   9.566 -0.3293  0.2242  0.7107
 1956SOL    HW217502   1.150   0.872   9.687 -0.8006  1.3366  1.6412
 1957SOL     OW17503   0.084   3.689   1.999 -0.3415 -0.6809  0.9767
 1957SOL    HW117504   0.112   3.721   2.085 -1.5356 -2.4810  2.0494
 1957SOL    HW217505   0.047   3.766   1.957  0.0845 -1.8897 -1.6030
 1958SOL     OW17506   4.498   0.545  10.633  0.0461 -0.0579  0.2014
 1958SOL    HW117507   4.561   0.492  10.682 -0.5829 -0.0623  0.9909
 1958SOL    HW217508   4.424   0.550  10.693 -0.2282 -0.0386 -0.1343
 1959SOL     OW17509   3.234   3.099  16.551 -0.2587  0.1854  0.3168
 1959SOL    HW117510   3.206   3.143  16.471 -0.4257  1.7269  1.2166
 1959SOL    HW217511   3.280   3.021  16.521 -0.2830  1.1857 -2.3196
 1960SOL     OW17512   4.175   1.466   0.681 -0.4909 -0.5169 -0.2730
 1960SOL    HW117513   4.203   1.487   0.770 -2.6237  1.7852 -0.1575
 1960SOL    HW217514   4.205   1.375   0.674 -0.2399 -0.4947  0.5137
 1961SOL     OW17515   0.839   1.543  15.186 -0.1640  0.3639 -0.6289
 1961SOL    HW117516   0.762   1.585  15.147 -0.3790 -0.0210 -0.6233
 1961SOL    HW217517   0.903   1.544  15.116 -0.5357 -2.2295 -0.9954
 1962SOL     OW17518   1.065   2.908   4.948  0.2907 -0.1901 -0.1801
 1962SOL    HW117519   0.972   2.914   4.929  0.5378 -0.2817 -1.4479
 1962SOL    HW217520   1.101   2.928   4.862 -0.6981  0.6827 -0.3872
 1963SOL     OW17521   0.724   1.917   1.920  0.2813  0.4609 -0.4324
 1963SOL    HW117522   0.644   1.892   1.874 -1.3935  1.0311  2.1375
 1963SOL    HW217523   0.686   1.978   1.984 -0.0739  0.2606 -0.4496
 1964SOL     OW17524   0.909   3.334  12.223  0.1503  0.0264 -0.4862
 1964SOL    HW117525   0.893   3.338  12.317 -0.0527 -0.5972 -0.4952
 1964SOL    HW217526   0.856   3.259  12.195  0.1838 -0.9217  1.9806
 1965SOL     OW17527   4.625   1.347  10.757 -0.4394 -0.2646  0.5222
 1965SOL    HW117528   4.610   1.359  10.663 -1.7679  2.3754  1.0709
 1965SOL    HW217529   4.603   1.430  10.800 -1.7537 -0.5645  0.4468
 1966SOL     OW17530   1.382   3.921   1.996  0.1057  0.7996 -0.2156
 1966SOL    HW117531   1.327   3.948   2.069 -1.0309 -0.9077 -0.4480
 1966SOL    HW217532   1.330   3.958   1.924 -0.4656 -2.4563 -1.4812
 1967SOL     OW17533   0.846   3.143   4.420 -0.3016 -0.3963  0.0634
 1967SOL    HW117534   0.846   3.173   4.329  2.1806 -2.1028 -0.5179
 1967SOL    HW217535   0.794   3.210   4.464  0.5346  0.6432 -0.5289
 1968SOL     OW17536   2.775   2.865   8.045  0.1859 -0.2010 -0.0342
 1968SOL    HW117537   2.812   2.945   8.082  0.7824  0.3618 -1.8393
 1968SOL    HW217538   2.849   2.805   8.058  0.7992  0.1081 -2.0963
 1969SOL     OW17539   0.182   0.031   2.271  0.0216  0.7075 -0.0381
 1969SOL    HW117540   0.155   4.672   2.288  0.8735  0.8735  2.2208
 1969SOL    HW217541   0.146   0.078   2.346 -0.2704  1.0710 -0.4073
 1970SOL     OW17542   0.132   2.006   7.510  0.5874 -0.5024 -0.3227
 1970SOL    HW117543   0.227   1.992   7.510  0.8294  1.1096 -1.1847
 1970SOL    HW217544   0.113   1.921   7.471 -0.6602  0.2850 -1.4586
 1971SOL     OW17545   1.894   2.459  12.305  0.3375 -0.5623 -0.6629
 1971SOL    HW117546   1.920   2.472  12.214  1.0334  0.9316 -0.2454
 1971SOL    HW217547   1.838   2.381  12.304 -0.7974  0.2311  0.8528
 1972SOL     OW17548   1.450   1.813  13.713 -0.2572 -0.2022 -0.3682
 1972SOL    HW117549   1.468   1.745  13.648 -0.7945 -0.6572 -0.0475
 1972SOL    HW217550   1.449   1.898  13.670  3.7595 -0.4345 -0.9650
 1973SOL     OW17551   4.054   3.656  16.784 -0.1333 -0.1680  0.4507
 1973SOL    HW117552   4.137   3.698  16.804  0.1323 -0.9017  0.8866
 1973SOL    HW217553   4.016   3.704  16.710 -0.0659  0.9281  1.1288
 1974SOL     OW17554   2.852   2.709   5.301 -0.0061 -0.5367 -0.0720
 1974SOL    HW117555   2.790   2.751   5.241 -0.4265 -0.5652  0.3421
 1974SOL    HW217556   2.862   2.776   5.368  3.4677  2.0988 -3.2263
 1975SOL     OW17557   1.404   3.101   0.451  0.0640 -0.5688  0.4907
 1975SOL    HW117558   1.359   3.018   0.469 -0.5393 -0.2307  0.5462
 1975SOL    HW217559   1.390   3.159   0.526  1.8338 -1.5510  1.5522
 1976SOL     OW17560   0.786   2.537   0.435 -0.4309 -0.0495 -0.0523
 1976SOL    HW117561   0.692   2.556   0.433 -0.8772 -2.1705  0.5371
 1976SOL    HW217562   0.823   2.614   0.478  0.8907 -0.6669 -0.0935
 1977SOL     OW17563   0.656   1.015  11.439  0.0241 -0.3181 -0.3580
 1977SOL    HW117564   0.688   1.048  11.524 -1.4423  0.1420  0.0208
 1977SOL    HW217565   0.575   0.977  11.472 -0.8329  0.3880 -1.6781
 1978SOL     OW17566   0.733   1.761   5.786 -0.0489  0.7564  0.1752
 1978SOL    HW117567   0.758   1.811   5.864 -0.8591  0.6192  0.5219
 1978SOL    HW217568   0.639   1.746   5.794  0.8791 -3.7165  2.1556
 1979SOL     OW17569   0.692   0.010   7.905 -0.7595  0.0141 -0.1588
 1979SOL    HW117570   0.629   0.051   7.964  1.6082 -0.1559  2.4907
 1979SOL    HW217571   0.719   0.081   7.847  0.9019 -0.2823  0.2485
 1980SOL     OW17572   1.727   3.786   4.251 -0.8634  0.1294 -0.5624
 1980SOL    HW117573   1.783   3.841   4.196 -0.4975 -0.1681 -0.4888
 1980SOL    HW217574   1.637   3.797   4.220 -1.1942  0.6627  0.5982
 1981SOL     OW17575   3.847   2.246   5.945 -0.0448 -0.0615  0.2347
 1981SOL    HW117576   3.761   2.215   5.914 -0.2617  0.3479  0.4265
 1981SOL    HW217577   3.852   2.333   5.904 -1.2426  0.0518  0.3137
 1982SOL     OW17578   2.696   0.226   4.377 -0.5270  0.1041  0.4635
 1982SOL    HW117579   2.727   0.223   4.287  2.7326  0.2915  1.5482
 1982SOL    HW217580   2.724   0.309   4.417 -0.7659 -0.2924  1.4445
 1983SOL     OW17581   2.804   3.682  13.065  0.0273  0.2437  0.6984
 1983SOL    HW117582   2.897   3.701  13.056 -0.2422  1.3068  0.1744
 1983SOL    HW217583   2.777   3.660  12.976  1.6074  0.4308  0.1724
 1984SOL     OW17584   2.401   2.462   0.132 -0.4062  0.3102 -0.4680
 1984SOL    HW117585   2.496   2.462   0.145 -0.2549  1.0464 -1.5652
 1984SOL    HW217586   2.378   2.495   0.219  0.5996  1.4646 -0.6523
 1985SOL     OW17587   1.962   0.027   7.753  0.1157 -0.0604  0.1997
 1985SOL    HW117588   1.930   0.002   7.840 -1.1697  0.5046 -0.1152
 1985SOL    HW217589   2.028   0.094   7.770  0.9659 -0.6509 -0.8031
 1986SOL     OW17590   0.417   1.744   1.189  0.6627  0.2385 -0.5282
 1986SOL    HW117591   0.472   1.703   1.256  2.2292  3.0384 -0.1161
 1986SOL    HW217592   0.347   1.777   1.246  0.3425  0.7391 -1.2160
 1987SOL     OW17593   2.049   4.563  12.461  0.1679 -0.8144  0.0383
 1987SOL    HW117594   2.102   4.530  12.533  0.3650  1.5487  0.9747
 1987SOL    HW217595   2.018   4.642  12.505 -2.3459 -1.7085 -0.0909
 1988SOL     OW17596   0.034   2.383   4.049 -0.2928 -0.5568 -0.1863
 1988SOL    HW117597   0.013   2.298   4.011  0.1498 -0.8015  0.1179
 1988SOL    HW217598   0.037   2.352   4.140  0.8611  0.0464 -0.0123
 1989SOL     OW17599   0.279   1.904   2.763 -0.5042 -0.1037  0.5812
 1989SOL    HW117600   0.316   1.834   2.817 -0.0270  2.0604  3.0541
 1989SOL    HW217601   0.323   1.978   2.804 -0.2925 -0.4303  0.9420
 1990SOL     OW17602   4.661   2.610   8.898 -0.0924  0.1746  0.1874
 1990SOL    HW117603   0.008   2.589   8.849  0.3116  0.4096  0.7446
 1990SOL    HW217604   4.679   2.699   8.928 -0.1894  0.3674 -0.3296
 1991SOL     OW17605   3.572   4.484   4.809 -0.0633 -0.1067 -0.4810
 1991SOL    HW117606   3.515   4.480   4.885  0.1001  2.2754 -0.2266
 1991SOL    HW217607   3.516   4.525   4.743  1.3801  1.4400 -0.7655
 1992SOL     OW17608   2.545   4.274   4.269 -0.1891 -0.1869  0.4846
 1992SOL    HW117609   2.588   4.212   4.210  0.1173 -0.0055  0.5108
 1992SOL    HW217610   2.570   4.364   4.244 -2.5220  0.4026  0.2450
 1993SOL     OW17611   4.560   4.532   3.625  0.4702 -0.1555 -0.4436
 1993SOL    HW117612   4.523   4.617   3.648  1.1614 -0.1654  0.7296
 1993SOL    HW217613   4.635   4.543   3.685 -1.7889 -0.4955  2.4544
 1994SOL     OW17614   4.395   1.032  15.175 -0.4967 -0.9108 -0.1211
 1994SOL    HW117615   4.469   1.043  15.114 -1.0642  0.5950 -0.5432
 1994SOL    HW217616   4.345   0.961  15.136 -1.1739 -0.7527  0.4744
 1995SOL     OW17617   0.062   1.092   8.924  0.8710  0.1399 -0.0105
 1995SOL    HW117618   4.710   1.081   8.881  1.2984 -0.1430 -0.7867
 1995SOL    HW217619   0.082   1.003   8.953  0.4124  0.4792  1.3423
 1996SOL     OW17620   3.521   1.835   7.319  0.5154  0.1189 -0.6075
 1996SOL    HW117621   3.540   1.802   7.232  1.0117  1.9130 -1.1751
 1996SOL    HW217622   3.471   1.765   7.362 -0.0879 -0.6523 -2.5989
 1997SOL     OW17623   3.255   2.607   4.100 -0.2962 -0.4359  0.1144
 1997SOL    HW117624   3.227   2.580   4.187 -1.2096  0.9463  0.2511
 1997SOL    HW217625   3.349   2.600   4.117 -0.1604  1.7223  0.2699
 1998SOL     OW17626   0.430   2.059   2.088 -0.0280  0.4267 -0.2985
 1998SOL    HW117627   0.444   1.992   2.155  0.1248 -0.0906 -0.8472
 1998SOL    HW217628   0.337   2.040   2.074  0.2602  0.1392 -1.8651
 1999SOL     OW17629   3.524   0.505   9.574 -0.7799 -0.5264  0.2484
 1999SOL    HW117630   3.598   0.456   9.538 -0.9406 -1.0567  0.6304
 1999SOL    HW217631   3.507   0.443   9.645  0.7434 -0.5226  0.6142
 2000SOL     OW17632   1.280   2.917  14.396  0.0183  0.0554  0.6432
 2000SOL    HW117633   1.196   2.877  14.418 -0.1372 -0.0962 -0.2634
 2000SOL    HW217634   1.285   2.924  14.301  0.0094 -2.3916  0.4515
 2001SOL     OW17635   1.234   0.303  14.047 -0.8886 -0.1078 -0.6931
 2001SOL    HW117636   1.263   0.299  14.138  0.5588  0.9278 -1.1137
 2001SOL    HW217637   1.221   0.397  14.055 -3.2428 -0.4026 -0.9124
 2002SOL     OW17638   2.959   3.291  13.681  0.5609 -0.0117 -0.2898
 2002SOL    HW117639   3.050   3.272  13.702  0.9696  1.0375 -1.1077
 2002SOL    HW217640   2.908   3.224  13.726 -0.1763  0.0693 -0.9941
 2003SOL     OW17641   3.686   4.568   2.634  0.1607 -0.3579  0.0491
 2003SOL    HW117642   3.684   4.588   2.540 -0.2963 -2.2288 -0.3249
 2003SOL    HW217643   3.676   4.473   2.634 -0.0854 -0.3311 -1.3871
 2004SOL     OW17644   0.197   4.189   2.332 -0.5960 -0.2712  0.4389
 2004SOL    HW117645   0.217   4.116   2.275  0.0865  0.4294 -0.2159
 2004SOL    HW217646   0.166   4.149   2.414  0.7931 -0.6807  0.7571
 2005SOL     OW17647   2.837   0.359   2.422  0.3913  0.5139  0.9739
 2005SOL    HW117648   2.864   0.300   2.352  2.2003  2.1781  0.2676
 2005SOL    HW217649   2.913   0.368   2.479  1.8461 -1.4278 -0.6289
 2006SOL     OW17650   2.145   1.670   3.089 -0.4018 -0.1069 -0.1599
 2006SOL    HW117651   2.063   1.719   3.082 -0.0376  0.4470 -0.5698
 2006SOL    HW217652   2.184   1.697   3.172  1.2859 -1.8256 -0.3813
 2007SOL     OW17653   4.597   3.570  15.363 -0.2836  0.6034  0.2464
 2007SOL    HW117654   4.651   3.497  15.395  0.4722  0.7508 -0.6655
 2007SOL    HW217655   4.516   3.521  15.375  0.3819 -0.3865  0.7559
 2008SOL     OW17656   4.411   1.586  14.497 -0.1436  0.2745  0.2745
 2008SOL    HW117657   4.504   1.580  14.520  0.3622  1.2701 -1.4705
 2008SOL    HW217658   4.374   1.597  14.584 -1.3547  0.5658 -0.2809
 2009SOL     OW17659   0.131   1.119   3.565  0.1073  0.1323 -0.4882
 2009SOL    HW117660   0.221   1.131   3.596 -0.3214  0.3638  0.6749
 2009SOL    HW217661   0.121   1.025   3.578  2.4763  0.0715  0.8040
 2010SOL     OW17662   0.184   3.316   4.808  0.7082  0.4851 -0.2260
 2010SOL    HW117663   0.094   3.320   4.839  1.6805 -1.4448  2.8857
 2010SOL    HW217664   0.221   3.240   4.853  0.8946  0.6595 -0.0847
 2011SOL     OW17665   3.049   2.852  17.237 -0.1573 -0.2915  0.2413
 2011SOL    HW117666   3.011   2.773  17.274  0.8746 -0.9972 -0.2058
 2011SOL    HW217667   3.072   2.836  17.146 -0.4703  2.4776 -0.3281
 2012SOL     OW17668   2.822   0.759   6.417 -0.5625  0.2199  0.2187
 2012SOL    HW117669   2.861   0.701   6.482  0.7393  1.2711  0.3822
 2012SOL    HW217670   2.727   0.748   6.428 -0.3274 -2.4894 -0.4701
 2013SOL     OW17671   1.630   0.684   9.603  0.1834 -0.4757  0.1425
 2013SOL    HW117672   1.713   0.723   9.630  1.1081 -0.2203 -3.0876
 2013SOL    HW217673   1.662   0.609   9.553  2.1361 -0.9766  2.1715
 2014SOL     OW17674   3.514   1.586   6.662 -0.1259 -0.6033  0.0339
 2014SOL    HW117675   3.508   1.515   6.598  0.6259 -1.5103  0.9656
 2014SOL    HW217676   3.507   1.549   6.750 -1.3315  0.8594  0.5534
 2015SOL     OW17677   2.629   2.123   1.439  0.5137 -0.2394  0.4564
 2015SOL    HW117678   2.538   2.127   1.467  0.6846 -0.8051  1.0738
 2015SOL    HW217679   2.673   2.165   1.513  1.6622  0.6712 -0.7345
 2016SOL     OW17680   2.871   3.510   6.783 -0.1440  0.4042 -0.3538
 2016SOL    HW117681   2.848   3.417   6.776  2.0686 -0.0937 -0.8814
 2016SOL    HW217682   2.946   3.506   6.724  1.5916 -0.1980  1.8979
 2017SOL     OW17683   2.953   2.356   3.046  0.2518 -0.0495  0.4981
 2017SOL    HW117684   3.008   2.356   2.968  2.1923 -0.4101  1.8623
 2017SOL    HW217685   2.872   2.325   3.006  1.3066 -1.4661 -0.5235
 2018SOL     OW17686   3.886   1.115  15.126 -0.2735 -0.7350 -0.1331
 2018SOL    HW117687   3.864   1.077  15.042 -0.7247 -0.4895 -0.1268
 2018SOL    HW217688   3.979   1.100  15.110 -0.7197 -1.7736 -1.7744
 2019SOL     OW17689   1.660   1.122   2.283 -0.1865  0.0314 -0.0004
 2019SOL    HW117690   1.717   1.199   2.279 -0.8487  0.4300 -1.6912
 2019SOL    HW217691   1.716   1.069   2.341 -0.6091 -0.2854  0.1203
 2020SOL     OW17692   1.874   2.961   9.540  0.1121  0.2200  0.0530
 2020SOL    HW117693   1.889   2.911   9.620  0.3590 -2.0811 -1.4283
 2020SOL    HW217694   1.870   2.884   9.484  1.9369  0.0475  0.1628
 2021SOL     OW17695   4.558   2.905   5.887 -0.2731 -0.0239  0.3369
 2021SOL    HW117696   4.620   2.832   5.886  0.2535  0.4463 -0.4756
 2021SOL    HW217697   4.511   2.905   5.971 -0.8497  0.6734  0.0125
 2022SOL     OW17698   1.938   3.571   4.455  0.3881  0.0661  0.0922
 2022SOL    HW117699   2.014   3.520   4.484 -0.5202 -0.2910  1.8254
 2022SOL    HW217700   1.879   3.550   4.527 -2.4681 -0.2657 -2.3398
 2023SOL     OW17701   4.284   2.331   8.762 -0.1427  0.4286  0.1046
 2023SOL    HW117702   4.194   2.332   8.730 -0.0247 -0.7155 -0.2423
 2023SOL    HW217703   4.296   2.425   8.745 -0.0161  0.8038  2.3212
 2024SOL     OW17704   1.847   3.007  11.150  0.0011 -0.2062  0.8290
 2024SOL    HW117705   1.815   2.979  11.236 -1.8357  0.1714  0.2593
 2024SOL    HW217706   1.899   3.087  11.162  0.8723 -0.7069  0.3839
 2025SOL     OW17707   3.926   4.423   3.421 -0.7689  0.1099  0.3186
 2025SOL    HW117708   3.866   4.476   3.368  0.9198  1.9662  0.2716
 2025SOL    HW217709   4.005   4.412   3.368 -0.5970  0.4304  0.5087
 2026SOL     OW17710   0.434   0.150  17.575 -0.6063 -0.4962  0.2589
 2026SOL    HW117711   0.420   0.057  17.555  1.2894 -1.0139  1.3382
 2026SOL    HW217712   0.399   0.153  17.664 -1.1473 -3.0013  0.1405
 2027SOL     OW17713   1.954   2.792   6.101 -0.2456  0.4098 -0.1258
 2027SOL    HW117714   2.039   2.804   6.142  0.1371 -0.7206 -0.5663
 2027SOL    HW217715   1.895   2.822   6.170 -0.8179 -1.6781  0.3096
 2028SOL     OW17716   1.910   2.723   9.072  0.0261 -0.4719 -0.1475
 2028SOL    HW117717   1.943   2.754   8.988  1.2544 -2.5206 -0.4297
 2028SOL    HW217718   1.821   2.689   9.060 -0.9360  1.5944  1.1569
 2029SOL     OW17719   3.858   1.614   6.205  0.2845  0.1321 -0.8575
 2029SOL    HW117720   3.917   1.689   6.213  2.1167 -1.2567 -1.3139
 2029SOL    HW217721   3.911   1.544   6.167  0.2283  0.8058 -2.1797
 2030SOL     OW17722   1.063   2.975  17.174  0.0724 -0.1870  0.0095
 2030SOL    HW117723   1.034   2.884  17.172  0.3040 -0.2825  1.6110
 2030SOL    HW217724   1.090   2.983  17.265  1.0848 -0.4908 -0.2681
 2031SOL     OW17725   0.942   3.736   6.246 -0.2430  0.1773 -0.4645
 2031SOL    HW117726   1.025   3.774   6.217  0.1516  1.1945  1.9913
 2031SOL    HW217727   0.885   3.742   6.170  0.8626 -0.5773 -1.3579
 2032SOL     OW17728   2.281   3.333   1.558  0.0669 -0.4607  0.0689
 2032SOL    HW117729   2.298   3.421   1.525  1.4114 -1.3511 -1.6365
 2032SOL    HW217730   2.317   3.339   1.646 -1.3058 -1.3399  0.6825
 2033SOL     OW17731   4.136   3.492   6.695  0.3181  0.1183 -0.0957
 2033SOL    HW117732   4.229   3.509   6.684 -0.1490  2.0943 -1.0282
 2033SOL    HW217733   4.114   3.527   6.781  1.4731 -0.7185  0.5342
 2034SOL     OW17734   4.628   3.777   1.711 -0.2297  0.3389  0.2288
 2034SOL    HW117735   4.673   3.784   1.627  0.2673 -0.0179  0.4642
 2034SOL    HW217736   4.606   3.868   1.732  1.1694  0.8936 -0.6656
 2035SOL     OW17737   2.812   4.297   3.994 -0.3625 -0.0243 -0.6487
 2035SOL    HW117738   2.787   4.209   4.021 -0.0715  0.1750  0.2661
 2035SOL    HW217739   2.903   4.285   3.969 -0.4055 -0.3575 -0.6526
 2036SOL     OW17740   0.766   2.960  11.308  0.4320 -0.0592 -0.2839
 2036SOL    HW117741   0.779   2.987  11.217 -0.4619 -1.9587 -0.9901
 2036SOL    HW217742   0.828   3.018  11.352  1.4486 -1.9175  0.7674
 2037SOL     OW17743   2.313   3.078   5.658  0.4029  0.4344  0.5665
 2037SOL    HW117744   2.287   3.132   5.733 -0.7127 -0.1081  0.5627
 2037SOL    HW217745   2.386   3.032   5.699  0.4534  0.9217  1.0319
 2038SOL     OW17746   2.183   2.692   1.688 -0.5216  0.2150 -0.6926
 2038SOL    HW117747   2.088   2.697   1.678 -0.8141  0.5394  2.3373
 2038SOL    HW217748   2.192   2.652   1.602  0.0377 -2.0383  0.4134
 2039SOL     OW17749   2.361   1.480   3.578 -0.0658  0.5361 -0.1242
 2039SOL    HW117750   2.284   1.536   3.591 -0.5658 -0.2082  0.2058
 2039SOL    HW217751   2.402   1.511   3.498  0.6692  1.5160  0.6401
 2040SOL     OW17752   3.239   2.260  14.565 -0.1536 -0.4804  0.1057
 2040SOL    HW117753   3.331   2.239  14.576  0.5642  1.6041 -1.8401
 2040SOL    HW217754   3.213   2.230  14.652 -0.9168 -1.2058 -0.3657
 2041SOL     OW17755   3.445   4.090   2.205  0.1896  0.3242 -0.1360
 2041SOL    HW117756   3.485   4.034   2.138  2.4438  0.4962  1.0813
 2041SOL    HW217757   3.397   4.150   2.147 -1.2885 -1.3067 -0.6038
 2042SOL     OW17758   3.888   0.598   0.786  0.2689 -0.1362  0.6732
 2042SOL    HW117759   3.893   0.507   0.816 -1.5870 -0.3966  0.2035
 2042SOL    HW217760   3.978   0.618   0.760 -0.1574 -0.0332 -0.7444
 2043SOL     OW17761   0.514   2.463   5.992 -0.3329  0.4499  0.2311
 2043SOL    HW117762   0.436   2.455   6.047  1.0577  0.1129  2.1303
 2043SOL    HW217763   0.488   2.541   5.943  1.8177  0.9064 -0.1928
 2044SOL     OW17764   1.918   1.263   8.190  0.1439 -0.4156 -0.0117
 2044SOL    HW117765   1.942   1.305   8.273 -0.7732 -1.1955  0.6592
 2044SOL    HW217766   1.823   1.251   8.198  0.4734 -2.7943  0.5385
 2045SOL     OW17767   1.165   3.355  10.844 -0.2409  0.7005 -0.4239
 2045SOL    HW117768   1.116   3.416  10.789 -0.9583 -0.3003 -0.8819
 2045SOL    HW217769   1.255   3.369  10.815 -0.2514 -1.2089 -1.3329
 2046SOL     OW17770   2.968   1.486   5.583 -0.0969 -0.2565  1.0574
 2046SOL    HW117771   3.002   1.447   5.663 -1.0749 -1.4569  0.8862
 2046SOL    HW217772   3.047   1.528   5.548  0.8334 -4.2719 -1.7369
 2047SOL     OW17773   0.653   4.197  12.364  0.6022 -0.2402  0.0231
 2047SOL    HW117774   0.690   4.188  12.451 -0.2508  1.8453  0.6042
 2047SOL    HW217775   0.590   4.269  12.371 -0.2069 -0.5447 -3.7901
 2048SOL     OW17776   4.356   4.179   4.934  0.2312 -0.4394 -0.7748
 2048SOL    HW117777   4.306   4.196   5.014  0.2320  1.5765 -1.1975
 2048SOL    HW217778   4.319   4.243   4.874  0.3618 -1.5180 -1.9916
 2049SOL     OW17779   3.685   0.136  16.844  0.0269 -0.7133 -0.1732
 2049SOL    HW117780   3.640   0.215  16.873 -0.2593 -0.4520 -1.3120
 2049SOL    HW217781   3.613   0.081  16.813  0.4995 -0.7774 -1.1677
 2050SOL     OW17782   0.033   3.374   5.364 -0.1334  0.1012 -0.3734
 2050SOL    HW117783   0.052   3.438   5.432  0.0149 -0.5066  0.1561
 2050SOL    HW217784   0.120   3.343   5.340  0.4562  1.3248  0.2464
 2051SOL     OW17785   0.067   3.383  12.479  0.8279  0.1903  0.3633
 2051SOL    HW117786   0.149   3.340  12.502  0.4095 -0.4334  0.6756
 2051SOL    HW217787   0.032   3.419  12.561  1.0327 -0.4363  0.7233
 2052SOL     OW17788   3.046   3.613   4.469 -0.6138  0.4172  0.0796
 2052SOL    HW117789   3.107   3.539   4.465 -0.6597  0.4518 -1.3424
 2052SOL    HW217790   2.976   3.588   4.528 -2.6360 -0.2672 -2.6192
 2053SOL     OW17791   0.984   3.054  16.043  0.6886  0.8630 -0.5695
 2053SOL    HW117792   1.069   3.038  16.084  1.3521  1.4597 -1.6985
 2053SOL    HW217793   1.019   3.091  15.962 -0.0942 -2.4060 -2.3994
 2054SOL     OW17794   2.018   3.985  14.666  0.0810  0.0075 -0.1664
 2054SOL    HW117795   2.054   3.923  14.730 -0.2609 -1.5439 -1.4641
 2054SOL    HW217796   2.101   4.017  14.631 -0.1716 -1.5813 -2.2439
 2055SOL     OW17797   2.815   3.815   6.725  0.5055 -0.3560  0.2978
 2055SOL    HW117798   2.746   3.881   6.729  1.6654  0.7724  1.9582
 2055SOL    HW217799   2.764   3.740   6.694  0.3471 -0.5268  0.9697
 2056SOL     OW17800   3.578   0.718  15.508 -0.1118  0.4916  0.2730
 2056SOL    HW117801   3.561   0.711  15.602 -1.1683  0.7069  0.0926
 2056SOL    HW217802   3.593   0.627  15.485 -0.4751  0.4543  0.1884
 2057SOL     OW17803   0.468   4.592   7.065 -0.0807  0.6325 -0.2258
 2057SOL    HW117804   0.501   4.505   7.044  0.0638  1.1437 -2.0931
 2057SOL    HW217805   0.521   4.648   7.008 -0.4090 -1.8029 -2.9068
 2058SOL     OW17806   1.915   1.949   2.711 -0.1329  0.2842 -0.1607
 2058SOL    HW117807   1.849   1.899   2.759 -1.0651  1.6161 -0.0775
 2058SOL    HW217808   1.896   1.919   2.623 -2.6629  1.3377  0.0499
 2059SOL     OW17809   4.676   4.572   2.232 -0.2737 -0.4557  0.1033
 2059SOL    HW117810   4.626   4.552   2.153 -2.4461  0.6335  1.2288
 2059SOL    HW217811   4.626   4.641   2.276 -2.2670 -1.6994 -0.2274
 2060SOL     OW17812   2.280   2.587   8.210 -0.4768  0.3986  0.1380
 2060SOL    HW117813   2.278   2.495   8.235 -0.0702  0.0020 -1.2983
 2060SOL    HW217814   2.368   2.599   8.175 -0.0631 -0.1738  0.9936
 2061SOL     OW17815   0.264   1.659  14.483 -0.1998  0.2798  0.5720
 2061SOL    HW117816   0.345   1.700  14.453  0.0844 -1.7427 -1.4014
 2061SOL    HW217817   0.306   1.597  14.543  0.1503  0.9362  1.0029
 2062SOL     OW17818   1.678   3.975   1.629 -0.5547  0.3911  0.3566
 2062SOL    HW117819   1.762   3.940   1.657  0.6472  0.6203 -3.0051
 2062SOL    HW217820   1.648   3.906   1.570  1.3674  0.8490 -1.1376
 2063SOL     OW17821   1.761   3.005  13.005 -0.1310 -0.0300  0.1358
 2063SOL    HW117822   1.782   3.064  13.078  0.0932  1.8640 -1.4665
 2063SOL    HW217823   1.812   2.926  13.023  0.2830  1.0645  3.8405
 2064SOL     OW17824   3.362   1.875   9.027 -0.4239 -0.0629 -0.0566
 2064SOL    HW117825   3.353   1.938   8.956  1.4239 -0.6186 -0.7713
 2064SOL    HW217826   3.328   1.920   9.104  2.0308 -3.6064  3.0918
 2065SOL     OW17827   3.808   2.956   4.471  0.5215 -0.1824 -0.0931
 2065SOL    HW117828   3.797   2.915   4.385  1.9148 -0.6827 -0.0373
 2065SOL    HW217829   3.824   2.885   4.533 -2.4086  0.3279  1.2471
 2066SOL     OW17830   2.280   4.163   4.310 -0.1077  0.8719 -0.3699
 2066SOL    HW117831   2.313   4.104   4.379 -0.8657  0.8881  0.0117
 2066SOL    HW217832   2.364   4.202   4.286  0.7424 -0.6356  0.1511
 2067SOL     OW17833   2.829   3.530   4.634 -0.4501  0.0786  0.2482
 2067SOL    HW117834   2.741   3.516   4.600 -0.4582 -0.4125  0.4780
 2067SOL    HW217835   2.815   3.568   4.721 -0.3341  0.1501  0.2362
 2068SOL     OW17836   3.930   2.699   7.367  0.9384 -0.1884  0.2178
 2068SOL    HW117837   3.963   2.632   7.427  1.4489 -0.8902 -0.8557
 2068SOL    HW217838   3.962   2.778   7.410  0.8222  0.1031 -0.2387
 2069SOL     OW17839   0.779   0.143   6.556  0.3833  0.1115  0.3285
 2069SOL    HW117840   0.798   0.169   6.646  1.6969  0.5426 -0.0731
 2069SOL    HW217841   0.801   0.049   6.561  2.2871  0.5405  0.2510
 2070SOL     OW17842   2.999   3.484   1.175 -0.2120  0.4833  0.3427
 2070SOL    HW117843   2.998   3.559   1.234 -1.0593 -0.4441  1.5034
 2070SOL    HW217844   2.913   3.445   1.190  0.2565 -0.4436  0.5866
 2071SOL     OW17845   2.465   1.652   8.647 -0.0194  0.0554 -0.2959
 2071SOL    HW117846   2.459   1.652   8.743  0.7189 -1.9004 -0.2544
 2071SOL    HW217847   2.386   1.608   8.618  0.4172 -0.6949 -0.3361
 2072SOL     OW17848   4.087   4.364  17.032 -0.2526 -0.6707  0.0024
 2072SOL    HW117849   4.148   4.325  17.094 -0.0758 -1.6542 -0.7715
 2072SOL    HW217850   4.091   4.304  16.957  1.5243 -0.1523 -0.3180
 2073SOL     OW17851   3.381   1.013   2.108 -0.4034 -0.0706  0.2702
 2073SOL    HW117852   3.334   1.091   2.135 -0.5237 -0.5686  1.4980
 2073SOL    HW217853   3.437   1.052   2.041 -1.1444  1.6042  0.6459
 2074SOL     OW17854   4.076   3.524   4.613  0.0258  0.3238 -0.1888
 2074SOL    HW117855   4.038   3.608   4.637 -1.3814 -0.0793 -0.9906
 2074SOL    HW217856   4.001   3.478   4.576  0.5055 -1.8550  1.4980
 2075SOL     OW17857   0.013   0.965   0.236  0.2857  0.4058 -0.2376
 2075SOL    HW117858   4.715   1.055   0.246  0.8263  0.2540  2.7493
 2075SOL    HW217859   0.016   0.943   0.143 -1.4735 -1.7679  0.2223
 2076SOL     OW17860   2.510   1.606   8.910  0.2597  0.2413  0.4931
 2076SOL    HW117861   2.490   1.668   8.980 -1.3856 -1.1684  1.2776
 2076SOL    HW217862   2.432   1.549   8.910  0.8881 -0.6118  0.2882
 2077SOL     OW17863   3.146   2.310   2.357 -0.4449  0.2014 -0.3170
 2077SOL    HW117864   3.154   2.282   2.265 -0.2118 -1.1287  0.1041
 2077SOL    HW217865   3.236   2.313   2.388 -0.3383 -1.0243 -0.5188
 2078SOL     OW17866   3.276   3.359  16.031 -0.7359  0.2809  0.5196
 2078SOL    HW117867   3.293   3.298  16.103 -0.9459  2.5743  2.5149
 2078SOL    HW217868   3.313   3.435  16.076  0.1407  0.1513  0.0073
 2079SOL     OW17869   0.034   3.688   8.997 -0.3650 -0.3172  0.5188
 2079SOL    HW117870   0.034   3.624   8.926  1.4211 -0.0157  0.2576
 2079SOL    HW217871   0.123   3.722   8.994 -1.8563  3.5584 -0.2506
 2080SOL     OW17872   3.131   2.005  10.572  0.4620  0.0078 -0.3098
 2080SOL    HW117873   3.052   1.953  10.563  0.6240 -0.5260  1.3861
 2080SOL    HW217874   3.135   2.053  10.489 -0.8183 -0.1433 -0.4582
 2081SOL     OW17875   1.047   2.586   4.419  0.0554  0.2265  0.4657
 2081SOL    HW117876   1.055   2.612   4.511  0.2006 -1.3015  0.8771
 2081SOL    HW217877   0.955   2.614   4.416 -0.2401 -0.7878  0.2254
 2082SOL     OW17878   3.798   4.188   3.473 -0.8668 -0.2376 -0.1559
 2082SOL    HW117879   3.847   4.252   3.423 -1.7127  1.4979  1.2305
 2082SOL    HW217880   3.864   4.162   3.537  1.6104  0.0526 -2.6493
 2083SOL     OW17881   3.087   0.011   5.101  0.1527  0.0398 -0.5739
 2083SOL    HW117882   3.165   0.012   5.045 -0.8212  0.3613 -1.9028
 2083SOL    HW217883   3.119   4.695   5.177  2.4090  0.8550 -1.0016
 2084SOL     OW17884   2.154   3.777   8.071 -0.1852  0.6736 -0.1707
 2084SOL    HW117885   2.201   3.816   7.997 -0.3460 -2.5461 -1.9971
 2084SOL    HW217886   2.117   3.693   8.042 -2.1175  0.1721  3.8111
 2085SOL     OW17887   1.406   1.772   0.851 -0.1836  0.1544 -0.1075
 2085SOL    HW117888   1.315   1.743   0.851  0.1736 -0.9930  0.4194
 2085SOL    HW217889   1.398   1.858   0.811  1.9359  0.7444  0.7223
 2086SOL     OW17890   1.365   1.438  11.801 -0.4389  0.2390  0.3443
 2086SOL    HW117891   1.423   1.371  11.837 -0.1536  0.9166  1.1314
 2086SOL    HW217892   1.287   1.385  11.784  0.1078  0.0519 -1.6523
 2087SOL     OW17893   0.328   2.249   4.124 -0.2672  0.4196  0.1671
 2087SOL    HW117894   0.400   2.298   4.164  0.6915  0.3949 -1.4890
 2087SOL    HW217895   0.364   2.241   4.035  0.6347  1.4535  0.4338
 2088SOL     OW17896   3.272   3.754   1.275 -0.0671  0.0556  0.0210
 2088SOL    HW117897   3.293   3.661   1.280  2.8693  0.9036  2.9924
 2088SOL    HW217898   3.179   3.744   1.296 -0.4916  2.0905 -0.8691
 2089SOL     OW17899   3.194   1.858   6.546 -0.1378 -0.7856  1.0082
 2089SOL    HW117900   3.190   1.920   6.619 -5.0358 -1.4897  1.3412
 2089SOL    HW217901   3.287   1.862   6.523 -0.3322  1.0814  0.5614
 2090SOL     OW17902   3.376   4.195   3.716 -0.2573  0.1072  0.1379
 2090SOL    HW117903   3.446   4.160   3.662 -0.6814  1.2769 -1.1526
 2090SOL    HW217904   3.330   4.115   3.742 -0.8941  0.5618  0.4108
 2091SOL     OW17905   2.866   0.700  14.043  0.0010  0.1447 -0.4816
 2091SOL    HW117906   2.800   0.769  14.039 -1.4006 -1.2240 -1.0901
 2091SOL    HW217907   2.832   0.623  13.997 -0.0918 -0.5582  0.7650
 2092SOL     OW17908   4.516   3.300   9.782 -0.2579 -0.0319  0.5611
 2092SOL    HW117909   4.556   3.287   9.868 -0.1475  3.4800  1.0101
 2092SOL    HW217910   4.458   3.224   9.771 -2.8024  1.7734  1.5814
 2093SOL     OW17911   0.629   2.463   3.991 -0.2400  0.0740 -0.0574
 2093SOL    HW117912   0.635   2.389   4.052 -2.8682 -1.0533 -1.1771
 2093SOL    HW217913   0.585   2.531   4.042  2.7962  1.5437  0.6585
 2094SOL     OW17914   4.468   3.858   4.650  0.8945  0.0621  0.2827
 2094SOL    HW117915   4.421   3.777   4.668  3.6501 -1.2750  1.3488
 2094SOL    HW217916   4.465   3.898   4.736  2.2146 -0.5725  0.6151
 2095SOL     OW17917   4.386   2.104  14.649  0.3328  0.1357  0.6918
 2095SOL    HW117918   4.381   2.161  14.572  0.1364  0.0441  0.6357
 2095SOL    HW217919   4.472   2.063  14.648  0.7840  1.0950 -1.8475
 2096SOL     OW17920   1.919   3.372   6.365 -0.3185 -0.1411 -0.3976
 2096SOL    HW117921   1.971   3.335   6.436  2.4003  1.6031 -1.4984
 2096SOL    HW217922   1.866   3.436   6.411 -0.0358 -0.4240  0.3127
 2097SOL     OW17923   2.363   1.162   4.406  0.0283 -0.3611 -0.1612
 2097SOL    HW117924   2.363   1.158   4.310  0.8553 -0.3352 -0.1576
 2097SOL    HW217925   2.410   1.079   4.420 -1.1130 -0.6993  1.6684
 2098SOL     OW17926   3.386   2.829   4.600 -0.5237 -0.1751  0.2018
 2098SOL    HW117927   3.294   2.824   4.626 -1.0436 -0.2878 -1.6682
 2098SOL    HW217928   3.411   2.737   4.592  2.2920  0.5535  0.6724
 2099SOL     OW17929   4.726   4.381   4.673 -0.1964 -0.3481 -0.2310
 2099SOL    HW117930   4.655   4.317   4.664  0.2270 -0.6755 -1.2922
 2099SOL    HW217931   4.731   4.396   4.578  1.5604  0.8278  0.0403
 2100SOL     OW17932   1.837   1.116   9.150 -0.1569 -0.3932 -0.2727
 2100SOL    HW117933   1.862   1.117   9.242 -1.1561  0.6513 -0.0107
 2100SOL    HW217934   1.919   1.151   9.115 -0.3891  1.5524  1.0790
 2101SOL     OW17935   2.562   0.695   2.086 -0.3409  0.1872  0.6203
 2101SOL    HW117936   2.605   0.617   2.121 -0.5804  0.5050  1.6093
 2101SOL    HW217937   2.534   0.732   2.169  0.4509  1.6808  0.2265
 2102SOL     OW17938   2.107   4.602   6.412 -0.0598  0.1144 -0.3632
 2102SOL    HW117939   2.143   4.675   6.361  0.2657 -0.6673 -1.2637
 2102SOL    HW217940   2.178   4.602   6.477  1.1303  0.1989 -1.6572
 2103SOL     OW17941   4.325   0.070  12.201  0.4340  0.0146  0.3074
 2103SOL    HW117942   4.305   0.042  12.112 -1.1650  0.5099  0.5211
 2103SOL    HW217943   4.317   4.723  12.254 -0.7480 -0.0770 -0.0236
 2104SOL     OW17944   4.481   0.077   3.443 -0.2011 -0.2168  0.7402
 2104SOL    HW117945   4.533   0.064   3.522 -0.1668  0.0683  0.7653
 2104SOL    HW217946   4.416   0.007   3.441 -0.5686  0.1611 -1.3158
 2105SOL     OW17947   2.381   1.654   5.008 -0.5167  0.0419  0.3362
 2105SOL    HW117948   2.396   1.596   5.082 -1.0726  0.2144  0.5836
 2105SOL    HW217949   2.441   1.617   4.942 -1.3710  0.7516 -0.8513
 2106SOL     OW17950   1.847   1.061   5.376  0.0626 -1.0118 -0.7950
 2106SOL    HW117951   1.821   0.972   5.400 -1.3221 -0.5766 -0.6555
 2106SOL    HW217952   1.894   1.041   5.295 -0.3702 -0.5437 -1.1629
 2107SOL     OW17953   3.469   0.118   0.025  0.2025 -0.2806  0.2682
 2107SOL    HW117954   3.429   0.190   0.073  2.8396  0.8392  0.8372
 2107SOL    HW217955   3.486   0.053   0.094  0.7067 -1.5737 -1.0845
 2108SOL     OW17956   2.539   4.431   2.959 -0.2620  0.0165 -0.3503
 2108SOL    HW117957   2.471   4.429   2.892 -1.1295 -0.8147  0.5475
 2108SOL    HW217958   2.570   4.522   2.952 -2.3658  0.6827 -1.2740
 2109SOL     OW17959   0.123   4.517   8.885  0.1447  0.0309  0.1960
 2109SOL    HW117960   0.163   4.484   8.804 -1.4285 -0.4576 -0.3705
 2109SOL    HW217961   0.097   4.434   8.924  2.2287 -0.6987  0.0603
 2110SOL     OW17962   4.254   3.523   2.013  0.5369  0.2672  0.2509
 2110SOL    HW117963   4.301   3.603   1.988  2.2901 -0.9445 -0.3584
 2110SOL    HW217964   4.175   3.561   2.050 -1.2222 -1.3658 -1.8605
 2111SOL     OW17965   0.895   0.876  11.569  0.3265 -0.0217  0.2611
 2111SOL    HW117966   0.957   0.830  11.513 -0.3129 -1.6267  0.8939
 2111SOL    HW217967   0.830   0.911  11.508 -0.2710  0.6798  1.2874
 2112SOL     OW17968   2.654   3.559   8.172 -0.3720  0.1126  0.1709
 2112SOL    HW117969   2.616   3.553   8.259 -2.6080  0.9957 -0.7423
 2112SOL    HW217970   2.638   3.471   8.137 -0.9280  1.1441 -2.2124
 2113SOL     OW17971   0.356   4.231   9.183  0.1573  0.1034  0.1780
 2113SOL    HW117972   0.405   4.286   9.244 -0.9361 -1.8532  2.8397
 2113SOL    HW217973   0.414   4.215   9.109  0.2611  0.1313  0.2537
 2114SOL     OW17974   4.463   4.419  11.263  0.4267 -0.1316 -0.2764
 2114SOL    HW117975   4.465   4.401  11.357  1.4803  2.0379  0.0950
 2114SOL    HW217976   4.525   4.491  11.266  1.5882 -1.0851 -1.7482
 2115SOL     OW17977   0.749   3.149  16.715  0.3787  0.0298 -0.6271
 2115SOL    HW117978   0.816   3.110  16.772  0.5610 -2.2213 -2.3930
 2115SOL    HW217979   0.806   3.166  16.641  0.5234 -1.0285 -0.7531
 2116SOL     OW17980   3.416   2.148   0.074  0.2715 -0.5682 -0.7072
 2116SOL    HW117981   3.379   2.231   0.105 -0.8597 -0.9536 -1.0399
 2116SOL    HW217982   3.475   2.122   0.145 -1.0647 -3.0235 -0.5103
 2117SOL     OW17983   0.833   4.682   7.153 -1.0590 -0.3401  0.3807
 2117SOL    HW117984   0.869   4.623   7.220  3.4016  0.1870 -1.5031
 2117SOL    HW217985   0.785   4.619   7.098 -1.3289  0.6470 -0.5127
 2118SOL     OW17986   0.697   1.601   8.082  0.5813  0.0920 -0.4000
 2118SOL    HW117987   0.767   1.545   8.117  0.9234  1.2711  0.7945
 2118SOL    HW217988   0.619   1.546   8.096 -0.6246  2.1988  1.2397
 2119SOL     OW17989   3.261   1.049   6.274  0.2124 -0.6869  0.2369
 2119SOL    HW117990   3.235   1.048   6.182 -0.1456 -1.0606  0.3409
 2119SOL    HW217991   3.304   1.134   6.276 -1.9128  0.3989 -0.8048
 2120SOL     OW17992   0.786   1.408  17.560 -0.1429 -0.0915  0.6360
 2120SOL    HW117993   0.855   1.352  17.525 -2.0706 -0.6415 -2.3478
 2120SOL    HW217994   0.715   1.345  17.576  0.0703 -0.3783  0.4556
 2121SOL     OW17995   0.887   3.567   5.717  0.2327  0.2693 -0.3691
 2121SOL    HW117996   0.796   3.593   5.732 -0.2044 -1.8377  0.6566
 2121SOL    HW217997   0.884   3.513   5.796 -0.2712 -0.1828 -0.6940
 2122SOL     OW17998   2.235   3.662  10.230  0.0261 -0.1931  0.5518
 2122SOL    HW117999   2.207   3.752  10.214 -1.1085 -0.6967 -0.2827
 2122SOL    HW218000   2.172   3.619  10.172  1.2371 -2.0336  0.6158
 2123SOL     OW18001   4.093   3.419  10.656  0.1272  0.1793 -0.3897
 2123SOL    HW118002   4.010   3.426  10.609  0.2117  1.3706 -0.3856
 2123SOL    HW218003   4.121   3.511  10.658 -0.9299  0.4950 -0.2440
 2124SOL     OW18004   3.938   1.869   3.105 -0.1262 -0.2773  0.2180
 2124SOL    HW118005   3.983   1.792   3.069  0.5291  0.4558 -0.5109
 2124SOL    HW218006   3.991   1.936   3.063  0.5066 -0.9246 -0.0233
 2125SOL     OW18007   1.073   0.010   2.201  0.3679  0.3868  0.2556
 2125SOL    HW118008   1.129   0.063   2.144  0.8105  0.2008  0.5153
 2125SOL    HW218009   1.044   0.070   2.269 -0.0884  0.0931  0.3186
 2126SOL     OW18010   4.357   0.458  17.598  0.1563 -0.1513  0.2750
 2126SOL    HW118011   4.437   0.431  17.552  0.0067  1.9283 -1.1815
 2126SOL    HW218012   4.404   0.502  17.669 -0.0177 -0.8610  0.8350
 2127SOL     OW18013   2.912   2.863   6.398 -0.6757  0.3012 -0.1471
 2127SOL    HW118014   2.942   2.871   6.307  0.4066  1.9470  0.3553
 2127SOL    HW218015   2.820   2.883   6.382 -1.0666 -1.9345 -0.7794
 2128SOL     OW18016   0.851   4.115   6.504 -0.8100 -0.5272 -0.1694
 2128SOL    HW118017   0.791   4.045   6.531 -1.7407  0.6774  0.8558
 2128SOL    HW218018   0.833   4.177   6.574  1.3674  1.7988 -1.6549
 2129SOL     OW18019   3.413   0.214   1.847 -0.0893 -0.1129  0.1065
 2129SOL    HW118020   3.503   0.227   1.817 -0.3450  1.4520  0.0232
 2129SOL    HW218021   3.423   0.121   1.869 -1.7478 -0.0347  1.2239
 2130SOL     OW18022   4.504   4.499   8.132 -0.2169  0.1107 -0.1010
 2130SOL    HW118023   4.565   4.503   8.207 -0.4503 -0.7808  0.1409
 2130SOL    HW218024   4.435   4.435   8.152  0.4271 -0.4074  0.5104
 2131SOL     OW18025   0.645   0.913   6.173 -0.2812 -0.8218  0.4270
 2131SOL    HW118026   0.607   0.864   6.100  1.0483 -0.4798 -0.4903
 2131SOL    HW218027   0.722   0.857   6.184 -0.6445 -1.5387 -0.6667
 2132SOL     OW18028   3.995   1.476   1.702 -0.3142 -0.0549  0.1137
 2132SOL    HW118029   3.959   1.564   1.695  1.1505  0.8768  4.3382
 2132SOL    HW218030   4.028   1.450   1.616 -2.2020  0.1659 -0.6767
 2133SOL     OW18031   2.769   0.834   5.425 -0.4661  0.0183 -0.1868
 2133SOL    HW118032   2.790   0.742   5.407 -1.7225 -0.5620  1.3599
 2133SOL    HW218033   2.759   0.833   5.520  0.7705  0.9682 -0.0413
 2134SOL     OW18034   3.892   2.544   3.042 -0.8932 -0.2233 -0.0793
 2134SOL    HW118035   3.833   2.560   2.968 -0.5231 -0.1651 -0.3646
 2134SOL    HW218036   3.859   2.465   3.085  2.5288 -0.3600  2.3055
 2135SOL     OW18037   1.814   3.267   0.954  0.3449 -0.6080  0.3365
 2135SOL    HW118038   1.872   3.260   1.030  2.2408  0.6888 -1.0046
 2135SOL    HW218039   1.831   3.181   0.916  1.4754  0.9133 -2.5667
 2136SOL     OW18040   3.797   3.817  10.640 -0.5022  0.1991 -0.2995
 2136SOL    HW118041   3.736   3.755  10.682 -2.1722  2.2007  0.2564
 2136SOL    HW218042   3.852   3.819  10.719  1.4293 -0.1802 -1.6438
 2137SOL     OW18043   0.800   2.392   3.297 -0.2442  0.3859 -0.1109
 2137SOL    HW118044   0.870   2.450   3.268  0.4251  0.0609  0.8306
 2137SOL    HW218045   0.838   2.319   3.348 -0.4811  1.4765  1.6435
 2138SOL     OW18046   4.595   2.288   1.853  0.1043  0.4398  0.0959
 2138SOL    HW118047   4.653   2.300   1.778 -1.1630  3.2843 -0.4234
 2138SOL    HW218048   4.654   2.274   1.927  0.6884 -0.8811 -0.6167
 2139SOL     OW18049   2.952   2.942   3.808 -1.1515 -0.0517  0.2523
 2139SOL    HW118050   3.047   2.942   3.799 -1.1708  0.1558  0.0613
 2139SOL    HW218051   2.937   2.965   3.900 -0.8521  0.8823  0.0580
 2140SOL     OW18052   4.007   4.152   3.170 -0.5527 -0.0987 -0.2419
 2140SOL    HW118053   3.951   4.083   3.205 -1.2852  0.9486  0.6696
 2140SOL    HW218054   4.034   4.123   3.083 -1.7226 -1.4589 -0.1453
 2141SOL     OW18055   1.988   2.811   9.336  0.0814  0.3913 -0.3173
 2141SOL    HW118056   1.960   2.771   9.253 -2.0648  0.1420  0.5149
 2141SOL    HW218057   2.073   2.838   9.302 -0.3310  0.6851 -1.1157
 2142SOL     OW18058   0.286   4.454  13.508 -0.2704 -0.3726  0.2964
 2142SOL    HW118059   0.228   4.524  13.480 -0.0220 -0.1157  0.4248
 2142SOL    HW218060   0.302   4.412  13.423  2.3393 -0.3436  0.7747
 2143SOL     OW18061   1.564   2.649  13.838  0.8810  0.4037  0.0049
 2143SOL    HW118062   1.637   2.672  13.780  0.1662 -1.6356 -1.6970
 2143SOL    HW218063   1.609   2.663  13.922  0.0867 -2.1885  0.8474
 2144SOL     OW18064   2.142   2.654  12.890  0.1815 -0.3086  0.1363
 2144SOL    HW118065   2.137   2.580  12.828  1.7258 -3.2494  3.5390
 2144SOL    HW218066   2.099   2.615  12.966 -3.0424  0.8326 -1.0869
 2145SOL     OW18067   3.128   0.076   1.222 -0.6960  0.0654  0.1481
 2145SOL    HW118068   3.083   0.102   1.141 -1.0304 -1.0344 -0.0238
 2145SOL    HW218069   3.087   0.126   1.292  2.5468  0.7884  1.5183
 2146SOL     OW18070   2.843   0.825   6.146 -0.1164  0.6494 -0.1569
 2146SOL    HW118071   2.801   0.908   6.166 -0.0245  1.1500 -2.0851
 2146SOL    HW218072   2.842   0.788   6.235  1.5360 -3.5764 -1.8872
 2147SOL     OW18073   1.770   4.728   7.126 -0.5249 -0.3780  0.1369
 2147SOL    HW118074   1.736   4.710   7.213 -0.8383 -1.0695 -0.1293
 2147SOL    HW218075   1.722   4.659   7.079 -0.4389  0.1675 -0.7635
 2148SOL     OW18076   2.724   3.809   7.218 -0.0010 -0.8046  0.0062
 2148SOL    HW118077   2.670   3.767   7.151 -1.6354  0.4259  0.5493
 2148SOL    HW218078   2.764   3.883   7.170  1.7717 -0.9815  1.2131
 2149SOL     OW18079   2.439   3.408   7.908 -0.4927 -0.0231  0.1769
 2149SOL    HW118080   2.360   3.382   7.956 -0.4074 -0.9420 -0.1760
 2149SOL    HW218081   2.410   3.487   7.864  3.4844  2.0211  1.2573
 2150SOL     OW18082   3.703   1.153   3.935  0.7133 -0.0631 -0.0645
 2150SOL    HW118083   3.793   1.121   3.930  1.6618  2.6018  0.2405
 2150SOL    HW218084   3.705   1.238   3.891 -0.8695 -1.1805 -2.2448
 2151SOL     OW18085   1.466   2.372  12.216 -0.5867  0.0369  0.1838
 2151SOL    HW118086   1.506   2.334  12.139 -2.3634  0.4465 -0.9447
 2151SOL    HW218087   1.522   2.450  12.215 -0.9290  0.2623 -1.0496
 2152SOL     OW18088   1.640   0.293  15.417  0.0109  0.1344  0.4923
 2152SOL    HW118089   1.637   0.382  15.382  1.2200  0.5972  1.5558
 2152SOL    HW218090   1.728   0.294  15.454  0.2630 -1.4921 -0.0730
 2153SOL     OW18091   0.287   0.791   4.661 -0.0665  0.3566  0.1826
 2153SOL    HW118092   0.366   0.791   4.608  0.4343  0.8829  0.9318
 2153SOL    HW218093   0.256   0.881   4.653  1.3645  0.9930  1.7399
 2154SOL     OW18094   4.610   1.132   9.816 -0.0314 -0.4923 -0.2969
 2154SOL    HW118095   4.530   1.135   9.764 -0.9333 -4.0048  0.8434
 2154SOL    HW218096   4.591   1.195   9.885  3.0332  0.1939 -0.1096
 2155SOL     OW18097   4.373   2.857   6.091  0.6100 -0.0405  0.3068
 2155SOL    HW118098   4.295   2.906   6.115 -0.3241 -2.3555  2.0245
 2155SOL    HW218099   4.330   2.792   6.035  0.6306 -0.2916  0.5828
 2156SOL     OW18100   1.032   1.632  15.439 -0.2757 -0.2687  0.3282
 2156SOL    HW118101   1.072   1.634  15.352 -0.1596 -1.4812  0.3505
 2156SOL    HW218102   1.115   1.608  15.479 -1.0134 -1.6100  1.0453
 2157SOL     OW18103   1.558   2.169   5.609 -0.5425  0.3920 -0.2101
 2157SOL    HW118104   1.595   2.088   5.645  1.3513 -0.2464 -3.6664
 2157SOL    HW218105   1.548   2.146   5.517  0.6547 -1.0896  0.0221
 2158SOL     OW18106   3.853   1.071  14.854 -0.5605 -0.1540 -0.3823
 2158SOL    HW118107   3.945   1.062  14.829 -0.4573 -2.2681  0.6896
 2158SOL    HW218108   3.810   1.007  14.796 -1.1719  0.1286 -0.2401
 2159SOL     OW18109   1.147   0.853   1.398  0.3991  0.2531 -0.3958
 2159SOL    HW118110   1.069   0.800   1.413 -0.0362  0.4967 -1.7435
 2159SOL    HW218111   1.192   0.847   1.482  0.0473  1.3404 -0.1303
 2160SOL     OW18112   1.435   1.778   7.047  0.6008  0.0871  0.2722
 2160SOL    HW118113   1.438   1.717   7.121 -2.0371 -0.1029  0.2131
 2160SOL    HW218114   1.351   1.818   7.069  0.9060  0.4530  0.7531
 2161SOL     OW18115   1.346   2.232   7.275  0.4549 -0.1758  0.7384
 2161SOL    HW118116   1.298   2.150   7.286 -0.1035  0.2052  1.1527
 2161SOL    HW218117   1.405   2.242   7.350 -1.4444 -0.7595  2.3138
 2162SOL     OW18118   3.277   2.837   8.054  0.0554 -0.1509 -0.3954
 2162SOL    HW118119   3.229   2.919   8.041 -2.6864 -1.6401  0.3907
 2162SOL    HW218120   3.240   2.816   8.140  3.1962  2.5981  1.6139
 2163SOL     OW18121   3.411   1.299   2.687 -0.6763  0.4557  0.2962
 2163SOL    HW118122   3.397   1.334   2.775  0.3614  0.1161  0.5993
 2163SOL    HW218123   3.405   1.204   2.702  0.6715  0.6185  1.9045
 2164SOL     OW18124   4.646   3.543   9.521 -0.0313 -0.3942  0.0635
 2164SOL    HW118125   4.657   3.453   9.552 -1.3033 -0.1824  1.1096
 2164SOL    HW218126   4.627   3.526   9.429 -1.2257  1.2900 -0.0021
 2165SOL     OW18127   2.562   3.064   7.172  0.1652  0.1908  0.3023
 2165SOL    HW118128   2.614   3.021   7.104  1.0320 -0.4513  1.3692
 2165SOL    HW218129   2.486   3.006   7.167  2.4534 -2.9629  2.0702
 2166SOL     OW18130   0.602   2.692   6.811  0.5380  0.2973 -0.5440
 2166SOL    HW118131   0.619   2.761   6.876  1.7786 -0.1425 -0.3943
 2166SOL    HW218132   0.638   2.624   6.868  0.9035  2.1535  1.4764
 2167SOL     OW18133   2.604   1.575   4.873 -1.0511  0.8454  0.2030
 2167SOL    HW118134   2.592   1.509   4.805 -0.0555  1.2688 -0.3788
 2167SOL    HW218135   2.627   1.653   4.823 -1.4495  0.7599 -0.1181
 2168SOL     OW18136   2.039   1.044   4.295 -0.4825  0.1970 -0.6657
 2168SOL    HW118137   2.122   1.035   4.248 -0.3437 -1.8183 -0.0269
 2168SOL    HW218138   1.983   1.060   4.219  0.7580  1.9388 -1.2181
 2169SOL     OW18139   4.702   2.782   6.625 -0.3174 -0.8389 -0.6353
 2169SOL    HW118140   4.664   2.694   6.624 -1.0080 -0.5575  0.7552
 2169SOL    HW218141   4.625   2.822   6.586  0.5386  2.2758  0.8770
 2170SOL     OW18142   1.310   2.967  14.132 -0.3803  0.2743  0.3408
 2170SOL    HW118143   1.387   2.933  14.086 -2.1775 -0.1245 -2.3710
 2170SOL    HW218144   1.276   3.042  14.082  2.1454  0.5186 -0.9909
 2171SOL     OW18145   4.468   1.103   0.171 -0.4951 -0.3442  0.2060
 2171SOL    HW118146   4.519   1.150   0.236 -0.6235  1.7699 -1.2059
 2171SOL    HW218147   4.375   1.126   0.181 -0.1678  0.7337  0.7825
 2172SOL     OW18148   2.624   0.617   4.591  0.2446 -0.0860  0.1921
 2172SOL    HW118149   2.544   0.568   4.606  0.1405  0.8528  2.6307
 2172SOL    HW218150   2.617   0.635   4.497 -0.6333  1.8528  0.6466
 2173SOL     OW18151   4.715   4.488  13.967 -0.0656 -0.3357 -0.1621
 2173SOL    HW118152   0.076   4.476  13.948 -0.2359  0.9398 -1.8301
 2173SOL    HW218153   4.717   4.457  14.058  2.2526  2.1188  0.6258
 2174SOL     OW18154   1.402   1.987  13.522 -0.1467 -0.0757  0.2761
 2174SOL    HW118155   1.404   1.973  13.428  0.9433 -2.4788  0.6642
 2174SOL    HW218156   1.314   2.022  13.531 -0.3240 -0.9338  1.9175
 2175SOL     OW18157   0.933   4.493   1.784  0.5154 -0.2403 -0.1801
 2175SOL    HW118158   0.861   4.552   1.805  0.4479 -1.0739  1.9083
 2175SOL    HW218159   1.007   4.533   1.830  2.3429 -2.1805 -1.4774
 2176SOL     OW18160   0.051   0.708   7.612 -0.3116  0.4761  0.2911
 2176SOL    HW118161   0.140   0.672   7.611 -0.4407  0.2435 -3.0594
 2176SOL    HW218162   0.004   0.635   7.571 -0.9217  0.2127  1.4614
 2177SOL     OW18163   3.105   0.398   0.681  0.3105 -0.3038  0.4497
 2177SOL    HW118164   3.183   0.342   0.685  0.1430 -0.4869  1.1123
 2177SOL    HW218165   3.089   0.411   0.774  0.8169  1.0546  0.3462
 2178SOL     OW18166   1.656   2.957   8.751 -0.1856  0.2150  1.0600
 2178SOL    HW118167   1.718   3.029   8.738 -1.7859  1.1439 -1.1959
 2178SOL    HW218168   1.703   2.886   8.707 -0.3405  1.9450 -1.8906
 2179SOL     OW18169   0.383   1.001   0.523 -0.1064 -0.1945  0.4585
 2179SOL    HW118170   0.445   0.935   0.555 -2.6750 -2.4848  0.6680
 2179SOL    HW218171   0.306   0.950   0.499 -0.6044  0.8117 -0.0680
 2180SOL     OW18172   3.505   0.130   7.690  0.2074 -0.4006  0.1715
 2180SOL    HW118173   3.451   0.054   7.712  0.6847 -0.0339  2.5766
 2180SOL    HW218174   3.440   0.195   7.663 -1.0341 -2.0338 -0.7233
 2181SOL     OW18175   2.891   3.211  11.287 -0.6576 -0.4593  0.2521
 2181SOL    HW118176   2.812   3.158  11.296 -1.5029  0.7648  0.0952
 2181SOL    HW218177   2.851   3.280  11.234  1.4579 -2.3736 -3.9031
 2182SOL     OW18178   2.608   2.571  17.712  0.1767  0.3264  0.1512
 2182SOL    HW118179   2.656   2.515  17.651 -2.7352  0.0900 -1.9369
 2182SOL    HW218180   2.572   2.633  17.648  0.9742 -1.2093 -1.7754
 2183SOL     OW18181   2.369   0.753  14.403 -0.2876  0.3345 -0.3004
 2183SOL    HW118182   2.322   0.836  14.407  1.7191  1.4349 -0.1480
 2183SOL    HW218183   2.419   0.762  14.322  1.2642 -1.5728  0.4505
 2184SOL     OW18184   0.631   2.677   1.261  0.3009 -0.5147 -0.1504
 2184SOL    HW118185   0.696   2.635   1.204 -0.0583  0.5962 -1.4002
 2184SOL    HW218186   0.551   2.662   1.210 -0.7821  0.3972  1.2795
 2185SOL     OW18187   2.044   1.424   3.047  0.3605  0.3831 -0.5231
 2185SOL    HW118188   2.114   1.364   3.019 -1.1255 -0.3389 -2.7080
 2185SOL    HW218189   2.087   1.508   3.062  0.4616 -0.4471  3.7416
 2186SOL     OW18190   2.593   0.608   8.692  0.9033 -0.0130  0.0926
 2186SOL    HW118191   2.672   0.557   8.706  1.1679  0.5595  0.7142
 2186SOL    HW218192   2.528   0.541   8.674  2.4948 -1.5944  0.2370
 2187SOL     OW18193   2.864   0.066   8.216  0.1760 -0.1512 -0.4353
 2187SOL    HW118194   2.947   0.022   8.198  1.1283  2.1976 -1.8096
 2187SOL    HW218195   2.840   0.023   8.298 -0.7291  3.2270  1.0848
 2188SOL     OW18196   2.345   1.976  13.348  0.7412 -0.8688  0.0615
 2188SOL    HW118197   2.356   2.070  13.330 -0.6472 -0.3244  2.0961
 2188SOL    HW218198   2.254   1.972  13.376  0.7692  0.9805  0.4530
 2189SOL     OW18199   0.125   2.226   1.273  0.1375 -0.0455  0.1750
 2189SOL    HW118200   0.048   2.226   1.329 -0.6421 -0.1924 -0.9023
 2189SOL    HW218201   0.084   2.189   1.195 -0.0559 -1.3728  0.9078
 2190SOL     OW18202   3.987   2.799   6.866 -0.2635  0.6549  0.9240
 2190SOL    HW118203   3.980   2.809   6.961 -0.0175  1.7144  0.8360
 2190SOL    HW218204   3.910   2.849   6.838 -1.5867 -1.2638  1.1629
 2191SOL     OW18205   3.093   4.112  13.874 -0.5056  0.0997  0.3246
 2191SOL    HW118206   3.178   4.129  13.913 -0.7402  0.3686  0.7262
 2191SOL    HW218207   3.106   4.163  13.794  0.1740  1.6952  1.4672
 2192SOL     OW18208   3.966   3.425   2.546 -0.3170  0.2716 -0.0119
 2192SOL    HW118209   3.908   3.363   2.590  1.9708 -1.1034  1.0619
 2192SOL    HW218210   3.908   3.491   2.506  2.0841  1.4355 -1.5372
 2193SOL     OW18211   1.832   4.105   5.538  0.5252 -0.3393 -0.1018
 2193SOL    HW118212   1.844   4.196   5.567  0.0130 -0.4113  0.3336
 2193SOL    HW218213   1.888   4.115   5.461 -1.8868 -0.5665 -1.8858
 2194SOL     OW18214   2.214   3.785  14.279 -0.5954  0.3306  0.4116
 2194SOL    HW118215   2.306   3.773  14.256 -1.9833 -0.6605 -4.5952
 2194SOL    HW218216   2.225   3.802  14.372 -1.0039 -0.1977  0.5577
 2195SOL     OW18217   1.227   1.804  17.290  0.0910 -0.1528  0.9373
 2195SOL    HW118218   1.161   1.872  17.273 -0.7829 -1.7351 -1.9494
 2195SOL    HW218219   1.176   1.724  17.279  1.3805 -0.9335  0.6420
 2196SOL     OW18220   0.265   1.552   2.004  0.4789 -0.9379  0.1059
 2196SOL    HW118221   0.248   1.641   2.033 -0.0606 -0.8694 -0.4267
 2196SOL    HW218222   0.185   1.534   1.955  0.9775  0.8479 -1.3469
 2197SOL     OW18223   3.435   2.925   6.833 -0.5629 -0.1951 -0.6204
 2197SOL    HW118224   3.508   2.927   6.895  1.4482  0.9458 -3.0796
 2197SOL    HW218225   3.421   2.830   6.837  0.3957 -0.3214 -0.4157
 2198SOL     OW18226   2.591   2.110  12.401 -0.0269 -0.1971 -0.3441
 2198SOL    HW118227   2.500   2.124  12.377  0.1444 -0.6823 -1.2648
 2198SOL    HW218228   2.623   2.182  12.455  3.3034 -0.6501 -1.6856
 2199SOL     OW18229   3.459   2.027  17.298  0.3892  0.1972 -0.7314
 2199SOL    HW118230   3.414   1.946  17.323 -0.6149 -0.2679 -3.9679
 2199SOL    HW218231   3.454   2.065  17.385 -3.4561 -2.9309  0.4214
 2200SOL     OW18232   2.115   1.300   6.103  0.2071 -0.2854 -0.3065
 2200SOL    HW118233   2.168   1.313   6.181 -0.0542 -1.3213  0.0547
 2200SOL    HW218234   2.078   1.212   6.115 -0.9462  0.2274 -0.1266
 2201SOL     OW18235   0.223   2.354   0.177 -0.3970 -0.3073  0.0952
 2201SOL    HW118236   0.131   2.335   0.160 -0.1449 -1.2417 -0.2304
 2201SOL    HW218237   0.220   2.441   0.217  1.3258 -1.1609  2.0733
 2202SOL     OW18238   1.140   0.318   3.027  0.2345  0.0493  0.4085
 2202SOL    HW118239   1.206   0.249   3.026  2.0493  1.8408 -0.8273
 2202SOL    HW218240   1.134   0.346   3.119  1.3341  2.4066 -0.2470
 2203SOL     OW18241   3.846   3.808  16.627 -0.0574  0.5019  0.3808
 2203SOL    HW118242   3.925   3.862  16.632 -0.4106  1.0608 -0.0953
 2203SOL    HW218243   3.799   3.851  16.556 -0.6820  0.2541  0.6434
 2204SOL     OW18244   3.104   4.695  13.782  0.0086  0.1927 -0.5720
 2204SOL    HW118245   3.086   4.629  13.849 -1.5137 -0.3208 -1.4866
 2204SOL    HW218246   3.151   4.646  13.715  1.0331  0.4583 -0.0398
 2205SOL     OW18247   3.823   2.534   1.538 -0.0727  0.3273 -0.1665
 2205SOL    HW118248   3.917   2.519   1.528 -0.0782  0.3948 -0.3197
 2205SOL    HW218249   3.808   2.607   1.478  1.3529 -0.0746 -0.9862
 2206SOL     OW18250   2.815   4.300  10.735 -0.3262 -0.6080 -0.1224
 2206SOL    HW118251   2.724   4.271  10.748 -0.6887  0.6109  0.1110
 2206SOL    HW218252   2.834   4.329  10.824  0.8614 -0.6940 -0.3558
 2207SOL     OW18253   2.996   1.027  13.389 -0.0788 -0.4398 -0.3816
 2207SOL    HW118254   2.906   1.028  13.357  0.0001 -0.1678 -0.5907
 2207SOL    HW218255   2.999   1.109  13.438  0.6282 -0.8175  0.2079
 2208SOL     OW18256   3.103   3.709  15.443  0.0999 -0.0106  0.3867
 2208SOL    HW118257   3.155   3.727  15.366 -2.0413  2.7686 -0.3966
 2208SOL    HW218258   3.058   3.793  15.454  1.8897  1.1256 -1.0662
 2209SOL     OW18259   4.617   3.020   6.212  0.2499 -0.4557 -0.3346
 2209SOL    HW118260   4.652   2.931   6.206 -1.9760 -1.4424  1.3528
 2209SOL    HW218261   4.542   3.008   6.270 -1.1506  1.2947 -1.7891
 2210SOL     OW18262   2.266   4.136   5.034 -0.3661  0.5304 -0.2695
 2210SOL    HW118263   2.351   4.162   4.999  0.9101 -3.1044  0.0767
 2210SOL    HW218264   2.216   4.216   5.018 -0.4743  0.3105 -1.0544
 2211SOL     OW18265   2.063   4.543   7.367  0.4488  0.0950  0.5705
 2211SOL    HW118266   2.146   4.590   7.360  0.0819  0.7283  0.5393
 2211SOL    HW218267   2.028   4.569   7.282  0.7983  1.0589  0.7200
 2212SOL     OW18268   0.654   1.001   7.495  0.3319  0.2889  0.4226
 2212SOL    HW118269   0.745   0.986   7.522  0.2122  0.5296  0.9404
 2212SOL    HW218270   0.653   1.096   7.483 -0.0390  0.3155  0.6812
 2213SOL     OW18271   4.192   1.576   2.676  0.3259 -0.2260 -0.4338
 2213SOL    HW118272   4.167   1.667   2.691 -1.8014 -0.3844 -2.9858
 2213SOL    HW218273   4.124   1.528   2.722  0.9041 -0.4344  0.1951
 2214SOL     OW18274   1.946   2.118   6.219  0.4074 -0.1807  0.5191
 2214SOL    HW118275   1.938   2.024   6.235  0.8425 -0.1375  0.9899
 2214SOL    HW218276   1.916   2.106   6.129 -0.4386 -0.3805  0.8296
 2215SOL     OW18277   2.791   3.136   5.121  0.2009 -0.0011 -0.1577
 2215SOL    HW118278   2.703   3.172   5.128  1.1249  2.4804 -1.1360
 2215SOL    HW218279   2.841   3.216   5.101 -0.4269 -0.6566 -4.2016
 2216SOL     OW18280   1.994   2.623   3.175  0.4180 -0.5960  0.0911
 2216SOL    HW118281   1.964   2.637   3.265  0.4329  1.0239 -0.1496
 2216SOL    HW218282   1.907   2.605   3.138  0.7893 -2.8924  0.3308
 2217SOL     OW18283   1.206   0.071  16.103  0.4555 -0.5814  0.0047
 2217SOL    HW118284   1.287   0.025  16.126  0.7538  0.8714  1.8524
 2217SOL    HW218285   1.191   0.041  16.013 -1.4991 -1.7814  0.7418
 2218SOL     OW18286   4.663   0.355  10.823  0.0400 -0.2463 -0.6279
 2218SOL    HW118287   0.005   0.308  10.862 -0.2493  0.9005  1.3314
 2218SOL    HW218288   4.606   0.375  10.897  2.4828  3.3063  0.3128
 2219SOL     OW18289   1.758   4.323   2.892  0.4724  0.1015 -0.3253
 2219SOL    HW118290   1.748   4.323   2.987 -0.2590 -2.2907 -0.4092
 2219SOL    HW218291   1.844   4.286   2.872 -0.3396 -2.2834  0.6313
 2220SOL     OW18292   0.181   2.197  16.651  0.4782  0.5408  0.7516
 2220SOL    HW118293   0.103   2.247  16.673  0.1888 -0.8206  2.8364
 2220SOL    HW218294   0.137   2.134  16.594 -0.1151 -0.5963  2.4328
 2221SOL     OW18295   2.634   3.090  11.253  0.0456 -0.3940 -0.4005
 2221SOL    HW118296   2.624   2.997  11.234 -1.5850 -0.3986  0.4017
 2221SOL    HW218297   2.579   3.106  11.331  0.8123 -3.3880  0.7541
 2222SOL     OW18298   1.155   1.558   7.953  0.1393  0.8025  0.4463
 2222SOL    HW118299   1.107   1.606   7.885  1.3773 -0.0272 -1.0298
 2222SOL    HW218300   1.170   1.634   8.009 -0.5794 -0.5193  2.4207
 2223SOL     OW18301   2.397   1.600   0.931  0.0893 -0.2074 -0.2004
 2223SOL    HW118302   2.330   1.668   0.936 -0.3506 -0.7977  1.7905
 2223SOL    HW218303   2.343   1.524   0.910 -2.0044  1.5340 -1.0509
 2224SOL     OW18304   1.197   3.371  10.475  0.1040  0.1912  0.0306
 2224SOL    HW118305   1.274   3.406  10.429  0.5633  2.3681  2.4448
 2224SOL    HW218306   1.221   3.406  10.561 -0.5344 -0.0403  0.3020
 2225SOL     OW18307   2.861   2.579   5.647  0.4702  0.1496 -0.0996
 2225SOL    HW118308   2.816   2.592   5.730  0.5874  2.6700 -0.4391
 2225SOL    HW218309   2.821   2.652   5.600 -0.3516 -0.5061 -0.4161
 2226SOL     OW18310   0.926   3.887   3.607  0.0005  0.3752 -0.1363
 2226SOL    HW118311   0.903   3.980   3.614  1.1683  0.6329  0.3516
 2226SOL    HW218312   1.016   3.891   3.575  0.1116  0.9577  0.2462
 2227SOL     OW18313   1.272   4.005  14.560 -0.6690  0.3333  0.2725
 2227SOL    HW118314   1.300   4.036  14.647 -0.8479  0.8134  0.1599
 2227SOL    HW218315   1.340   4.057  14.516  1.0561 -2.0694  0.1267
 2228SOL     OW18316   3.128   3.344   6.841 -0.2653  0.0850  0.1232
 2228SOL    HW118317   3.146   3.264   6.792 -0.5489 -0.9818  1.7582
 2228SOL    HW218318   3.206   3.338   6.896 -0.5933  1.4552  0.7306
 2229SOL     OW18319   3.977   1.360   6.076  0.5412 -0.2560  0.1012
 2229SOL    HW118320   3.906   1.358   6.011  0.2792 -2.8493  0.4690
 2229SOL    HW218321   4.050   1.315   6.034  0.4468 -0.0606 -0.2721
 2230SOL     OW18322   3.765   3.700   8.593 -0.1587 -0.4589 -0.3482
 2230SOL    HW118323   3.771   3.790   8.627  1.0094  0.0021 -1.7914
 2230SOL    HW218324   3.753   3.646   8.671 -2.3450  0.4838 -0.0340
 2231SOL     OW18325   3.913   4.586   1.792 -0.2670 -0.2120 -0.6004
 2231SOL    HW118326   3.999   4.571   1.829 -0.3217  1.6143  0.2453
 2231SOL    HW218327   3.937   4.617   1.705 -0.1601  1.1775 -0.0722
 2232SOL     OW18328   2.642   1.069  15.057 -0.3510  0.8728 -0.1714
 2232SOL    HW118329   2.568   1.107  15.009 -0.9358  0.7457  0.6299
 2232SOL    HW218330   2.592   1.000  15.100 -1.1905 -0.2091 -2.8677
 2233SOL     OW18331   4.042   4.033   1.936  0.6947 -0.2953 -0.3588
 2233SOL    HW118332   3.981   4.101   1.966  0.9856 -0.4025  0.4809
 2233SOL    HW218333   4.109   4.034   2.004 -0.0750 -1.3112  0.4331
 2234SOL     OW18334   3.272   2.029   6.977 -0.3531 -0.2501 -0.1546
 2234SOL    HW118335   3.285   1.938   7.004  0.7844  0.4206  1.5704
 2234SOL    HW218336   3.222   2.052   7.056  0.1797 -0.0256  0.1173
 2235SOL     OW18337   1.980   4.672   8.733  0.3474 -0.4633  0.0198
 2235SOL    HW118338   1.933   0.019   8.760 -1.6288 -1.5045 -0.4137
 2235SOL    HW218339   2.067   4.695   8.768  0.0608 -1.4751  1.3921
 2236SOL     OW18340   1.528   1.276   1.856 -0.4603 -0.5570  0.6040
 2236SOL    HW118341   1.483   1.275   1.940 -1.5728 -1.2671 -0.0115
 2236SOL    HW218342   1.615   1.242   1.878  0.2282 -0.1701 -1.4980
 2237SOL     OW18343   0.634   0.569   9.403 -0.1146  0.2809  0.1741
 2237SOL    HW118344   0.592   0.655   9.402 -0.2826  0.2216  1.8449
 2237SOL    HW218345   0.623   0.531   9.490  1.5981  0.1698  0.3440
 2238SOL     OW18346   2.564   3.172   3.246  0.0853  0.3868  0.8225
 2238SOL    HW118347   2.572   3.132   3.159  0.4285 -0.6724  1.3452
 2238SOL    HW218348   2.522   3.255   3.222  1.9167  1.3450  0.8890
 2239SOL     OW18349   2.145   4.404  10.485  0.3295  0.3300  0.3885
 2239SOL    HW118350   2.087   4.434  10.555  1.9501  1.4869  1.2326
 2239SOL    HW218351   2.171   4.485  10.442 -2.0434  1.5029  1.1735
 2240SOL     OW18352   2.716   4.401  15.638  0.2523  0.0827 -0.1663
 2240SOL    HW118353   2.775   4.464  15.679  1.2271 -0.6309 -0.4583
 2240SOL    HW218354   2.660   4.461  15.589 -1.1680 -0.6987  0.5047
 2241SOL     OW18355   0.774   2.890   9.652  0.0938  0.6124  0.0317
 2241SOL    HW118356   0.690   2.918   9.688  1.0839  2.8641  0.5654
 2241SOL    HW218357   0.733   2.844   9.579  2.3147  0.0196 -0.8480
 2242SOL     OW18358   3.236   2.131  14.329 -0.3230 -0.1879 -0.0964
 2242SOL    HW118359   3.210   2.193  14.398 -1.1643  0.2404 -0.7854
 2242SOL    HW218360   3.229   2.048  14.375 -4.7857 -0.8317 -1.9415
 2243SOL     OW18361   2.216   2.631  14.569  0.1802 -0.7575 -0.1542
 2243SOL    HW118362   2.280   2.701  14.574 -1.6283  0.9412 -0.8175
 2243SOL    HW218363   2.219   2.594  14.481 -0.9023 -0.3349 -0.3634
 2244SOL     OW18364   3.217   3.032   2.952 -0.4359  0.5324  0.0995
 2244SOL    HW118365   3.202   3.069   2.865 -0.0166  0.3428 -0.0533
 2244SOL    HW218366   3.310   3.009   2.946 -0.4091  1.1051 -1.8761
 2245SOL     OW18367   0.266   3.151   0.307  0.3385  0.0617  0.0324
 2245SOL    HW118368   0.222   3.189   0.231 -1.3341  1.3595  1.6456
 2245SOL    HW218369   0.317   3.226   0.338 -0.0380 -0.2293  1.3323
 2246SOL     OW18370   2.968   1.316  13.459 -0.1489  0.7210 -0.3552
 2246SOL    HW118371   2.919   1.332  13.378 -1.7865 -0.9779  0.2973
 2246SOL    HW218372   2.990   1.404  13.490  0.1926  0.0175  1.3806
 2247SOL     OW18373   3.442   0.529   5.723 -0.9005 -0.1241  0.5116
 2247SOL    HW118374   3.354   0.545   5.757 -1.2180  0.6420 -0.6962
 2247SOL    HW218375   3.415   0.526   5.632  0.4250 -1.7240  0.1808
 2248SOL     OW18376   1.053   1.589   1.196 -0.0373  0.4794 -0.0418
 2248SOL    HW118377   1.010   1.522   1.142  0.7408  0.0336 -0.1088
 2248SOL    HW218378   1.118   1.536   1.241 -0.5796 -0.4255 -0.3124
 2249SOL     OW18379   3.747   4.598   8.170 -0.1035 -0.7313 -0.3491
 2249SOL    HW118380   3.739   4.662   8.099  1.6892  0.2322  0.3372
 2249SOL    HW218381   3.716   4.646   8.246  0.4788  0.3806 -0.8166
 2250SOL     OW18382   1.983   4.066   0.792  0.1132  0.7475 -0.1904
 2250SOL    HW118383   2.077   4.059   0.807  0.1231  0.9271 -0.1610
 2250SOL    HW218384   1.966   4.028   0.706 -2.5659  1.5921 -0.0481
 2251SOL     OW18385   4.175   2.958  15.043  0.2474 -0.1348  0.0361
 2251SOL    HW118386   4.194   3.026  14.978 -0.0117  0.5400  0.6660
 2251SOL    HW218387   4.113   2.903  14.994 -2.7601  1.2403  2.3465
 2252SOL     OW18388   4.238   1.437   4.667 -0.1760  0.0520 -0.1931
 2252SOL    HW118389   4.272   1.402   4.749 -1.5964 -2.1231 -0.5643
 2252SOL    HW218390   4.172   1.368   4.663 -0.1294  0.1442 -2.6868
 2253SOL     OW18391   3.623   1.409   9.996 -0.1467  0.0730  0.2474
 2253SOL    HW118392   3.617   1.372  10.083  1.2864  0.0270  0.3238
 2253SOL    HW218393   3.602   1.502  10.000  0.4130  0.2331 -0.4385
 2254SOL     OW18394   0.744   1.152  11.682 -0.5764 -0.5265  0.0715
 2254SOL    HW118395   0.768   1.243  11.664  1.5899 -1.6531 -2.7334
 2254SOL    HW218396   0.681   1.162  11.753 -1.3841 -2.3386 -0.3915
 2255SOL     OW18397   4.308   1.496   6.599 -0.1450 -0.4409  0.2083
 2255SOL    HW118398   4.287   1.550   6.522 -1.3322  0.0810  0.9064
 2255SOL    HW218399   4.327   1.558   6.670 -0.0876 -2.1840  1.7011
 2256SOL     OW18400   1.968   2.864   8.367  0.3756 -0.4042 -0.3123
 2256SOL    HW118401   1.916   2.785   8.356  0.4831 -0.6252  0.8159
 2256SOL    HW218402   1.908   2.935   8.390 -2.2648 -2.3706 -1.1484
 2257SOL     OW18403   1.191   0.974   5.070 -0.4138  0.3952 -0.2330
 2257SOL    HW118404   1.253   1.010   5.008  1.6629  1.4865  2.4832
 2257SOL    HW218405   1.117   1.030   5.048 -0.4600  0.4667  0.1056
 2258SOL     OW18406   1.895   3.343   4.890  0.2777  0.4675  0.3062
 2258SOL    HW118407   1.847   3.411   4.935  2.3928  1.3235  1.2601
 2258SOL    HW218408   1.946   3.298   4.958  0.3617 -1.3495 -0.9404
 2259SOL     OW18409   1.779   1.619   6.921  0.0323 -0.3601  0.0386
 2259SOL    HW118410   1.855   1.656   6.876 -1.7637  0.3111 -2.3990
 2259SOL    HW218411   1.813   1.540   6.962  1.0072  0.0234 -0.0220
 2260SOL     OW18412   2.407   1.816  16.097 -0.0241  0.4260 -0.0089
 2260SOL    HW118413   2.430   1.816  16.004 -1.2571  1.3541 -0.3114
 2260SOL    HW218414   2.319   1.853  16.097  0.7153  2.1177 -2.4539
 2261SOL     OW18415   4.311   4.281   5.394  0.0896  0.3875  0.1311
 2261SOL    HW118416   4.223   4.317   5.378 -0.1269  0.9023  2.5345
 2261SOL    HW218417   4.344   4.310   5.309  0.4987  1.4859  0.6604
 2262SOL     OW18418   2.883   0.855   7.705 -0.0473  0.3315 -0.0570
 2262SOL    HW118419   2.878   0.768   7.744  1.7120  0.0018 -0.5753
 2262SOL    HW218420   2.807   0.849   7.647 -0.3193  1.1967  0.2216
 2263SOL     OW18421   1.557   2.451   4.831 -0.0883 -0.5557 -0.0532
 2263SOL    HW118422   1.577   2.404   4.750 -0.6502 -0.7861 -0.0547
 2263SOL    HW218423   1.467   2.472   4.804  0.9520  1.4341 -2.0418
 2264SOL     OW18424   0.756   0.799   3.112 -0.2132 -0.3052 -0.3656
 2264SOL    HW118425   0.738   0.712   3.146  0.5505 -0.5445 -0.5588
 2264SOL    HW218426   0.709   0.799   3.028 -0.6133 -1.5171 -0.1341
 2265SOL     OW18427   3.290   3.167   5.266  0.1093 -0.4052  0.4018
 2265SOL    HW118428   3.287   3.225   5.342  0.0073  0.9883 -0.6526
 2265SOL    HW218429   3.197   3.144   5.263  0.1396 -0.5548  0.6681
 2266SOL     OW18430   0.214   0.097  15.670  0.0271  0.3733  0.1412
 2266SOL    HW118431   0.308   0.082  15.657 -0.4356 -0.4841 -2.2196
 2266SOL    HW218432   0.186   0.081  15.581  2.3588  0.5682 -0.6379
 2267SOL     OW18433   4.091   3.549   5.791 -0.4534  0.2570  0.0226
 2267SOL    HW118434   4.139   3.632   5.794  1.1617 -0.6848  0.2652
 2267SOL    HW218435   4.110   3.511   5.705  0.6600  0.8162  0.0234
 2268SOL     OW18436   1.624   0.422   2.373 -0.6299 -0.3092  0.6002
 2268SOL    HW118437   1.712   0.460   2.372  0.0082 -1.7516  1.2837
 2268SOL    HW218438   1.579   0.506   2.380 -0.3334  0.0039 -1.2394
 2269SOL     OW18439   0.502   2.132   8.473 -0.1665 -0.3530 -0.3350
 2269SOL    HW118440   0.518   2.220   8.507  0.2251 -0.6303  0.1985
 2269SOL    HW218441   0.581   2.088   8.504 -0.5646 -0.0746  1.0468
 2270SOL     OW18442   3.454   2.526   3.374 -0.3158 -0.1218 -0.7098
 2270SOL    HW118443   3.534   2.540   3.424 -0.2927  0.8032 -0.9845
 2270SOL    HW218444   3.467   2.442   3.330  0.8102 -0.3590  0.0865
 2271SOL     OW18445   4.583   0.848   9.793  0.0340 -0.5917  0.2803
 2271SOL    HW118446   4.597   0.942   9.805 -0.1643 -0.3289 -1.5957
 2271SOL    HW218447   4.637   0.805   9.859  1.5357  1.3013  0.2852
 2272SOL     OW18448   0.991   2.331  15.356 -0.8478  0.0701  0.3458
 2272SOL    HW118449   0.945   2.333  15.272 -0.6152 -0.0203  0.2172
 2272SOL    HW218450   0.957   2.409  15.399 -0.6582 -0.6061  1.7356
 2273SOL     OW18451   1.872   1.791  17.125 -0.3434 -0.0200  0.0497
 2273SOL    HW118452   1.961   1.764  17.148  0.0553  0.0103 -1.4498
 2273SOL    HW218453   1.852   1.715  17.071 -3.9834 -1.4922  3.4717
 2274SOL     OW18454   2.324   1.163   3.129 -0.4526  0.1096 -0.2352
 2274SOL    HW118455   2.391   1.189   3.193 -0.2313 -0.2904 -0.3081
 2274SOL    HW218456   2.330   1.239   3.071 -0.6256  0.2361 -0.0906
 2275SOL     OW18457   0.195   4.454   1.888 -0.6501  0.5015  0.4751
 2275SOL    HW118458   0.243   4.496   1.959  0.3671 -0.1885  0.1949
 2275SOL    HW218459   0.113   4.431   1.931 -0.8101  2.1429  1.0377
 2276SOL     OW18460   1.594   4.395   0.687 -0.3060  0.2282 -0.8683
 2276SOL    HW118461   1.585   4.366   0.778  2.9102 -0.5099 -0.7972
 2276SOL    HW218462   1.540   4.474   0.693 -0.8497 -0.4960  3.5809
 2277SOL     OW18463   3.269   2.488   6.450 -0.2519 -0.4929 -0.3007
 2277SOL    HW118464   3.364   2.489   6.437 -0.1646 -1.7881  0.2494
 2277SOL    HW218465   3.240   2.560   6.393 -0.6633  0.1581  0.7228
 2278SOL     OW18466   3.117   4.348  17.387  0.2925 -0.6067  0.0699
 2278SOL    HW118467   3.137   4.428  17.338 -0.1571 -0.8767 -0.5491
 2278SOL    HW218468   3.208   4.325  17.408  0.7931  1.6651  0.4431
 2279SOL     OW18469   2.793   0.304   7.959  0.3347 -0.3091 -0.7018
 2279SOL    HW118470   2.876   0.257   7.958  1.0398  0.8849  1.7632
 2279SOL    HW218471   2.816   0.375   8.019  1.4487 -0.9827 -0.3361
 2280SOL     OW18472   4.352   2.588   4.040  0.6720  0.1678 -0.0732
 2280SOL    HW118473   4.396   2.578   3.955  2.4584  3.2136  0.4695
 2280SOL    HW218474   4.399   2.662   4.079  0.0946  1.1604 -1.2654
 2281SOL     OW18475   1.265   3.116   7.596 -0.3876  0.0670 -0.1029
 2281SOL    HW118476   1.221   3.033   7.613  1.0818 -0.9109 -1.0393
 2281SOL    HW218477   1.301   3.129   7.683  0.1421 -2.3090  0.0438
 2282SOL     OW18478   1.277   2.004   4.403  0.0800 -0.5552  0.1968
 2282SOL    HW118479   1.298   2.012   4.496  0.1781  1.1636  0.0140
 2282SOL    HW218480   1.182   2.012   4.411  0.4049  2.8512  0.4368
 2283SOL     OW18481   2.884   4.642  11.798  0.2283 -0.1584  0.1626
 2283SOL    HW118482   2.820   4.690  11.852 -0.0636 -0.3850  0.0209
 2283SOL    HW218483   2.962   4.661  11.851 -0.1160  1.7138 -0.0098
 2284SOL     OW18484   3.090   0.763   6.009  0.0271  0.4164  0.1009
 2284SOL    HW118485   3.009   0.763   6.060 -1.5108 -0.9626 -2.3504
 2284SOL    HW218486   3.095   0.859   6.008 -1.5789  0.5126  1.5860
 2285SOL     OW18487   1.487   3.296   4.341 -0.2246  0.2310  0.0758
 2285SOL    HW118488   1.506   3.364   4.406 -1.9849 -0.4316  1.2907
 2285SOL    HW218489   1.482   3.360   4.269  0.4038 -0.1122 -0.2713
 2286SOL     OW18490   1.630   4.320   8.602 -0.4117  0.3388  0.3105
 2286SOL    HW118491   1.541   4.339   8.632 -0.2800  1.9730 -0.3408
 2286SOL    HW218492   1.624   4.243   8.545 -1.2637  0.7486 -0.1578
 2287SOL     OW18493   0.229   1.857   6.609 -0.0203 -0.1440 -0.6280
 2287SOL    HW118494   0.191   1.770   6.618 -4.0396  1.4373 -2.1818
 2287SOL    HW218495   0.174   1.907   6.669  0.3460 -0.4939 -0.0028
 2288SOL     OW18496   3.230   1.744  13.227  0.1940  0.0028  0.2634
 2288SOL    HW118497   3.247   1.666  13.281  3.6435 -0.1529 -1.0113
 2288SOL    HW218498   3.153   1.769  13.278 -0.1062  0.3058 -0.3399
 2289SOL     OW18499   3.372   3.200   8.096  0.0419 -0.1963 -0.4165
 2289SOL    HW118500   3.284   3.166   8.075 -0.7408  2.3506 -1.3127
 2289SOL    HW218501   3.373   3.215   8.190 -1.3199  1.4044 -0.6530
 2290SOL     OW18502   0.752   1.498   1.804 -0.1921 -0.1454 -0.0896
 2290SOL    HW118503   0.740   1.538   1.718 -1.8850 -1.3657 -0.4075
 2290SOL    HW218504   0.667   1.462   1.829 -0.5247  0.1499 -0.8007
 2291SOL     OW18505   1.316   2.763   7.521 -0.1873 -0.3929  0.8271
 2291SOL    HW118506   1.281   2.816   7.593  0.4918  1.0488  0.1051
 2291SOL    HW218507   1.303   2.820   7.445  2.6153 -1.5749 -0.5148
 2292SOL     OW18508   0.716   2.867   7.046 -0.2535 -0.2758 -0.4559
 2292SOL    HW118509   0.704   2.820   7.128 -0.0857 -1.2700 -1.0105
 2292SOL    HW218510   0.811   2.879   7.046  0.1086 -3.1327 -1.3512
 2293SOL     OW18511   0.561   2.021   5.714 -0.1034  0.0421  0.0435
 2293SOL    HW118512   0.585   2.008   5.806 -0.2943 -2.8810 -0.3313
 2293SOL    HW218513   0.466   2.013   5.708  0.0328  0.0304 -2.2101
 2294SOL     OW18514   0.006   1.073   6.196  0.2053  0.1897 -0.0976
 2294SOL    HW118515   0.043   1.082   6.108 -0.9046  0.7633 -0.4937
 2294SOL    HW218516   4.695   0.988   6.183  0.4383 -0.0750  0.8636
 2295SOL     OW18517   0.929   0.114   5.209  0.1737 -0.3712  0.0777
 2295SOL    HW118518   0.979   0.173   5.152  0.4651  1.2491  1.9883
 2295SOL    HW218519   0.972   0.030   5.198  0.9262  0.1374 -0.8275
 2296SOL     OW18520   3.862   2.300   4.493 -0.1126  0.3780  0.0211
 2296SOL    HW118521   3.769   2.301   4.513 -0.0171 -1.5038  0.5704
 2296SOL    HW218522   3.885   2.312   4.586 -0.1236  3.1561 -0.3295
 2297SOL     OW18523   0.588   2.233   4.246 -0.2197  0.2047  0.0210
 2297SOL    HW118524   0.675   2.268   4.261 -0.1800  0.7620 -1.4634
 2297SOL    HW218525   0.567   2.203   4.334 -0.1441 -0.0302 -0.0414
 2298SOL     OW18526   2.219   3.765   8.821 -0.0460 -0.0064  0.5074
 2298SOL    HW118527   2.175   3.785   8.903  1.8900 -0.0578  1.5744
 2298SOL    HW218528   2.147   3.779   8.760  0.0739  1.4175  0.6780
 2299SOL     OW18529   0.464   1.275   5.745 -0.2286 -0.1082 -0.3211
 2299SOL    HW118530   0.489   1.234   5.663 -1.1552 -0.6478 -0.3353
 2299SOL    HW218531   0.536   1.335   5.765 -0.6481  0.5878 -0.9157
 2300SOL     OW18532   1.521   2.133  14.306 -0.1362  0.5946 -0.2018
 2300SOL    HW118533   1.604   2.138  14.259 -0.6270 -2.3012 -1.3727
 2300SOL    HW218534   1.467   2.072  14.256 -0.8616  0.6667  0.5030
 2301SOL     OW18535   4.567   4.573   3.129  0.4967 -0.1841 -0.2870
 2301SOL    HW118536   4.608   4.525   3.200 -0.3528 -0.3712  0.0686
 2301SOL    HW218537   4.479   4.584   3.164  1.1604  4.3702 -0.0242
 2302SOL     OW18538   0.692   0.125  10.890 -0.1806  0.3122 -0.1297
 2302SOL    HW118539   0.763   0.170  10.844  0.2158  1.3812  1.5264
 2302SOL    HW218540   0.618   0.185  10.887 -2.4878 -2.6215 -1.8691
 2303SOL     OW18541   4.199   1.316   1.865 -0.2564 -0.0949  0.1135
 2303SOL    HW118542   4.187   1.388   1.802 -0.7785  0.1470  0.4826
 2303SOL    HW218543   4.281   1.273   1.840 -0.6288 -0.8558  0.2202
 2304SOL     OW18544   3.897   1.897  15.778  0.2113 -0.1740  0.1480
 2304SOL    HW118545   3.920   1.983  15.814  1.7760 -0.4390 -0.2286
 2304SOL    HW218546   3.839   1.859  15.845 -3.2756  1.8669 -1.7391
 2305SOL     OW18547   2.518   1.650   5.436  0.8536 -0.2630 -0.0870
 2305SOL    HW118548   2.526   1.735   5.391 -3.9614 -1.8991 -3.9632
 2305SOL    HW218549   2.559   1.669   5.521  0.3227  1.5882 -0.2459
 2306SOL     OW18550   3.113   1.129   8.046  0.2800 -0.2473  0.4056
 2306SOL    HW118551   3.044   1.120   7.980 -0.3131 -0.9018  1.1032
 2306SOL    HW218552   3.103   1.220   8.074  0.5014 -0.2829  0.6024
 2307SOL     OW18553   3.265   3.732   2.601 -0.4167  0.4165 -0.0502
 2307SOL    HW118554   3.275   3.646   2.560 -0.1456 -0.0936  1.0929
 2307SOL    HW218555   3.328   3.722   2.672 -0.2064 -0.6269 -0.3820
 2308SOL     OW18556   0.274   2.878   1.195 -0.1657 -0.0848 -0.5472
 2308SOL    HW118557   0.253   2.857   1.286 -2.7113 -1.2712 -1.4019
 2308SOL    HW218558   0.350   2.822   1.182 -0.5268 -0.8820  0.7693
 2309SOL     OW18559   4.016   1.494  16.307  0.0577 -0.6182 -0.4910
 2309SOL    HW118560   4.016   1.518  16.214  3.0289  1.3468  0.0311
 2309SOL    HW218561   4.071   1.565  16.340 -1.5870  0.7858 -0.7644
 2310SOL     OW18562   0.260   1.662   8.573 -0.0831  0.1656  0.0630
 2310SOL    HW118563   0.230   1.581   8.612 -0.1475  0.0838 -0.1550
 2310SOL    HW218564   0.178   1.707   8.596  0.3000  0.5741  0.6287
 2311SOL     OW18565   3.189   3.167   3.220  0.0230  0.1288  0.4008
 2311SOL    HW118566   3.095   3.167   3.203  0.2972  0.4816 -1.0897
 2311SOL    HW218567   3.223   3.183   3.132 -1.1614  2.3733  0.3727
 2312SOL     OW18568   0.323   3.784   9.311  0.3079 -0.6877 -0.6799
 2312SOL    HW118569   0.250   3.728   9.286 -0.0277 -1.0280  1.0785
 2312SOL    HW218570   0.289   3.838   9.382  2.1050 -2.9014  1.8300
 2313SOL     OW18571   2.598   2.298  11.557  0.6442  0.2431 -0.1418
 2313SOL    HW118572   2.527   2.248  11.597  2.3869 -0.6602  1.7664
 2313SOL    HW218573   2.627   2.246  11.482 -1.2290 -1.2788  0.1931
 2314SOL     OW18574   2.668   3.440   2.829  0.0442  0.1383  0.1472
 2314SOL    HW118575   2.649   3.378   2.758  0.6274 -1.5478  1.4604
 2314SOL    HW218576   2.732   3.499   2.790 -0.2886  0.3074 -0.1394
 2315SOL     OW18577   1.670   3.896   5.564  0.1644 -0.2740  0.0379
 2315SOL    HW118578   1.703   3.885   5.653 -2.6001 -1.3345  0.9261
 2315SOL    HW218579   1.727   3.969   5.539 -1.6600  1.0454 -0.2898
 2316SOL     OW18580   3.298   4.417   2.593  0.6559 -0.0873  0.2472
 2316SOL    HW118581   3.226   4.370   2.551 -0.0823 -0.4041  1.8820
 2316SOL    HW218582   3.346   4.347   2.639 -2.2359 -0.3830  2.8167
 2317SOL     OW18583   0.813   4.326   7.856  0.4670  0.2704 -0.3969
 2317SOL    HW118584   0.792   4.242   7.816  0.2489  0.5674 -0.8970
 2317SOL    HW218585   0.906   4.334   7.833 -0.0541  2.4946 -1.6494
 2318SOL     OW18586   1.362   2.097   4.666 -0.3144 -0.0587 -0.5493
 2318SOL    HW118587   1.423   2.158   4.624  0.6621 -0.7314 -0.1204
 2318SOL    HW218588   1.341   2.138   4.750  3.3981 -1.8916  1.3141
 2319SOL     OW18589   1.170   0.183   4.383 -0.0065 -0.1453 -0.2621
 2319SOL    HW118590   1.098   0.166   4.323 -2.3045 -0.0363  2.4791
 2319SOL    HW218591   1.121   0.177   4.465 -1.7013  0.3719 -1.2464
 2320SOL     OW18592   1.558   3.865  14.638 -0.3803 -1.1108  0.1945
 2320SOL    HW118593   1.639   3.889  14.594 -0.4631 -0.2526  0.5028
 2320SOL    HW218594   1.506   3.834  14.564 -2.2720 -1.9562  1.8835
 2321SOL     OW18595   2.099   1.479  14.230 -0.7394  0.3167  0.2698
 2321SOL    HW118596   2.144   1.533  14.165 -1.8482  3.0656  1.7953
 2321SOL    HW218597   2.060   1.410  14.176 -2.6195  0.7881  1.0376
 2322SOL     OW18598   0.257   0.685   2.953  0.6615  0.2799 -0.0693
 2322SOL    HW118599   0.282   0.763   3.003 -2.1485 -1.1822  3.6680
 2322SOL    HW218600   0.165   0.698   2.929  1.7927  2.3140 -3.1781
 2323SOL     OW18601   0.262   1.123   8.301 -0.5287 -0.1440 -0.2080
 2323SOL    HW118602   0.279   1.150   8.211  0.0855  0.5608  0.1276
 2323SOL    HW218603   0.182   1.070   8.298  0.2634 -1.3710  0.2237
 2324SOL     OW18604   4.114   2.977   2.148 -0.0583 -0.2287  0.1360
 2324SOL    HW118605   4.033   3.022   2.171 -0.0383  0.1455 -0.5439
 2324SOL    HW218606   4.150   3.048   2.095  0.2818 -2.1955 -2.2681
 2325SOL     OW18607   3.681   4.106  16.788 -0.2850 -0.4561 -0.0159
 2325SOL    HW118608   3.776   4.092  16.793 -0.0674  0.7185 -0.9213
 2325SOL    HW218609   3.653   4.016  16.808 -1.0598 -0.3877 -0.7757
 2326SOL     OW18610   0.826   0.760   6.755 -0.2244  0.3278  0.1429
 2326SOL    HW118611   0.851   0.801   6.838  0.0972  0.6333 -0.1078
 2326SOL    HW218612   0.810   0.836   6.698  1.2584 -0.9800 -1.9830
 2327SOL     OW18613   0.715   2.565  10.299  0.0512  0.1799  0.0655
 2327SOL    HW118614   0.719   2.475  10.332 -3.1391 -0.2905 -0.8260
 2327SOL    HW218615   0.801   2.595  10.330 -0.5028  0.5831  1.2100
 2328SOL     OW18616   0.996   1.122   5.945 -0.5297  0.2425  0.4263
 2328SOL    HW118617   1.065   1.162   5.893 -0.2788  0.6888  1.0982
 2328SOL    HW218618   0.921   1.129   5.886  0.6251  0.7575 -0.9832
 2329SOL     OW18619   0.326   0.248   4.759 -0.1742  0.0935  0.5187
 2329SOL    HW118620   0.320   0.152   4.766 -2.5021  0.2013  0.1156
 2329SOL    HW218621   0.272   0.289   4.827  0.8724 -0.5063  1.7023
 2330SOL     OW18622   0.312   3.005  13.694  0.5101  0.0252 -0.0806
 2330SOL    HW118623   0.401   2.977  13.674  0.5299 -1.5964  2.3215
 2330SOL    HW218624   0.274   2.935  13.641 -0.8111  1.5568 -1.1568
 2331SOL     OW18625   2.822   3.686  15.768  0.4244 -0.1330  0.0592
 2331SOL    HW118626   2.776   3.670  15.686  0.1748 -0.4419  0.2615
 2331SOL    HW218627   2.758   3.642  15.823 -1.2088  0.2544 -1.5606
 2332SOL     OW18628   1.337   3.039  15.369 -0.0658 -0.2173 -0.4860
 2332SOL    HW118629   1.393   3.062  15.295 -0.8296  0.3854 -0.8811
 2332SOL    HW218630   1.252   3.042  15.326  0.9038  2.1305 -2.2173
 2333SOL     OW18631   3.515   2.265   9.055 -0.3018  0.6283 -0.2821
 2333SOL    HW118632   3.519   2.360   9.050  1.4510  0.6791  2.2294
 2333SOL    HW218633   3.607   2.246   9.037 -0.6351 -3.0745  1.8022
 2334SOL     OW18634   3.173   2.827   8.310 -0.2587  0.4051 -0.2446
 2334SOL    HW118635   3.121   2.903   8.337 -1.6099 -0.3881 -0.6158
 2334SOL    HW218636   3.148   2.772   8.384  1.3761  0.3358  0.2549
 2335SOL     OW18637   1.443   3.196   2.143  0.2733  0.1698 -0.3591
 2335SOL    HW118638   1.480   3.109   2.133  0.4859  0.2234 -0.0483
 2335SOL    HW218639   1.420   3.202   2.236  1.3809  0.9946 -0.1349
 2336SOL     OW18640   0.486   1.715   1.873  0.6373 -0.1720 -0.2225
 2336SOL    HW118641   0.457   1.724   1.783 -1.4039  1.0330  0.5464
 2336SOL    HW218642   0.415   1.667   1.917  0.3953 -1.3564 -1.9460
 2337SOL     OW18643   0.772   0.170  17.672 -0.8415 -0.4368  0.2846
 2337SOL    HW118644   0.833   0.102  17.643 -3.9454 -2.3303 -1.7662
 2337SOL    HW218645   0.825   0.244  17.701  0.7679 -0.9071 -1.4209
 2338SOL     OW18646   1.793   0.727   6.506  0.0198  0.2033  0.1503
 2338SOL    HW118647   1.874   0.719   6.456 -0.3904  1.1893 -0.6698
 2338SOL    HW218648   1.817   0.714   6.598 -2.5191 -1.9312  0.5126
 2339SOL     OW18649   3.044   3.521   3.735  0.4861  0.3731 -0.1320
 2339SOL    HW118650   2.966   3.467   3.743  1.5691 -1.1094  0.2547
 2339SOL    HW218651   3.118   3.461   3.739  0.4008  0.1113 -2.5364
 2340SOL     OW18652   2.963   1.988   8.894  0.4964  0.2079 -0.7613
 2340SOL    HW118653   3.016   2.062   8.864  0.6798 -0.5920 -2.4305
 2340SOL    HW218654   3.012   1.970   8.975 -3.3275  0.5553  1.5877
 2341SOL     OW18655   3.241   3.891   4.456  0.2338 -0.2534  0.2901
 2341SOL    HW118656   3.199   3.876   4.540 -1.0566  1.3901 -0.0551
 2341SOL    HW218657   3.321   3.839   4.445  0.0378 -0.8105  1.5663
 2342SOL     OW18658   3.455   2.374  17.421 -0.1129  0.1948  0.0634
 2342SOL    HW118659   3.542   2.402  17.391  0.3988 -0.8962  0.5442
 2342SOL    HW218660   3.477   2.295  17.470  0.6481  1.9574  2.5789
 2343SOL     OW18661   0.603   3.576   2.366 -0.4760  0.2785 -0.8325
 2343SOL    HW118662   0.671   3.547   2.306 -0.3048 -0.6499 -0.1832
 2343SOL    HW218663   0.525   3.575   2.310 -1.9727 -1.7388  1.2618
 2344SOL     OW18664   2.024   3.983  11.006  0.0994 -0.2593 -0.5288
 2344SOL    HW118665   2.041   3.908  11.064 -0.1885 -0.0798 -0.2084
 2344SOL    HW218666   1.929   3.974  10.997  0.0216  0.9646 -0.9137
 2345SOL     OW18667   4.395   4.323   7.484  0.2529  0.0679  0.6118
 2345SOL    HW118668   4.387   4.413   7.515 -0.0026 -0.3227  1.6966
 2345SOL    HW218669   4.377   4.350   7.394 -1.5543  1.0525  1.2672
 2346SOL     OW18670   0.577   3.489   2.599 -0.2594  0.6942  0.5008
 2346SOL    HW118671   0.602   3.539   2.521  1.8000  1.1321  1.4314
 2346SOL    HW218672   0.512   3.427   2.567  1.3598 -0.4587 -0.5385
 2347SOL     OW18673   2.878   3.396  10.913  0.0584 -0.0587  0.3812
 2347SOL    HW118674   2.906   3.411  11.003 -0.6302 -0.5934  0.6917
 2347SOL    HW218675   2.859   3.302  10.915 -0.3517 -0.0249 -2.4736
 2348SOL     OW18676   2.894   0.787   4.948 -0.4258 -0.0691 -0.0675
 2348SOL    HW118677   2.837   0.862   4.938  0.2553  0.3657 -0.6828
 2348SOL    HW218678   2.970   0.811   5.000 -0.8495  0.3615  0.3521
 2349SOL     OW18679   1.792   4.526   2.337 -0.5245  0.5852 -0.1836
 2349SOL    HW118680   1.788   4.477   2.254  0.0297  0.8782 -0.3816
 2349SOL    HW218681   1.770   4.614   2.308 -0.4258  0.6108 -0.1829
 2350SOL     OW18682   1.031   0.343   8.486  0.3323 -0.3624  0.0919
 2350SOL    HW118683   0.935   0.345   8.482  0.3065 -0.5528  0.7776
 2350SOL    HW218684   1.054   0.435   8.471 -2.1346 -0.0371 -1.7491
 2351SOL     OW18685   0.492   3.032   6.980  0.1664  0.0664  0.7319
 2351SOL    HW118686   0.571   2.984   7.004  0.7650  1.3246  1.2028
 2351SOL    HW218687   0.421   2.979   7.017 -1.6367  1.8024 -0.2487
 2352SOL     OW18688   4.707   0.475  17.497 -0.6804 -0.3146  0.3675
 2352SOL    HW118689   4.632   0.419  17.477 -0.2484 -1.2301  1.3568
 2352SOL    HW218690   4.678   0.567  17.493 -1.3989 -0.5586 -0.1002
 2353SOL     OW18691   1.221   0.479   1.407  0.4015  0.4022 -0.0002
 2353SOL    HW118692   1.186   0.391   1.406  1.7860 -0.1422 -0.9564
 2353SOL    HW218693   1.253   0.468   1.496  0.0213 -0.1309  0.0691
 2354SOL     OW18694   0.416   1.846   3.478  0.2604  0.1297 -0.2886
 2354SOL    HW118695   0.368   1.892   3.409 -0.4314 -0.1951 -0.0263
 2354SOL    HW218696   0.508   1.862   3.454  0.3091  0.2045 -0.0457
 2355SOL     OW18697   1.940   2.011   6.807  0.2125  0.3714  0.6675
 2355SOL    HW118698   1.877   2.022   6.736  0.0242  2.3535  1.1560
 2355SOL    HW218699   1.986   2.095   6.808 -0.8472  0.9573 -0.5780
 2356SOL     OW18700   1.820   1.877   8.165 -0.1685  0.2327 -0.4796
 2356SOL    HW118701   1.881   1.940   8.127 -0.4269  1.2521  0.8176
 2356SOL    HW218702   1.830   1.802   8.105 -2.4445 -0.2875 -0.2020
 2357SOL     OW18703   1.919   0.713   1.747  0.4721 -0.0229 -0.1588
 2357SOL    HW118704   1.857   0.657   1.700 -0.0317  0.6456 -0.2812
 2357SOL    HW218705   1.918   0.676   1.835 -0.3745  1.7302  0.5674
 2358SOL     OW18706   4.189   1.497   3.858  0.0409 -0.4104  0.0475
 2358SOL    HW118707   4.140   1.537   3.786 -1.2562 -3.1402 -0.6213
 2358SOL    HW218708   4.233   1.428   3.808  2.1342  0.3664  0.8504
 2359SOL     OW18709   2.666   4.706   7.111 -0.2067 -0.5685  0.1653
 2359SOL    HW118710   2.662   4.630   7.054  2.0722 -0.5676  0.0422
 2359SOL    HW218711   2.627   0.042   7.057  0.3854 -0.7004 -0.4126
 2360SOL     OW18712   3.948   2.417   1.802  0.7749  0.4789 -0.1241
 2360SOL    HW118713   4.012   2.392   1.869  0.9783  0.9328 -0.1521
 2360SOL    HW218714   3.981   2.506   1.789  0.9180  0.4413 -0.0168
 2361SOL     OW18715   2.619   3.764  13.221  0.0204 -0.5453 -0.6532
 2361SOL    HW118716   2.681   3.724  13.160 -0.6708 -1.7707 -0.5624
 2361SOL    HW218717   2.638   3.856  13.201  0.0904  0.2241  2.9698
 2362SOL     OW18718   1.846   1.904   9.403  0.4135 -0.2516 -0.5739
 2362SOL    HW118719   1.752   1.890   9.393  0.2037  1.3253 -0.6714
 2362SOL    HW218720   1.871   1.817   9.434  0.2521 -0.6367 -1.5128
 2363SOL     OW18721   0.793   0.777   2.052 -0.2471 -0.1664 -0.0152
 2363SOL    HW118722   0.862   0.725   2.093 -0.6883 -1.2493 -0.6498
 2363SOL    HW218723   0.723   0.772   2.116 -0.5304  0.0678 -0.3072
 2364SOL     OW18724   3.660   0.775   9.496  0.1725  0.0593 -0.1732
 2364SOL    HW118725   3.755   0.765   9.499  0.3000  1.1512 -0.5675
 2364SOL    HW218726   3.636   0.685   9.516 -0.3358 -0.0264 -1.1764
 2365SOL     OW18727   2.838   0.992   3.495  0.2251  0.2830  0.5508
 2365SOL    HW118728   2.816   1.058   3.560 -3.0884 -0.8735  0.5858
 2365SOL    HW218729   2.775   0.920   3.502  2.0323 -1.4347 -0.4309
 2366SOL     OW18730   0.885   3.699  17.415 -0.2672  0.3647  0.1091
 2366SOL    HW118731   0.825   3.625  17.408  0.4109 -0.1601 -0.1726
 2366SOL    HW218732   0.828   3.767  17.378  0.3266  1.3004  0.8982
 2367SOL     OW18733   0.959   1.941   4.054 -0.3221  0.2821  0.3255
 2367SOL    HW118734   0.893   1.980   3.996 -0.9829 -1.7962 -0.3291
 2367SOL    HW218735   0.981   2.012   4.114  0.1581  1.0610 -0.7664
 2368SOL     OW18736   0.619   0.828   2.879  0.5992 -0.4667 -0.4665
 2368SOL    HW118737   0.586   0.913   2.850 -0.3138 -1.1644 -1.4895
 2368SOL    HW218738   0.554   0.781   2.827 -0.0417 -1.0412  0.8528
 2369SOL     OW18739   1.290   2.589  10.979 -0.0106 -0.0215 -0.4142
 2369SOL    HW118740   1.282   2.505  11.024  0.4064  0.3981  0.4396
 2369SOL    HW218741   1.211   2.639  11.001 -1.4641 -2.0110 -1.0761
 2370SOL     OW18742   1.457   1.576  13.574 -0.6689 -0.1684  0.1107
 2370SOL    HW118743   1.381   1.605  13.523 -0.7622  1.0302  0.9331
 2370SOL    HW218744   1.407   1.530  13.641  0.2444  2.3202  2.4977
 2371SOL     OW18745   1.381   2.050   4.145  0.3928  0.0790  0.2588
 2371SOL    HW118746   1.423   2.133   4.167 -0.8571  0.4471  1.2383
 2371SOL    HW218747   1.297   2.053   4.191  0.3578 -1.8715  0.3604
 2372SOL     OW18748   4.017   0.881   8.137 -0.1199  0.0683  0.2524
 2372SOL    HW118749   4.016   0.924   8.223  0.3556 -0.1419  0.3662
 2372SOL    HW218750   4.110   0.894   8.116  0.3378 -2.0263  0.9682
 2373SOL     OW18751   2.329   2.764   7.929 -0.1515  0.2322  0.3204
 2373SOL    HW118752   2.324   2.826   8.002 -1.4306 -1.7415  1.9398
 2373SOL    HW218753   2.417   2.724   7.931  0.5837  2.0216  3.7789
 2374SOL     OW18754   1.575   3.581   2.611 -0.3494 -0.0119  0.0650
 2374SOL    HW118755   1.552   3.583   2.518  0.6080 -0.5636 -0.1830
 2374SOL    HW218756   1.645   3.645   2.622 -1.2111  1.1458 -1.1801
 2375SOL     OW18757   4.045   3.645   6.926  0.4252  0.2111  0.3322
 2375SOL    HW118758   3.983   3.622   6.994  0.1153  1.9248  0.6154
 2375SOL    HW218759   4.007   3.730   6.903 -0.5742 -0.7352 -1.5372
 2376SOL     OW18760   0.081   3.460   8.845 -0.4907 -0.4396 -0.1812
 2376SOL    HW118761   0.006   3.406   8.819 -0.3454 -1.4549  1.5672
 2376SOL    HW218762   0.160   3.406   8.839 -0.1765  0.1492 -1.4410
 2377SOL     OW18763   0.594   0.118   8.782 -0.2592 -0.1747  0.2663
 2377SOL    HW118764   0.593   0.042   8.724  0.6319  0.4284 -0.5412
 2377SOL    HW218765   0.529   0.092   8.847 -1.3777 -1.8252 -1.5096
 2378SOL     OW18766   3.579   3.018   8.031 -0.9092  0.0750 -0.2819
 2378SOL    HW118767   3.499   3.066   8.055  0.4063  0.9842  2.2634
 2378SOL    HW218768   3.627   3.019   8.114 -0.7445 -0.9410 -0.3630
 2379SOL     OW18769   2.029   4.542   1.526 -0.8744 -0.0723  0.5842
 2379SOL    HW118770   1.997   4.600   1.595 -0.1262  1.0239  0.0083
 2379SOL    HW218771   2.014   4.452   1.557 -0.9416 -0.4015 -0.4177
 2380SOL     OW18772   4.388   1.707   1.100  0.1200 -0.5112 -0.2007
 2380SOL    HW118773   4.381   1.776   1.034  3.0837  1.0277  1.0976
 2380SOL    HW218774   4.394   1.636   1.035  0.2290  1.0354 -1.8712
 2381SOL     OW18775   4.473   3.758  10.697 -0.7255  0.1148  0.1965
 2381SOL    HW118776   4.474   3.707  10.778 -0.0183  0.2729  0.2928
 2381SOL    HW218777   4.555   3.734  10.653 -0.9399  0.8174 -0.5893
 2382SOL     OW18778   0.988   2.195   4.229  0.1140 -0.3213 -0.5025
 2382SOL    HW118779   1.065   2.247   4.250 -0.2914 -0.7329  2.0017
 2382SOL    HW218780   0.921   2.264   4.235  0.5653 -0.2291  3.0782
 2383SOL     OW18781   3.948   0.474   6.384  0.2389  0.1185  0.1193
 2383SOL    HW118782   3.958   0.381   6.365 -0.0190  0.1078  0.0396
 2383SOL    HW218783   3.854   0.488   6.376  0.0001 -2.4558 -1.5930
 2384SOL     OW18784   4.197   0.852  13.952  0.2394  0.0045 -0.5857
 2384SOL    HW118785   4.122   0.823  13.900 -1.6574 -2.4787  3.5651
 2384SOL    HW218786   4.169   0.934  13.991 -2.9362 -0.3795 -2.0091
 2385SOL     OW18787   4.172   3.130  16.451 -0.9111  0.0604  0.3165
 2385SOL    HW118788   4.191   3.219  16.478 -5.1915  0.4684  1.9814
 2385SOL    HW218789   4.131   3.109  16.535 -1.2242 -1.7855 -0.2863
 2386SOL     OW18790   1.600   0.543   9.151 -0.3371  0.0251 -0.0140
 2386SOL    HW118791   1.528   0.523   9.211  1.6040  1.2525  2.7038
 2386SOL    HW218792   1.621   0.626   9.194  0.4419 -0.6508  0.8989
 2387SOL     OW18793   0.204   3.087   5.370 -0.1575  0.3515  0.0516
 2387SOL    HW118794   0.218   3.100   5.276 -1.9242  0.4976 -0.1947
 2387SOL    HW218795   0.289   3.101   5.411 -0.2421  1.6303 -0.2200
 2388SOL     OW18796   3.722   3.743   8.956 -0.5490 -0.9856  0.8936
 2388SOL    HW118797   3.632   3.754   8.925  0.6133  0.2005 -2.1468
 2388SOL    HW218798   3.704   3.702   9.040 -2.2613 -0.3016  0.8602
 2389SOL     OW18799   1.589   0.074   5.059 -0.2096 -0.0107 -0.2805
 2389SOL    HW118800   1.621   0.044   4.974  0.1100 -0.6498  0.0697
 2389SOL    HW218801   1.625   4.729   5.102  0.1644  0.9440  1.0960
 2390SOL     OW18802   3.925   2.095   6.983 -0.5427  0.0002 -0.1102
 2390SOL    HW118803   3.860   2.149   6.938  0.8210  1.0254 -0.8485
 2390SOL    HW218804   3.996   2.159   6.990  0.3652 -1.0311  0.2742
 2391SOL     OW18805   2.573   0.850   7.100 -0.1230 -0.0009  0.1739
 2391SOL    HW118806   2.558   0.943   7.118 -0.9965 -0.2588  0.8025
 2391SOL    HW218807   2.657   0.844   7.144 -0.4513 -0.5869  0.7008
 2392SOL     OW18808   4.579   0.645   0.491  0.7330 -0.2088 -0.0058
 2392SOL    HW118809   4.673   0.641   0.472  0.7260 -1.1106  0.1556
 2392SOL    HW218810   4.545   0.677   0.408 -0.2391 -0.6462  0.2217
 2393SOL     OW18811   1.076   1.324   8.630 -0.2071 -0.1775  0.0726
 2393SOL    HW118812   1.086   1.401   8.686  1.3683 -0.4512  0.1515
 2393SOL    HW218813   1.025   1.277   8.697 -1.1425  0.8014  0.0319
 2394SOL     OW18814   1.260   1.340   7.393 -0.1791 -0.0850  0.2567
 2394SOL    HW118815   1.354   1.329   7.388 -0.4381 -2.8231  1.5842
 2394SOL    HW218816   1.247   1.414   7.452  3.4592  1.2906 -0.6883
 2395SOL     OW18817   2.113   0.205   2.604  0.8527  0.2482 -0.2715
 2395SOL    HW118818   2.125   0.115   2.633 -1.5779 -1.2045 -3.8541
 2395SOL    HW218819   2.120   0.212   2.509 -0.7465  0.4096 -0.3865
 2396SOL     OW18820   1.832   0.279   8.209 -0.2665  0.3708 -0.9013
 2396SOL    HW118821   1.797   0.368   8.196  0.5351  0.7692 -0.2977
 2396SOL    HW218822   1.751   0.235   8.236  0.8317  1.3650  4.0619
 2397SOL     OW18823   4.435   3.387   7.116 -0.2278  0.4186  0.2393
 2397SOL    HW118824   4.416   3.429   7.200  0.7471  1.3541 -0.0022
 2397SOL    HW218825   4.351   3.354   7.086 -0.4387  1.8695 -0.7834
 2398SOL     OW18826   0.083   2.572   1.856  0.4162 -0.2969  0.4780
 2398SOL    HW118827   0.010   2.591   1.915 -0.3291 -1.4322 -0.0952
 2398SOL    HW218828   0.147   2.545   1.922  0.5383 -1.3535 -0.0773
 2399SOL     OW18829   0.286   0.924  12.601  0.2289 -0.0965 -0.1974
 2399SOL    HW118830   0.238   0.841  12.603 -0.9725  0.5969  0.2580
 2399SOL    HW218831   0.209   0.981  12.607  2.0953  2.3769  0.1317
 2400SOL     OW18832   1.075   1.369   1.732 -0.3644  0.5969 -0.0818
 2400SOL    HW118833   1.144   1.434   1.725 -1.3579  1.6369 -0.2845
 2400SOL    HW218834   1.026   1.393   1.653  0.6408  0.8560 -0.6167
 2401SOL     OW18835   2.393   1.094   5.475 -0.0368 -0.3282 -0.3868
 2401SOL    HW118836   2.339   1.015   5.472 -1.0643  0.4091 -1.8617
 2401SOL    HW218837   2.356   1.143   5.402 -1.7744 -1.7377 -0.4561
 2402SOL     OW18838   3.914   0.759   8.395  0.2977  0.5898 -0.3172
 2402SOL    HW118839   3.888   0.846   8.364 -3.1821 -0.0479  0.8022
 2402SOL    HW218840   3.980   0.786   8.459  1.3940 -0.0379 -1.1934
 2403SOL     OW18841   3.698   4.081  17.081 -0.9167  0.1740  0.0958
 2403SOL    HW118842   3.715   4.173  17.100 -0.0101 -0.2500  1.3367
 2403SOL    HW218843   3.691   4.037  17.165  0.1438 -0.9102 -0.3881
 2404SOL     OW18844   1.726   0.736   0.864  0.2276 -0.6943 -0.5339
 2404SOL    HW118845   1.676   0.722   0.783 -3.3551  0.9500  1.3546
 2404SOL    HW218846   1.710   0.656   0.915 -0.7644  1.7563  2.9908
 2405SOL     OW18847   1.884   4.250   8.223  0.0398  0.7905 -0.2770
 2405SOL    HW118848   1.926   4.296   8.151  0.0599 -2.2842 -2.2423
 2405SOL    HW218849   1.946   4.177   8.229 -1.1344 -0.2142 -0.2477
 2406SOL     OW18850   0.448   1.634   3.643 -0.2477  0.2063 -0.1787
 2406SOL    HW118851   0.471   1.677   3.725  1.5007  0.2862 -0.7044
 2406SOL    HW218852   0.416   1.710   3.595  1.7175  1.3259  0.2896
 2407SOL     OW18853   2.122   0.099   6.923  0.2218 -0.0661  0.1859
 2407SOL    HW118854   2.134   0.031   6.858  0.2356 -0.6112  0.7553
 2407SOL    HW218855   2.187   0.070   6.987 -0.5768 -0.9933  0.5732
 2408SOL     OW18856   1.603   1.203  17.406  0.2012 -0.5222 -0.3287
 2408SOL    HW118857   1.628   1.287  17.366 -1.0973  0.2359  0.4394
 2408SOL    HW218858   1.641   1.135  17.351 -4.2406 -3.6255  0.4879
 2409SOL     OW18859   1.625   0.773  13.207 -0.6004  0.1096 -0.4241
 2409SOL    HW118860   1.533   0.764  13.185 -0.5501 -1.0210 -0.1917
 2409SOL    HW218861   1.616   0.862  13.240  2.3160  0.7698 -1.3634
 2410SOL     OW18862   1.898   2.927  15.323  0.9118 -0.8974  0.8619
 2410SOL    HW118863   1.803   2.932  15.313  1.0663 -0.7227 -0.4947
 2410SOL    HW218864   1.912   2.868  15.397  1.7960 -0.2823  1.1804
 2411SOL     OW18865   0.667   3.732   0.632  0.1509  0.3370  0.0900
 2411SOL    HW118866   0.762   3.745   0.634  0.3341 -1.1247  0.4708
 2411SOL    HW218867   0.629   3.818   0.610 -1.0718  0.1582  1.5526
 2412SOL     OW18868   0.484   2.180   4.501 -0.4030  0.2641 -0.0021
 2412SOL    HW118869   0.433   2.260   4.513 -0.9978 -0.6051  3.1377
 2412SOL    HW218870   0.456   2.135   4.580  0.4360 -0.3735 -0.0616
 2413SOL     OW18871   0.087   4.586   4.831  0.2777  0.1106 -0.4714
 2413SOL    HW118872   0.046   4.517   4.777 -1.8511 -1.3992  3.0942
 2413SOL    HW218873   0.004   4.628   4.853  2.3248  2.3693  2.8858
 2414SOL     OW18874   3.132   3.135   2.677 -0.0480 -0.5475  0.0589
 2414SOL    HW118875   3.130   3.046   2.642 -1.5753 -0.9677  1.2236
 2414SOL    HW218876   3.204   3.163   2.620 -0.5632 -1.8298 -1.2270
 2415SOL     OW18877   3.461   1.474  17.076 -0.5483 -0.5700  0.4902
 2415SOL    HW118878   3.374   1.503  17.103  0.0674  1.8231 -0.0500
 2415SOL    HW218879   3.459   1.387  17.037  0.8415  0.8071 -2.6296
 2416SOL     OW18880   1.565   1.478   2.124  0.7834  0.2760  0.5002
 2416SOL    HW118881   1.553   1.567   2.157 -1.7233  0.6410 -1.4526
 2416SOL    HW218882   1.631   1.442   2.184 -0.7433 -0.2928  1.8354
 2417SOL     OW18883   1.245   3.914   7.415  0.1979 -0.5575 -0.3201
 2417SOL    HW118884   1.295   3.842   7.377 -2.6691 -1.5723 -2.1596
 2417SOL    HW218885   1.243   3.969   7.337  1.5678  2.3351  1.6900
 2418SOL     OW18886   3.157   2.653   6.278 -0.1725 -0.4223  0.1530
 2418SOL    HW118887   3.209   2.672   6.200 -0.3882  1.2212  0.3968
 2418SOL    HW218888   3.091   2.724   6.279  0.1578 -0.1081 -0.2023
 2419SOL     OW18889   4.233   4.325   2.148 -0.8243  0.3718 -0.0901
 2419SOL    HW118890   4.291   4.292   2.216 -1.2382  0.7648  0.4483
 2419SOL    HW218891   4.145   4.328   2.184 -1.2855 -2.7727 -0.9088
 2420SOL     OW18892   2.999   1.925  15.805  0.3435 -0.2871 -0.2654
 2420SOL    HW118893   2.928   1.989  15.794  0.3440 -0.3375 -0.5474
 2420SOL    HW218894   2.964   1.845  15.765  2.4743 -0.4559 -1.7486
 2421SOL     OW18895   4.006   0.255   6.191  0.1931 -0.0359 -0.1015
 2421SOL    HW118896   4.071   0.325   6.198  0.6501 -0.4583 -0.0623
 2421SOL    HW218897   4.063   0.179   6.208  0.4947 -0.2716 -2.1400
 2422SOL     OW18898   3.741   3.514  10.246  0.2871 -0.1358  1.0001
 2422SOL    HW118899   3.685   3.441  10.224  0.7439 -0.1414 -0.1610
 2422SOL    HW218900   3.807   3.511  10.177 -0.8154 -0.7863 -0.0091
 2423SOL     OW18901   1.349   0.516   5.991  0.1886 -0.0472  0.6433
 2423SOL    HW118902   1.299   0.448   6.037  1.8346 -2.8683 -1.7526
 2423SOL    HW218903   1.354   0.588   6.055 -0.0219  1.3446 -0.9154
 2424SOL     OW18904   1.338   2.653  10.480 -0.5737  0.0843  1.0214
 2424SOL    HW118905   1.337   2.635  10.574  2.4554  0.7920  1.1686
 2424SOL    HW218906   1.403   2.723  10.472 -2.4909  2.0504  2.5560
 2425SOL     OW18907   4.686   2.200   6.934 -0.4727  0.0468  0.5871
 2425SOL    HW118908   4.677   2.295   6.946 -0.5864  0.3043 -1.6726
 2425SOL    HW218909   4.711   2.171   7.022  0.6640  1.8169  0.8423
 2426SOL     OW18910   1.493   3.848  14.885  0.7576  0.2831 -0.6326
 2426SOL    HW118911   1.588   3.832  14.885  0.5746 -0.8002  0.6757
 2426SOL    HW218912   1.478   3.841  14.791  1.0184 -0.7809 -0.5964
 2427SOL     OW18913   1.399   1.896   3.364  0.4557 -0.3028  0.8034
 2427SOL    HW118914   1.473   1.942   3.324  0.8863 -0.5249  1.3505
 2427SOL    HW218915   1.431   1.807   3.379  0.5696 -0.3745  0.1113
 2428SOL     OW18916   2.351   3.476   1.851  0.3212  0.2019 -0.0079
 2428SOL    HW118917   2.263   3.515   1.856  0.4785  0.5024  0.4541
 2428SOL    HW218918   2.349   3.447   1.942 -1.5023  2.5278  0.7011
 2429SOL     OW18919   1.558   4.379   3.651  0.3689 -0.3105 -0.5554
 2429SOL    HW118920   1.526   4.455   3.698  0.5886  0.9662 -2.4932
 2429SOL    HW218921   1.491   4.385   3.584 -0.2855 -1.2501  0.0191
 2430SOL     OW18922   0.853   1.929   7.915 -0.1241 -0.3354 -0.1475
 2430SOL    HW118923   0.924   1.992   7.903 -0.1880 -0.1533  0.4219
 2430SOL    HW218924   0.820   1.932   7.825  0.3438  0.9441 -0.2733
 2431SOL     OW18925   0.417   3.072   2.009 -0.0779  0.5983 -0.2747
 2431SOL    HW118926   0.373   3.055   2.092 -3.0040 -0.8002 -2.1121
 2431SOL    HW218927   0.385   3.013   1.941 -0.8297  0.3603  0.2763
 2432SOL     OW18928   3.134   2.476  10.147 -0.2305 -0.0519 -0.1039
 2432SOL    HW118929   3.049   2.512  10.172 -0.9020  0.1369 -2.6105
 2432SOL    HW218930   3.165   2.458  10.235 -2.6026  1.8663  1.1072
 2433SOL     OW18931   3.705   1.752  15.900 -0.4530 -0.2908 -0.4793
 2433SOL    HW118932   3.673   1.677  15.849  0.4858 -0.9485 -0.1033
 2433SOL    HW218933   3.635   1.815  15.885 -0.7834 -0.8423 -1.2989
 2434SOL     OW18934   4.046   2.845  13.324  0.7402 -0.3036  0.2322
 2434SOL    HW118935   4.100   2.917  13.357  0.7446 -0.2084  0.0185
 2434SOL    HW218936   4.063   2.779  13.391 -2.1691  1.0985  2.3770
 2435SOL     OW18937   3.797   1.281   2.809  0.7287 -0.1462  0.1078
 2435SOL    HW118938   3.826   1.233   2.886 -1.5184 -2.3925 -0.4266
 2435SOL    HW218939   3.839   1.230   2.739  0.1451 -0.9714  0.3574
 2436SOL     OW18940   1.877   2.181   4.791  0.0246  0.6925 -0.1621
 2436SOL    HW118941   1.814   2.204   4.858 -0.6383 -0.8238 -0.2686
 2436SOL    HW218942   1.888   2.087   4.801 -1.4076  0.4049 -1.3533
 2437SOL     OW18943   2.066   4.176   3.992  0.3586  0.0271  0.3703
 2437SOL    HW118944   2.055   4.268   4.015  1.2956  0.3848 -0.6116
 2437SOL    HW218945   2.159   4.175   3.969  0.2445 -0.4136 -0.0714
 2438SOL     OW18946   2.156   2.120   2.784  0.4565 -0.2860 -0.2128
 2438SOL    HW118947   2.193   2.092   2.867 -2.5830 -0.6142  1.0311
 2438SOL    HW218948   2.108   2.042   2.756 -3.4869  2.3077 -0.6618
 2439SOL     OW18949   2.666   3.510   5.098  0.1876 -0.0087 -0.1847
 2439SOL    HW118950   2.699   3.579   5.040  0.3846 -0.1367 -0.2227
 2439SOL    HW218951   2.578   3.505   5.060  0.9916  0.0551 -2.0655
 2440SOL     OW18952   1.976   3.748  10.509 -0.2037  0.1391 -0.3945
 2440SOL    HW118953   1.919   3.796  10.448  0.4593  0.9305 -0.4003
 2440SOL    HW218954   2.058   3.798  10.503 -0.5803  0.5491 -2.2897
 2441SOL     OW18955   2.096   1.325  15.747  0.2577 -0.2740 -0.2758
 2441SOL    HW118956   2.051   1.379  15.812  0.2220  0.3302 -0.7933
 2441SOL    HW218957   2.175   1.376  15.730 -0.5958  1.0785 -0.2064
 2442SOL     OW18958   2.448   2.504   2.398  0.5272  0.4015 -0.0055
 2442SOL    HW118959   2.417   2.561   2.469 -0.4519 -0.2676  0.1020
 2442SOL    HW218960   2.371   2.494   2.342  0.5164  0.0291  0.0763
 2443SOL     OW18961   1.567   3.644   7.663 -0.0114  0.1587  0.5040
 2443SOL    HW118962   1.588   3.604   7.748  1.6595  0.2848  0.1537
 2443SOL    HW218963   1.495   3.587   7.636  0.4380 -0.9207  1.5765
 2444SOL     OW18964   0.187   2.514   4.936 -0.2094  0.2188  0.2137
 2444SOL    HW118965   0.192   2.572   4.859 -2.6470  2.6851  1.9007
 2444SOL    HW218966   0.265   2.460   4.923  1.1005  2.1061  0.2321
 2445SOL     OW18967   4.014   3.032  12.532  0.0078  0.1752  0.3622
 2445SOL    HW118968   3.945   3.097  12.545 -1.3011 -0.7954 -1.7906
 2445SOL    HW218969   3.988   2.955  12.582  2.6273 -0.8819  0.0973
 2446SOL     OW18970   2.507   0.883   2.427 -0.6064 -0.0345 -0.2700
 2446SOL    HW118971   2.474   0.856   2.512 -0.1274  1.1322  0.2858
 2446SOL    HW218972   2.556   0.962   2.448  0.1317 -0.7762  0.7836
 2447SOL     OW18973   2.275   2.229   3.759  0.2522 -0.7782 -0.1797
 2447SOL    HW118974   2.309   2.269   3.839 -0.6797 -2.8135  1.2419
 2447SOL    HW218975   2.312   2.284   3.690  0.9056 -1.3487 -0.2922
 2448SOL     OW18976   1.037   2.177  17.030  0.3562  0.4934 -0.0482
 2448SOL    HW118977   1.063   2.206  16.943  0.4171  0.4088 -0.0573
 2448SOL    HW218978   1.049   2.262  17.074  2.6753  1.1168 -1.8543
 2449SOL     OW18979   2.377   1.131   4.128 -0.0049 -0.1574  0.1900
 2449SOL    HW118980   2.351   1.046   4.095  1.8527 -0.3304 -0.8312
 2449SOL    HW218981   2.465   1.125   4.092 -0.4855  0.7558 -1.1194
 2450SOL     OW18982   4.381   4.058  16.976  0.3678  0.4391 -0.3511
 2450SOL    HW118983   4.293   4.083  17.002 -0.4093  0.0748 -2.5665
 2450SOL    HW218984   4.383   4.072  16.881 -0.8648  1.3610 -0.2369
 2451SOL     OW18985   1.190   3.852   0.207  0.6990 -0.0862  0.1925
 2451SOL    HW118986   1.165   3.785   0.270 -1.5350 -0.7976 -1.4717
 2451SOL    HW218987   1.244   3.906   0.265  0.4007 -0.6129  0.9602
 2452SOL     OW18988   2.673   1.609  14.330  0.0776 -0.6748  0.5381
 2452SOL    HW118989   2.661   1.607  14.235  0.8066 -1.8817  0.4788
 2452SOL    HW218990   2.658   1.702  14.349  0.8861 -0.4326 -0.0189
 2453SOL     OW18991   1.445   1.263   3.823  0.3173  0.3198 -0.2654
 2453SOL    HW118992   1.357   1.282   3.856  0.0293 -0.6454 -0.5007
 2453SOL    HW218993   1.456   1.184   3.876  0.7190 -0.7154 -1.9279
 2454SOL     OW18994   1.365   2.820   3.457  0.6411 -0.0826  0.2494
 2454SOL    HW118995   1.454   2.817   3.422  0.6325  1.6233  0.0706
 2454SOL    HW218996   1.358   2.729   3.486  0.8214 -0.4832 -0.9879
 2455SOL     OW18997   2.737   1.978   7.987 -0.1982  0.1746 -0.2917
 2455SOL    HW118998   2.711   2.065   7.957 -0.1144  0.4279  0.3764
 2455SOL    HW218999   2.829   1.976   7.959  0.0147 -1.8974  0.5298
 2456SOL     OW19000   1.620   0.612  17.083  0.0055 -0.2629 -0.6733
 2456SOL    HW119001   1.540   0.565  17.058 -1.1427 -0.1578  2.8025
 2456SOL    HW219002   1.657   0.623  16.995  1.3507  1.0582  0.0604
 2457SOL     OW19003   3.304   3.801   7.316  0.1759 -0.2408 -0.3103
 2457SOL    HW119004   3.307   3.723   7.371  2.9117 -0.1725 -0.3716
 2457SOL    HW219005   3.349   3.868   7.367  0.5617  0.6808 -1.8404
 2458SOL     OW19006   0.739   0.637   8.463  0.4276 -0.6954  0.0128
 2458SOL    HW119007   0.671   0.704   8.454  1.5349  0.3423 -0.5744
 2458SOL    HW219008   0.800   0.670   8.529  0.4364  0.7310 -0.6961
 2459SOL     OW19009   0.537   1.873   5.409 -0.2303  0.0579 -0.5478
 2459SOL    HW119010   0.523   1.897   5.501  0.4095  1.4453 -0.8107
 2459SOL    HW219011   0.629   1.896   5.396  0.6314 -1.1994  3.3322
 2460SOL     OW19012   0.878   4.660   8.699 -0.6172  0.0875 -0.0794
 2460SOL    HW119013   0.861   4.645   8.792  1.1438  1.9214  0.5565
 2460SOL    HW219014   0.792   4.631   8.669 -0.5455  0.8036 -0.9723
 2461SOL     OW19015   3.672   3.578  16.631  0.2388 -0.5503 -0.0169
 2461SOL    HW119016   3.736   3.644  16.659 -2.0547  2.7069 -2.3303
 2461SOL    HW219017   3.636   3.560  16.717  1.7016  0.7897  0.8882
 2462SOL     OW19018   2.121   3.791   7.680  0.5248  0.1096 -0.1624
 2462SOL    HW119019   2.138   3.798   7.586  0.3878  0.4749 -0.1591
 2462SOL    HW219020   2.184   3.859   7.703  0.0850  0.2871  0.4881
 2463SOL     OW19021   3.644   2.207   6.854  0.1701 -0.0484  0.6115
 2463SOL    HW119022   3.584   2.260   6.905 -0.8187 -1.9055  1.3629
 2463SOL    HW219023   3.617   2.230   6.765  2.1684  3.8298  0.9597
 2464SOL     OW19024   2.850   1.135   7.243  0.2915 -0.5844 -0.0588
 2464SOL    HW119025   2.858   1.166   7.333  0.8670 -3.4494  0.8593
 2464SOL    HW219026   2.756   1.121   7.233 -0.3322  2.9373  0.6603
 2465SOL     OW19027   1.330   1.615   7.488  0.1977  0.4348 -0.2387
 2465SOL    HW119028   1.395   1.684   7.494  0.0822  0.5122  0.1297
 2465SOL    HW219029   1.330   1.588   7.580 -0.1024 -1.4002 -0.7667
 2466SOL     OW19030   2.374   4.342   6.888  0.0522 -0.3141 -0.0129
 2466SOL    HW119031   2.396   4.357   6.797  1.3699  1.8584  0.6691
 2466SOL    HW219032   2.427   4.265   6.906 -0.3454 -0.6646 -0.3492
 2467SOL     OW19033   3.464   2.284   2.766  0.4761  0.4150  0.1562
 2467SOL    HW119034   3.458   2.369   2.722  0.9885  0.7918  0.8161
 2467SOL    HW219035   3.549   2.288   2.811  0.6167  1.0465 -0.1619
 2468SOL     OW19036   0.271   3.014   8.730 -0.1780  0.5151  0.0213
 2468SOL    HW119037   0.284   3.005   8.636 -0.9200  0.1636 -0.0531
 2468SOL    HW219038   0.339   2.952   8.758  0.5073  1.2257 -0.0878
 2469SOL     OW19039   0.228   1.269  16.437  0.2286 -0.1640  0.4392
 2469SOL    HW119040   0.236   1.326  16.361 -2.4670 -1.8633 -1.1175
 2469SOL    HW219041   0.321   1.256  16.452  0.3698 -1.0336 -1.2735
 2470SOL     OW19042   3.563   0.517   2.963  0.3601  0.9468  0.0781
 2470SOL    HW119043   3.577   0.610   2.982 -1.1653  1.3712 -0.7939
 2470SOL    HW219044   3.565   0.517   2.867 -1.7793 -0.7019  0.0380
 2471SOL     OW19045   3.726   2.766   6.282 -0.3235 -0.0298 -0.5052
 2471SOL    HW119046   3.695   2.828   6.348  2.1864  0.4171  0.2539
 2471SOL    HW219047   3.686   2.783   6.197  0.0323  1.3558 -0.3867
 2472SOL     OW19048   3.438   1.255   7.228  0.2597 -0.7540  0.2135
 2472SOL    HW119049   3.481   1.173   7.252 -0.7490 -0.6885  2.2920
 2472SOL    HW219050   3.396   1.282   7.309  1.7182 -2.3771  1.5198
 2473SOL     OW19051   0.774   2.842   0.338  0.4446 -0.2974 -0.5527
 2473SOL    HW119052   0.781   2.847   0.243 -0.7742 -1.1259 -0.6943
 2473SOL    HW219053   0.684   2.876   0.348  0.4318 -1.3385  2.9262
 2474SOL     OW19054   3.620   1.058   5.918 -0.6050  0.2295  0.2148
 2474SOL    HW119055   3.527   1.048   5.937 -0.4044 -0.9666  0.5495
 2474SOL    HW219056   3.651   1.021   6.001  0.4928  1.9572  0.5607
 2475SOL     OW19057   0.726   0.565   3.232 -0.5063 -0.7716  0.5059
 2475SOL    HW119058   0.709   0.490   3.290  0.9242 -1.1296  0.4644
 2475SOL    HW219059   0.816   0.581   3.257 -1.0880 -1.6896  3.1321
 2476SOL     OW19060   0.355   0.558   1.125 -0.6516  0.5857  0.1803
 2476SOL    HW119061   0.336   0.522   1.039  4.1874 -1.7614  0.1040
 2476SOL    HW219062   0.294   0.506   1.178 -2.2254 -0.1752 -2.4302
 2477SOL     OW19063   1.888   1.350   1.719 -0.3463 -0.2510 -0.6438
 2477SOL    HW119064   1.918   1.346   1.810  0.8642 -0.2421 -1.0515
 2477SOL    HW219065   1.948   1.303   1.661  1.7695 -0.2730  1.5473
 2478SOL     OW19066   4.628   0.754   6.093  0.2712  0.3716 -0.5176
 2478SOL    HW119067   4.669   0.669   6.107 -0.1318  0.3780  0.7476
 2478SOL    HW219068   4.708   0.807   6.099 -0.3397  1.4633 -2.1506
 2479SOL     OW19069   0.379   3.705  15.685 -0.7010 -0.2832 -0.2164
 2479SOL    HW119070   0.454   3.758  15.712 -0.1317 -0.4651 -1.4331
 2479SOL    HW219071   0.337   3.702  15.771  1.2411 -1.6286  0.7003
 2480SOL     OW19072   1.701   2.143   7.810 -0.3900  0.2748 -0.0896
 2480SOL    HW119073   1.755   2.189   7.875  3.7314 -1.5662 -2.2220
 2480SOL    HW219074   1.723   2.195   7.733  2.0961 -1.7464 -0.7633
 2481SOL     OW19075   0.256   1.997   7.055  0.5766  0.4206 -0.1823
 2481SOL    HW119076   0.344   1.961   7.054  0.2097 -0.4484 -0.8410
 2481SOL    HW219077   0.208   1.916   7.039 -0.2624  0.5811  1.4872
 2482SOL     OW19078   0.416   2.887   6.257 -0.2081 -0.3965  0.0465
 2482SOL    HW119079   0.368   2.888   6.340  0.6565 -1.5049  0.5577
 2482SOL    HW219080   0.507   2.899   6.283 -1.1469  0.8967  2.8127
 2483SOL     OW19081   4.305   0.815   7.858  0.6540 -0.0361 -0.1546
 2483SOL    HW119082   4.214   0.813   7.888 -0.1433 -1.8966 -2.6629
 2483SOL    HW219083   4.349   0.739   7.895 -0.7058 -0.7948 -0.1068
 2484SOL     OW19084   4.044   2.536   5.911 -0.0182  0.2469  0.0918
 2484SOL    HW119085   4.121   2.587   5.936  1.1359 -1.5167  0.0919
 2484SOL    HW219086   4.018   2.594   5.839  0.3015 -1.1717 -1.1463
 2485SOL     OW19087   1.430   2.046   0.759 -0.4577 -0.2142  0.3625
 2485SOL    HW119088   1.459   1.985   0.692 -1.2739 -0.9078  0.6442
 2485SOL    HW219089   1.365   2.093   0.707  0.9250  1.1354 -0.1532
 2486SOL     OW19090   4.658   2.818   4.627 -0.3781 -0.3220 -0.1767
 2486SOL    HW119091   4.665   2.771   4.544  2.5706 -0.6324  0.2767
 2486SOL    HW219092   4.598   2.762   4.676 -0.0897  0.6609  1.2847
 2487SOL     OW19093   2.046   1.788   7.609  0.5669  0.3785  0.2667
 2487SOL    HW119094   1.993   1.749   7.679  1.3908  1.9691  1.7893
 2487SOL    HW219095   1.994   1.745   7.542 -0.9887 -0.2760  1.8921
 2488SOL     OW19096   1.258   1.182   4.398 -0.3464 -0.2275  0.7153
 2488SOL    HW119097   1.349   1.195   4.371 -1.4311  0.3796 -2.6542
 2488SOL    HW219098   1.267   1.176   4.493  2.3818  1.4916  0.5603
 2489SOL     OW19099   2.200   3.567   7.014 -0.1379 -0.1047 -0.1967
 2489SOL    HW119100   2.292   3.589   6.996 -1.0983  3.8447 -0.3836
 2489SOL    HW219101   2.180   3.608   7.098 -0.5296 -0.0266 -0.3278
 2490SOL     OW19102   1.144   2.133   0.373  0.9034  0.4147  0.5993
 2490SOL    HW119103   1.157   2.096   0.286 -2.8143 -0.4940  0.4509
 2490SOL    HW219104   1.104   2.217   0.349 -2.0219 -0.4457  2.5540
 2491SOL     OW19105   2.535   1.976  12.954 -0.0675  0.1469  0.3203
 2491SOL    HW119106   2.525   2.046  13.018 -0.5686 -1.1289  1.6462
 2491SOL    HW219107   2.597   1.926  13.006 -0.5018 -0.9707 -0.2343
 2492SOL     OW19108   2.971   3.749   3.085  0.1124  0.5471  0.0427
 2492SOL    HW119109   2.982   3.658   3.112 -4.5041  0.3186  1.1598
 2492SOL    HW219110   2.904   3.792   3.138 -1.1995  0.2033 -1.3516
 2493SOL     OW19111   0.134   2.927   5.605 -0.5794 -0.1650  0.1833
 2493SOL    HW119112   0.110   3.010   5.564  0.5990  0.9244  1.6928
 2493SOL    HW219113   0.210   2.904   5.551 -0.5078  0.5704 -0.0204
 2494SOL     OW19114   1.681   0.973   1.561 -0.1246 -0.5987  0.9450
 2494SOL    HW119115   1.598   0.955   1.517  0.0569 -0.2350  0.4558
 2494SOL    HW219116   1.725   1.022   1.492 -1.2389 -2.1714 -0.8675
 2495SOL     OW19117   0.297   0.833   1.935  0.0113  0.2663  0.6244
 2495SOL    HW119118   0.392   0.825   1.938  0.1441  1.3708 -0.5603
 2495SOL    HW219119   0.275   0.748   1.974  1.0387 -1.0935 -1.7578
 2496SOL     OW19120   4.534   0.687  11.071  0.1943  0.6190  0.3473
 2496SOL    HW119121   4.615   0.645  11.043 -1.2759 -0.3650 -2.4956
 2496SOL    HW219122   4.538   0.771  11.025  3.8397  0.2249 -0.0322
 2497SOL     OW19123   1.843   3.967   0.999 -0.0529  0.0292  0.1670
 2497SOL    HW119124   1.807   4.050   1.030  0.4760 -0.1768  1.3443
 2497SOL    HW219125   1.882   4.002   0.919  1.0001  1.3116  1.2204
 2498SOL     OW19126   3.860   0.047   2.648  0.2125 -0.0360  0.9920
 2498SOL    HW119127   3.823   0.087   2.727  0.6060  0.6451  0.8393
 2498SOL    HW219128   3.826   4.690   2.647 -2.0281  0.8516 -1.3070
 2499SOL     OW19129   0.864   1.852   5.576  0.1244  0.1120  0.5315
 2499SOL    HW119130   0.796   1.810   5.629  0.0245 -0.2092  0.1497
 2499SOL    HW219131   0.934   1.787   5.568 -0.7151 -0.5512 -1.2991
 2500SOL     OW19132   0.892   2.411   3.877  0.1342  0.2599 -0.1051
 2500SOL    HW119133   0.826   2.431   3.944  0.2756 -2.2878  0.8207
 2500SOL    HW219134   0.938   2.493   3.862 -0.5872  0.2687 -2.1701
 2501SOL     OW19135   2.365   2.263   5.841  0.1085  0.6104  0.2478
 2501SOL    HW119136   2.277   2.269   5.803  1.2289 -0.3795 -2.5073
 2501SOL    HW219137   2.420   2.280   5.764 -0.9534  2.6802 -0.0743
 2502SOL     OW19138   3.883   4.594   5.117 -0.4457  0.2840 -0.0730
 2502SOL    HW119139   3.891   4.689   5.126  1.1508  0.0238  1.2760
 2502SOL    HW219140   3.841   4.598   5.031  1.5828  0.7274 -1.0393
 2503SOL     OW19141   1.835   2.567   0.813 -0.1389  0.5262  0.0654
 2503SOL    HW119142   1.740   2.579   0.810  0.1608  3.2839  1.9229
 2503SOL    HW219143   1.865   2.606   0.895 -1.0386 -0.9054  1.0877
 2504SOL     OW19144   2.314   1.149   4.987 -0.1658 -0.0136 -0.7997
 2504SOL    HW119145   2.359   1.168   4.905  1.9015 -0.3767  0.2322
 2504SOL    HW219146   2.316   1.053   4.989  1.2844  0.0687  2.1074
 2505SOL     OW19147   3.193   2.900   2.557  0.2151  0.4887 -0.4585
 2505SOL    HW119148   3.118   2.840   2.553 -0.2821  1.1202 -0.6670
 2505SOL    HW219149   3.252   2.856   2.495  0.8631  2.1039 -0.9887
 2506SOL     OW19150   2.538   2.551  16.405 -0.1381 -0.1561 -0.2954
 2506SOL    HW119151   2.534   2.646  16.416  2.8510 -0.1529  0.9152
 2506SOL    HW219152   2.552   2.545  16.311  1.9308  0.2513 -0.0171
 2507SOL     OW19153   1.421   1.261  10.878  0.5960  0.3214  0.6562
 2507SOL    HW119154   1.360   1.262  10.805  1.0979  0.2207  0.2380
 2507SOL    HW219155   1.447   1.353  10.880 -1.0403  0.8492 -1.8886
 2508SOL     OW19156   0.780   4.069   7.766 -0.5082  0.2490  0.3340
 2508SOL    HW119157   0.855   4.028   7.810  1.7347  2.4467 -1.4645
 2508SOL    HW219158   0.765   3.998   7.703  1.2083  0.3293 -0.1550
 2509SOL     OW19159   1.109   3.379  11.145 -0.8591 -0.0405  0.0584
 2509SOL    HW119160   1.126   3.382  11.051  0.1925 -1.3291  0.2127
 2509SOL    HW219161   1.202   3.362  11.159 -0.9366 -1.0931 -0.7397
 2510SOL     OW19162   3.739   3.567   1.706 -0.0980 -0.2924 -0.5121
 2510SOL    HW119163   3.823   3.570   1.751  0.2421  0.0900 -1.1622
 2510SOL    HW219164   3.761   3.597   1.618  1.4585  0.2624  0.0765
 2511SOL     OW19165   2.681   4.489   1.232  0.2577  0.0588  0.1782
 2511SOL    HW119166   2.602   4.524   1.191 -0.3590  1.7844  2.8547
 2511SOL    HW219167   2.683   4.398   1.201 -0.0491  0.8111 -2.0555
 2512SOL     OW19168   1.987   1.150   7.722  0.1693 -0.3434  0.1687
 2512SOL    HW119169   2.000   1.057   7.703  0.4150 -0.4486  0.8413
 2512SOL    HW219170   1.947   1.143   7.809 -3.0085  0.2828 -1.2575
 2513SOL     OW19171   2.053   2.529   9.441 -0.4897 -0.0722 -0.2247
 2513SOL    HW119172   2.048   2.614   9.397  0.8100 -0.2672 -0.7659
 2513SOL    HW219173   2.125   2.541   9.504 -0.4021  2.3728 -0.7746
 2514SOL     OW19174   3.621   3.988   8.009  0.5249 -0.1326  0.1101
 2514SOL    HW119175   3.572   3.935   7.946  0.8433 -0.6702  0.3207
 2514SOL    HW219176   3.691   4.025   7.955 -1.1490  0.2047 -1.8445
 2515SOL     OW19177   3.984   3.464  15.636 -1.2269  0.3206 -0.4331
 2515SOL    HW119178   3.930   3.403  15.687  1.0838  0.5933  2.3205
 2515SOL    HW219179   3.952   3.445  15.548  2.1765 -1.3685 -1.2833
 2516SOL     OW19180   3.466   4.620   2.810 -0.4042 -0.4954  0.1828
 2516SOL    HW119181   3.407   4.607   2.736  0.9622 -1.9729 -0.6462
 2516SOL    HW219182   3.543   4.593   2.760 -0.8616 -0.6141 -0.4599
 2517SOL     OW19183   2.358   2.413  10.937 -0.0703  0.0883 -0.0647
 2517SOL    HW119184   2.380   2.326  10.904 -0.4307 -0.0278 -0.0007
 2517SOL    HW219185   2.409   2.421  11.018  1.2331 -1.0266 -0.7979
 2518SOL     OW19186   3.180   3.762   7.840 -0.4176 -0.2238  0.1143
 2518SOL    HW119187   3.116   3.808   7.785 -1.9111 -1.2449  1.0104
 2518SOL    HW219188   3.170   3.792   7.930  0.9512  0.4734  0.0293
 2519SOL     OW19189   4.687   0.164   3.250 -0.7133 -0.0499 -0.1122
 2519SOL    HW119190   4.648   0.151   3.164  2.9886 -0.3207 -1.7360
 2519SOL    HW219191   4.617   0.130   3.305 -1.4859  0.5115 -0.7622
 2520SOL     OW19192   0.749   3.725   6.054 -0.3233 -0.3292 -0.4780
 2520SOL    HW119193   0.661   3.689   6.066 -0.0622 -0.9494 -0.3956
 2520SOL    HW219194   0.744   3.759   5.965  0.9986  1.8707  0.2954
 2521SOL     OW19195   1.165   2.682   5.408  0.2272  0.2670  0.1799
 2521SOL    HW119196   1.190   2.769   5.439  1.6772 -0.0086 -0.2364
 2521SOL    HW219197   1.147   2.637   5.491 -4.5348  1.8218  0.0025
 2522SOL     OW19198   3.996   0.786   3.920  0.2247  0.5633 -0.2646
 2522SOL    HW119199   4.041   0.735   3.853 -0.6244 -2.3868  1.4016
 2522SOL    HW219200   3.907   0.794   3.887 -0.1722 -1.5065  0.3094
 2523SOL     OW19201   2.344   4.246   1.878 -0.1104 -0.0287  0.0181
 2523SOL    HW119202   2.335   4.188   1.953 -0.1838  1.8925  1.4894
 2523SOL    HW219203   2.274   4.222   1.817 -0.0834  0.5923 -0.2537
 2524SOL     OW19204   4.076   0.482   7.964 -0.2519 -0.2098 -0.2854
 2524SOL    HW119205   4.164   0.515   7.949 -0.5352  0.7042  0.0968
 2524SOL    HW219206   4.025   0.548   7.918 -0.1221 -0.6727 -1.1065
 2525SOL     OW19207   2.453   2.386   3.480  0.0215 -0.1433 -0.5758
 2525SOL    HW119208   2.379   2.445   3.468  0.6561  0.5779 -0.9624
 2525SOL    HW219209   2.469   2.362   3.389  2.2001  1.4564 -0.6088
 2526SOL     OW19210   3.910   0.440   2.783  0.2624 -0.0196  0.3591
 2526SOL    HW119211   3.921   0.482   2.868 -1.3717 -0.6606  0.8869
 2526SOL    HW219212   3.843   0.501   2.755  0.6816  0.8605  1.2561
 2527SOL     OW19213   2.419   1.473   2.669  0.3611 -0.0757  0.2129
 2527SOL    HW119214   2.401   1.557   2.711 -2.7282 -0.4924 -0.2977
 2527SOL    HW219215   2.502   1.446   2.709  0.7088  1.2510  0.4102
 2528SOL     OW19216   3.752   1.344   5.906  0.4087 -0.1421  0.1644
 2528SOL    HW119217   3.706   1.268   5.940 -0.3383 -0.0385 -0.6277
 2528SOL    HW219218   3.683   1.410   5.916  1.1180  0.4741  1.1072
 2529SOL     OW19219   4.379   4.333  13.923  0.4152 -0.4115 -0.1548
 2529SOL    HW119220   4.324   4.257  13.902 -1.5931  0.7577  0.8820
 2529SOL    HW219221   4.378   4.378  13.838  1.0436 -2.2689 -1.1517
 2530SOL     OW19222   4.016   0.233   5.897  0.3860 -0.3193  0.4435
 2530SOL    HW119223   3.969   0.227   5.980  0.7005 -2.4390  0.4687
 2530SOL    HW219224   3.987   0.319   5.865 -0.9579 -0.8984  0.0752
 2531SOL     OW19225   2.024   4.575   5.778 -0.7711 -0.3909 -0.4582
 2531SOL    HW119226   1.995   4.484   5.785 -1.6638  0.0840  1.9808
 2531SOL    HW219227   2.117   4.581   5.800 -1.0938 -0.9679  1.0505
 2532SOL     OW19228   3.408   0.859   8.158  0.0932  0.1349 -0.0208
 2532SOL    HW119229   3.319   0.875   8.188  0.8500  0.9095  1.8061
 2532SOL    HW219230   3.429   0.941   8.114  1.9543 -1.3382 -1.9093
 2533SOL     OW19231   4.157   4.620   9.064 -0.3847 -0.1739  0.2725
 2533SOL    HW119232   4.132   4.570   8.986 -0.3905 -1.3130  1.0018
 2533SOL    HW219233   4.105   4.581   9.134 -1.5920 -0.7264 -0.9224
 2534SOL     OW19234   3.938   2.835   0.417  0.1632 -0.0903 -0.3032
 2534SOL    HW119235   3.963   2.782   0.493  1.0086 -2.4007 -2.1743
 2534SOL    HW219236   3.999   2.908   0.423  0.3533 -0.1874 -1.0354
 2535SOL     OW19237   1.082   1.768   7.808 -0.1534 -0.9249  0.6923
 2535SOL    HW119238   1.097   1.769   7.713  0.9437  2.7835  0.9066
 2535SOL    HW219239   0.994   1.805   7.813  0.9018  1.8283 -0.9015
 2536SOL     OW19240   0.605   3.092   5.921 -0.0803  0.0550  0.6070
 2536SOL    HW119241   0.585   3.004   5.954  2.5662 -0.5334  0.5840
 2536SOL    HW219242   0.630   3.069   5.832  2.2488 -1.4515  1.6406
 2537SOL     OW19243   3.267   3.784  14.332 -0.5585 -0.2179 -0.5506
 2537SOL    HW119244   3.182   3.741  14.321 -1.8540  2.3401 -0.4233
 2537SOL    HW219245   3.269   3.831  14.249 -1.1884 -0.2851 -0.6057
 2538SOL     OW19246   2.686   2.589   3.491 -0.5506  0.4944  0.0827
 2538SOL    HW119247   2.620   2.537   3.536 -0.5320  0.3917 -0.0083
 2538SOL    HW219248   2.739   2.618   3.566  0.9629  0.1457 -0.8498
 2539SOL     OW19249   3.821   1.116  17.424  0.3241 -0.1891  0.2115
 2539SOL    HW119250   3.834   1.125  17.519 -1.8975  3.0430  0.1997
 2539SOL    HW219251   3.872   1.191  17.393 -0.7759  0.3359 -0.3235
 2540SOL     OW19252   1.838   3.307   8.084  0.1088  0.3115 -0.0312
 2540SOL    HW119253   1.749   3.296   8.116  0.6702  2.2046  2.1253
 2540SOL    HW219254   1.829   3.260   8.000  0.1045  2.0353 -1.0020
 2541SOL     OW19255   1.114   3.805  10.592 -0.4019  0.0978 -0.1733
 2541SOL    HW119256   1.064   3.862  10.533  0.2577  2.0776  1.1544
 2541SOL    HW219257   1.189   3.780  10.538  0.7265  1.5596  0.7129
 2542SOL     OW19258   1.507   0.251   0.102  0.3744  0.2619 -0.3374
 2542SOL    HW119259   1.492   0.279   0.012 -1.3116 -1.3066 -0.5569
 2542SOL    HW219260   1.511   0.156   0.094  0.7504  0.0286  2.4520
 2543SOL     OW19261   3.729   4.147   4.116  0.8918 -0.0364  0.4595
 2543SOL    HW119262   3.726   4.129   4.210  0.3625  0.7950  0.6057
 2543SOL    HW219263   3.636   4.131   4.098  1.0430  1.0442 -1.1915
 2544SOL     OW19264   2.789   0.660  16.598 -0.4762  0.0399  0.3176
 2544SOL    HW119265   2.741   0.584  16.631  0.3449 -0.5874  0.0695
 2544SOL    HW219266   2.773   0.664  16.503  2.4094  4.3809  0.0162
 2545SOL     OW19267   4.087   1.083   3.247 -0.2633  0.5700 -0.0610
 2545SOL    HW119268   4.180   1.098   3.232 -0.3401  0.2224 -0.8817
 2545SOL    HW219269   4.091   0.994   3.282 -2.3562 -0.0153 -1.2701
 2546SOL     OW19270   3.742   3.097  10.976 -0.2559  0.7408  0.1658
 2546SOL    HW119271   3.824   3.105  10.927 -0.6025  0.4515 -0.4554
 2546SOL    HW219272   3.770   3.096  11.068  0.0495 -0.9783  0.0439
 2547SOL     OW19273   3.600   1.307   4.923  0.0508 -0.0671  0.1901
 2547SOL    HW119274   3.559   1.350   4.848 -1.5448  0.6152  1.4479
 2547SOL    HW219275   3.573   1.359   5.000  1.7524 -0.2924  0.9365
 2548SOL     OW19276   3.813   1.958   7.167  0.1825 -0.1735 -0.1994
 2548SOL    HW119277   3.807   1.883   7.108 -0.5522 -1.3104  1.3141
 2548SOL    HW219278   3.837   2.018   7.096 -0.6902  0.2455 -0.1325
 2549SOL     OW19279   3.796   1.557  14.374  0.5837  0.1021 -0.1725
 2549SOL    HW119280   3.759   1.600  14.297  0.5841 -0.6076 -0.5691
 2549SOL    HW219281   3.714   1.549  14.423  0.4569 -0.6921 -0.5185
 2550SOL     OW19282   1.545   1.365   9.207  0.4421 -0.1465  0.4407
 2550SOL    HW119283   1.553   1.296   9.141 -1.1528 -1.4033  1.5527
 2550SOL    HW219284   1.452   1.387   9.211  0.3464 -0.5146  0.2213
 2551SOL     OW19285   4.088   1.118   5.110 -0.3642 -0.4043  0.0992
 2551SOL    HW119286   4.068   1.177   5.037 -1.7582  1.3646  1.9155
 2551SOL    HW219287   4.075   1.175   5.186 -0.3194 -1.8277  1.1658
 2552SOL     OW19288   4.169   3.334   5.940 -0.8626  0.6638  0.2555
 2552SOL    HW119289   4.106   3.407   5.941 -0.3527  1.1262 -1.4065
 2552SOL    HW219290   4.175   3.311   5.848  0.4092  1.0243  0.2551
 2553SOL     OW19291   0.205   0.850   2.591 -0.0792 -0.6917 -0.1582
 2553SOL    HW119292   0.128   0.898   2.562  0.2681  0.6397  1.1282
 2553SOL    HW219293   0.254   0.864   2.510  0.9470 -1.8698  0.2499
 2554SOL     OW19294   0.879   0.186   5.479  0.2853  0.2821 -0.2160
 2554SOL    HW119295   0.794   0.222   5.456  0.2701 -2.2332 -4.1825
 2554SOL    HW219296   0.916   0.169   5.392 -0.0767 -1.0757 -0.1106
 2555SOL     OW19297   4.731   2.254   0.116  0.1159 -0.5713  0.2227
 2555SOL    HW119298   4.656   2.305   0.146  0.9616  2.6629 -3.1916
 2555SOL    HW219299   4.694   2.178   0.161 -0.8674 -0.2090  0.0285
 2556SOL     OW19300   1.165   1.773   6.879  0.8748 -0.0024 -0.1501
 2556SOL    HW119301   1.096   1.784   6.813 -0.3696 -0.3996  1.1068
 2556SOL    HW219302   1.213   1.855   6.862  3.5637 -1.0304  2.5145
 2557SOL     OW19303   2.660   3.218  16.738 -0.1956  0.2917  0.5008
 2557SOL    HW119304   2.682   3.304  16.774 -1.8714  1.0896 -0.3164
 2557SOL    HW219305   2.597   3.229  16.666 -0.3907  0.2813  0.6682
 2558SOL     OW19306   1.128   0.122  17.457  1.0302 -0.5016 -0.6021
 2558SOL    HW119307   1.105   0.167  17.375 -0.0810  0.0530  0.0310
 2558SOL    HW219308   1.047   0.080  17.483  0.0965  1.8694  0.2907
 2559SOL     OW19309   0.704   1.283   3.156 -0.4688 -0.4048 -0.1149
 2559SOL    HW119310   0.708   1.190   3.178  1.1059 -0.4849 -0.7549
 2559SOL    HW219311   0.782   1.309   3.206  0.2949 -2.2858 -0.3447
 2560SOL     OW19312   1.780   4.628   4.083 -0.1236 -0.3891 -0.5963
 2560SOL    HW119313   1.761   4.657   3.994 -1.1188 -1.9389 -0.8869
 2560SOL    HW219314   1.761   4.708   4.132 -0.4172 -1.2759  0.7115
 2561SOL     OW19315   0.028   3.998   4.723  0.0297 -0.7457 -0.7442
 2561SOL    HW119316   4.722   3.912   4.740 -2.4922  0.4037 -0.6831
 2561SOL    HW219317   4.705   4.045   4.786 -0.2564 -0.0734 -1.5087
 2562SOL     OW19318   3.175   4.515  17.687 -0.1988 -0.3317 -0.0084
 2562SOL    HW119319   3.231   4.560  17.625 -0.0755  0.9535  1.0295
 2562SOL    HW219320   3.108   4.486  17.625 -3.5735 -0.5437  3.7193
 2563SOL     OW19321   2.864   2.460   6.931  0.0605  0.0455  0.1148
 2563SOL    HW119322   2.863   2.367   6.909 -2.5561  0.7537 -2.7304
 2563SOL    HW219323   2.774   2.472   6.961 -0.5179 -1.6587 -0.9306
 2564SOL     OW19324   1.372   2.730   2.778 -0.4083 -0.0593 -0.9934
 2564SOL    HW119325   1.338   2.806   2.825 -1.9023  0.6111 -3.1428
 2564SOL    HW219326   1.319   2.739   2.699  0.0326 -0.9099 -1.3900
 2565SOL     OW19327   0.670   1.993   0.543 -0.1389  0.0283 -0.1764
 2565SOL    HW119328   0.622   2.048   0.605 -0.1301 -0.1334 -0.0252
 2565SOL    HW219329   0.744   1.980   0.603 -2.6305  2.3459  3.3875
 2566SOL     OW19330   0.978   4.004   4.286  0.4991 -0.1869  0.7231
 2566SOL    HW119331   0.925   4.042   4.216 -1.4589 -0.2309  2.1751
 2566SOL    HW219332   0.988   4.079   4.346  2.3818 -1.1888  1.6748
 2567SOL     OW19333   2.840   2.570   7.903 -0.1254  0.2687 -0.1678
 2567SOL    HW119334   2.870   2.484   7.932 -2.8003  0.2079  2.3992
 2567SOL    HW219335   2.827   2.600   7.993  0.9060  0.3826 -0.0645
 2568SOL     OW19336   2.202   4.301   5.509  1.0165 -0.1735  0.3245
 2568SOL    HW119337   2.273   4.365   5.505 -0.1968  1.0357 -1.8809
 2568SOL    HW219338   2.228   4.243   5.437  0.3792 -1.2250  0.9485
 2569SOL     OW19339   4.298   3.603   3.467  0.2058 -0.1143  0.5249
 2569SOL    HW119340   4.259   3.555   3.395  2.1257  0.1202 -0.6601
 2569SOL    HW219341   4.298   3.692   3.431  2.8299 -0.1883  0.3389
 2570SOL     OW19342   1.892   2.789  13.059 -0.2816  0.0986  0.5477
 2570SOL    HW119343   1.894   2.696  13.083  0.1808  0.7381  2.9118
 2570SOL    HW219344   1.959   2.826  13.116 -0.4795  1.5601 -0.1540
 2571SOL     OW19345   4.367   4.168   2.983  0.6096  0.4553  0.0627
 2571SOL    HW119346   4.369   4.207   3.070  2.1491  0.7806 -0.1139
 2571SOL    HW219347   4.388   4.245   2.930 -1.4764  0.5330 -0.6526
 2572SOL     OW19348   1.941   3.839   6.897 -0.1317 -0.0583 -0.1580
 2572SOL    HW119349   1.944   3.935   6.901 -0.3121 -0.1097  1.0821
 2572SOL    HW219350   2.011   3.812   6.956  0.2209 -0.3033 -0.6946
 2573SOL     OW19351   4.707   4.727   4.557 -0.2935  0.4554 -0.3506
 2573SOL    HW119352   4.695   4.649   4.504  0.4539  1.0441 -1.3654
 2573SOL    HW219353   0.059   0.027   4.525  0.6248 -0.7174  0.8515
 2574SOL     OW19354   1.407   4.452   7.876 -0.5292 -0.0129  0.0333
 2574SOL    HW119355   1.340   4.496   7.824 -0.8730 -0.0996  0.4025
 2574SOL    HW219356   1.479   4.458   7.812 -0.0886 -1.6433  0.3954
 2575SOL     OW19357   4.712   0.560  15.837  0.2074 -0.0641  0.3020
 2575SOL    HW119358   4.727   0.471  15.804 -1.2752 -0.1813 -0.0670
 2575SOL    HW219359   0.059   0.569  15.890  0.4942 -1.3873  0.0950
 2576SOL     OW19360   0.820   1.493   0.985 -0.0004 -0.5737  0.2215
 2576SOL    HW119361   0.742   1.471   1.036 -1.9066  5.0204 -0.3449
 2576SOL    HW219362   0.833   1.410   0.938  0.5714 -1.3882  1.8334
 2577SOL     OW19363   4.560   1.267   8.006 -0.1908 -0.0526 -0.3859
 2577SOL    HW119364   4.501   1.192   7.999 -1.1734  0.5812  1.2640
 2577SOL    HW219365   4.624   1.231   7.943 -0.4947  1.5057 -1.5851
 2578SOL     OW19366   4.054   1.675   3.665  0.4770  0.4656 -0.2856
 2578SOL    HW119367   4.073   1.755   3.713 -1.1193 -1.0110  2.7879
 2578SOL    HW219368   3.962   1.656   3.682  0.8581  0.2280  1.5094
 2579SOL     OW19369   0.076   2.138   2.727  0.2813 -0.0783 -0.2126
 2579SOL    HW119370   0.029   2.202   2.781 -0.1443 -0.4898 -0.0950
 2579SOL    HW219371   4.731   2.086   2.707  0.6339 -0.4679 -0.5525
 2580SOL     OW19372   2.037   0.458   8.246 -0.0267  0.3956  0.0539
 2580SOL    HW119373   1.981   0.382   8.226  0.6691 -0.8331  2.7630
 2580SOL    HW219374   1.999   0.505   8.320  2.6670  3.5825 -0.6060
 2581SOL     OW19375   1.713   3.201   4.199  0.9246  0.1334  0.1235
 2581SOL    HW119376   1.725   3.295   4.184  1.5501 -0.0694 -0.6441
 2581SOL    HW219377   1.635   3.201   4.254  0.2786  0.3776 -0.7909
 2582SOL     OW19378   3.517   2.139  17.531 -0.3355 -0.0726  0.2112
 2582SOL    HW119379   3.612   2.130  17.522 -0.3145  2.3716 -1.9375
 2582SOL    HW219380   3.503   2.097  17.616 -3.0540  2.3283  0.9451
 2583SOL     OW19381   2.899   2.684  14.867  0.2357 -0.0691 -0.2710
 2583SOL    HW119382   2.814   2.646  14.889  0.3360  0.9361  1.8781
 2583SOL    HW219383   2.874   2.722  14.783 -2.2951  1.3386  1.1021
 2584SOL     OW19384   2.675   2.666   0.693  0.4259 -0.4563  0.2095
 2584SOL    HW119385   2.668   2.664   0.598 -0.6569 -0.5345  0.2921
 2584SOL    HW219386   2.633   2.751   0.708  0.0613 -0.5831 -0.0960
 2585SOL     OW19387   0.510   4.455   4.254 -0.1725 -0.0534 -0.1033
 2585SOL    HW119388   0.538   4.544   4.275  2.5049 -0.9148 -0.0774
 2585SOL    HW219389   0.518   4.411   4.339 -2.4733 -0.4645 -0.0860
 2586SOL     OW19390   2.597   4.616   6.870  0.3369  0.4266  0.8965
 2586SOL    HW119391   2.619   4.523   6.862 -1.4332  0.1411 -0.5034
 2586SOL    HW219392   2.581   4.641   6.779 -0.3966  1.6547  1.3587
 2587SOL     OW19393   1.459   1.125   8.551 -0.2263  0.2070  0.3997
 2587SOL    HW119394   1.476   1.062   8.621 -0.1139  0.5414  0.6683
 2587SOL    HW219395   1.364   1.109   8.544 -0.2462  0.9602 -1.0514
 2588SOL     OW19396   2.854   0.040  15.757  0.0910  0.4304 -0.7339
 2588SOL    HW119397   2.799   0.114  15.734 -0.9684  0.3894  1.6231
 2588SOL    HW219398   2.873   0.019  15.666 -1.3443 -0.6137 -0.8003
 2589SOL     OW19399   3.083   0.960  17.705  0.0208  0.2474  0.2419
 2589SOL    HW119400   3.155   1.012   0.013  0.7089 -0.6768  0.1951
 2589SOL    HW219401   3.121   0.916  17.630  0.3690  0.3786  0.3425
 2590SOL     OW19402   1.150   1.693   0.768 -0.4947  0.9309 -0.0524
 2590SOL    HW119403   1.064   1.707   0.807 -0.6678 -0.5354  0.0821
 2590SOL    HW219404   1.123   1.641   0.693 -0.5070  2.6338 -1.2340
 2591SOL     OW19405   0.896   2.482   7.685  0.2659 -0.2311 -0.2857
 2591SOL    HW119406   0.881   2.406   7.629 -1.2808 -0.9187  1.0458
 2591SOL    HW219407   0.848   2.456   7.764  3.3617  0.3539  1.8058
 2592SOL     OW19408   1.701   2.475   3.877 -0.5637 -0.3868  0.2114
 2592SOL    HW119409   1.654   2.392   3.865 -0.5330 -0.4866  0.7871
 2592SOL    HW219410   1.639   2.535   3.918  0.6538  2.0551 -1.5185
 2593SOL     OW19411   2.954   0.571   6.625  0.0690  0.6337 -0.4678
 2593SOL    HW119412   3.044   0.602   6.634  0.2142 -0.3846  1.5607
 2593SOL    HW219413   2.903   0.603   6.699 -0.6404  0.5930 -0.9357
 2594SOL     OW19414   3.353   0.957   0.633  0.2580 -0.2364 -0.0449
 2594SOL    HW119415   3.341   0.894   0.562 -1.0320 -1.9189  1.6861
 2594SOL    HW219416   3.362   1.037   0.580  2.9298 -1.6104 -1.6678
 2595SOL     OW19417   0.768   4.469   7.018  0.2304 -0.6200  0.2397
 2595SOL    HW119418   0.766   4.473   6.922 -0.3018  0.9015  0.3039
 2595SOL    HW219419   0.694   4.410   7.028  0.4729 -1.0206 -0.3419
 2596SOL     OW19420   1.203   1.099   3.605 -0.2657 -0.5061  0.5960
 2596SOL    HW119421   1.129   1.160   3.610  0.4986  0.5214 -0.6942
 2596SOL    HW219422   1.167   1.039   3.540  1.5066 -0.3600 -0.5118
 2597SOL     OW19423   4.188   3.035  17.345 -0.2097 -0.3253 -0.3916
 2597SOL    HW119424   4.098   3.036  17.379  0.1279 -0.0645  0.5073
 2597SOL    HW219425   4.190   3.119  17.299 -1.9954  0.0508  0.1920
 2598SOL     OW19426   3.282   4.374  11.122  0.2224  0.1158 -0.1379
 2598SOL    HW119427   3.188   4.363  11.136  0.5848 -1.6728  0.8856
 2598SOL    HW219428   3.288   4.336  11.034 -1.0047  0.1182 -0.2199
 2599SOL     OW19429   0.662   2.926  12.954  0.6288  0.1993  0.0749
 2599SOL    HW119430   0.605   2.938  12.878 -0.3240  0.5785  0.8502
 2599SOL    HW219431   0.746   2.904  12.912  0.2552 -0.2339 -0.4390
 2600SOL     OW19432   1.647   3.808   2.041 -0.1608  0.3562  0.6782
 2600SOL    HW119433   1.662   3.847   2.127 -0.7191  0.5670  0.6777
 2600SOL    HW219434   1.555   3.823   2.020  0.0913  2.6676  1.2262
 2601SOL     OW19435   1.146   0.204   1.660 -1.0514  0.1610  0.3326
 2601SOL    HW119436   1.170   0.295   1.678 -3.0379  0.7273  0.1004
 2601SOL    HW219437   1.114   0.214   1.570 -1.0218 -0.0928  0.2951
 2602SOL     OW19438   4.721   4.054   8.568  0.1579 -0.2672 -0.2228
 2602SOL    HW119439   0.031   4.009   8.642 -1.8024 -1.9131 -0.1051
 2602SOL    HW219440   4.632   4.040   8.600 -0.1050 -0.4531 -1.0358
 2603SOL     OW19441   2.743   3.017   8.781 -0.4813 -0.3028  0.1093
 2603SOL    HW119442   2.776   2.950   8.722 -0.6989  0.1910 -0.5750
 2603SOL    HW219443   2.660   2.975   8.805 -1.0680  0.0370 -1.3428
 2604SOL     OW19444   2.896   2.621   0.001  0.1100  0.0960  0.7902
 2604SOL    HW119445   2.801   2.611  17.722  0.5172 -1.6102 -2.1018
 2604SOL    HW219446   2.924   2.574   0.080  0.6481  1.7910  1.6085
 2605SOL     OW19447   2.031   3.008   4.756  0.0672  0.1533 -0.0950
 2605SOL    HW119448   2.018   3.040   4.845  3.0977  0.1144  0.3318
 2605SOL    HW219449   1.941   3.025   4.728  0.0490  0.7613  0.3233
 2606SOL     OW19450   3.885   3.992  10.444 -0.1678  0.3196 -0.5801
 2606SOL    HW119451   3.840   3.979  10.528  0.5734  0.9281 -0.0901
 2606SOL    HW219452   3.835   3.939  10.382  0.1093 -1.7507  0.9407
 2607SOL     OW19453   1.166   4.182   9.017 -0.4514  0.0808  0.4792
 2607SOL    HW119454   1.146   4.095   8.983 -0.6859 -0.9638  3.2580
 2607SOL    HW219455   1.120   4.238   8.954  1.6306  0.3235 -0.8417
 2608SOL     OW19456   3.008   3.645   6.469 -0.5807 -0.2430 -0.2218
 2608SOL    HW119457   3.068   3.594   6.414  1.0893  1.5000  0.0024
 2608SOL    HW219458   2.953   3.576   6.506  0.5710 -1.9719 -1.7314
 2609SOL     OW19459   2.819   4.313   2.834  0.7515 -0.2005 -0.8157
 2609SOL    HW119460   2.727   4.338   2.825  0.5650 -0.2867  0.7678
 2609SOL    HW219461   2.851   4.351   2.752  1.1255 -1.5874 -1.3087
 2610SOL     OW19462   1.437   3.151   4.568  0.5651 -0.4003  0.1201
 2610SOL    HW119463   1.388   3.190   4.495 -0.1174  0.3254  0.9702
 2610SOL    HW219464   1.513   3.117   4.520 -0.6771 -3.3742  0.3198
 2611SOL     OW19465   1.422   2.850   5.701  0.0824  0.2666  0.1638
 2611SOL    HW119466   1.409   2.918   5.768  0.3026 -0.4396  0.9267
 2611SOL    HW219467   1.475   2.780   5.739 -1.0653 -0.1442  1.0218
 2612SOL     OW19468   0.480   2.864   7.920  0.1966 -0.4487  0.2226
 2612SOL    HW119469   0.516   2.947   7.889  0.9336 -0.7710  0.2017
 2612SOL    HW219470   0.479   2.824   7.833  0.7326  1.3455 -0.6099
 2613SOL     OW19471   0.960   2.132   7.187 -0.1688  0.3704  0.0348
 2613SOL    HW119472   1.040   2.090   7.217  1.0285  2.1128 -0.7236
 2613SOL    HW219473   0.897   2.061   7.177 -0.0304  0.4853 -1.6447
 2614SOL     OW19474   2.941   1.694  12.428 -0.6568 -0.2471  0.0721
 2614SOL    HW119475   2.932   1.638  12.505 -0.3819  0.7819  0.8640
 2614SOL    HW219476   2.957   1.778  12.473 -1.8163  0.1583 -0.2656
 2615SOL     OW19477   4.587   3.517   7.652  0.0744  0.3714  0.1067
 2615SOL    HW119478   4.664   3.571   7.673  0.8499  0.5161 -3.2371
 2615SOL    HW219479   4.530   3.587   7.618  1.7217  1.2178 -0.8956
 2616SOL     OW19480   3.465   3.758   3.975  0.5532  0.3058  0.0636
 2616SOL    HW119481   3.494   3.833   3.923  1.8497 -0.5036 -0.3792
 2616SOL    HW219482   3.376   3.749   3.941  1.5237  0.0852 -2.4009
 2617SOL     OW19483   2.214   0.417   5.147  0.5781 -0.2646 -0.0179
 2617SOL    HW119484   2.278   0.484   5.122 -2.3739  2.0312 -1.4591
 2617SOL    HW219485   2.190   0.441   5.236 -1.3368 -0.3374 -0.5098
 2618SOL     OW19486   0.338   3.631   7.029 -0.9757  0.4914  0.1477
 2618SOL    HW119487   0.335   3.615   6.935 -2.4741 -0.3129  0.3384
 2618SOL    HW219488   0.301   3.719   7.032 -1.4160  0.3949 -3.6173
 2619SOL     OW19489   2.013   4.167   4.346 -0.2875 -0.0881 -0.0810
 2619SOL    HW119490   2.096   4.145   4.304 -0.4295 -1.1280  0.1798
 2619SOL    HW219491   1.961   4.093   4.315 -1.0426  0.5880 -0.4168
 2620SOL     OW19492   0.933   1.060   3.445  0.1961 -0.1862  0.1792
 2620SOL    HW119493   0.909   1.148   3.415 -0.0966  0.6893  3.0199
 2620SOL    HW219494   0.855   1.005   3.444 -0.5806  0.9216  1.4326
 2621SOL     OW19495   3.655   3.587   4.711 -0.1176  0.2826 -0.2148
 2621SOL    HW119496   3.613   3.603   4.627  1.6577 -2.7809 -1.6611
 2621SOL    HW219497   3.629   3.495   4.717  0.8200 -0.1034 -2.2381
 2622SOL     OW19498   0.853   3.846   8.421  0.2080 -0.5758 -0.1650
 2622SOL    HW119499   0.933   3.816   8.464  1.6727  2.3839 -0.7575
 2622SOL    HW219500   0.803   3.861   8.501 -1.9125  2.0129 -1.9678
 2623SOL     OW19501   3.128   2.139  14.855 -0.3697 -0.1849  0.0120
 2623SOL    HW119502   3.034   2.147  14.841 -0.2520 -1.2464 -1.4191
 2623SOL    HW219503   3.134   2.224  14.899  0.4786 -1.6524  2.7282
 2624SOL     OW19504   0.079   3.938  11.697  0.0700  0.0150  0.0497
 2624SOL    HW119505   0.065   3.872  11.630  0.4750  0.1351 -0.1519
 2624SOL    HW219506   0.161   3.977  11.668  0.2724 -1.0121 -0.7289
 2625SOL     OW19507   4.462   3.909  11.749  0.6492 -0.3000 -0.5336
 2625SOL    HW119508   4.546   3.874  11.777 -0.7950 -2.9443  0.5074
 2625SOL    HW219509   4.483   3.962  11.672  0.6772  0.2028 -0.1802
 2626SOL     OW19510   0.720   2.913   2.189  0.5221 -0.0013 -0.0785
 2626SOL    HW119511   0.796   2.963   2.158  2.1395 -2.1580  0.4374
 2626SOL    HW219512   0.693   2.971   2.260  0.3471  0.4441 -0.5081
 2627SOL     OW19513   3.569   1.926  15.481 -0.4660  0.0573  0.2982
 2627SOL    HW119514   3.655   1.886  15.492 -0.5061 -0.1789 -0.2585
 2627SOL    HW219515   3.549   1.887  15.395  2.2176  1.5627 -1.0127
 2628SOL     OW19516   3.918   3.415  13.467  0.2015  0.3080 -0.2342
 2628SOL    HW119517   3.847   3.407  13.530  2.5772  0.1485  2.4122
 2628SOL    HW219518   3.938   3.321  13.464 -1.3063 -0.0274  0.2729
 2629SOL     OW19519   1.271   3.655   7.565  0.2401  0.6044  0.4540
 2629SOL    HW119520   1.232   3.739   7.541 -2.3571 -1.4076 -2.4046
 2629SOL    HW219521   1.336   3.652   7.494  0.3559 -0.2120  0.5936
 2630SOL     OW19522   2.072   2.151  13.130  0.3292  0.0243  0.2405
 2630SOL    HW119523   2.077   2.078  13.068  0.3245  1.1119 -1.0579
 2630SOL    HW219524   1.978   2.170  13.123  0.7075  1.7663 -0.0279
 2631SOL     OW19525   4.503   3.233   7.354  0.2744 -0.5016  0.2543
 2631SOL    HW119526   4.587   3.274   7.334 -0.5777  1.5204  0.7965
 2631SOL    HW219527   4.454   3.315   7.365 -0.6050 -1.2328  1.7164
 2632SOL     OW19528   4.013   0.668  16.167 -0.0342 -0.1587 -0.5669
 2632SOL    HW119529   3.964   0.609  16.110  0.0972 -1.5463  0.7489
 2632SOL    HW219530   4.095   0.623  16.185  0.6887  2.1286  1.9747
 2633SOL     OW19531   0.211   4.364   4.992  0.7403  0.3490 -0.1782
 2633SOL    HW119532   0.143   4.340   5.055 -0.4034 -1.3609 -2.0454
 2633SOL    HW219533   0.172   4.436   4.944 -0.2154  0.5319  0.8752
 2634SOL     OW19534   0.570   2.145   3.529  0.6047  0.4776  0.3357
 2634SOL    HW119535   0.596   2.227   3.573  1.2632  0.0486  0.7440
 2634SOL    HW219536   0.622   2.143   3.449  0.7863 -1.4507  0.5101
 2635SOL     OW19537   3.515   3.172   6.468  0.6201  0.2170  0.3855
 2635SOL    HW119538   3.421   3.190   6.468  0.3563 -1.0732 -1.9448
 2635SOL    HW219539   3.554   3.237   6.409  0.2278 -1.2160 -1.4468
 2636SOL     OW19540   1.185   2.770   2.237 -0.8362 -0.2184  0.7741
 2636SOL    HW119541   1.214   2.805   2.153 -0.0800  1.4653  1.7505
 2636SOL    HW219542   1.142   2.840   2.286 -2.1496  1.1130 -2.3433
 2637SOL     OW19543   2.368   2.771   6.444 -0.4119  0.9285 -0.0274
 2637SOL    HW119544   2.276   2.768   6.421  0.1127 -1.0784 -1.9148
 2637SOL    HW219545   2.377   2.806   6.533  2.2020 -1.3400  0.6578
 2638SOL     OW19546   0.739   2.020   8.662 -0.0220  0.0191  0.3469
 2638SOL    HW119547   0.665   2.040   8.719  0.5745  0.9312  0.8039
 2638SOL    HW219548   0.744   1.924   8.658 -0.1882 -0.0051  0.7519
 2639SOL     OW19549   0.306   3.213  15.482 -0.5436  0.3261  0.6018
 2639SOL    HW119550   0.370   3.255  15.539  1.2976 -0.2425 -1.0449
 2639SOL    HW219551   0.362   3.187  15.409 -0.0470  0.6318  0.8780
 2640SOL     OW19552   1.936   3.064   7.034  0.2448  0.3372  0.5189
 2640SOL    HW119553   1.868   2.998   7.023 -0.4333  1.0056  0.6522
 2640SOL    HW219554   1.957   3.053   7.126 -1.1071 -2.0710  0.5361
 2641SOL     OW19555   1.009   3.262   5.403 -0.1206 -0.3091 -0.1257
 2641SOL    HW119556   1.069   3.199   5.363  1.0081  0.9232 -0.3233
 2641SOL    HW219557   1.035   3.255   5.495 -0.3080  0.2575 -0.0335
 2642SOL     OW19558   1.609   1.155   3.074  0.0211  0.0364 -0.1201
 2642SOL    HW119559   1.606   1.114   3.160 -1.4646  2.2285  0.8765
 2642SOL    HW219560   1.699   1.187   3.078 -0.6074  1.7017  0.5558
 2643SOL     OW19561   4.678   3.653   3.133 -0.4380  0.3666 -0.0994
 2643SOL    HW119562   4.674   3.719   3.203 -0.4089 -1.3553  1.5126
 2643SOL    HW219563   4.612   3.588   3.157 -0.3521  0.7359  1.1435
 2644SOL     OW19564   3.895   2.380   3.579 -0.2931 -0.0572  0.3791
 2644SOL    HW119565   3.955   2.307   3.592  1.0307  0.4950 -2.6797
 2644SOL    HW219566   3.963   2.440   3.549  0.1677 -0.6534  0.2288
 2645SOL     OW19567   3.839   1.297   7.139 -0.4282 -0.5758  0.3359
 2645SOL    HW119568   3.840   1.252   7.054 -0.8180  0.2794 -0.1195
 2645SOL    HW219569   3.752   1.337   7.139 -0.7390 -1.2360  0.5959
 2646SOL     OW19570   4.059   4.140  10.099  0.5874 -0.2491  0.0329
 2646SOL    HW119571   4.048   4.235  10.091 -0.9691 -0.3242  1.2657
 2646SOL    HW219572   3.984   4.110  10.049 -0.3670 -0.6299  1.6965
 2647SOL     OW19573   1.813   3.240   3.148  0.1021 -0.1801  0.0026
 2647SOL    HW119574   1.875   3.287   3.094  1.2231 -0.5185  0.9902
 2647SOL    HW219575   1.833   3.151   3.117  1.7066  0.1155  0.2191
 2648SOL     OW19576   4.165   2.556   5.528  0.7290  0.4243  0.4681
 2648SOL    HW119577   4.109   2.608   5.586  1.1679  2.2786 -0.7740
 2648SOL    HW219578   4.224   2.504   5.583  0.5890  1.1227  1.2679
 2649SOL     OW19579   0.222   0.126  10.198 -0.0411 -0.1629  0.2138
 2649SOL    HW119580   0.181   0.157  10.279 -1.9919 -2.2779  0.0220
 2649SOL    HW219581   0.228   0.035  10.225 -3.0600 -0.1600  0.8791
 2650SOL     OW19582   0.527   1.720   9.004  0.3806  0.3931  0.2410
 2650SOL    HW119583   0.484   1.744   9.086  0.7155  1.3334  0.1461
 2650SOL    HW219584   0.463   1.738   8.936  1.0661  0.1511 -0.4730
 2651SOL     OW19585   0.133   0.237   1.142  0.5784 -0.8110  0.2006
 2651SOL    HW119586   0.197   0.189   1.090  0.4996  1.2567 -1.8023
 2651SOL    HW219587   0.186   0.260   1.218 -1.3450  0.1367  1.2863
 2652SOL     OW19588   4.274   4.593  10.864  0.2695 -0.4788  0.2419
 2652SOL    HW119589   4.295   4.677  10.824  1.8248 -1.5551 -1.2311
 2652SOL    HW219590   4.200   4.616  10.920  1.1942  2.3404  0.2880
 2653SOL     OW19591   1.749   2.850   4.229 -0.1907 -0.2570  0.0667
 2653SOL    HW119592   1.694   2.778   4.199 -2.2448  1.1866  0.3868
 2653SOL    HW219593   1.775   2.887   4.145  0.3104  0.1948  0.4153
 2654SOL     OW19594   3.142   0.734   6.395 -0.1531  0.6175  0.2597
 2654SOL    HW119595   3.093   0.815   6.402  0.1018  0.7188  0.8550
 2654SOL    HW219596   3.153   0.714   6.488  0.4681  0.8451  0.2349
 2655SOL     OW19597   1.727   4.591   8.632  0.2739  0.5918 -0.6618
 2655SOL    HW119598   1.685   4.506   8.646 -0.4247  0.7258 -2.0474
 2655SOL    HW219599   1.790   4.602   8.704  0.5943 -0.9505 -0.7107
 2656SOL     OW19600   0.239   0.146  10.670 -0.7412  0.6755  0.4430
 2656SOL    HW119601   0.174   0.091  10.625  2.7607 -1.2622 -2.3525
 2656SOL    HW219602   0.247   0.107  10.757 -0.5007 -0.5016 -0.1029
 2657SOL     OW19603   2.979   3.204   0.857  0.3816  0.0891  0.1505
 2657SOL    HW119604   2.989   3.298   0.875 -2.0662  0.8976 -2.5875
 2657SOL    HW219605   3.064   3.186   0.817 -0.3407 -1.0662 -0.8729
 2658SOL     OW19606   1.751   3.740  13.587 -0.1024  0.3958  0.0196
 2658SOL    HW119607   1.812   3.675  13.553  0.0365  1.2507 -1.3129
 2658SOL    HW219608   1.757   3.813  13.526  0.1986 -0.3964 -0.8939
 2659SOL     OW19609   2.800   4.011  10.241 -0.3374 -0.4317  0.0867
 2659SOL    HW119610   2.819   3.988  10.150  1.1353 -0.4015  0.3885
 2659SOL    HW219611   2.718   3.964  10.255  0.1308 -1.9939 -2.3934
 2660SOL     OW19612   2.761   2.663   2.865 -0.8963  0.2953  0.4204
 2660SOL    HW119613   2.857   2.665   2.869 -0.8744 -0.9049  0.3611
 2660SOL    HW219614   2.755   2.751   2.904  0.0072 -0.0678  1.3735
 2661SOL     OW19615   1.766   1.160  10.095  0.2665  0.6190  0.5251
 2661SOL    HW119616   1.747   1.211  10.174  1.6770  0.4969  0.9408
 2661SOL    HW219617   1.695   1.195  10.042  1.3684  1.6774 -0.2492
 2662SOL     OW19618   4.426   2.670   8.170  0.0880  0.1121  0.1936
 2662SOL    HW119619   4.510   2.716   8.170  0.4744 -0.6165 -1.8415
 2662SOL    HW219620   4.369   2.738   8.135  0.0630  0.3094  0.6133
 2663SOL     OW19621   3.816   0.547   4.919  0.1192  0.1411  0.1717
 2663SOL    HW119622   3.769   0.491   4.981  2.6575 -1.1596  0.9092
 2663SOL    HW219623   3.828   0.629   4.967  1.3618  1.2248 -1.9869
 2664SOL     OW19624   3.295   1.952   8.645 -0.3115  0.1708 -0.4612
 2664SOL    HW119625   3.350   1.999   8.708 -0.3079 -0.7079  0.1907
 2664SOL    HW219626   3.326   1.985   8.560 -0.3186 -0.5598 -0.7513
 2665SOL     OW19627   1.133   2.760  12.708  0.0972  0.5821 -0.0546
 2665SOL    HW119628   1.130   2.701  12.783  1.3787 -1.5272 -1.6491
 2665SOL    HW219629   1.043   2.793  12.709 -0.1203 -0.0843  1.5045
 2666SOL     OW19630   0.832   1.680   4.062 -0.3504  0.3894  0.0193
 2666SOL    HW119631   0.879   1.761   4.081  1.4871 -1.0204  1.4540
 2666SOL    HW219632   0.761   1.679   4.126  0.1876 -3.2827  0.5534
 2667SOL     OW19633   3.124   0.243   5.703 -0.3138 -0.0345  0.1525
 2667SOL    HW119634   3.211   0.204   5.703 -0.1205  0.4048  1.2369
 2667SOL    HW219635   3.070   0.167   5.680 -0.2658 -0.1297  0.3530
 2668SOL     OW19636   0.552   4.217   6.120  0.7212  0.1287  0.0577
 2668SOL    HW119637   0.468   4.257   6.144 -0.0687 -0.7305 -1.2616
 2668SOL    HW219638   0.600   4.298   6.106 -0.2239  0.5188 -0.9710
 2669SOL     OW19639   4.189   4.095   6.186  0.2163  0.6615  0.3757
 2669SOL    HW119640   4.240   4.051   6.118 -0.8698 -2.2554  1.4481
 2669SOL    HW219641   4.176   4.021   6.245  3.1822 -0.5968 -0.5330
 2670SOL     OW19642   4.600   1.343   8.920 -0.4372 -0.3376 -0.0024
 2670SOL    HW119643   4.693   1.320   8.914  0.4697  3.1434  1.1103
 2670SOL    HW219644   4.588   1.437   8.910  1.5371  0.0183  1.0972
 2671SOL     OW19645   2.038   4.257   3.113  0.3702 -0.1802  0.3410
 2671SOL    HW119646   2.016   4.213   3.030 -3.6761  3.2597 -0.4084
 2671SOL    HW219647   2.083   4.333   3.075 -0.1295 -0.1891 -0.2782
 2672SOL     OW19648   0.205   0.389   9.492  0.0434  0.3180  0.1452
 2672SOL    HW119649   0.187   0.392   9.586  0.7100  1.1316  0.2492
 2672SOL    HW219650   0.231   0.297   9.486 -3.5341 -0.6057 -1.2505
 2673SOL     OW19651   0.859   0.321   8.085  0.2284  0.9284 -0.1729
 2673SOL    HW119652   0.767   0.345   8.092  0.1536  1.0212 -1.5919
 2673SOL    HW219653   0.860   0.236   8.131 -1.7950  1.0745  0.1379
 2674SOL     OW19654   2.061   0.293   5.561  0.1849  0.0526 -0.1056
 2674SOL    HW119655   1.969   0.276   5.542  1.4059 -3.9096 -2.3788
 2674SOL    HW219656   2.076   0.284   5.655  0.7766  0.6296 -0.1469
 2675SOL     OW19657   2.736   1.813   6.815  0.0302 -0.0419 -0.3410
 2675SOL    HW119658   2.767   1.901   6.839 -1.2404  0.9594 -2.3830
 2675SOL    HW219659   2.715   1.817   6.721 -1.4872 -1.2318 -0.0450
 2676SOL     OW19660   1.817   3.626   6.470  0.0679 -0.5449  0.1250
 2676SOL    HW119661   1.781   3.707   6.433  2.7097  0.4219 -0.2814
 2676SOL    HW219662   1.822   3.640   6.564 -0.0648 -1.5849  0.2885
 2677SOL     OW19663   0.095   3.466  10.878 -0.0793  0.4533 -0.5924
 2677SOL    HW119664   0.148   3.522  10.822 -0.2238  2.4472  1.2182
 2677SOL    HW219665   0.012   3.513  10.886 -0.5114 -0.2320 -1.1596
 2678SOL     OW19666   0.779   4.496   5.261 -0.6329 -0.2841 -0.2677
 2678SOL    HW119667   0.810   4.583   5.284 -3.3621  0.5782  0.1870
 2678SOL    HW219668   0.851   4.468   5.205 -1.7341 -0.3674 -1.6297
 2679SOL     OW19669   0.265   4.480   8.311  0.3762  0.2957  0.1154
 2679SOL    HW119670   0.233   4.391   8.295  0.4039  0.1424  0.8926
 2679SOL    HW219671   0.214   4.531   8.247 -2.6278 -1.0660  1.4019
 2680SOL     OW19672   1.240   2.070  11.317 -0.4719  0.0364 -0.3506
 2680SOL    HW119673   1.149   2.090  11.299 -0.5302 -1.6870 -1.9151
 2680SOL    HW219674   1.274   2.152  11.281  0.6028 -0.5915 -0.7532
 2681SOL     OW19675   1.798   1.183   7.454 -0.2675 -1.4014 -0.2721
 2681SOL    HW119676   1.888   1.191   7.422 -0.4222  2.5178  0.1913
 2681SOL    HW219677   1.792   1.094   7.489 -2.3674 -0.1320  2.6241
 2682SOL     OW19678   0.342   0.875   7.709 -0.1314  0.5363  0.3366
 2682SOL    HW119679   0.302   0.911   7.629 -1.4607  0.9315  1.1765
 2682SOL    HW219680   0.423   0.922   7.727  0.5568 -1.2786  1.9944
 2683SOL     OW19681   0.500   2.959   9.648 -0.6627  0.2603  0.8190
 2683SOL    HW119682   0.420   3.009   9.632 -1.0101 -0.4841  0.2182
 2683SOL    HW219683   0.455   2.875   9.649  1.8989 -1.1089  0.6371
 2684SOL     OW19684   0.657   0.224   1.493  0.0112  0.0662 -0.3676
 2684SOL    HW119685   0.660   0.139   1.537 -0.5613 -1.2725 -2.8797
 2684SOL    HW219686   0.703   0.201   1.412 -0.9289 -0.9786 -0.6210
 2685SOL     OW19687   2.959   1.250   5.091  0.1538 -0.1865  0.2052
 2685SOL    HW119688   3.004   1.264   5.175  0.7333  2.4672 -0.5535
 2685SOL    HW219689   2.941   1.341   5.065 -0.8788 -1.0190 -1.9398
 2686SOL     OW19690   1.194   3.902   2.551 -0.4751 -0.1758 -0.6446
 2686SOL    HW119691   1.211   3.833   2.488 -2.3918 -0.2619 -1.0529
 2686SOL    HW219692   1.240   3.857   2.622 -0.3902 -0.5913 -0.9634
 2687SOL     OW19693   2.629   3.985   5.785  0.0571 -0.0252  0.2957
 2687SOL    HW119694   2.606   3.902   5.828  0.5698 -1.0993 -1.5052
 2687SOL    HW219695   2.704   4.010   5.840  0.0505 -2.0300  1.2045
 2688SOL     OW19696   0.839   3.557   4.980  0.2287  0.0210  0.0347
 2688SOL    HW119697   0.827   3.593   4.892  1.3405 -1.0611 -0.5615
 2688SOL    HW219698   0.848   3.465   4.954  2.3608  0.0909  0.4666
 2689SOL     OW19699   4.506   2.429   2.754  0.2617  0.1121  0.5864
 2689SOL    HW119700   4.551   2.420   2.670  0.4504  2.0350  0.4989
 2689SOL    HW219701   4.569   2.380   2.807 -0.8461 -1.3614  0.5710
 2690SOL     OW19702   0.548   3.877  11.979 -0.7278 -0.1042  0.1534
 2690SOL    HW119703   0.553   3.940  12.051 -1.5794 -0.4377  0.5115
 2690SOL    HW219704   0.493   3.810  12.020 -1.6446  1.0932  0.8901
 2691SOL     OW19705   0.658   1.481  14.207 -0.4740 -0.4938  0.1182
 2691SOL    HW119706   0.576   1.527  14.190 -0.3689  0.0215  0.9736
 2691SOL    HW219707   0.717   1.551  14.232  0.5519 -1.6424  0.9332
 2692SOL     OW19708   2.881   0.241   8.905 -0.1616  0.1497  0.0585
 2692SOL    HW119709   2.805   0.257   8.962 -0.1254  0.7915 -0.0763
 2692SOL    HW219710   2.920   0.328   8.909  0.4719 -0.0262 -2.2004
 2693SOL     OW19711   1.081   2.664   2.004 -0.0124 -0.1459  0.2640
 2693SOL    HW119712   1.083   2.709   2.089 -1.7213  0.8863 -0.2378
 2693SOL    HW219713   1.125   2.580   2.020  0.5006 -0.3109 -1.9679
 2694SOL     OW19714   4.440   2.890   6.552 -0.1935 -0.0264  0.4278
 2694SOL    HW119715   4.415   2.981   6.537  0.4600 -0.2931 -2.2441
 2694SOL    HW219716   4.364   2.871   6.608 -1.3664  0.5512 -0.9865
 2695SOL     OW19717   3.375   2.749   7.087  0.0128  0.3163  0.0182
 2695SOL    HW119718   3.282   2.773   7.084 -0.2858 -0.5310  2.2815
 2695SOL    HW219719   3.415   2.836   7.085 -0.7263  0.6454 -0.4279
 2696SOL     OW19720   4.629   4.245  13.491  0.4733 -0.5281  0.5777
 2696SOL    HW119721   4.651   4.303  13.565  0.9543  1.0675 -0.8211
 2696SOL    HW219722   4.599   4.310  13.427  0.8188 -0.5383  0.4103
 2697SOL     OW19723   1.096   2.088   6.830  0.4434  0.2699 -0.2679
 2697SOL    HW119724   1.125   2.159   6.887  0.0332  1.6024 -1.7429
 2697SOL    HW219725   1.164   2.093   6.763  0.3739  0.6384 -0.3082
 2698SOL     OW19726   4.530   0.092   5.519  0.7581  0.1650 -0.6478
 2698SOL    HW119727   4.604   0.043   5.556 -0.0182  0.9583  1.9507
 2698SOL    HW219728   4.509   0.141   5.598  0.2273  0.1049 -0.7493
 2699SOL     OW19729   1.515   0.368   8.939  0.1058 -0.7624 -0.3259
 2699SOL    HW119730   1.475   0.297   8.989 -1.7956 -0.0886 -0.8964
 2699SOL    HW219731   1.555   0.419   9.010  1.4554 -1.4252 -0.6069
 2700SOL     OW19732   2.645   3.812   6.145  0.1501  0.2596 -0.3497
 2700SOL    HW119733   2.642   3.802   6.050  2.0089  1.2825 -0.5002
 2700SOL    HW219734   2.581   3.745   6.171  0.1527 -0.0872 -1.2600
 2701SOL     OW19735   2.454   1.013  15.461 -0.1451  0.6156  0.3052
 2701SOL    HW119736   2.487   1.023  15.550  1.9062  0.2777 -0.4156
 2701SOL    HW219737   2.360   1.015  15.477 -0.0652  1.7391  0.6831
 2702SOL     OW19738   0.842   1.284  15.006 -0.3225 -0.5653 -0.4978
 2702SOL    HW119739   0.766   1.241  14.967 -0.1399 -2.4919  1.2029
 2702SOL    HW219740   0.907   1.259  14.941  0.4431  3.3334 -1.2204
 2703SOL     OW19741   2.532   3.652   9.692  0.1831 -0.5613 -0.1736
 2703SOL    HW119742   2.595   3.701   9.745  0.0719 -1.3464  0.6894
 2703SOL    HW219743   2.593   3.590   9.651  1.7114  1.0609 -0.3920
 2704SOL     OW19744   4.675   0.897   7.770 -0.0046  0.0435 -0.1104
 2704SOL    HW119745   4.721   0.833   7.715 -0.2869  0.1742 -0.5049
 2704SOL    HW219746   4.674   0.852   7.854 -0.9117  0.0492 -0.1219
 2705SOL     OW19747   4.226   3.425   9.228  0.4619  0.1309  0.3438
 2705SOL    HW119748   4.160   3.376   9.275 -1.3558  1.7562 -0.5220
 2705SOL    HW219749   4.309   3.380   9.245 -0.2988 -0.4631  2.4407
 2706SOL     OW19750   3.402   3.692   9.310  0.0516 -0.0871  0.0111
 2706SOL    HW119751   3.430   3.608   9.346  0.5368 -0.7532 -1.8843
 2706SOL    HW219752   3.319   3.669   9.267  0.1379  1.6802 -1.1256
 2707SOL     OW19753   1.232   2.162   5.760  0.1379  0.0971 -0.3756
 2707SOL    HW119754   1.152   2.166   5.812 -0.0524  1.2736 -0.7439
 2707SOL    HW219755   1.293   2.216   5.811 -0.7979  1.9800 -1.2290
 2708SOL     OW19756   2.935   2.671   8.156 -0.1119 -0.4432 -0.1653
 2708SOL    HW119757   3.016   2.690   8.203 -0.1120  1.9388 -1.1170
 2708SOL    HW219758   2.877   2.628   8.219 -2.0613 -3.4803 -4.0007
 2709SOL     OW19759   4.251   4.382   4.745 -0.3462  0.4411 -0.2692
 2709SOL    HW119760   4.253   4.463   4.695  1.5524  1.6230  1.7161
 2709SOL    HW219761   4.282   4.325   4.675  2.1784 -0.9650  1.9954
 2710SOL     OW19762   1.317   3.808   3.814  0.2718 -0.3710 -0.0522
 2710SOL    HW119763   1.400   3.789   3.771  0.6477  2.2608 -0.5089
 2710SOL    HW219764   1.267   3.857   3.748 -0.3663 -0.5308  0.3076
 2711SOL     OW19765   0.141   2.307   6.180  0.2392  0.1646 -0.4583
 2711SOL    HW119766   0.078   2.370   6.147  1.1613  2.2226  1.6940
 2711SOL    HW219767   0.096   2.237   6.133  1.8127 -0.1801 -1.4481
 2712SOL     OW19768   0.937   4.177   3.287  0.3811  0.2387  0.4406
 2712SOL    HW119769   1.011   4.222   3.247  0.9143 -0.1001  1.0442
 2712SOL    HW219770   0.984   4.140   3.362 -0.5603 -4.2987 -1.1725
 2713SOL     OW19771   0.803   1.012   7.043  0.1628  0.1791  0.0673
 2713SOL    HW119772   0.826   0.920   7.054 -0.1661  0.0615 -0.2275
 2713SOL    HW219773   0.881   1.061   7.071 -0.4851  0.7286  0.9018
 2714SOL     OW19774   1.001   0.165   3.216  0.1854  0.1006 -1.0791
 2714SOL    HW119775   0.988   0.114   3.136 -1.0776  2.3098 -2.2812
 2714SOL    HW219776   0.953   0.117   3.283  1.3081  0.3711 -0.0735
 2715SOL     OW19777   3.074   1.681   7.198  0.1179 -0.2596 -0.0350
 2715SOL    HW119778   3.048   1.726   7.278 -0.8054  2.0226 -1.6337
 2715SOL    HW219779   3.008   1.616   7.174  0.3942 -0.7738  0.5940
 2716SOL     OW19780   2.299   4.335  11.854  0.8017 -0.2737 -0.0214
 2716SOL    HW119781   2.266   4.399  11.917 -0.1673  1.0036 -1.8052
 2716SOL    HW219782   2.381   4.312  11.897  1.6432  0.1720 -1.3760
 2717SOL     OW19783   4.000   4.532   9.266  0.4964 -0.5026 -0.4191
 2717SOL    HW119784   3.907   4.526   9.247  0.2782 -0.0730  0.4891
 2717SOL    HW219785   4.004   4.473   9.341  2.0698  0.0988 -0.0108
 2718SOL     OW19786   4.627   0.280   6.120 -0.0638  0.2628  0.3249
 2718SOL    HW119787   4.544   0.328   6.120 -1.4205 -2.0697 -0.5799
 2718SOL    HW219788   4.595   0.189   6.123 -0.6888  0.5124  1.4781
 2719SOL     OW19789   3.820   0.460   1.485 -0.3436  0.2514  0.0293
 2719SOL    HW119790   3.789   0.467   1.394 -0.6680  0.9292  0.1943
 2719SOL    HW219791   3.880   0.386   1.477 -1.9354 -1.0451  0.3375
 2720SOL     OW19792   3.911   0.199   6.669  0.0124  0.2470  1.1449
 2720SOL    HW119793   3.983   0.236   6.618  1.7484 -1.2696  2.4343
 2720SOL    HW219794   3.936   0.109   6.646 -1.8588  0.3036 -0.9966
 2721SOL     OW19795   1.866   4.568   0.726 -0.2563  0.0215  0.1061
 2721SOL    HW119796   1.881   4.479   0.757  0.4909  1.4165  3.7568
 2721SOL    HW219797   1.916   4.569   0.645 -0.7590 -0.1343 -0.2052
 2722SOL     OW19798   3.380   1.843   3.073 -0.7108 -0.3350  0.1778
 2722SOL    HW119799   3.340   1.930   3.073  1.3456  0.6022 -1.5631
 2722SOL    HW219800   3.336   1.803   2.998  2.4878 -1.3865 -1.1196
 2723SOL     OW19801   4.029   2.791  12.684 -0.5767  0.2988 -0.2541
 2723SOL    HW119802   4.080   2.760  12.609  1.3956  1.6501  0.5313
 2723SOL    HW219803   3.945   2.746  12.672  0.5949 -2.0289  0.3099
 2724SOL     OW19804   3.069   3.754   6.208  0.1341 -0.2165  0.6332
 2724SOL    HW119805   3.011   3.818   6.251  0.5162 -0.4969  1.5612
 2724SOL    HW219806   3.035   3.764   6.119  1.3231 -2.7414 -0.0786
 2725SOL     OW19807   1.943   4.049   2.101  0.0390  0.1202  0.2715
 2725SOL    HW119808   1.999   4.049   2.024 -0.8567 -1.5289 -0.3811
 2725SOL    HW219809   1.854   4.034   2.066  0.2423 -0.0635 -0.1712
 2726SOL     OW19810   0.012   4.150   7.343  0.1897 -0.3183  0.1371
 2726SOL    HW119811   0.059   4.166   7.261  0.6219 -1.4231  0.1793
 2726SOL    HW219812   4.726   4.240   7.370  1.4807  0.2446 -0.8513
 2727SOL     OW19813   1.421   0.598   8.490  0.1313  0.3806  0.2750
 2727SOL    HW119814   1.500   0.617   8.541  0.9379  1.5217 -1.4128
 2727SOL    HW219815   1.429   0.505   8.470 -0.6361 -0.0460  1.9351
 2728SOL     OW19816   4.248   2.119   3.471 -0.2465 -0.1366  0.5104
 2728SOL    HW119817   4.197   2.042   3.446  0.0121 -0.8841  2.3090
 2728SOL    HW219818   4.282   2.153   3.388  1.6913 -1.9074  0.5933
 2729SOL     OW19819   2.311   3.372   2.823 -0.5024 -0.0642  0.1352
 2729SOL    HW119820   2.343   3.463   2.824  0.5530 -0.4213 -1.4511
 2729SOL    HW219821   2.313   3.363   2.918  1.0166 -2.0436 -0.0958
 2730SOL     OW19822   1.174   2.525   1.576  0.5194 -0.2839  0.1020
 2730SOL    HW119823   1.087   2.562   1.568  0.1762 -1.3415 -1.0531
 2730SOL    HW219824   1.158   2.435   1.604 -0.1871 -0.9019 -2.2434
 2731SOL     OW19825   3.944   1.387  11.374  0.3370  0.2277  0.0232
 2731SOL    HW119826   4.033   1.355  11.358  0.8000  0.4421  2.1965
 2731SOL    HW219827   3.930   1.444  11.298 -1.1086  2.0974  1.7093
 2732SOL     OW19828   1.867   4.305   0.846 -0.2925 -0.0297  0.0786
 2732SOL    HW119829   1.897   4.219   0.816  0.4924 -0.4182  1.9425
 2732SOL    HW219830   1.936   4.333   0.906 -1.7724 -0.4398  1.9756
 2733SOL     OW19831   0.708   1.736   8.638  0.0007  0.0420 -0.0167
 2733SOL    HW119832   0.641   1.733   8.570 -0.3859  0.7936  0.3269
 2733SOL    HW219833   0.683   1.672   8.705  1.8705 -0.0450  0.6005
 2734SOL     OW19834   0.886   3.550   6.559 -0.0287 -0.3585  0.3983
 2734SOL    HW119835   0.873   3.638   6.595 -3.4104  0.3195 -2.4403
 2734SOL    HW219836   0.832   3.484   6.604 -0.2986 -0.4688 -0.0932
 2735SOL     OW19837   3.445   4.150   6.302 -0.6655 -0.3160  0.2614
 2735SOL    HW119838   3.522   4.166   6.357 -0.8207  2.5505 -0.3484
 2735SOL    HW219839   3.387   4.106   6.365 -1.2063 -1.4686 -1.0369
 2736SOL     OW19840   3.554   4.382   7.540  0.7332 -0.4372  0.7810
 2736SOL    HW119841   3.585   4.305   7.587  0.0469 -0.7335  0.7394
 2736SOL    HW219842   3.463   4.384   7.570  0.7661 -0.9236  0.9072
 2737SOL     OW19843   4.032   2.370   3.873  0.1523 -0.0642  0.1192
 2737SOL    HW119844   4.068   2.457   3.853  0.8520 -0.0421  1.5344
 2737SOL    HW219845   3.939   2.392   3.868  0.0402 -0.3262  1.1487
 2738SOL     OW19846   1.563   2.358   8.046  0.2961 -0.4841  0.2806
 2738SOL    HW119847   1.639   2.300   8.051 -1.4386 -2.7215  0.8180
 2738SOL    HW219848   1.546   2.353   7.952 -0.2671 -0.2166  0.3687
 2739SOL     OW19849   1.520   0.283  13.639 -0.1704 -0.2536  0.1733
 2739SOL    HW119850   1.598   0.241  13.602 -0.3885 -0.6687  0.1870
 2739SOL    HW219851   1.562   0.341  13.704  0.1279 -1.7032  1.2687
 2740SOL     OW19852   0.981   0.081   0.693 -0.0001  0.1767 -0.1800
 2740SOL    HW119853   0.949   0.065   0.604  0.2620 -1.2437 -0.0244
 2740SOL    HW219854   0.917   0.029   0.741 -0.1976 -0.3752 -1.0406
 2741SOL     OW19855   2.969   0.606   8.078  0.4933  0.6380  0.1555
 2741SOL    HW119856   3.044   0.601   8.137 -0.0663 -0.2000  0.7930
 2741SOL    HW219857   2.905   0.546   8.116  1.7051  0.2936  1.6300
 2742SOL     OW19858   0.217   3.223   6.864 -0.0678  0.1050  0.4827
 2742SOL    HW119859   0.306   3.248   6.888 -0.7753  1.1621  2.0434
 2742SOL    HW219860   0.181   3.240   6.951 -0.6985  0.2438  0.1965
 2743SOL     OW19861   0.929   1.775   1.785 -0.3437 -0.5461 -0.5057
 2743SOL    HW119862   0.862   1.796   1.850 -1.1865 -0.8457 -1.2894
 2743SOL    HW219863   0.995   1.745   1.847 -1.7142 -0.0509  1.1991
 2744SOL     OW19864   1.529   1.538   4.279  0.1684 -0.1556  0.1734
 2744SOL    HW119865   1.479   1.546   4.360 -0.4598  0.2881 -0.2565
 2744SOL    HW219866   1.618   1.526   4.313 -0.6865 -0.9599  2.0965
 2745SOL     OW19867   1.951   0.998   0.906 -0.4742  0.0130 -0.6324
 2745SOL    HW119868   1.907   0.953   0.978  2.8887  0.2873  1.6142
 2745SOL    HW219869   1.997   1.068   0.954  0.0363 -0.7402 -0.0230
 2746SOL     OW19870   4.419   4.705   9.891  0.0007 -0.3817 -0.0497
 2746SOL    HW119871   4.466   4.732   9.812 -1.7621 -1.6568 -1.5662
 2746SOL    HW219872   4.464   0.019   9.962  0.6229  0.0552 -0.7268
 2747SOL     OW19873   1.506   1.586   6.866 -0.0309 -0.1323 -0.2365
 2747SOL    HW119874   1.473   1.649   6.930  1.4698 -1.2181  1.6486
 2747SOL    HW219875   1.601   1.594   6.878  0.0230 -1.0868  0.0204
 2748SOL     OW19876   4.065   1.832  13.898 -0.2042  0.2737  0.6265
 2748SOL    HW119877   4.097   1.912  13.939 -0.2437  1.1304 -0.9789
 2748SOL    HW219878   4.138   1.771  13.909 -0.7502 -0.6926 -1.1861
 2749SOL     OW19879   3.368   3.574   6.401  0.1225  0.4817  0.5761
 2749SOL    HW119880   3.362   3.553   6.494  1.4045 -1.3937  0.2316
 2749SOL    HW219881   3.377   3.669   6.411  0.4833  0.6024 -0.8734
 2750SOL     OW19882   1.309   0.080  15.776 -0.1037  0.3272 -0.1093
 2750SOL    HW119883   1.379   0.093  15.712 -0.2913 -1.3403 -0.6470
 2750SOL    HW219884   1.334   0.138  15.848 -0.0073 -0.0280  0.1406
 2751SOL     OW19885   4.623   0.896   4.962  0.5389 -0.3885  0.0250
 2751SOL    HW119886   4.645   0.906   4.870  0.9724  1.0145  0.2848
 2751SOL    HW219887   4.562   0.822   4.964 -0.7867  0.7323  1.4149
 2752SOL     OW19888   2.220   4.308  10.845 -0.0189  0.4723 -0.4426
 2752SOL    HW119889   2.157   4.281  10.911  0.3721 -0.0798 -0.2923
 2752SOL    HW219890   2.185   4.388  10.805  0.0686  0.5334 -0.3982
 2753SOL     OW19891   3.624   2.636  11.479  0.2318  0.4595 -0.1404
 2753SOL    HW119892   3.602   2.553  11.522  0.1745  1.2253  1.3383
 2753SOL    HW219893   3.588   2.616  11.393 -0.5055  0.5712  0.1457
 2754SOL     OW19894   0.452   0.013   6.196  0.5199 -0.2732 -0.0672
 2754SOL    HW119895   0.396   0.043   6.124  0.3418  0.0854  0.2243
 2754SOL    HW219896   0.539   0.033   6.160 -0.1328  0.4652 -1.2452
 2755SOL     OW19897   2.380   2.342   5.295  0.5368  0.3375  0.1367
 2755SOL    HW119898   2.366   2.393   5.216  0.9399  0.7710  0.3445
 2755SOL    HW219899   2.448   2.279   5.272 -0.2364 -0.5532  0.3104
 2756SOL     OW19900   0.411   2.390   4.945  0.0823  0.0646  0.5929
 2756SOL    HW119901   0.463   2.390   4.865  0.2825 -1.6924  0.7361
 2756SOL    HW219902   0.458   2.334   5.007  2.0138  2.1705  1.0328
 2757SOL     OW19903   4.302   2.962  12.531  0.1501 -0.0340 -0.5708
 2757SOL    HW119904   4.309   2.922  12.618 -3.1191  1.6760  0.4682
 2757SOL    HW219905   4.211   2.989  12.544  1.1912  3.2559 -0.1490
 2758SOL     OW19906   2.880   0.053   8.729 -0.3991 -0.0667  0.3607
 2758SOL    HW119907   2.874   0.138   8.772  0.2842 -0.1145  0.5599
 2758SOL    HW219908   2.842   4.731   8.798 -0.7869  1.1764  1.1139
 2759SOL     OW19909   4.607   2.989   7.338 -0.2554 -0.2570 -0.2291
 2759SOL    HW119910   4.535   3.051   7.330 -1.3346 -1.4018  0.6837
 2759SOL    HW219911   4.600   2.917   7.276  1.3492  0.5622 -1.3909
 2760SOL     OW19912   1.709   4.288  17.234 -0.2357 -0.3833 -0.0160
 2760SOL    HW119913   1.729   4.327  17.318 -0.4439  0.0887 -0.1908
 2760SOL    HW219914   1.721   4.194  17.252 -0.7598 -0.2788  0.8105
 2761SOL     OW19915   1.616   4.638   7.837 -0.3683  0.2852 -0.1249
 2761SOL    HW119916   1.563   4.625   7.758 -0.1639  0.9314 -0.3649
 2761SOL    HW219917   1.637   4.731   7.829  0.2111  0.2749  1.3457
 2762SOL     OW19918   2.511   4.550   6.163  0.0902 -0.1503 -0.1226
 2762SOL    HW119919   2.593   4.536   6.116 -0.6465  1.7201 -1.9526
 2762SOL    HW219920   2.477   4.462   6.147  1.1404 -0.7247  0.7864
 2763SOL     OW19921   0.245   4.465  10.327 -0.0341  0.5224  0.3284
 2763SOL    HW119922   0.283   4.475  10.415 -2.0383  0.2335  1.2436
 2763SOL    HW219923   0.209   4.376  10.332 -0.4583  0.6389 -0.7354
 2764SOL     OW19924   3.491   4.436   7.249  0.4611 -0.2744  0.4226
 2764SOL    HW119925   3.400   4.408   7.238 -0.5723  2.6614  1.4682
 2764SOL    HW219926   3.503   4.422   7.342 -2.0994  1.0705  0.9641
 2765SOL     OW19927   2.862   1.277   7.475 -0.9127 -0.0039  0.3505
 2765SOL    HW119928   2.907   1.355   7.443 -1.1018 -0.0993 -0.1433
 2765SOL    HW219929   2.811   1.313   7.548 -1.9964  1.0244 -0.9152
 2766SOL     OW19930   1.723   3.515   0.977 -0.2545 -0.0617 -0.6590
 2766SOL    HW119931   1.640   3.481   0.941 -1.8163  2.0417  0.9489
 2766SOL    HW219932   1.777   3.437   0.983 -0.4852 -0.3261 -1.9272
 2767SOL     OW19933   2.478   2.759   4.370 -0.8271  0.3708  0.0541
 2767SOL    HW119934   2.443   2.792   4.287 -0.9429 -1.3353 -0.5764
 2767SOL    HW219935   2.443   2.671   4.357 -0.9045 -0.0656  3.3451
 2768SOL     OW19936   0.155   4.218  10.375  0.3652  0.0563 -0.1937
 2768SOL    HW119937   0.226   4.155  10.378  1.4148  1.2552  0.0319
 2768SOL    HW219938   0.114   4.198  10.459  0.1963  0.4965 -0.1696
 2769SOL     OW19939   0.279   1.279   1.758 -0.7619 -0.1186 -0.0195
 2769SOL    HW119940   0.248   1.212   1.820  0.7689  0.9617  1.8861
 2769SOL    HW219941   0.202   1.336   1.750 -0.0431  0.4585 -2.7712
 2770SOL     OW19942   2.292   4.604  12.635  0.3286 -0.5165 -0.1025
 2770SOL    HW119943   2.367   4.620  12.693 -0.8175  2.4852  0.5465
 2770SOL    HW219944   2.223   4.635  12.695  1.0986 -2.8193  1.9550
 2771SOL     OW19945   3.839   2.834  11.408 -0.1619  0.4115 -0.2432
 2771SOL    HW119946   3.922   2.787  11.417  0.4518  1.1800 -1.7668
 2771SOL    HW219947   3.782   2.761  11.429  0.2525 -0.0301 -0.6356
 2772SOL     OW19948   0.504   3.173  15.292 -0.0469 -0.0132 -0.3058
 2772SOL    HW119949   0.574   3.184  15.228 -0.7792 -0.9108 -1.2633
 2772SOL    HW219950   0.462   3.092  15.262 -0.8209 -0.7501  2.7565
 2773SOL     OW19951   0.816   4.529   4.600  0.6616 -0.1349 -0.3853
 2773SOL    HW119952   0.844   4.587   4.671  2.6474 -0.5199 -0.8479
 2773SOL    HW219953   0.792   4.456   4.656 -0.1523 -0.2506 -0.8817
 2774SOL     OW19954   4.114   1.806   8.401 -0.4278  0.7127  0.3352
 2774SOL    HW119955   4.126   1.738   8.335  0.5584  1.5262 -0.3262
 2774SOL    HW219956   4.044   1.855   8.358  1.5926  1.7229 -1.7810
 2775SOL     OW19957   1.991   2.022  16.971 -0.1501 -0.2373  0.2445
 2775SOL    HW119958   1.909   2.070  16.984 -0.7916 -1.3962  0.4642
 2775SOL    HW219959   1.950   1.935  16.969 -0.2532 -0.2376  2.4573
 2776SOL     OW19960   2.994   1.744   7.668  0.0723 -0.5367 -0.1107
 2776SOL    HW119961   3.083   1.712   7.661  0.7308  1.5988 -1.5662
 2776SOL    HW219962   2.977   1.720   7.759  0.5069  1.0506  0.3910
 2777SOL     OW19963   4.417   3.473  10.402  0.4285 -0.0993 -0.0004
 2777SOL    HW119964   4.378   3.559  10.386 -1.2298 -0.9381 -0.4902
 2777SOL    HW219965   4.505   3.484  10.364  0.6020 -0.3811  0.3227
 2778SOL     OW19966   4.440   3.449   4.457  0.0409 -0.0307  0.4325
 2778SOL    HW119967   4.401   3.373   4.413  0.9200 -0.2253 -0.0037
 2778SOL    HW219968   4.524   3.413   4.483  0.9975  0.7332 -1.5859
 2779SOL     OW19969   0.983   1.818   2.820 -0.0861  0.3045 -0.5510
 2779SOL    HW119970   0.999   1.732   2.860  0.1475  1.7371  2.4730
 2779SOL    HW219971   1.015   1.810   2.731 -0.9011 -1.3861 -0.6950
 2780SOL     OW19972   1.880   3.887  12.305  0.1013  0.3280  0.1315
 2780SOL    HW119973   1.886   3.937  12.224  2.1836 -1.0505 -0.5590
 2780SOL    HW219974   1.959   3.925  12.344  0.3674 -0.2656  0.1650
 2781SOL     OW19975   0.054   0.009   5.971  0.3141 -0.3987  0.1658
 2781SOL    HW119976   0.018   0.025   6.059  0.4702  0.9701 -0.0299
 2781SOL    HW219977   0.000   0.064   5.915 -1.8155 -3.7295 -1.0855
 2782SOL     OW19978   0.316   2.037   4.348 -0.0377 -0.0704 -0.1642
 2782SOL    HW119979   0.369   2.089   4.409  0.9612 -1.4959  0.1686
 2782SOL    HW219980   0.308   2.097   4.273 -1.2994 -1.0963 -0.8403
 2783SOL     OW19981   0.309   3.534   1.862 -0.3778  0.3748 -0.4068
 2783SOL    HW119982   0.222   3.568   1.881 -0.0803  2.2022 -2.3305
 2783SOL    HW219983   0.320   3.564   1.772  2.4374 -0.2418 -0.2572
 2784SOL     OW19984   0.202   3.075  10.788  0.1879 -0.9756 -0.0598
 2784SOL    HW119985   0.163   3.138  10.849  0.6047 -2.3859  1.6518
 2784SOL    HW219986   0.263   3.023  10.841  1.8264  0.8138 -0.1700
 2785SOL     OW19987   3.118   0.766   9.885 -0.0810  0.1233  0.1650
 2785SOL    HW119988   3.024   0.762   9.901 -0.3520  1.2057 -1.1899
 2785SOL    HW219989   3.133   0.673   9.866 -0.7961 -0.1113  0.7425
 2786SOL     OW19990   2.326   1.008   6.039 -0.3706 -0.4276  0.3195
 2786SOL    HW119991   2.294   1.003   5.949  0.4948  1.0686 -0.0795
 2786SOL    HW219992   2.260   1.032   6.103 -2.9047  3.9085 -3.9591
 2787SOL     OW19993   4.163   2.468   2.253  0.1997 -0.1080  0.1722
 2787SOL    HW119994   4.146   2.559   2.278  1.3425 -0.0239  0.6332
 2787SOL    HW219995   4.174   2.430   2.340  0.5765  0.9693  0.5996
 2788SOL     OW19996   4.374   4.060  16.702 -0.2039  0.4716 -0.2744
 2788SOL    HW119997   4.343   3.973  16.675  1.5774 -0.8801  1.9609
 2788SOL    HW219998   4.386   4.104  16.618  4.1295 -0.8447 -0.3945
 2789SOL     OW19999   1.000   4.654   1.015  0.8983  0.0977 -0.1687
 2789SOL    HW120000   1.086   4.611   1.016  1.4403  1.1468 -0.8616
 2789SOL    HW220001   0.969   4.616   1.097  2.5437 -2.5921 -0.7807
 2790SOL     OW20002   4.001   3.799  12.368 -0.1217  0.1905 -0.3580
 2790SOL    HW120003   3.974   3.709  12.387 -1.0624  0.3772 -0.8047
 2790SOL    HW220004   4.076   3.815  12.425  0.1435 -0.1970 -0.5985
 2791SOL     OW20005   4.563   1.906  12.157  0.0019  0.6398 -0.4698
 2791SOL    HW120006   4.601   1.993  12.143 -0.8922  1.1947  0.5649
 2791SOL    HW220007   4.598   1.865  12.078 -1.0527  0.8805 -1.0520
 2792SOL     OW20008   4.441   0.287   5.355  0.5759  0.0896 -0.5382
 2792SOL    HW120009   4.487   0.216   5.399  1.5061  1.8211  1.2903
 2792SOL    HW220010   4.508   0.343   5.316  2.0306 -1.4339 -0.2316
 2793SOL     OW20011   2.023   2.397   8.478  0.3820 -0.2957  0.5880
 2793SOL    HW120012   2.082   2.420   8.551 -0.8235  0.7762  1.2378
 2793SOL    HW220013   1.955   2.352   8.529  2.2946 -2.5158  1.1641
 2794SOL     OW20014   4.553   1.544   7.978  0.4281  0.4491  0.5153
 2794SOL    HW120015   4.510   1.578   8.056 -1.1882  0.9473 -0.5738
 2794SOL    HW220016   4.587   1.459   8.002  0.5162  0.1942 -0.4930
 2795SOL     OW20017   0.538   3.113   4.540 -0.0877  0.0594  0.0538
 2795SOL    HW120018   0.468   3.176   4.525  1.2243  1.3762 -0.4544
 2795SOL    HW220019   0.606   3.174   4.567  1.7473 -1.5628 -0.8798
 2796SOL     OW20020   0.108   2.879   2.212  0.3824 -0.3889 -0.5950
 2796SOL    HW120021   0.104   2.880   2.117 -3.2753 -1.0067 -0.4431
 2796SOL    HW220022   0.199   2.904   2.227 -0.2173  1.3883  0.0221
 2797SOL     OW20023   2.251   1.210  14.230  0.5205 -0.3351  0.4238
 2797SOL    HW120024   2.324   1.158  14.261  0.6707 -1.0571 -1.1537
 2797SOL    HW220025   2.289   1.297  14.246 -0.5068  0.3813 -0.9741
 2798SOL     OW20026   2.587   3.423   4.523  0.0920  0.0115 -0.2736
 2798SOL    HW120027   2.637   3.355   4.568 -0.8362 -2.0858 -2.4171
 2798SOL    HW220028   2.510   3.369   4.510 -0.3684  0.9096 -1.3152
 2799SOL     OW20029   1.325   4.358  15.077 -0.3100 -0.5434  0.4451
 2799SOL    HW120030   1.396   4.417  15.051  0.0033 -0.7805  0.7724
 2799SOL    HW220031   1.256   4.387  15.017  1.4657  1.2564 -0.7341
 2800SOL     OW20032   0.665   2.380   3.679  0.3040 -0.2618  0.0540
 2800SOL    HW120033   0.755   2.382   3.712  0.2103 -4.1700  0.5019
 2800SOL    HW220034   0.612   2.354   3.754 -2.9016  3.3710 -0.9893
 2801SOL     OW20035   1.028   1.998  10.793  0.0626 -0.2987 -0.0146
 2801SOL    HW120036   1.032   1.935  10.865 -1.1147 -0.2691  0.0695
 2801SOL    HW220037   1.091   2.065  10.821  2.0474 -2.0335 -0.2414
 2802SOL     OW20038   0.548   2.328  10.466 -0.3097  0.2603  0.3897
 2802SOL    HW120039   0.538   2.255  10.405 -1.1498 -0.3769  1.2686
 2802SOL    HW220040   0.585   2.281  10.541 -2.0848 -0.6410  0.7019
 2803SOL     OW20041   4.244   1.910   1.677 -0.9071 -0.1160 -0.3499
 2803SOL    HW120042   4.246   1.835   1.736  0.9545 -1.1006 -1.6651
 2803SOL    HW220043   4.174   1.892   1.614 -1.5290 -1.5414  0.7631
 2804SOL     OW20044   2.699   3.944   0.054  0.0222  0.0719  0.1359
 2804SOL    HW120045   2.729   3.875   0.113  2.8432 -0.5383 -1.9984
 2804SOL    HW220046   2.741   4.019   0.095 -1.5303  1.1906 -0.2959
 2805SOL     OW20047   4.160   0.122   4.474  0.1319  0.3988  0.4930
 2805SOL    HW120048   4.122   0.197   4.521  1.0545  1.6740 -0.7916
 2805SOL    HW220049   4.255   0.130   4.480  0.3796 -2.1020 -0.2082
 2806SOL     OW20050   4.102   3.525  12.690  0.0940 -0.2951 -0.6038
 2806SOL    HW120051   4.143   3.607  12.716  2.5387 -1.2123 -1.5289
 2806SOL    HW220052   4.113   3.534  12.595  0.2908 -0.3269 -0.5847
 2807SOL     OW20053   1.994   1.098   3.500 -0.4976  0.4410 -0.6485
 2807SOL    HW120054   2.057   1.098   3.571 -0.0609 -2.1358 -1.0412
 2807SOL    HW220055   1.921   1.139   3.545 -0.4593 -0.1792 -0.0220
 2808SOL     OW20056   0.012   0.127   2.449 -0.6624  0.9180  0.6007
 2808SOL    HW120057   4.671   0.132   2.511 -0.1375 -0.2929  1.3021
 2808SOL    HW220058   4.711   0.190   2.384 -3.7549  0.2080  1.4542
 2809SOL     OW20059   4.602   1.362   7.396 -0.3609 -0.2842 -0.4336
 2809SOL    HW120060   4.598   1.267   7.405 -1.4504 -0.0536  1.8196
 2809SOL    HW220061   4.509   1.378   7.415 -0.1095  0.6047  0.0870
 2810SOL     OW20062   3.655   3.519   8.781 -0.0627 -0.0383 -0.0068
 2810SOL    HW120063   3.566   3.549   8.765 -0.0012  0.2334  0.1623
 2810SOL    HW220064   3.668   3.547   8.872  0.9715  0.8356 -0.4168
 2811SOL     OW20065   2.042   4.183   9.333 -0.0188  0.3039  0.0095
 2811SOL    HW120066   1.947   4.177   9.345 -0.0976 -0.7294 -1.1576
 2811SOL    HW220067   2.061   4.138   9.251 -1.2982 -0.3621  0.0770
 2812SOL     OW20068   0.056   1.565   0.502 -0.4248  0.1686 -0.2127
 2812SOL    HW120069   0.002   1.492   0.531  0.1971  0.5355  1.9436
 2812SOL    HW220070   0.106   1.525   0.431 -2.0042  0.6530 -1.5875
 2813SOL     OW20071   2.187   2.127  12.690 -0.1006  1.2655 -0.3305
 2813SOL    HW120072   2.138   2.078  12.624 -0.5024  0.9561  0.1939
 2813SOL    HW220073   2.276   2.097  12.675 -0.3337 -0.0295  0.9038
 2814SOL     OW20074   0.545   1.820   3.855  0.2402  0.0029 -0.7621
 2814SOL    HW120075   0.532   1.898   3.802 -1.0575 -0.9840 -1.9036
 2814SOL    HW220076   0.487   1.841   3.927  0.4034 -0.6737 -0.4263
 2815SOL     OW20077   0.991   2.128   8.327  0.2147  0.4046 -0.4457
 2815SOL    HW120078   0.987   2.033   8.333  1.4362  0.3791 -0.1210
 2815SOL    HW220079   0.900   2.146   8.302  0.1278  0.7383  0.1019
 2816SOL     OW20080   4.475   1.851   6.910 -0.2982  0.8449  0.1847
 2816SOL    HW120081   4.446   1.934   6.871  0.2914  0.5628 -0.8490
 2816SOL    HW220082   4.403   1.793   6.886 -0.4380  1.2843 -0.4521
 2817SOL     OW20083   3.456   2.255   3.268 -0.7122 -0.8341 -0.5318
 2817SOL    HW120084   3.409   2.212   3.340  0.6621 -0.9811  0.2696
 2817SOL    HW220085   3.477   2.184   3.207 -0.6181 -1.2045 -0.0668
 2818SOL     OW20086   3.034   1.290   6.656  0.3229 -0.2362  0.7278
 2818SOL    HW120087   3.118   1.273   6.613  1.6287  2.0188  2.3679
 2818SOL    HW220088   3.049   1.289   6.750 -0.8433 -1.1609  0.9135
 2819SOL     OW20089   0.394   1.634   0.900 -0.3387 -0.4034  0.0199
 2819SOL    HW120090   0.326   1.653   0.965 -2.5107 -0.5302 -2.2522
 2819SOL    HW220091   0.344   1.672   0.828  1.2309 -0.7983 -1.2546
 2820SOL     OW20092   0.456   4.316   4.017  0.3604  0.0116 -0.0771
 2820SOL    HW120093   0.475   4.349   4.104  0.3071  0.0575 -0.0829
 2820SOL    HW220094   0.409   4.236   4.041 -0.0463  0.3007  0.0845
 2821SOL     OW20095   4.327   1.899   6.634  0.0530 -0.7842 -0.6639
 2821SOL    HW120096   4.310   1.988   6.602  1.5641  0.0530  0.8865
 2821SOL    HW220097   4.421   1.894   6.647 -0.1988 -2.0784  0.5960
 2822SOL     OW20098   1.917   2.527   3.554  0.0712  0.0911 -0.1676
 2822SOL    HW120099   1.972   2.464   3.507  1.5995  2.1552 -1.1456
 2822SOL    HW220100   1.836   2.525   3.503 -1.1973  0.6192  1.8111
 2823SOL     OW20101   1.104   4.453  14.914 -1.0119  0.0047 -0.5066
 2823SOL    HW120102   1.037   4.502  14.962  1.7573  2.5610  0.7852
 2823SOL    HW220103   1.077   4.364  14.892 -1.7159  0.7187 -2.5285
 2824SOL     OW20104   1.731   3.729   8.466  0.1114  0.1143  0.1071
 2824SOL    HW120105   1.773   3.809   8.436 -0.7207  0.9746  1.2599
 2824SOL    HW220106   1.642   3.738   8.432  0.2487 -2.3499 -0.9182
 2825SOL     OW20107   1.452   2.855   4.609  0.4662 -0.2054  0.4502
 2825SOL    HW120108   1.521   2.897   4.557  0.4709  0.4276  0.9710
 2825SOL    HW220109   1.464   2.903   4.691 -0.2976  2.4580 -0.9859
 2826SOL     OW20110   3.350   0.821   5.307  0.3892 -0.1199  0.2448
 2826SOL    HW120111   3.309   0.778   5.232 -0.1126  1.4134 -0.3543
 2826SOL    HW220112   3.428   0.854   5.263 -0.4326  0.3404 -0.8648
 2827SOL     OW20113   0.903   1.021   7.977 -0.0987  0.2934 -0.2127
 2827SOL    HW120114   0.849   0.954   7.935  0.0898 -1.9951  3.1449
 2827SOL    HW220115   0.917   1.072   7.898  0.2263  0.1184 -0.2681
 2828SOL     OW20116   3.310   3.363  16.420  0.5389  0.3101 -0.1695
 2828SOL    HW120117   3.315   3.368  16.516 -0.5929 -1.0072 -0.0379
 2828SOL    HW220118   3.342   3.452  16.405 -1.2490  1.0445  0.4236
 2829SOL     OW20119   0.107   1.569  11.228  0.0694  0.2584 -0.3751
 2829SOL    HW120120   0.133   1.557  11.136  1.1078 -1.2616  0.1075
 2829SOL    HW220121   0.164   1.506  11.274 -2.2377 -1.3930  0.2277
 2830SOL     OW20122   1.709   1.393  16.779 -0.2418  0.1603 -0.4368
 2830SOL    HW120123   1.642   1.440  16.729 -1.0441 -0.0574  0.4305
 2830SOL    HW220124   1.733   1.447  16.855 -0.6599  0.1883 -0.3224
 2831SOL     OW20125   1.718   2.343   3.051  0.2307  0.2898  0.6144
 2831SOL    HW120126   1.698   2.312   2.963 -1.9683  1.7369  0.5966
 2831SOL    HW220127   1.775   2.270   3.077  2.4759  1.0148 -2.4055
 2832SOL     OW20128   2.533   4.695  17.520 -0.0409  0.2959 -0.9865
 2832SOL    HW120129   2.528   4.620  17.461 -3.5954  0.1269 -0.4499
 2832SOL    HW220130   2.468   4.684  17.590 -1.0213 -1.0085 -2.1149
 2833SOL     OW20131   2.929   1.748   6.495 -0.0728 -0.0541 -0.6891
 2833SOL    HW120132   2.887   1.831   6.520  0.7438  0.0037  0.4877
 2833SOL    HW220133   3.021   1.766   6.510 -0.4008  1.9170 -1.0094
 2834SOL     OW20134   4.512   1.962  11.692 -0.4807 -0.2942 -0.3006
 2834SOL    HW120135   4.488   1.930  11.605  0.0337 -1.4735 -0.0152
 2834SOL    HW220136   4.541   2.051  11.671  0.8678 -0.9461 -1.2255
 2835SOL     OW20137   2.621   0.570   9.666 -0.3654 -0.2475 -0.5180
 2835SOL    HW120138   2.534   0.588   9.703 -1.4588 -1.9490 -2.2837
 2835SOL    HW220139   2.643   0.661   9.646 -0.4005 -0.4172 -1.3391
 2836SOL     OW20140   1.610   4.103   8.447 -0.5497 -0.0994 -0.1363
 2836SOL    HW120141   1.601   4.012   8.478  0.0142 -0.0404  0.1881
 2836SOL    HW220142   1.705   4.108   8.440 -0.7057  3.0704  0.2756
 2837SOL     OW20143   3.846   3.038   0.133  0.0679  0.2896  0.3302
 2837SOL    HW120144   3.804   3.003   0.055  0.5480  2.0638 -0.6981
 2837SOL    HW220145   3.914   2.972   0.149  1.0248  0.9540 -1.0213
 2838SOL     OW20146   1.181   1.072   8.507  0.5262 -0.3614  0.3913
 2838SOL    HW120147   1.146   1.131   8.573 -1.2923 -1.8288  0.7372
 2838SOL    HW220148   1.098   1.039   8.471  1.0445 -0.1888 -0.9639
 2839SOL     OW20149   3.257   0.529   6.046 -0.1449  0.0876 -0.5668
 2839SOL    HW120150   3.306   0.565   6.120 -0.3342  0.8606 -0.8138
 2839SOL    HW220151   3.181   0.587   6.049 -0.5139 -0.4649  0.6800
 2840SOL     OW20152   4.678   3.163   8.043 -0.0598 -0.2620  1.0170
 2840SOL    HW120153   4.693   3.078   8.001  1.0513  0.9573 -1.0691
 2840SOL    HW220154   4.646   3.216   7.969  0.5656  0.7031  1.4446
 2841SOL     OW20155   1.066   4.586   7.594 -0.0756 -0.2799  0.6136
 2841SOL    HW120156   1.085   4.621   7.682 -1.0056  0.5163  0.4932
 2841SOL    HW220157   0.983   4.628   7.573  0.9321  1.2747 -0.2827
 2842SOL     OW20158   0.182   1.067   7.112  0.3995  0.2230  0.7111
 2842SOL    HW120159   0.176   1.014   7.033  0.7555 -1.1844  1.6184
 2842SOL    HW220160   0.124   1.017   7.169  1.7462 -0.4242  1.5145
 2843SOL     OW20161   4.173   1.230  16.316  0.3421 -0.1582 -0.3041
 2843SOL    HW120162   4.164   1.281  16.235  2.9330  2.0680  0.8118
 2843SOL    HW220163   4.089   1.185  16.311  1.2200 -1.9571  1.2804
 2844SOL     OW20164   2.790   4.601   2.683 -0.6544  0.6885 -0.6202
 2844SOL    HW120165   2.739   4.615   2.762  1.1202 -1.2835  0.8717
 2844SOL    HW220166   2.732   4.623   2.610 -1.6700 -0.9200 -0.3044
 2845SOL     OW20167   2.264   2.575  13.556  0.5839  0.1987 -0.1682
 2845SOL    HW120168   2.274   2.566  13.461 -0.3512 -0.8814 -0.1698
 2845SOL    HW220169   2.196   2.642  13.564  0.1077 -0.5573  1.9816
 2846SOL     OW20170   3.360   4.034   6.796  0.6093  0.0475  0.6007
 2846SOL    HW120171   3.357   3.989   6.880  0.7490  1.2618  1.2610
 2846SOL    HW220172   3.284   4.093   6.795  0.2510 -0.4452 -0.4475
 2847SOL     OW20173   1.764   1.264   6.774 -0.1146  0.5533  0.1054
 2847SOL    HW120174   1.843   1.315   6.792  1.0160 -0.2941 -2.4794
 2847SOL    HW220175   1.794   1.200   6.710  0.4999 -0.3693  1.3065
 2848SOL     OW20176   4.534   2.997   1.533  0.3387  0.3930 -0.3764
 2848SOL    HW120177   4.483   2.916   1.530 -0.3103  0.7606  0.9049
 2848SOL    HW220178   4.507   3.026   1.620 -0.2602 -0.8456 -0.1597
 2849SOL     OW20179   1.204   2.364  15.155  0.3500  0.3353 -0.1781
 2849SOL    HW120180   1.192   2.327  15.243  0.6711  1.0046  0.1494
 2849SOL    HW220181   1.122   2.412  15.147  0.4189  0.2742 -1.2470
 2850SOL     OW20182   0.418   0.493   4.175 -0.7169 -0.2793  0.2983
 2850SOL    HW120183   0.402   0.499   4.269  1.0296 -0.9531  0.6335
 2850SOL    HW220184   0.390   0.402   4.171 -1.9224  0.1192 -0.2694
 2851SOL     OW20185   3.742   3.186   4.080 -0.4415  0.3343  0.1922
 2851SOL    HW120186   3.687   3.264   4.091  0.7698  0.7994  3.1245
 2851SOL    HW220187   3.688   3.118   4.040  1.3604 -2.1218  1.8677
 2852SOL     OW20188   4.350   1.081   3.169 -0.1966 -0.2570 -0.5066
 2852SOL    HW120189   4.310   1.044   3.090 -0.1950  1.5303 -1.3266
 2852SOL    HW220190   4.407   1.152   3.139  0.4768 -2.1963 -3.9384
 2853SOL     OW20191   2.160   2.126   9.671  0.8126  0.6446  0.3435
 2853SOL    HW120192   2.131   2.080   9.592  0.8097  0.7955  0.2573
 2853SOL    HW220193   2.101   2.081   9.732  1.2273 -0.2767  0.0685
 2854SOL     OW20194   1.794   2.249   8.580  0.2079  0.2537  0.3825
 2854SOL    HW120195   1.724   2.254   8.515  0.2119  0.9097  0.4308
 2854SOL    HW220196   1.765   2.300   8.656  0.2389  0.7104  0.0885
 2855SOL     OW20197   2.251   0.278   6.664  0.1506  0.1926 -0.2134
 2855SOL    HW120198   2.272   0.343   6.597  0.4898 -1.1122 -1.3468
 2855SOL    HW220199   2.319   0.305   6.725  1.4995 -0.5045 -1.4281
 2856SOL     OW20200   0.213   1.740  17.725  0.2600 -0.4113 -0.2111
 2856SOL    HW120201   0.164   1.801  17.670  0.3530  1.0516  1.2895
 2856SOL    HW220202   0.301   1.777  17.726 -0.1230  0.4143  3.2752
 2857SOL     OW20203   2.176   2.829   0.003 -0.4288  0.0172  0.2304
 2857SOL    HW120204   2.258   2.877  17.720 -1.3312  1.6916  0.7800
 2857SOL    HW220205   2.204   2.739  17.713 -2.2287 -0.5432  0.2248
 2858SOL     OW20206   0.465   2.494   8.876  0.2192  0.3558 -0.6613
 2858SOL    HW120207   0.553   2.458   8.884 -0.4804 -1.3347 -0.6102
 2858SOL    HW220208   0.477   2.524   8.785 -0.1142 -0.3091 -0.9212
 2859SOL     OW20209   0.804   2.628  10.842  0.3341  0.2292  0.1968
 2859SOL    HW120210   0.828   2.721  10.846 -1.4014  0.7066 -0.6652
 2859SOL    HW220211   0.786   2.602  10.932  1.7307  1.2231  0.7575
 2860SOL     OW20212   3.643   3.567   8.359 -0.1081  0.7020 -0.2380
 2860SOL    HW120213   3.548   3.575   8.366 -0.2962 -1.2351 -0.6779
 2860SOL    HW220214   3.680   3.623   8.427  0.7103  0.1714 -0.2488
 2861SOL     OW20215   0.094   4.628   0.514  0.0112 -0.2683 -0.5137
 2861SOL    HW120216   0.181   4.649   0.481 -0.5747  0.0058 -1.8744
 2861SOL    HW220217   0.102   4.628   0.610 -1.5169 -1.5114 -0.3827
 2862SOL     OW20218   3.888   1.247  11.626  0.3214 -0.8089 -0.5384
 2862SOL    HW120219   3.902   1.278  11.536  1.7418  0.4800  0.1258
 2862SOL    HW220220   3.792   1.246  11.627  0.3206  1.0523 -0.3559
 2863SOL     OW20221   3.797   1.051   9.032  0.3346 -0.0687 -0.0979
 2863SOL    HW120222   3.774   1.137   9.066 -0.7641  0.1851 -1.4520
 2863SOL    HW220223   3.762   0.995   9.101  0.9018 -0.9890 -0.5454
 2864SOL     OW20224   2.945   4.271   1.409 -0.1448 -0.5966  0.2696
 2864SOL    HW120225   2.856   4.279   1.443 -0.3529 -2.2612  0.1196
 2864SOL    HW220226   2.950   4.331   1.334  0.5528  0.9168  1.5308
 2865SOL     OW20227   4.015   0.521  10.746 -0.1062  0.2218 -0.1839
 2865SOL    HW120228   4.067   0.600  10.763 -0.2661  0.0005  1.3376
 2865SOL    HW220229   3.939   0.560  10.704 -2.8657 -2.6255  2.2012
 2866SOL     OW20230   4.232   0.137  12.895  0.2767  0.1577 -0.1003
 2866SOL    HW120231   4.178   0.085  12.954  2.1072  0.7434  2.1043
 2866SOL    HW220232   4.208   0.226  12.919 -1.9768 -0.4505 -0.1744
 2867SOL     OW20233   1.858   0.966   3.121 -0.4354  0.2544 -0.2729
 2867SOL    HW120234   1.894   1.005   3.042 -0.1137  0.2030 -0.1538
 2867SOL    HW220235   1.842   1.046   3.171 -0.9370 -0.4233  0.6658
 2868SOL     OW20236   1.111   4.360   7.745 -0.0447  0.2925  0.1750
 2868SOL    HW120237   1.184   4.316   7.701  0.8637  2.0033 -0.0290
 2868SOL    HW220238   1.079   4.408   7.669  1.8483  1.7081  0.2584
 2869SOL     OW20239   0.627   0.635   7.719  0.5095  0.1906  0.4117
 2869SOL    HW120240   0.604   0.608   7.808 -1.8971  0.4512 -0.1148
 2869SOL    HW220241   0.571   0.573   7.672 -1.7908  0.5372  2.6852
 2870SOL     OW20242   3.481   3.395   6.993  0.0338  0.7651  0.3558
 2870SOL    HW120243   3.540   3.355   6.930  1.4991  2.4321  0.6679
 2870SOL    HW220244   3.470   3.488   6.974  0.3103  0.5379 -0.9278
 2871SOL     OW20245   2.880   3.124  14.601  0.0912  0.0993  0.3688
 2871SOL    HW120246   2.815   3.058  14.576 -2.3100  1.7467  2.2431
 2871SOL    HW220247   2.827   3.196  14.636  0.7963  0.8340 -0.0817
 2872SOL     OW20248   3.595   2.930   9.913  0.1911 -0.4264  0.1617
 2872SOL    HW120249   3.640   2.900   9.992  0.8369 -0.3686 -0.1864
 2872SOL    HW220250   3.511   2.884   9.916  0.1292 -0.3379 -0.2444
 2873SOL     OW20251   2.894   1.091   3.149 -0.0800  0.9013 -0.1657
 2873SOL    HW120252   2.932   1.159   3.094  1.5689 -0.5761 -0.8330
 2873SOL    HW220253   2.918   1.005   3.116  0.0941 -0.0397  2.4170
 2874SOL     OW20254   2.102   0.829  17.600 -0.1865 -0.2772 -0.2235
 2874SOL    HW120255   2.173   0.768  17.581  0.8716  0.3881  1.5897
 2874SOL    HW220256   2.038   0.787  17.542 -0.7436  0.1569  0.0690
 2875SOL     OW20257   0.289   4.290   7.917 -0.2290  0.3629 -0.1934
 2875SOL    HW120258   0.381   4.311   7.930 -0.3504  0.0548  1.1530
 2875SOL    HW220259   0.267   4.363   7.859  1.0993  1.4322  0.6602
 2876SOL     OW20260   4.391   2.458   4.948  0.1165  0.0948 -0.1477
 2876SOL    HW120261   4.480   2.456   4.982  0.2581 -0.8494 -0.5534
 2876SOL    HW220262   4.401   2.394   4.877  2.3440  0.6921 -0.3463
 2877SOL     OW20263   1.536   3.942  10.286  0.6827  0.3431 -0.1541
 2877SOL    HW120264   1.504   3.872  10.343  1.3351  0.2165  0.0492
 2877SOL    HW220265   1.502   4.015  10.338  0.9343  0.0370  0.4493
 2878SOL     OW20266   3.220   0.398   4.617  0.0442 -0.5513 -0.5159
 2878SOL    HW120267   3.300   0.424   4.571 -0.5487  1.0006 -0.6500
 2878SOL    HW220268   3.174   0.481   4.630 -1.3710 -0.8825 -3.5315
 2879SOL     OW20269   4.135   3.088  12.295  0.2924  0.1818  0.3569
 2879SOL    HW120270   4.144   3.004  12.249  0.0901  0.5982 -0.4348
 2879SOL    HW220271   4.114   3.050  12.380 -1.2592 -1.4747 -0.7549
 2880SOL     OW20272   3.895   4.219  14.651  1.0675 -0.2030  0.6661
 2880SOL    HW120273   3.909   4.135  14.608  1.3639  1.1305 -1.7879
 2880SOL    HW220274   3.810   4.246  14.617  1.6516 -1.1055 -1.4944
 2881SOL     OW20275   4.527   1.243   4.226 -0.2561 -0.1937 -0.0630
 2881SOL    HW120276   4.457   1.211   4.282 -1.7370  2.9650 -0.1556
 2881SOL    HW220277   4.531   1.176   4.158 -2.7579  0.5280 -0.9282
 2882SOL     OW20278   1.135   0.323   2.264  0.4131  0.3836  0.0255
 2882SOL    HW120279   1.172   0.404   2.300  1.4664  0.5932 -1.5267
 2882SOL    HW220280   1.206   0.264   2.289  0.2241  0.6627  1.2034
 2883SOL     OW20281   4.365   1.372   7.530  0.7644 -0.4905  0.1957
 2883SOL    HW120282   4.282   1.419   7.522  0.5296 -1.0043 -0.3610
 2883SOL    HW220283   4.338   1.298   7.585  2.7602 -3.1652 -2.4596
 2884SOL     OW20284   1.637   4.378  14.878 -0.1502  0.1984 -0.2979
 2884SOL    HW120285   1.638   4.418  14.792  1.6346  1.8601  0.4897
 2884SOL    HW220286   1.581   4.434  14.932  0.3220  0.9702 -0.6155
 2885SOL     OW20287   0.367   3.707  10.261 -0.5852 -0.2786 -0.0274
 2885SOL    HW120288   0.310   3.719  10.185 -1.5527 -0.4927  0.6728
 2885SOL    HW220289   0.314   3.730  10.337 -1.8775  0.1192 -1.0615
 2886SOL     OW20290   4.650   1.483   2.605 -0.1345  0.4933  0.4490
 2886SOL    HW120291   4.640   1.565   2.653 -0.7050  1.3948 -1.2137
 2886SOL    HW220292   4.631   1.518   2.518  1.1300  0.7699  0.2877
 2887SOL     OW20293   0.484   1.157   8.970 -0.0111  0.9563  0.9539
 2887SOL    HW120294   0.559   1.100   8.982  0.1615  1.0741  0.4612
 2887SOL    HW220295   0.490   1.184   8.878  0.9510  0.1913  0.8016
 2888SOL     OW20296   4.591   4.650  11.797  0.0499  0.2772  0.0167
 2888SOL    HW120297   4.594   4.563  11.836 -0.4257 -0.7856 -2.3316
 2888SOL    HW220298   4.630   4.628  11.713  0.1189  0.2714  0.0507
 2889SOL     OW20299   2.902   2.676   4.116 -0.1745 -0.3792  0.1399
 2889SOL    HW120300   2.932   2.635   4.034 -0.2806  0.2054 -0.1890
 2889SOL    HW220301   2.868   2.595   4.154 -2.3873  0.1177 -0.8328
 2890SOL     OW20302   0.439   4.268   9.874  0.9851  0.7158  0.6284
 2890SOL    HW120303   0.474   4.186   9.909  0.7272  0.5813  0.5700
 2890SOL    HW220304   0.427   4.309   9.960  0.8703 -0.1484  1.0226
 2891SOL     OW20305   1.455   2.934   4.097 -0.2816 -0.5851  0.4135
 2891SOL    HW120306   1.448   2.961   4.189 -1.3978  0.0201  0.1511
 2891SOL    HW220307   1.385   2.978   4.049  0.6169  0.0308 -0.3238
 2892SOL     OW20308   3.141   4.148   8.194  0.1634  0.2586  0.0112
 2892SOL    HW120309   3.181   4.219   8.145  0.0952  1.0378  1.0817
 2892SOL    HW220310   3.148   4.168   8.287  1.5973 -1.1716  0.2077
 2893SOL     OW20311   0.190   2.592   5.432  0.2924 -0.3385  0.9068
 2893SOL    HW120312   0.231   2.632   5.356 -1.5666  3.1375  1.7562
 2893SOL    HW220313   0.174   2.510   5.385  1.9761 -0.4886  0.5688
 2894SOL     OW20314   3.065   2.134   8.092  0.2504  0.1021  0.6281
 2894SOL    HW120315   3.043   2.102   8.004  0.4749  0.2832  0.5060
 2894SOL    HW220316   3.132   2.070   8.114  0.7599  1.5219  3.1330
 2895SOL     OW20317   1.694   0.625   3.967 -0.3362 -0.0921 -0.1535
 2895SOL    HW120318   1.762   0.680   3.928  0.8992 -0.8829  0.8770
 2895SOL    HW220319   1.722   0.629   4.058 -2.0436  1.6291  0.2875
 2896SOL     OW20320   0.835   4.121   1.449 -0.2517 -0.3565  0.0618
 2896SOL    HW120321   0.764   4.058   1.450 -0.2133 -0.3729  1.6410
 2896SOL    HW220322   0.819   4.159   1.536  1.0874 -1.1635  0.6626
 2897SOL     OW20323   0.787   2.140   7.592 -0.0621  0.3394 -0.5953
 2897SOL    HW120324   0.778   2.051   7.558  4.0012 -0.7276  1.0699
 2897SOL    HW220325   0.821   2.186   7.515 -0.8879 -0.4093 -1.3991
 2898SOL     OW20326   0.603   1.448   4.340  0.1613  0.4998  0.1247
 2898SOL    HW120327   0.692   1.412   4.336 -0.5603 -0.9395 -2.8003
 2898SOL    HW220328   0.545   1.372   4.338  2.0231 -0.9613  1.1759
 2899SOL     OW20329   2.625   2.222   7.926 -0.2358  0.6461 -0.3614
 2899SOL    HW120330   2.542   2.243   7.969 -0.6203 -0.4786 -0.5612
 2899SOL    HW220331   2.685   2.285   7.966  0.2934  1.3194 -2.2308
 2900SOL     OW20332   2.279   3.744   9.898  0.2939 -0.0457  0.0191
 2900SOL    HW120333   2.360   3.760   9.946  0.2126  1.1789 -0.2479
 2900SOL    HW220334   2.275   3.823   9.844  0.0420 -1.1165 -1.5330
 2901SOL     OW20335   1.431   0.683   5.446  0.0854 -0.2637 -0.6503
 2901SOL    HW120336   1.452   0.591   5.462  0.4810 -0.2100 -0.8663
 2901SOL    HW220337   1.384   0.709   5.525 -0.1086 -1.1881 -0.4559
 2902SOL     OW20338   2.295   2.361   6.739 -0.3032 -0.1701  0.4511
 2902SOL    HW120339   2.205   2.390   6.749 -0.6404 -1.2474  0.5756
 2902SOL    HW220340   2.318   2.388   6.650 -0.5703 -2.6584 -0.3659
 2903SOL     OW20341   1.232   1.025   7.360 -0.0387 -0.8656  0.4989
 2903SOL    HW120342   1.317   1.057   7.388 -0.1298 -0.0524 -0.1644
 2903SOL    HW220343   1.258   0.994   7.273  1.0366  1.6179 -0.0488
 2904SOL     OW20344   0.460   2.996  15.787  0.0922 -0.1453  0.9409
 2904SOL    HW120345   0.547   3.000  15.828  0.2904 -1.6084  0.6598
 2904SOL    HW220346   0.471   3.051  15.710 -0.5026  2.8527  3.0203
 2905SOL     OW20347   1.700   0.895   8.051  0.3639  0.0337 -0.2035
 2905SOL    HW120348   1.758   0.968   8.029 -1.1626  1.2824 -0.0241
 2905SOL    HW220349   1.620   0.943   8.073 -0.6137 -1.5568 -0.2821
 2906SOL     OW20350   4.587   1.555   3.544 -0.0513 -0.2637 -0.3335
 2906SOL    HW120351   4.641   1.504   3.605  2.4448 -0.7964 -3.0207
 2906SOL    HW220352   4.604   1.648   3.561  1.8503 -0.4638 -1.0953
 2907SOL     OW20353   1.255   4.359   0.188 -0.6739  0.5911 -0.6091
 2907SOL    HW120354   1.350   4.347   0.186 -0.7726 -0.2785 -0.2071
 2907SOL    HW220355   1.245   4.437   0.134 -1.5479  0.9547  0.0748
 2908SOL     OW20356   4.381   3.897   5.322 -0.1936 -0.5234  0.0153
 2908SOL    HW120357   4.461   3.871   5.368  0.9782  0.7837 -1.3477
 2908SOL    HW220358   4.370   3.813   5.277 -3.0264 -0.9773  1.5258
 2909SOL     OW20359   0.522   3.884   6.922  0.4850 -0.1311 -0.5313
 2909SOL    HW120360   0.470   3.911   6.846 -0.0775  2.8699  0.8970
 2909SOL    HW220361   0.547   3.796   6.894 -0.5964  0.2532 -2.7350
 2910SOL     OW20362   2.218   1.194   7.944 -0.3955 -0.2247  0.4393
 2910SOL    HW120363   2.190   1.111   7.906 -2.2925  0.9801 -0.7581
 2910SOL    HW220364   2.219   1.163   8.035  2.5316 -0.6681  0.2558
 2911SOL     OW20365   3.355   2.510   4.348 -0.2045 -0.3425  0.1814
 2911SOL    HW120366   3.318   2.435   4.396  2.2019 -1.1007  0.8337
 2911SOL    HW220367   3.427   2.540   4.404  0.1391  1.6585 -1.3409
 2912SOL     OW20368   0.531   1.524  15.276 -0.1349 -0.5789 -0.1794
 2912SOL    HW120369   0.498   1.560  15.358  0.2129  0.9977 -0.7481
 2912SOL    HW220370   0.575   1.598  15.236  0.8900  0.4279  2.7642
 2913SOL     OW20371   3.947   2.382  11.650  0.2389 -0.5089  0.5128
 2913SOL    HW120372   3.876   2.329  11.613  0.6865  0.6637 -1.9984
 2913SOL    HW220373   3.999   2.400  11.572  0.1116 -1.0719  0.2964
 2914SOL     OW20374   3.277   1.315   4.148 -0.2223  0.0119 -0.3925
 2914SOL    HW120375   3.345   1.373   4.114  0.3158 -0.9956 -1.0512
 2914SOL    HW220376   3.252   1.260   4.073  1.8818 -0.5132 -0.6954
 2915SOL     OW20377   4.614   3.203   6.012  0.4226 -0.5291  0.1044
 2915SOL    HW120378   4.706   3.188   5.991  0.8429 -1.3345  2.4973
 2915SOL    HW220379   4.607   3.134   6.078  0.3432 -0.1780  0.4632
 2916SOL     OW20380   2.092   2.196   0.101  0.7682 -0.3167 -0.1341
 2916SOL    HW120381   2.022   2.134   0.119  0.8654 -0.6959 -1.0893
 2916SOL    HW220382   2.099   2.197   0.006 -0.8844  0.9320 -0.2512
 2917SOL     OW20383   3.996   4.236   7.878  1.1013  0.2272 -0.0702
 2917SOL    HW120384   4.043   4.268   7.801 -1.0321  3.2589 -0.0783
 2917SOL    HW220385   4.054   4.273   7.945  0.2619  0.7528  0.3576
 2918SOL     OW20386   4.708   1.254   7.066 -0.2697 -0.0277  0.3449
 2918SOL    HW120387   4.726   1.324   7.129 -1.2401 -1.8579  2.6518
 2918SOL    HW220388   0.045   1.195   7.096 -1.5997 -1.6084  0.2439
 2919SOL     OW20389   1.199   0.523   8.292  0.7516 -0.8948 -0.2500
 2919SOL    HW120390   1.245   0.453   8.338  0.4795 -0.0049  1.4113
 2919SOL    HW220391   1.262   0.543   8.223  0.8290  1.2075  0.4310
 2920SOL     OW20392   0.688   0.251   0.823 -0.1751 -0.3118  0.0580
 2920SOL    HW120393   0.737   0.169   0.821 -0.0339 -0.1974 -0.8938
 2920SOL    HW220394   0.701   0.268   0.917  1.2516 -0.2809 -0.1534
 2921SOL     OW20395   0.309   0.214   0.078 -0.0730 -0.0944  0.0273
 2921SOL    HW120396   0.221   0.229   0.044 -1.2562 -1.9442  2.2655
 2921SOL    HW220397   0.300   0.257   0.164 -0.7121  1.1916 -0.6906
 2922SOL     OW20398   2.084   0.521  12.847  0.3395  0.4806 -0.0823
 2922SOL    HW120399   2.099   0.592  12.785 -1.2335 -0.3827 -1.4399
 2922SOL    HW220400   2.114   0.448  12.793  1.2797  0.0454  1.0232
 2923SOL     OW20401   0.477   1.217   6.530 -0.6045  0.5824 -0.8590
 2923SOL    HW120402   0.431   1.287   6.484 -1.2032  0.6744 -0.1189
 2923SOL    HW220403   0.515   1.175   6.453  0.1500 -1.1132  0.4168
 2924SOL     OW20404   1.013   0.408   4.671 -0.4523 -0.1400  0.1807
 2924SOL    HW120405   1.051   0.326   4.639 -1.3719 -0.0012 -1.2401
 2924SOL    HW220406   0.919   0.396   4.660 -0.5080 -1.0703  1.7215
 2925SOL     OW20407   0.350   0.659   5.689 -0.7116 -0.1567  0.1582
 2925SOL    HW120408   0.294   0.644   5.765 -0.0334  0.5081  0.7851
 2925SOL    HW220409   0.387   0.742   5.720  1.9565 -0.9150 -0.9734
 2926SOL     OW20410   3.544   3.454   5.792  0.2860  0.2479 -0.3181
 2926SOL    HW120411   3.550   3.383   5.857 -0.7401  1.1215  0.7324
 2926SOL    HW220412   3.491   3.521   5.835  0.9210  1.2517 -1.0965
 2927SOL     OW20413   0.697   1.745   6.639 -0.0618 -0.4743  0.3448
 2927SOL    HW120414   0.638   1.686   6.592 -0.5115  1.3760 -1.3963
 2927SOL    HW220415   0.663   1.832   6.619  0.4922 -0.2756  0.2822
 2928SOL     OW20416   4.646   0.090   3.676 -0.1770 -0.2593  0.0616
 2928SOL    HW120417   4.609   0.165   3.723 -0.7691 -1.9215  2.2820
 2928SOL    HW220418   0.006   0.100   3.696 -0.2235 -0.7670  0.5330
 2929SOL     OW20419   3.080   1.398   4.587  0.1163  0.5354 -0.3398
 2929SOL    HW120420   2.996   1.375   4.625  1.2252 -1.4313  0.9211
 2929SOL    HW220421   3.139   1.356   4.649  1.4647  1.6968 -0.8188
 2930SOL     OW20422   3.993   4.639   3.213  1.0862  0.7473 -0.0398
 2930SOL    HW120423   4.012   4.614   3.123  1.0731  0.6207 -0.0066
 2930SOL    HW220424   3.901   4.617   3.224  1.4418 -0.7753 -0.1721
 2931SOL     OW20425   2.965   2.489   8.629 -0.8048  0.1027  0.3221
 2931SOL    HW120426   2.952   2.403   8.590 -3.0909  1.8122 -2.6670
 2931SOL    HW220427   2.889   2.508   8.684 -0.1514 -0.3779  1.3868
 2932SOL     OW20428   3.081   1.348   5.789  0.2156 -0.1369  0.0431
 2932SOL    HW120429   3.133   1.378   5.863 -0.9041  1.3565  0.2446
 2932SOL    HW220430   3.127   1.271   5.757  0.6047  0.7717 -1.6246
 2933SOL     OW20431   3.753   4.269  11.643 -0.6876 -0.1680  0.5053
 2933SOL    HW120432   3.768   4.334  11.574 -0.2760 -0.2650  0.5029
 2933SOL    HW220433   3.728   4.197  11.587 -0.0943  0.5947 -0.7425
 2934SOL     OW20434   1.908   3.134   7.445 -0.1401  0.1127 -0.1418
 2934SOL    HW120435   1.948   3.115   7.360  1.8623 -1.3427  1.1386
 2934SOL    HW220436   1.884   3.044   7.469  0.9906  0.3922  2.0438
 2935SOL     OW20437   3.907   3.878   2.230  0.3837  0.8284 -0.1963
 2935SOL    HW120438   3.993   3.907   2.259 -0.4033  0.6281  2.3711
 2935SOL    HW220439   3.861   3.877   2.314 -1.0654  0.1809 -0.9937
 2936SOL     OW20440   3.907   0.776   1.791 -0.1472 -0.9249  0.0568
 2936SOL    HW120441   3.958   0.696   1.778 -0.7463 -1.7134  2.6167
 2936SOL    HW220442   3.972   0.846   1.776 -1.3956  0.6875  2.2457
 2937SOL     OW20443   3.502   1.511   7.907  0.0905  0.0576  0.2667
 2937SOL    HW120444   3.497   1.603   7.933 -0.4673 -0.0768  0.6327
 2937SOL    HW220445   3.514   1.464   7.990  0.7295 -1.1542 -0.5148
 2938SOL     OW20446   1.481   4.457   8.168  0.1685 -0.7742 -0.0928
 2938SOL    HW120447   1.470   4.468   8.073 -0.1220  0.3703  0.0722
 2938SOL    HW220448   1.486   4.361   8.171  0.4903 -0.7547  0.0130
 2939SOL     OW20449   4.263   0.072   1.909  0.3907 -0.1075  0.3489
 2939SOL    HW120450   4.269   0.098   2.000 -0.1055  3.8117 -0.7491
 2939SOL    HW220451   4.212   4.724   1.923 -1.0825  0.9341  0.9632
 2940SOL     OW20452   1.656   4.220   2.136  0.5368 -0.2418 -0.0739
 2940SOL    HW120453   1.701   4.178   2.063  1.0090  0.3015 -0.0908
 2940SOL    HW220454   1.622   4.144   2.184  0.0390  0.4842  0.7380
 2941SOL     OW20455   4.280   0.231   4.203  0.0525  0.4225 -0.1150
 2941SOL    HW120456   4.235   0.258   4.283  1.5695  0.3546  0.7572
 2941SOL    HW220457   4.367   0.225   4.241 -0.1552  0.9084  0.4388
 2942SOL     OW20458   3.435   3.150  15.545 -0.7621 -0.4637  0.8019
 2942SOL    HW120459   3.349   3.171  15.581  0.1894  1.1870  2.1067
 2942SOL    HW220460   3.455   3.064  15.581  1.1147 -0.6885 -0.7386
 2943SOL     OW20461   3.993   1.222   6.825  0.5186 -0.2579 -0.5938
 2943SOL    HW120462   4.066   1.185   6.873 -0.2474 -1.5921 -0.4754
 2943SOL    HW220463   4.038   1.241   6.743  1.0715 -0.3516 -0.3053
 2944SOL     OW20464   4.128   1.724   1.413 -0.2494 -0.0421 -0.7113
 2944SOL    HW120465   4.036   1.702   1.397 -1.2376  1.9050  2.3877
 2944SOL    HW220466   4.184   1.651   1.387 -0.6111 -1.1510  1.6028
 2945SOL     OW20467   0.683   4.071  11.845 -0.0224  0.0469  0.6622
 2945SOL    HW120468   0.602   4.122  11.844 -0.4089 -0.5848 -0.2639
 2945SOL    HW220469   0.647   3.993  11.888  1.0778 -2.3604 -2.7795
 2946SOL     OW20470   1.215   4.157  14.026  0.1913 -0.2513  0.4161
 2946SOL    HW120471   1.162   4.129  14.100  0.2900  1.1138  1.0027
 2946SOL    HW220472   1.147   4.157  13.959  0.1258 -0.1821  0.4833
 2947SOL     OW20473   0.434   1.832  16.103  0.1107 -0.0224 -0.1915
 2947SOL    HW120474   0.512   1.886  16.093 -0.5527  0.7845 -0.9755
 2947SOL    HW220475   0.407   1.871  16.187 -1.5066 -0.2590 -0.5956
 2948SOL     OW20476   0.909   2.031  12.447  0.3438 -0.3459  0.2463
 2948SOL    HW120477   0.987   2.068  12.407 -0.2896  1.4826  0.7278
 2948SOL    HW220478   0.953   1.974  12.510  1.4788 -0.0772 -0.3229
 2949SOL     OW20479   3.626   3.574   2.694  0.6158 -0.3953  0.8249
 2949SOL    HW120480   3.706   3.618   2.723  0.6484  0.4070 -0.4938
 2949SOL    HW220481   3.565   3.634   2.736 -0.1142 -1.6959  1.6262
 2950SOL     OW20482   1.826   0.402   3.816  0.2806 -0.1897 -0.2680
 2950SOL    HW120483   1.778   0.480   3.845  0.4873 -0.3395  0.4714
 2950SOL    HW220484   1.799   0.334   3.878  0.2422 -0.4534 -0.5746
 2951SOL     OW20485   4.515   4.296  10.445  0.5733  0.6195 -0.1974
 2951SOL    HW120486   4.423   4.290  10.420  0.9709 -0.5780 -1.3537
 2951SOL    HW220487   4.530   4.386  10.417 -1.2671  1.1642  0.5142
 2952SOL     OW20488   2.504   3.975  11.039 -0.4260  0.0264  0.0910
 2952SOL    HW120489   2.591   3.955  11.005 -1.0623  0.3479 -1.7445
 2952SOL    HW220490   2.481   3.889  11.072  1.2526 -0.9165 -1.1695
 2953SOL     OW20491   3.867   2.596  13.067 -0.1654  0.5575 -0.3756
 2953SOL    HW120492   3.832   2.555  12.988 -0.6236 -0.5955  0.4305
 2953SOL    HW220493   3.788   2.611  13.119  0.1178  0.1093  0.1812
 2954SOL     OW20494   2.648   0.498   2.923 -0.3315  0.5305 -0.4857
 2954SOL    HW120495   2.622   0.589   2.903 -1.9493  0.9237  3.3306
 2954SOL    HW220496   2.656   0.497   3.018 -0.2440  0.6062 -0.4923
 2955SOL     OW20497   3.930   3.838   5.766  0.1143  0.1131  0.1162
 2955SOL    HW120498   4.025   3.843   5.771  0.1436  0.4065 -0.6427
 2955SOL    HW220499   3.894   3.925   5.751  2.4204  0.9890 -0.3208
 2956SOL     OW20500   2.600   2.968   7.719 -0.2551 -0.4344 -0.6521
 2956SOL    HW120501   2.679   3.021   7.711 -0.5496  0.0582 -0.2199
 2956SOL    HW220502   2.573   2.979   7.628  0.9648 -1.9905 -1.2123
 2957SOL     OW20503   2.648   0.560   8.072 -0.0197  0.4361 -0.3888
 2957SOL    HW120504   2.560   0.592   8.053  0.2557  0.7697 -1.1256
 2957SOL    HW220505   2.631   0.490   8.134 -2.3836  1.5680  0.2352
 2958SOL     OW20506   3.441   1.576   6.168 -0.4595  0.4314  0.5225
 2958SOL    HW120507   3.355   1.589   6.208 -0.9536  0.6368 -0.6106
 2958SOL    HW220508   3.502   1.629   6.218 -0.9058  0.8564  0.6146
 2959SOL     OW20509   3.401   2.569   8.851 -0.0243  0.0866 -0.0789
 2959SOL    HW120510   3.479   2.590   8.801 -0.6259  1.1263 -0.5616
 2959SOL    HW220511   3.354   2.513   8.789 -0.0029  2.6200 -2.3717
 2960SOL     OW20512   2.241   1.927  16.938 -0.1402 -0.0038 -0.4717
 2960SOL    HW120513   2.219   1.843  16.899 -1.1320 -0.2237  0.5742
 2960SOL    HW220514   2.159   1.975  16.948  0.3339  0.7312 -0.1141
 2961SOL     OW20515   4.664   2.198   3.463 -0.8399 -0.8655 -0.1501
 2961SOL    HW120516   4.600   2.229   3.527 -0.1852  1.7300 -0.7318
 2961SOL    HW220517   4.726   2.162   3.526  0.8673 -0.7645 -1.7906
 2962SOL     OW20518   2.966   4.405  13.850 -0.1419 -0.0549  0.3230
 2962SOL    HW120519   2.904   4.359  13.906 -0.1944  0.3966  0.6429
 2962SOL    HW220520   3.033   4.415  13.918  0.9492 -0.1420 -0.7277
 2963SOL     OW20521   4.236   3.945  14.518 -0.3900 -0.6044 -0.3685
 2963SOL    HW120522   4.293   3.963  14.443 -0.4007 -0.0049 -0.2337
 2963SOL    HW220523   4.296   3.965  14.590  0.9106 -0.2576 -1.5494
 2964SOL     OW20524   1.548   0.798   1.733  0.8310  0.1586  0.2687
 2964SOL    HW120525   1.531   0.843   1.816 -1.1226  0.0909 -0.0986
 2964SOL    HW220526   1.607   0.859   1.689  0.7638  1.2815  1.7432
 2965SOL     OW20527   2.748   3.846  12.057 -0.4111  0.3492 -1.0716
 2965SOL    HW120528   2.797   3.765  12.074  0.9552  1.4646  0.3743
 2965SOL    HW220529   2.821   3.903  12.082 -0.3785  0.8978 -2.3851
 2966SOL     OW20530   3.720   0.656   2.689 -0.2042 -0.4214  0.4088
 2966SOL    HW120531   3.712   0.743   2.726  0.4024 -1.0796  2.1090
 2966SOL    HW220532   3.701   0.670   2.596  3.2169  1.4720 -0.0107
 2967SOL     OW20533   3.943   0.948  12.452 -0.5758  0.1347  0.2929
 2967SOL    HW120534   3.944   0.863  12.495  3.2994  1.1602  2.1583
 2967SOL    HW220535   4.011   0.987  12.506  1.3899  1.0308 -2.8544
 2968SOL     OW20536   3.844   3.504   6.088  0.3767 -0.0471 -0.6832
 2968SOL    HW120537   3.846   3.467   6.000 -1.7647 -1.6913 -0.0430
 2968SOL    HW220538   3.838   3.597   6.067  1.9513  0.5528  1.5478
 2969SOL     OW20539   2.451   1.436   5.978  0.1614 -0.6057 -0.4404
 2969SOL    HW120540   2.481   1.444   5.887 -1.1424  3.4207 -0.5176
 2969SOL    HW220541   2.357   1.423   5.965  0.0866 -0.5671  0.0847
 2970SOL     OW20542   2.704   4.529   3.892 -0.4992 -0.1095 -0.0869
 2970SOL    HW120543   2.684   4.511   3.801 -0.0593 -0.9515 -0.0108
 2970SOL    HW220544   2.709   4.442   3.930 -0.6677  0.4003  1.1222
 2971SOL     OW20545   3.360   0.466   1.584  0.2267  0.1567 -0.2406
 2971SOL    HW120546   3.335   0.378   1.558 -2.5477  1.7067 -2.7825
 2971SOL    HW220547   3.430   0.454   1.649  1.5540  0.8338 -1.5524
 2972SOL     OW20548   1.815   3.097   0.075  0.2193 -0.0084  0.0274
 2972SOL    HW120549   1.750   3.111   0.145 -1.0020 -1.2850 -0.8486
 2972SOL    HW220550   1.862   3.016   0.090  0.3656  0.1014  0.1586
 2973SOL     OW20551   4.671   4.532   4.389 -0.1318  0.0798  0.0683
 2973SOL    HW120552   4.619   4.453   4.375 -0.3783  0.1389  0.6654
 2973SOL    HW220553   4.716   4.552   4.307 -1.3351  0.2619 -0.5449
 2974SOL     OW20554   1.660   2.820   6.361  0.5084  0.1995 -0.3743
 2974SOL    HW120555   1.619   2.882   6.421  0.1224 -0.5479  0.1340
 2974SOL    HW220556   1.679   2.876   6.285 -0.2352 -0.4203 -1.0266
 2975SOL     OW20557   0.721   0.292   1.073 -0.3687  0.0246 -0.5071
 2975SOL    HW120558   0.699   0.380   1.105  0.0212  0.7483 -2.2198
 2975SOL    HW220559   0.752   0.245   1.150 -1.1308  1.3106  0.6009
 2976SOL     OW20560   3.641   1.551  12.442  0.9023  0.1777  0.0511
 2976SOL    HW120561   3.553   1.590  12.440  0.5002 -0.8097 -2.0652
 2976SOL    HW220562   3.622   1.478  12.383 -0.5043 -2.1693  3.4705
 2977SOL     OW20563   3.641   2.663   4.795  0.3300  0.1456  0.8898
 2977SOL    HW120564   3.595   2.739   4.832  3.5551  2.1328  0.8416
 2977SOL    HW220565   3.671   2.612   4.870  0.7287 -2.7270 -1.2177
 2978SOL     OW20566   3.848   4.582   3.692 -0.4710 -0.1124 -0.1814
 2978SOL    HW120567   3.818   4.551   3.606 -2.0621 -1.8233  0.9934
 2978SOL    HW220568   3.795   4.661   3.689  0.2857  0.3931 -0.1482
 2979SOL     OW20569   1.087   1.367   6.369 -0.9942  0.0791 -0.1683
 2979SOL    HW120570   1.049   1.428   6.306 -0.4900 -1.0731 -1.5918
 2979SOL    HW220571   1.177   1.352   6.339 -1.2843 -0.3174 -0.8368
 2980SOL     OW20572   2.290   3.069   3.966 -0.4194 -0.1059  0.2194
 2980SOL    HW120573   2.205   3.062   3.923 -1.1483  0.5250  1.5575
 2980SOL    HW220574   2.347   3.075   3.890 -0.6986  0.7990  0.0801
 2981SOL     OW20575   0.358   3.187   9.086 -0.0905  0.2015  0.3957
 2981SOL    HW120576   0.357   3.093   9.100 -0.9385  0.4771  2.1305
 2981SOL    HW220577   0.434   3.203   9.142  0.1480  0.1365  0.0899
 2982SOL     OW20578   2.856   3.858   5.124  0.2805  0.6240 -0.2953
 2982SOL    HW120579   2.879   3.946   5.092  0.5113  0.8916  0.5834
 2982SOL    HW220580   2.769   3.844   5.088  0.7806 -2.5861 -0.2546
 2983SOL     OW20581   0.420   2.768   1.599 -0.0576  0.7116  0.7953
 2983SOL    HW120582   0.491   2.833   1.596 -1.2006  1.9094 -0.1882
 2983SOL    HW220583   0.445   2.698   1.539 -0.2267  0.9582  0.4410
 2984SOL     OW20584   0.820   1.031   6.686 -0.7845  0.1190  0.9321
 2984SOL    HW120585   0.768   1.111   6.695 -1.7953 -0.2972 -1.0840
 2984SOL    HW220586   0.903   1.070   6.713 -2.1697  1.5593  3.1707
 2985SOL     OW20587   1.230   3.029   2.409  0.0059  0.2472  0.4137
 2985SOL    HW120588   1.148   3.073   2.386 -0.3893 -0.8349 -0.2493
 2985SOL    HW220589   1.246   3.081   2.488 -1.3995  1.5154 -0.1337
 2986SOL     OW20590   3.497   1.780  13.176  0.6270 -0.0111  0.4126
 2986SOL    HW120591   3.475   1.783  13.269 -2.4087  0.2733 -0.3067
 2986SOL    HW220592   3.407   1.764  13.147  0.5030 -0.0077  0.7948
 2987SOL     OW20593   1.075   2.124   7.860  0.1044  0.3300  0.3678
 2987SOL    HW120594   1.126   2.161   7.788  1.4537  1.0396  1.6831
 2987SOL    HW220595   1.142   2.122   7.929 -1.0637 -2.4816  1.4265
 2988SOL     OW20596   3.812   2.087   4.131 -0.1141  0.5054 -0.0133
 2988SOL    HW120597   3.764   2.162   4.166 -2.1931  0.1959 -2.1877
 2988SOL    HW220598   3.786   2.078   4.039 -0.9988  0.3322  0.2508
 2989SOL     OW20599   0.796   1.327  12.268 -0.3345 -0.0124 -0.5703
 2989SOL    HW120600   0.772   1.295  12.181 -1.6094  0.7852 -0.5177
 2989SOL    HW220601   0.772   1.420  12.266  0.3940  0.2157  1.8819
 2990SOL     OW20602   4.624   4.674   3.958 -0.2431  0.1694  0.1627
 2990SOL    HW120603   4.550   4.720   3.917 -1.6963 -1.2316  1.1997
 2990SOL    HW220604   4.672   4.653   3.879  0.2094  1.2448  0.1505
 2991SOL     OW20605   4.538   0.589   3.513 -0.2839 -0.1507  0.4961
 2991SOL    HW120606   4.528   0.500   3.480  0.3636  0.3085 -0.9710
 2991SOL    HW220607   4.606   0.617   3.452 -1.4662  1.7509  0.0525
 2992SOL     OW20608   2.914   1.038   8.359  0.2481 -0.0654 -0.5966
 2992SOL    HW120609   2.920   1.133   8.354  0.3622  0.0652  1.7150
 2992SOL    HW220610   2.842   1.032   8.422  1.2667  1.6885  0.7222
 2993SOL     OW20611   1.159   2.104   0.659  0.3148 -0.4252 -0.0318
 2993SOL    HW120612   1.085   2.046   0.678  0.6051 -0.4043  1.1476
 2993SOL    HW220613   1.154   2.106   0.563 -1.3985 -1.0866  0.0522
 2994SOL     OW20614   1.844   0.695   6.783 -0.2490 -0.2553 -0.2375
 2994SOL    HW120615   1.938   0.674   6.785 -0.6367 -2.1956 -2.6000
 2994SOL    HW220616   1.804   0.612   6.808 -0.6804  0.7847  2.4377
 2995SOL     OW20617   0.473   2.009   1.045  0.3998 -0.7541 -0.0319
 2995SOL    HW120618   0.477   1.918   1.076 -0.5997 -1.4179 -1.8413
 2995SOL    HW220619   0.569   2.018   1.040  0.1098  1.6646 -0.8794
 2996SOL     OW20620   2.524   3.656  17.618 -0.0503  0.1069  0.2146
 2996SOL    HW120621   2.491   3.738  17.582 -0.8495 -0.4789 -0.3873
 2996SOL    HW220622   2.469   3.642  17.694 -0.5463 -2.0028 -0.5482
 2997SOL     OW20623   3.211   3.145   7.757  0.0781  0.1407  0.7953
 2997SOL    HW120624   3.160   3.190   7.690 -0.8244 -3.5104 -1.0071
 2997SOL    HW220625   3.255   3.222   7.794  2.7609 -1.3242  0.6591
 2998SOL     OW20626   1.159   3.035  11.104  0.2165  0.1135  0.0447
 2998SOL    HW120627   1.246   3.069  11.081  0.8576 -0.6848  1.2690
 2998SOL    HW220628   1.112   3.108  11.145  2.9963  1.1614  1.4027
 2999SOL     OW20629   2.162   1.013   7.125  0.1961  0.3447 -0.2635
 2999SOL    HW120630   2.226   0.984   7.061  2.3547  2.6145  0.8535
 2999SOL    HW220631   2.089   0.972   7.080 -0.6502  3.1618 -1.4887
 3000SOL     OW20632   2.970   2.773  12.917  0.3773 -0.0918  1.1641
 3000SOL    HW120633   3.016   2.856  12.922  0.4126 -0.1984  2.7439
 3000SOL    HW220634   2.927   2.771  13.002 -0.8636  1.3006  0.5659
 3001SOL     OW20635   0.305   0.374  14.886  0.0058  0.2859 -0.0607
 3001SOL    HW120636   0.310   0.417  14.972 -1.9012 -0.0809  0.2462
 3001SOL    HW220637   0.394   0.359  14.857  0.5028  3.1246  0.0387
 3002SOL     OW20638   0.492   2.886   8.775 -0.3604 -0.0010 -0.8905
 3002SOL    HW120639   0.557   2.818   8.790 -1.8832 -1.1770  0.3886
 3002SOL    HW220640   0.539   2.964   8.807 -0.0963 -0.8174  0.6938
 3003SOL     OW20641   3.391   3.520   6.654 -1.1846  0.3109  0.2066
 3003SOL    HW120642   3.451   3.463   6.702 -1.0790  1.8734  1.9202
 3003SOL    HW220643   3.344   3.569   6.720  0.2003  1.6181  0.2154
 3004SOL     OW20644   0.857   1.637   0.127  0.0980  0.4873  0.2561
 3004SOL    HW120645   0.778   1.691   0.115  0.4302  0.8281 -0.3810
 3004SOL    HW220646   0.843   1.615   0.220 -1.0411  1.2283  0.2593
 3005SOL     OW20647   4.111   1.424   4.104  0.0897 -0.3990 -0.0386
 3005SOL    HW120648   4.079   1.338   4.076 -0.5219  0.3752 -1.6991
 3005SOL    HW220649   4.138   1.460   4.020  1.3774 -0.4631  0.3446
 3006SOL     OW20650   0.613   0.751   2.239  0.3143 -0.0893 -0.4518
 3006SOL    HW120651   0.534   0.700   2.259  1.5273 -1.9682 -0.3977
 3006SOL    HW220652   0.643   0.761   2.329 -0.2276 -0.2846 -0.2503
 3007SOL     OW20653   2.186   0.275  17.478  0.1735 -0.3547 -0.4451
 3007SOL    HW120654   2.271   0.263  17.520  0.2770 -0.5624 -0.7183
 3007SOL    HW220655   2.199   0.215  17.405 -1.5897 -0.3176 -0.7946
 3008SOL     OW20656   2.551   1.618   6.890  0.0823 -0.5646 -0.2930
 3008SOL    HW120657   2.543   1.667   6.972 -0.6845  0.7234 -1.1497
 3008SOL    HW220658   2.609   1.683   6.851  0.2313 -0.8550 -0.5592
 3009SOL     OW20659   2.240   1.449   2.450  0.7587 -0.2109  0.1226
 3009SOL    HW120660   2.304   1.443   2.379 -0.5226  1.2494 -1.1545
 3009SOL    HW220661   2.301   1.451   2.523  1.1641 -0.0740 -0.2247
 3010SOL     OW20662   4.718   3.216  13.415 -0.7282  0.2462  0.3236
 3010SOL    HW120663   4.688   3.153  13.480 -0.7836  0.0380  0.0939
 3010SOL    HW220664   4.642   3.270  13.391  0.3002  1.5815  0.0565
 3011SOL     OW20665   0.790   2.760   2.977 -0.3369 -0.9239 -0.5924
 3011SOL    HW120666   0.745   2.825   2.924 -1.0375 -0.7150  0.2599
 3011SOL    HW220667   0.857   2.717   2.924  1.2202 -1.8935  2.1925
 3012SOL     OW20668   3.253   4.203   5.779 -0.2250 -0.5973 -0.5341
 3012SOL    HW120669   3.261   4.173   5.869  2.7429  0.8205 -0.3262
 3012SOL    HW220670   3.158   4.205   5.772 -0.4091 -2.9080  1.2354
 3013SOL     OW20671   2.079   0.111   8.417  0.0364 -0.3362 -0.0767
 3013SOL    HW120672   2.011   0.163   8.461  1.3957  0.9647  0.5044
 3013SOL    HW220673   2.054   0.021   8.435 -1.6012  0.4813  1.7269
 3014SOL     OW20674   2.396   0.101  13.081  0.3487  0.1589 -0.3093
 3014SOL    HW120675   2.404   0.088  13.175 -2.0885 -1.6321 -0.3501
 3014SOL    HW220676   2.450   0.179  13.075 -2.1514  1.9588  0.5247
 3015SOL     OW20677   0.268   3.241  12.557  0.4916 -0.2267  0.3126
 3015SOL    HW120678   0.278   3.163  12.612 -0.7745 -0.4921  0.1552
 3015SOL    HW220679   0.362   3.249  12.539  0.7692  1.8598  2.7663
 3016SOL     OW20680   1.360   0.524   3.407 -0.2696  0.7139  0.0476
 3016SOL    HW120681   1.302   0.457   3.371 -0.2664  0.7540 -0.0338
 3016SOL    HW220682   1.323   0.594   3.352  1.6432  2.3572  0.8394
 3017SOL     OW20683   0.253   0.965   5.752 -0.3822 -0.0497  0.0726
 3017SOL    HW120684   0.261   0.887   5.808  0.8920  0.1919  0.2306
 3017SOL    HW220685   0.347   0.971   5.734  0.1325 -1.4205  2.2290
 3018SOL     OW20686   0.955   3.276   3.754  0.7151  0.0252  0.7575
 3018SOL    HW120687   1.013   3.211   3.792  0.4926 -0.0766  0.9203
 3018SOL    HW220688   0.990   3.360   3.784  0.2307  0.2058  0.8177
 3019SOL     OW20689   2.951   0.127   0.825  0.1164  0.1525 -0.2353
 3019SOL    HW120690   2.893   0.202   0.813 -0.5640 -0.0962  1.4443
 3019SOL    HW220691   2.931   0.092   0.738 -0.5306  2.6313 -1.0710
 3020SOL     OW20692   2.718   2.488  13.589 -0.0485  0.2651 -0.5106
 3020SOL    HW120693   2.686   2.546  13.520  1.4948 -1.3467 -2.5775
 3020SOL    HW220694   2.780   2.435  13.538  2.3616 -1.1036  3.7946
 3021SOL     OW20695   0.253   2.880   6.956 -0.2912 -0.2286 -0.4212
 3021SOL    HW120696   0.263   2.904   6.864 -0.5174  1.9749  0.1337
 3021SOL    HW220697   0.228   2.961   7.001 -1.8974 -0.3634 -1.0752
 3022SOL     OW20698   3.593   0.793  10.961 -0.0457 -0.1744 -0.1983
 3022SOL    HW120699   3.570   0.704  10.988 -3.2513  0.3740 -1.0831
 3022SOL    HW220700   3.682   0.802  10.996 -0.7629  0.3372  1.5150
 3023SOL     OW20701   2.490   2.784   7.274  0.5867  0.5787  0.0910
 3023SOL    HW120702   2.485   2.689   7.280 -1.2197  0.7883  2.3530
 3023SOL    HW220703   2.424   2.811   7.339 -0.1586 -1.7300  0.2838
 3024SOL     OW20704   0.990   2.346   6.398 -1.0873 -0.5112  0.0544
 3024SOL    HW120705   0.932   2.419   6.377 -1.6063 -0.9287  0.0367
 3024SOL    HW220706   0.994   2.365   6.491 -1.5224  2.7460 -0.5857
 3025SOL     OW20707   1.561   0.608  11.129 -0.1569  0.1760 -0.5678
 3025SOL    HW120708   1.471   0.593  11.159  0.3767  0.8226  1.4142
 3025SOL    HW220709   1.599   0.582  11.213 -0.3221  0.8857 -0.2684
 3026SOL     OW20710   1.621   0.280   3.019 -0.2858 -0.7950  0.2389
 3026SOL    HW120711   1.609   0.357   3.075  0.7879  0.3277 -1.0677
 3026SOL    HW220712   1.689   0.234   3.067 -1.1354 -0.0677  2.1471
 3027SOL     OW20713   1.572   3.152   2.874  0.2439 -0.1876  0.1991
 3027SOL    HW120714   1.620   3.235   2.868  0.5121 -0.2983  0.8129
 3027SOL    HW220715   1.636   3.084   2.851  1.3854  1.0223 -0.1803
 3028SOL     OW20716   4.085   0.340   4.651 -0.4097 -0.4727 -0.7652
 3028SOL    HW120717   4.010   0.307   4.700 -0.7157  1.2982 -0.0271
 3028SOL    HW220718   4.150   0.357   4.719 -0.6797  0.6039 -0.7795
 3029SOL     OW20719   3.329   2.516   5.416 -0.4546  0.0778  0.2197
 3029SOL    HW120720   3.275   2.515   5.496  1.1200 -0.7328  1.2668
 3029SOL    HW220721   3.290   2.436   5.380  0.8551  0.6306 -2.4042
 3030SOL     OW20722   4.596   0.941   2.753  0.6779 -0.0640  0.6724
 3030SOL    HW120723   4.586   1.030   2.720 -0.3105 -0.9061 -1.3238
 3030SOL    HW220724   4.520   0.943   2.812 -1.2166 -2.5646 -1.6645
 3031SOL     OW20725   4.539   3.046   0.846  0.2175 -0.5704 -0.2930
 3031SOL    HW120726   4.591   3.018   0.921  1.5288  0.2602 -0.8878
 3031SOL    HW220727   4.601   3.010   0.783 -0.4293 -0.2777 -1.0965
 3032SOL     OW20728   2.533   2.515   9.613  0.1661  0.4552  0.2766
 3032SOL    HW120729   2.517   2.601   9.574  2.1306  1.5443  1.8699
 3032SOL    HW220730   2.452   2.470   9.592  1.1484 -1.6386  0.9329
 3033SOL     OW20731   2.876   1.164   4.483  0.1755  0.1637  0.2565
 3033SOL    HW120732   2.934   1.211   4.423  0.2280 -0.3262 -0.0746
 3033SOL    HW220733   2.942   1.135   4.547  0.1425 -1.9668 -0.6830
 3034SOL     OW20734   4.524   4.525  14.399 -0.0782  0.1783  0.0796
 3034SOL    HW120735   4.603   4.504  14.350 -0.6667 -0.3419 -0.6448
 3034SOL    HW220736   4.530   4.619  14.385 -0.1513  0.2237  0.3375
 3035SOL     OW20737   2.947   4.677  16.554 -0.3439 -0.7662 -0.1108
 3035SOL    HW120738   2.920   4.696  16.465 -1.8636  0.3440  0.5794
 3035SOL    HW220739   2.907   0.017  16.603  0.7464 -0.3227  0.1395
 3036SOL     OW20740   1.155   3.474   3.065 -0.4043  0.2667 -0.1777
 3036SOL    HW120741   1.093   3.522   3.120 -1.4277  0.9201 -1.8931
 3036SOL    HW220742   1.106   3.395   3.045 -1.6724  1.0880 -0.3190
 3037SOL     OW20743   1.183   4.558   8.186 -0.2840 -0.2745 -0.2664
 3037SOL    HW120744   1.162   4.500   8.258 -1.3665 -2.1021 -2.0609
 3037SOL    HW220745   1.180   4.506   8.106 -1.7999 -1.8911  0.8674
 3038SOL     OW20746   0.123   2.058  16.386  0.1757 -0.0838 -0.3533
 3038SOL    HW120747   0.086   1.999  16.321  2.9364 -0.2531 -1.7309
 3038SOL    HW220748   0.099   2.147  16.359  0.5505  0.3345  0.7011
 3039SOL     OW20749   0.872   1.089  16.175 -0.2437  0.9338  0.3993
 3039SOL    HW120750   0.813   1.106  16.102 -0.1716  2.5083  0.7041
 3039SOL    HW220751   0.883   0.994  16.178  4.8031  1.5496  2.2082
 3040SOL     OW20752   3.592   2.185  15.595 -0.4875 -0.0092  0.0825
 3040SOL    HW120753   3.569   2.097  15.566  0.7391  0.1055 -1.2450
 3040SOL    HW220754   3.636   2.222  15.518 -2.4081 -0.5442 -1.2620
 3041SOL     OW20755   4.084   3.943   6.372  0.8266 -0.4825  0.2078
 3041SOL    HW120756   3.998   3.979   6.394  1.6200 -0.6630  3.5943
 3041SOL    HW220757   4.060   3.854   6.347  2.3777 -0.9436  0.3155
 3042SOL     OW20758   0.210   2.414   8.455 -0.0462  0.2458  0.1125
 3042SOL    HW120759   0.196   2.481   8.389  0.8762  0.2305 -0.0997
 3042SOL    HW220760   0.194   2.326   8.420 -0.9051 -0.4148  2.1522
 3043SOL     OW20761   1.085   0.444   2.555  0.5152  0.0030  0.5184
 3043SOL    HW120762   1.168   0.479   2.588  0.3874  0.7277  0.0691
 3043SOL    HW220763   1.063   0.368   2.609  0.5663  1.6297  2.8233
 3044SOL     OW20764   0.520   3.597  14.021 -0.1491 -0.8495  0.0641
 3044SOL    HW120765   0.435   3.631  14.048  0.5747  1.4563 -0.6386
 3044SOL    HW220766   0.510   3.504  14.042 -2.2049 -0.7739 -0.5475
 3045SOL     OW20767   4.719   1.836   0.516 -0.3347  0.0377  0.1061
 3045SOL    HW120768   0.014   1.744   0.517 -2.0985 -0.5119 -2.7640
 3045SOL    HW220769   4.670   1.839   0.434  0.0900  0.9536 -0.1089
 3046SOL     OW20770   3.036   2.713   7.356 -0.5914 -0.3128  0.6590
 3046SOL    HW120771   3.039   2.621   7.329 -0.7953  0.2705 -1.3842
 3046SOL    HW220772   3.067   2.757   7.277 -0.8891 -1.2370  0.0175
 3047SOL     OW20773   2.517   1.624  15.773  0.7599  0.6559 -0.2537
 3047SOL    HW120774   2.609   1.599  15.770  0.5086 -0.2178 -0.8245
 3047SOL    HW220775   2.513   1.718  15.789 -2.2528  0.7591 -1.5104
 3048SOL     OW20776   0.574   4.497   4.731  0.0082 -0.6930 -0.3037
 3048SOL    HW120777   0.498   4.440   4.747 -1.1006  0.8871  0.0850
 3048SOL    HW220778   0.550   4.543   4.651  1.6263  1.3884  0.4265
 3049SOL     OW20779   1.841   4.116   9.593  0.5338  0.5917  0.3497
 3049SOL    HW120780   1.855   4.206   9.563  0.7152 -0.2905 -2.2556
 3049SOL    HW220781   1.859   4.058   9.519 -1.3006 -0.3306  0.6537
 3050SOL     OW20782   0.960   2.890   2.323  0.7037  0.1572  0.4577
 3050SOL    HW120783   0.933   2.975   2.356  1.4113  0.3984  0.4103
 3050SOL    HW220784   0.886   2.829   2.328  0.8849 -0.2415 -1.7601
 3051SOL     OW20785   1.040   3.528   3.866 -0.0584 -0.0031  0.9398
 3051SOL    HW120786   0.993   3.606   3.838  0.9253 -0.4820 -2.0967
 3051SOL    HW220787   1.109   3.565   3.920 -0.1681 -1.9665  2.4607
 3052SOL     OW20788   3.447   1.022   1.194 -1.0195  0.0461 -0.1489
 3052SOL    HW120789   3.380   1.032   1.262 -1.1325 -0.0041 -0.2545
 3052SOL    HW220790   3.400   1.065   1.123 -1.3277 -0.5656 -0.3103
 3053SOL     OW20791   2.502   3.191   8.305  0.1975 -0.0660 -0.6814
 3053SOL    HW120792   2.516   3.252   8.378 -0.4533 -2.2772  1.3270
 3053SOL    HW220793   2.415   3.228   8.288 -0.5543 -1.3355  0.4028
 3054SOL     OW20794   1.832   2.353  14.795 -0.2902 -0.1121  0.3068
 3054SOL    HW120795   1.783   2.273  14.775 -0.8418 -0.5592  3.5658
 3054SOL    HW220796   1.863   2.377  14.707  3.8677  0.8484  2.0310
 3055SOL     OW20797   0.022   1.803   1.062 -0.3771  0.2182 -0.5023
 3055SOL    HW120798   0.062   1.716   1.052 -0.3189  0.0809  0.8751
 3055SOL    HW220799   0.093   1.864   1.042  0.6446 -1.3996 -1.8948
 3056SOL     OW20800   1.807   4.302   7.520 -0.1765 -0.0282 -0.2376
 3056SOL    HW120801   1.767   4.295   7.433  0.6870 -0.0014 -0.6426
 3056SOL    HW220802   1.838   4.392   7.520 -1.3828  0.3819 -1.8377
 3057SOL     OW20803   0.945   3.775   6.993  0.3534 -0.1467 -0.3219
 3057SOL    HW120804   0.977   3.851   7.042  0.1012 -0.4249  0.2601
 3057SOL    HW220805   0.917   3.709   7.055 -3.2049  0.9613 -0.7325
 3058SOL     OW20806   0.948   1.329   3.255 -0.2702 -0.3303  0.6670
 3058SOL    HW120807   0.991   1.349   3.338 -1.1730  0.7425  0.8834
 3058SOL    HW220808   1.016   1.290   3.200 -0.0437 -0.4217  1.0142
 3059SOL     OW20809   4.390   3.266   5.475 -0.1670  0.6443  0.6838
 3059SOL    HW120810   4.348   3.193   5.430  3.2269 -0.5367 -0.5496
 3059SOL    HW220811   4.415   3.215   5.552  0.9290  0.3374  0.1194
 3060SOL     OW20812   2.654   2.157  13.391 -0.3496 -0.2258 -0.1922
 3060SOL    HW120813   2.603   2.201  13.459 -1.4203 -1.5159 -0.1698
 3060SOL    HW220814   2.737   2.153  13.439  0.0087  1.0154 -0.7089
 3061SOL     OW20815   3.317   2.623   6.021 -0.7396  0.4301 -0.5833
 3061SOL    HW120816   3.356   2.570   5.951  0.9566 -0.5746  1.1079
 3061SOL    HW220817   3.329   2.559   6.091  0.2660  0.7551 -0.4452
 3062SOL     OW20818   3.116   1.241   5.325  0.5238  0.2393 -0.0613
 3062SOL    HW120819   3.040   1.187   5.349  0.2017  1.2038  1.0988
 3062SOL    HW220820   3.188   1.183   5.351 -1.6584 -2.0996  0.7351
 3063SOL     OW20821   4.476   4.200   9.806  0.5777 -0.2862  1.0022
 3063SOL    HW120822   4.494   4.233   9.718  0.7364  0.8297  1.4462
 3063SOL    HW220823   4.455   4.285   9.846 -1.1955 -0.3453  0.1930
 3064SOL     OW20824   1.711   4.023  14.278  0.6376 -0.0744  0.5529
 3064SOL    HW120825   1.779   3.974  14.231  0.8709  1.9346 -1.2174
 3064SOL    HW220826   1.717   3.995  14.369  0.2727 -1.8188  0.0514
 3065SOL     OW20827   2.096   3.424  11.682 -0.3760 -0.2564 -0.3314
 3065SOL    HW120828   2.038   3.441  11.757 -0.8458  0.3238 -0.8277
 3065SOL    HW220829   2.106   3.330  11.694 -1.1422 -0.1821  0.9083
 3066SOL     OW20830   0.362   1.766   6.369 -0.7154 -0.2689 -0.2922
 3066SOL    HW120831   0.297   1.715   6.320  0.5062  0.3942 -2.5968
 3066SOL    HW220832   0.333   1.759   6.460  1.0636 -1.2927  0.1884
 3067SOL     OW20833   2.510   4.289   6.271  0.4153  0.1184  0.2759
 3067SOL    HW120834   2.424   4.269   6.307 -0.0455 -1.5604 -1.7982
 3067SOL    HW220835   2.498   4.243   6.188 -1.2485  0.1968  0.4783
 3068SOL     OW20836   3.978   0.769  13.809 -0.2649  0.1551 -0.3695
 3068SOL    HW120837   3.894   0.777  13.764 -0.1147 -1.6159 -0.9787
 3068SOL    HW220838   4.017   0.695  13.761  0.5736  0.6456 -0.4416
 3069SOL     OW20839   1.391   3.481   3.761  0.1264 -0.0276 -0.0137
 3069SOL    HW120840   1.323   3.423   3.727  0.9310 -2.0931  1.9120
 3069SOL    HW220841   1.352   3.519   3.840 -0.5569 -0.8538  0.0461
 3070SOL     OW20842   1.002   0.219   7.873  0.3941 -0.0754 -0.2808
 3070SOL    HW120843   1.080   0.274   7.865 -0.1589  0.8632  0.8742
 3070SOL    HW220844   0.970   0.264   7.951 -2.0923 -1.4079 -0.5156
 3071SOL     OW20845   0.524   1.280  16.567  0.0018  0.2821  0.2044
 3071SOL    HW120846   0.587   1.238  16.509  1.1827 -1.6789  2.9277
 3071SOL    HW220847   0.578   1.303  16.642 -0.7578  0.7269  0.6121
 3072SOL     OW20848   1.580   4.622   2.065  0.8088  0.1203  0.2065
 3072SOL    HW120849   1.540   4.674   2.135 -1.2677  0.9411 -1.5768
 3072SOL    HW220850   1.523   4.547   2.047  2.2197 -0.6221 -1.1258
 3073SOL     OW20851   4.221   3.687  10.305 -0.0932 -0.3678  0.3278
 3073SOL    HW120852   4.276   3.716  10.233  0.4280 -0.9266  0.5018
 3073SOL    HW220853   4.222   3.767  10.358  1.2021 -0.0002 -0.2724
 3074SOL     OW20854   3.141   3.119  14.560  0.4365 -0.3297 -0.3552
 3074SOL    HW120855   3.145   3.212  14.580  4.2230 -0.6295  0.2884
 3074SOL    HW220856   3.046   3.112  14.575  0.5770 -0.0459  0.6633
 3075SOL     OW20857   2.302   0.100  10.701  0.4565 -0.7664 -0.0587
 3075SOL    HW120858   2.224   0.147  10.672  0.8066 -0.1686 -0.0310
 3075SOL    HW220859   2.319   0.022  10.648  1.3636  0.3213 -1.3631
 3076SOL     OW20860   1.678   3.022   6.177 -0.4096  0.8926  0.0016
 3076SOL    HW120861   1.769   3.048   6.192 -0.1670 -0.5571  1.0467
 3076SOL    HW220862   1.653   3.112   6.155 -1.8956  0.9355  1.8485
 3077SOL     OW20863   2.654   0.629   3.173  0.1121 -0.6970 -0.0558
 3077SOL    HW120864   2.734   0.654   3.218 -1.0839  1.3468  0.9050
 3077SOL    HW220865   2.639   0.711   3.127 -0.8877  0.6008  2.6208
 3078SOL     OW20866   4.600   3.675  17.455  0.0752  0.1904  0.0189
 3078SOL    HW120867   4.516   3.716  17.474  0.4475  0.7973  0.3521
 3078SOL    HW220868   4.619   3.664  17.548 -0.8657 -0.4924  0.1372
 3079SOL     OW20869   1.945   3.254   3.646  0.4246  0.0186  0.4958
 3079SOL    HW120870   2.018   3.194   3.661  0.4389 -0.6730 -2.2934
 3079SOL    HW220871   1.895   3.232   3.724 -2.1574 -0.4192 -1.2840
 3080SOL     OW20872   1.123   0.180  12.183 -0.3912 -0.0697 -0.6867
 3080SOL    HW120873   1.034   0.216  12.182 -0.2054  0.3909 -0.6477
 3080SOL    HW220874   1.175   0.231  12.121 -0.3684 -1.5529 -1.8987
 3081SOL     OW20875   1.923   1.407   6.497 -0.4153  0.0539  0.0442
 3081SOL    HW120876   1.938   1.399   6.591 -1.0495  2.2658  0.3146
 3081SOL    HW220877   1.850   1.348   6.475 -0.4159 -0.0186  0.2361
 3082SOL     OW20878   0.844   1.875  11.314  0.2939  0.0428  0.2394
 3082SOL    HW120879   0.762   1.825  11.314  0.0413  0.4434  2.5034
 3082SOL    HW220880   0.907   1.805  11.332  0.9058 -0.1747 -2.8479
 3083SOL     OW20881   0.582   1.361   3.687  0.1959  0.1112 -0.0104
 3083SOL    HW120882   0.556   1.448   3.656  2.0370  0.5073 -0.4545
 3083SOL    HW220883   0.555   1.374   3.778 -1.1899 -2.5102 -0.0362
 3084SOL     OW20884   3.152   1.179   8.572 -0.5076  0.1998 -0.2037
 3084SOL    HW120885   3.080   1.121   8.597  0.3889 -1.9002 -2.4567
 3084SOL    HW220886   3.092   1.222   8.511 -1.6213 -0.4270  0.4367
 3085SOL     OW20887   0.040   1.340   1.944  0.1037 -0.6721 -0.1777
 3085SOL    HW120888   0.011   1.367   1.857 -0.5153 -0.4347  0.0992
 3085SOL    HW220889   0.003   1.420   1.982 -0.7617 -1.1099 -0.0964
 3086SOL     OW20890   3.601   2.725   2.624  0.1092  0.0695 -0.9461
 3086SOL    HW120891   3.636   2.762   2.543  0.7562  0.1419 -0.6364
 3086SOL    HW220892   3.674   2.718   2.686  0.2546  0.5218 -1.0618
 3087SOL     OW20893   1.578   1.855   9.361 -0.2656  0.2381 -0.1227
 3087SOL    HW120894   1.529   1.933   9.334 -1.2020 -0.2290  0.2325
 3087SOL    HW220895   1.554   1.801   9.285 -0.4283 -0.8178  0.6860
 3088SOL     OW20896   4.204   3.195   8.092  0.1765  0.2251 -0.4609
 3088SOL    HW120897   4.128   3.176   8.037 -0.8522  1.3004  0.5613
 3088SOL    HW220898   4.242   3.278   8.063 -1.1748  0.4491 -1.5698
 3089SOL     OW20899   2.894   2.144  13.530 -0.1805 -0.4004 -0.0813
 3089SOL    HW120900   2.923   2.228  13.566 -1.5894 -0.3609  0.9348
 3089SOL    HW220901   2.908   2.080  13.601 -1.2054 -0.2466  0.2472
 3090SOL     OW20902   3.703   0.955   6.878  0.3422 -0.2979 -0.3014
 3090SOL    HW120903   3.631   0.908   6.837  0.1544  1.0153 -1.4405
 3090SOL    HW220904   3.761   0.947   6.802 -2.3106 -0.3347 -2.3211
 3091SOL     OW20905   0.010   0.428  11.438  0.2341  0.3522  0.5994
 3091SOL    HW120906   0.057   0.507  11.410  0.8545 -0.5636 -0.9413
 3091SOL    HW220907   0.047   0.408  11.524  0.3597 -1.0314  0.2299
 3092SOL     OW20908   0.291   1.375   3.203  0.2582 -0.2335  0.1120
 3092SOL    HW120909   0.291   1.291   3.157  1.9412 -0.0289 -0.2513
 3092SOL    HW220910   0.381   1.379   3.236  0.2280 -1.1014  0.3014
 3093SOL     OW20911   3.438   2.013   2.764  0.5141 -0.2051 -0.1313
 3093SOL    HW120912   3.469   2.098   2.796 -1.2504  0.4876 -0.2480
 3093SOL    HW220913   3.474   2.004   2.676  0.9101 -0.2407  0.0360
 3094SOL     OW20914   3.024   2.123  10.148 -0.5678  0.2556  0.4048
 3094SOL    HW120915   3.025   2.044  10.202 -1.2871  0.6293  0.9649
 3094SOL    HW220916   3.058   2.190  10.208  0.5561  0.7313 -0.7634
 3095SOL     OW20917   2.672   2.828   4.008 -0.1853  0.2234  0.0834
 3095SOL    HW120918   2.740   2.765   4.031  0.7246  2.0254  2.2438
 3095SOL    HW220919   2.593   2.779   3.981  0.5506 -0.2526 -1.2173
 3096SOL     OW20920   0.766   1.844   7.631 -0.3524  0.1645  0.0505
 3096SOL    HW120921   0.746   1.785   7.704  1.8422  0.2087  0.6806
 3096SOL    HW220922   0.750   1.790   7.553  1.4532  1.5530 -1.2801
 3097SOL     OW20923   3.003   3.167   5.292 -0.4443 -0.3397 -0.3480
 3097SOL    HW120924   2.922   3.148   5.244 -0.4430  0.0271 -0.4937
 3097SOL    HW220925   2.996   3.260   5.314 -0.0568 -0.1260 -1.1418
 3098SOL     OW20926   0.974   4.529   1.482 -0.1656  0.2043 -0.1078
 3098SOL    HW120927   0.912   4.541   1.555 -0.2570  0.3101 -0.2018
 3098SOL    HW220928   1.055   4.565   1.517 -0.9492  1.5752  0.3149
 3099SOL     OW20929   0.545   1.946   0.295  0.0386 -0.3469 -0.3283
 3099SOL    HW120930   0.611   1.886   0.263  1.0203  1.0547 -0.9511
 3099SOL    HW220931   0.589   1.985   0.371  1.0885  0.5167 -1.3805
 3100SOL     OW20932   4.183   0.260   9.736 -0.3329  0.4679  0.2590
 3100SOL    HW120933   4.127   0.190   9.768 -1.4179  1.2010 -0.0194
 3100SOL    HW220934   4.112   0.324   9.730  0.1104  0.9444  0.1182
 3101SOL     OW20935   1.787   3.403   8.718  0.8248 -0.0261 -0.5942
 3101SOL    HW120936   1.814   3.313   8.696 -0.9929  0.2293 -3.8404
 3101SOL    HW220937   1.753   3.399   8.808 -0.5273  1.0838 -1.0664
 3102SOL     OW20938   3.316   0.827   3.350 -0.0009  0.2765  0.5232
 3102SOL    HW120939   3.323   0.826   3.445 -2.5128 -0.3854  0.7125
 3102SOL    HW220940   3.232   0.871   3.335 -0.5031 -1.1014 -0.6789
 3103SOL     OW20941   1.935   3.913   9.385  0.6922 -0.2864  0.2119
 3103SOL    HW120942   1.919   3.829   9.342  2.2181  0.0569 -1.0484
 3103SOL    HW220943   2.028   3.914   9.407  0.7626 -1.3243 -0.0506
 3104SOL     OW20944   3.960   0.305  10.893 -0.4023  0.8745 -0.4412
 3104SOL    HW120945   3.994   0.390  10.863 -0.2355 -0.0499 -2.7972
 3104SOL    HW220946   3.947   0.262  10.809  0.8830 -3.5300  1.6491
 3105SOL     OW20947   1.091   2.106  16.547 -0.4648 -0.5452 -0.2665
 3105SOL    HW120948   1.039   2.049  16.490 -0.9804 -0.3343 -0.0118
 3105SOL    HW220949   1.166   2.127  16.492  0.0248  0.2619  0.7181
 3106SOL     OW20950   3.697   3.375  10.638  0.0445 -0.3565 -0.0306
 3106SOL    HW120951   3.770   3.409  10.585 -1.5792 -0.1728 -2.1611
 3106SOL    HW220952   3.707   3.281  10.620  0.2930 -0.6072  1.4186
 3107SOL     OW20953   1.487   0.363   5.774  0.1321  0.4024  0.1234
 3107SOL    HW120954   1.425   0.392   5.840 -0.3794  1.8338 -0.9789
 3107SOL    HW220955   1.553   0.314   5.822  2.9828  0.1312 -4.0497
 3108SOL     OW20956   1.008   4.196   4.486  0.2946 -0.0422  0.4272
 3108SOL    HW120957   1.015   4.193   4.582  1.6048  0.1442  0.3366
 3108SOL    HW220958   1.077   4.258   4.460  1.1278 -0.8805  0.6388
 3109SOL     OW20959   4.279   4.711   1.610  0.9038 -0.0496  0.2466
 3109SOL    HW120960   4.285   0.002   1.702  1.0006 -1.1729  0.5236
 3109SOL    HW220961   4.320   4.624   1.607  1.8969  0.4001  0.6891
 3110SOL     OW20962   2.788   2.494   4.671 -0.3810  0.3636  0.1698
 3110SOL    HW120963   2.765   2.578   4.632  0.0409  0.4488  0.1004
 3110SOL    HW220964   2.703   2.456   4.693  0.7036 -1.5892  0.9519
 3111SOL     OW20965   3.074   2.149   4.904 -0.2871  0.0019 -0.1346
 3111SOL    HW120966   3.035   2.228   4.869  1.7201  0.6303 -0.9741
 3111SOL    HW220967   2.996   2.128   4.954 -0.8312  1.0950 -0.5335
 3112SOL     OW20968   1.277   3.608   9.928 -0.9741 -0.4631 -0.3122
 3112SOL    HW120969   1.370   3.589   9.934 -0.8437  0.4024  0.4724
 3112SOL    HW220970   1.248   3.623  10.018 -1.3432 -2.7732 -0.0459
 3113SOL     OW20971   3.803   3.704   1.137 -0.1073  0.9440 -0.1426
 3113SOL    HW120972   3.881   3.730   1.087  1.9709 -2.5379  1.2629
 3113SOL    HW220973   3.742   3.665   1.075  0.4497 -0.4869  0.2041
 3114SOL     OW20974   1.648   0.815  11.418  0.2691  0.8481 -0.3778
 3114SOL    HW120975   1.571   0.774  11.457 -0.7013  0.8390 -2.3063
 3114SOL    HW220976   1.716   0.766  11.464  1.2822  0.7779 -1.9539
 3115SOL     OW20977   2.398   2.582  10.402  0.7402  0.0233 -0.5035
 3115SOL    HW120978   2.306   2.611  10.402  0.7579  0.0801 -0.4867
 3115SOL    HW220979   2.414   2.559  10.311 -0.1183  2.9206 -1.3978
 3116SOL     OW20980   0.556   0.162  16.522 -0.2236  0.4862  0.4715
 3116SOL    HW120981   0.467   0.193  16.502 -0.4558 -1.2274 -1.1388
 3116SOL    HW220982   0.568   0.099  16.451 -0.7437 -0.2752  1.0651
 3117SOL     OW20983   0.497   0.847   4.495  0.2880  0.0704 -0.1182
 3117SOL    HW120984   0.501   0.938   4.526  0.0512 -0.7264  2.2372
 3117SOL    HW220985   0.515   0.859   4.402 -1.5904  0.2900 -0.4595
 3118SOL     OW20986   1.282   2.401  16.827 -0.1647  0.1246  0.1492
 3118SOL    HW120987   1.326   2.411  16.743  0.5882 -2.3586  0.2732
 3118SOL    HW220988   1.199   2.368  16.793  0.5564 -0.5067 -0.9800
 3119SOL     OW20989   0.188   4.343  15.033  0.2326  0.4159  0.5829
 3119SOL    HW120990   0.153   4.262  14.994  0.0383  1.0887 -0.6337
 3119SOL    HW220991   0.113   4.401  15.020  0.5746  0.7896  0.2757
 3120SOL     OW20992   3.331   3.956  15.043 -0.2644  0.0924 -0.0403
 3120SOL    HW120993   3.314   4.047  15.071 -0.8346  0.3566 -1.2623
 3120SOL    HW220994   3.414   3.926  15.081 -0.5355 -0.1450  0.3612
 3121SOL     OW20995   4.669   2.328   3.187 -0.5067 -0.3961  0.3302
 3121SOL    HW120996   4.675   2.415   3.228 -1.9207 -0.9051  1.6311
 3121SOL    HW220997   4.691   2.271   3.261 -0.7485 -0.4845  0.3353
 3122SOL     OW20998   3.664   1.851   8.468 -0.5873  0.6858 -0.0613
 3122SOL    HW120999   3.673   1.785   8.399  0.1190 -0.0374  0.7199
 3122SOL    HW221000   3.621   1.798   8.535  2.5621  0.3113  1.6693
 3123SOL     OW21001   3.647   4.726   8.381  0.9221  0.2897  0.5233
 3123SOL    HW121002   3.620   0.050   8.454  1.7639  0.6690  0.5487
 3123SOL    HW221003   3.741   0.002   8.399  0.8891  0.7204  0.5119
 3124SOL     OW21004   0.815   3.412   3.022  0.2270  0.0735 -0.0568
 3124SOL    HW121005   0.875   3.458   3.080 -1.7270  1.1554  1.0980
 3124SOL    HW221006   0.731   3.445   3.053  0.2099  0.0236 -0.0491
 3125SOL     OW21007   3.415   0.888  14.352  0.5439 -0.1553 -0.0503
 3125SOL    HW121008   3.489   0.913  14.407 -0.1057  0.6600  0.4579
 3125SOL    HW221009   3.342   0.945  14.378 -0.2849 -1.6604  0.9179
 3126SOL     OW21010   1.341   1.679   2.048 -0.6318  0.3399  0.3018
 3126SOL    HW121011   1.373   1.625   1.975 -1.2726 -0.0763  0.3236
 3126SOL    HW221012   1.421   1.691   2.099 -0.0794 -2.1876  0.0392
 3127SOL     OW21013   2.581   3.585   6.577  0.0022 -0.1838  0.1844
 3127SOL    HW121014   2.580   3.575   6.672  1.2740  1.5573  0.3961
 3127SOL    HW221015   2.495   3.625   6.574  0.0387 -0.2129 -1.3357
 3128SOL     OW21016   0.059   0.531   6.151 -0.3914 -0.1147 -0.3861
 3128SOL    HW121017   4.730   0.458   6.142 -1.7819  0.9915 -0.0304
 3128SOL    HW221018   0.080   0.542   6.244  1.3858  0.1026 -0.8081
 3129SOL     OW21019   3.515   1.606   2.672  0.6869 -0.0014  0.2505
 3129SOL    HW121020   3.449   1.628   2.606 -0.2252  0.1714  1.2323
 3129SOL    HW221021   3.480   1.529   2.716  4.3927 -1.8903 -0.1316
 3130SOL     OW21022   3.935   1.669   8.731  0.7347  0.6530  0.1218
 3130SOL    HW121023   3.875   1.742   8.746  1.9994  1.2781  2.0749
 3130SOL    HW221024   3.884   1.593   8.704 -0.3539  0.3349  3.1260
 3131SOL     OW21025   3.342   4.208  15.162  0.6736 -0.0291  0.5438
 3131SOL    HW121026   3.409   4.274  15.144 -0.8669  1.0654 -1.0415
 3131SOL    HW221027   3.323   4.226  15.254  0.9027  2.5401  0.0811
 3132SOL     OW21028   2.920   1.981   1.671 -0.1070  0.1021  0.0484
 3132SOL    HW121029   2.926   2.000   1.578  1.0685  0.2185  0.1465
 3132SOL    HW221030   2.831   1.949   1.682  0.0129 -0.6840 -1.1965
 3133SOL     OW21031   0.078   3.839   1.493  0.2232 -0.2382 -0.0866
 3133SOL    HW121032   0.082   3.932   1.471 -0.7317 -0.1973 -0.1042
 3133SOL    HW221033   0.066   3.802   1.405 -0.6326 -0.3400  0.0665
 3134SOL     OW21034   4.145   0.019   4.841  0.1951  0.3898 -0.2621
 3134SOL    HW121035   4.089   4.727   4.768 -0.5370 -1.2680  0.8476
 3134SOL    HW221036   4.101   0.099   4.869 -1.1320 -0.3035 -0.4038
 3135SOL     OW21037   2.336   3.106  14.319 -0.2761  0.4207  0.2089
 3135SOL    HW121038   2.275   3.043  14.280  0.1367 -0.7047  1.3500
 3135SOL    HW221039   2.271   3.171  14.346 -0.7171 -1.5163  3.8606
 3136SOL     OW21040   1.789   4.499  12.512 -0.4114 -0.1507  0.4339
 3136SOL    HW121041   1.810   4.499  12.605  0.9132 -1.3975  0.1288
 3136SOL    HW221042   1.868   4.544  12.482 -0.1517 -0.3746  0.7884
 3137SOL     OW21043   4.712   1.574   4.733 -0.0073 -0.6212 -0.4180
 3137SOL    HW121044   0.061   1.534   4.702  1.4316  1.6369  0.4245
 3137SOL    HW221045   4.653   1.499   4.731 -1.0198  0.1803 -1.2476
 3138SOL     OW21046   0.540   3.496   4.685  0.8289  0.0905  0.1794
 3138SOL    HW121047   0.588   3.414   4.669  0.6597  0.2497 -1.1294
 3138SOL    HW221048   0.607   3.561   4.702  1.8209 -0.7100 -0.6881
 3139SOL     OW21049   0.682   2.937   4.190  0.0872  0.7826  0.3725
 3139SOL    HW121050   0.647   3.025   4.206  1.7615  1.2941  1.2339
 3139SOL    HW221051   0.680   2.935   4.094 -1.4433 -0.0449  0.4094
 3140SOL     OW21052   2.759   1.776   6.178  0.1353  0.4374  0.6911
 3140SOL    HW121053   2.719   1.859   6.206  0.7632  0.7748  0.5939
 3140SOL    HW221054   2.679   1.727   6.198  1.5942 -0.5321  3.9816
 3141SOL     OW21055   3.305   3.846   6.034  0.4427 -0.6209  0.2388
 3141SOL    HW121056   3.380   3.798   6.000 -0.4919 -1.8212 -0.1191
 3141SOL    HW221057   3.269   3.771   6.081 -1.2765 -0.8775 -1.4405
 3142SOL     OW21058   2.341   2.537   6.053 -0.0550 -0.1537 -0.0152
 3142SOL    HW121059   2.391   2.467   6.095  0.8825  1.5929  1.7341
 3142SOL    HW221060   2.254   2.516   6.087  0.0810  0.1893  0.5241
 3143SOL     OW21061   1.246   1.666  11.133  0.0301  0.4070  0.5486
 3143SOL    HW121062   1.291   1.684  11.215  4.1686 -1.2522 -1.3319
 3143SOL    HW221063   1.306   1.600  11.098  0.0549  0.3401  0.7151
 3144SOL     OW21064   1.921   1.967  15.242 -0.0299 -0.2057  0.0764
 3144SOL    HW121065   1.926   1.886  15.292 -3.2786 -0.0766  0.5807
 3144SOL    HW221066   1.833   1.967  15.205  0.6789 -0.3173 -1.6096
 3145SOL     OW21067   1.616   3.654  16.633 -0.0683 -0.3424  0.0850
 3145SOL    HW121068   1.550   3.604  16.585  0.3441 -1.6059  0.8365
 3145SOL    HW221069   1.557   3.655  16.709 -1.1708  0.7068 -0.7876
 3146SOL     OW21070   0.085   4.144   3.014 -0.2002  0.2431  0.3507
 3146SOL    HW121071   0.002   4.183   2.988  0.4795  0.5115 -1.3545
 3146SOL    HW221072   0.065   4.104   3.099 -2.5877  1.9829  0.5989
 3147SOL     OW21073   2.780   1.173   3.705 -0.2633  0.4451 -0.0155
 3147SOL    HW121074   2.865   1.215   3.717 -0.2128 -0.8047  3.6632
 3147SOL    HW221075   2.724   1.248   3.684 -1.1561  0.0110  0.8223
 3148SOL     OW21076   2.232   3.957   0.158 -0.2366 -0.3403 -0.0370
 3148SOL    HW121077   2.220   3.895   0.085 -0.5248 -1.1232  0.6804
 3148SOL    HW221078   2.148   3.947   0.202 -1.0553  1.0996 -1.2595
 3149SOL     OW21079   1.595   3.499   8.185  0.3030 -0.1458  0.2443
 3149SOL    HW121080   1.508   3.458   8.192 -0.8494  2.1163 -0.8066
 3149SOL    HW221081   1.630   3.469   8.269  0.7472  4.3224  1.6609
 3150SOL     OW21082   3.476   4.420   2.362  0.2161 -1.0660 -0.1500
 3150SOL    HW121083   3.437   4.507   2.353  0.2191 -1.2259 -1.6168
 3150SOL    HW221084   3.438   4.397   2.448  0.7718 -2.0267 -0.1526
 3151SOL     OW21085   1.413   1.064   1.763 -0.2083 -0.3210 -0.6272
 3151SOL    HW121086   1.400   1.076   1.669 -0.6393 -0.1903 -0.5491
 3151SOL    HW221087   1.451   1.150   1.781 -0.0840 -0.3916 -0.5497
 3152SOL     OW21088   1.199   0.958   5.436 -0.2438  0.9344 -0.1127
 3152SOL    HW121089   1.113   0.915   5.434 -0.0527  0.5900 -0.6621
 3152SOL    HW221090   1.224   0.932   5.525 -1.1025  0.5912  0.0307
 3153SOL     OW21091   3.801   1.909   2.783  0.2564  0.9523  0.0772
 3153SOL    HW121092   3.759   1.843   2.838  1.3799 -0.5891 -0.9175
 3153SOL    HW221093   3.738   1.930   2.715 -3.0387 -0.4332  2.7248
 3154SOL     OW21094   4.542   1.642   0.724  0.0701  0.1227  0.3593
 3154SOL    HW121095   4.637   1.640   0.717  0.1221  2.0224  0.3173
 3154SOL    HW221096   4.527   1.550   0.705  3.2693 -0.0480 -1.3515
 3155SOL     OW21097   1.862   1.139   1.396 -0.0561 -0.4799  0.0429
 3155SOL    HW121098   1.892   1.089   1.320 -0.8346  1.2829 -1.4299
 3155SOL    HW221099   1.945   1.160   1.439 -0.1346  0.9753 -0.5338
 3156SOL     OW21100   4.103   2.319   6.481 -0.6831  0.5875  0.9343
 3156SOL    HW121101   4.028   2.314   6.540  0.6524 -0.6517  2.5627
 3156SOL    HW221102   4.064   2.321   6.394  0.5667 -0.5059  0.3384
 3157SOL     OW21103   3.984   2.588   9.830  0.5035  0.2367 -0.5182
 3157SOL    HW121104   3.926   2.517   9.855 -0.3085  1.6296  1.4752
 3157SOL    HW221105   3.926   2.653   9.790 -1.6331 -1.6053 -0.3823
 3158SOL     OW21106   1.306   0.433   4.405  0.1366  0.0491  0.4351
 3158SOL    HW121107   1.261   0.350   4.393 -2.4657  1.1854  2.2523
 3158SOL    HW221108   1.293   0.461   4.496  0.5452  0.7599  0.2838
 3159SOL     OW21109   4.012   0.040   4.269  0.4435 -0.9933 -0.2833
 3159SOL    HW121110   4.070   0.085   4.330 -0.1194 -0.1415 -0.3773
 3159SOL    HW221111   4.023   0.089   4.188 -1.5145  0.2396  0.1970
 3160SOL     OW21112   3.074   1.313   2.588 -0.2308 -0.9724 -0.2829
 3160SOL    HW121113   3.166   1.325   2.612 -0.3442 -0.5520 -0.0629
 3160SOL    HW221114   3.052   1.406   2.584 -0.9800 -1.2471 -2.6769
 3161SOL     OW21115   3.665   0.170   1.375  0.4154 -0.2180  0.0053
 3161SOL    HW121116   3.619   0.245   1.338 -0.3423 -1.0122 -0.6985
 3161SOL    HW221117   3.624   0.094   1.332  1.9389 -1.6114  0.9940
 3162SOL     OW21118   0.850   1.919   3.199 -0.2282 -0.9531 -0.0108
 3162SOL    HW121119   0.889   1.943   3.116  0.9665  0.2705  0.9051
 3162SOL    HW221120   0.932   1.878   3.228  1.0265  1.3812 -0.2389
 3163SOL     OW21121   3.699   2.946   6.495 -0.0078 -0.0528 -0.1056
 3163SOL    HW121122   3.638   3.020   6.490  0.5430  0.3817 -0.5045
 3163SOL    HW221123   3.783   2.993   6.484 -0.8706  1.1609 -1.5694
 3164SOL     OW21124   4.137   4.698   2.630 -0.3082  0.0796 -0.1559
 3164SOL    HW121125   4.054   0.010   2.648 -0.2983  0.3604 -0.7861
 3164SOL    HW221126   4.109   4.610   2.654 -0.9860  0.9182  2.1277
 3165SOL     OW21127   2.882   1.486   7.182  0.1465 -0.4010 -0.2529
 3165SOL    HW121128   2.787   1.484   7.190  0.0919 -1.2287 -1.1111
 3165SOL    HW221129   2.893   1.424   7.110  0.7307 -1.6788  0.9332
 3166SOL     OW21130   0.908   0.436   1.439  0.2457 -0.0746 -0.2697
 3166SOL    HW121131   0.855   0.380   1.495  0.1069  0.0282 -0.2994
 3166SOL    HW221132   0.976   0.377   1.407  0.2589 -1.1749  1.8264
 3167SOL     OW21133   1.654   2.226   4.957 -0.5246  0.3180  0.4204
 3167SOL    HW121134   1.581   2.183   5.001 -0.7514  1.4774  1.1762
 3167SOL    HW221135   1.606   2.297   4.912  0.7625  0.6870 -0.3933
 3168SOL     OW21136   0.536   1.751   7.393  0.1578  0.2384 -0.0214
 3168SOL    HW121137   0.536   1.837   7.351  0.1191 -0.7133 -1.9635
 3168SOL    HW221138   0.613   1.719   7.346  0.0573  2.9415 -2.0252
 3169SOL     OW21139   0.030   1.384   3.651  0.3497 -0.6640  0.5940
 3169SOL    HW121140   0.120   1.405   3.626  0.2151 -0.8494 -0.0499
 3169SOL    HW221141   0.040   1.289   3.642  1.6038 -0.4734 -0.0448
 3170SOL     OW21142   1.404   3.292   2.397  0.1303  0.0528  0.3236
 3170SOL    HW121143   1.408   3.260   2.487  0.9739 -0.4395  0.1058
 3170SOL    HW221144   1.423   3.384   2.417  1.2551 -0.2234  0.4863
 3171SOL     OW21145   3.882   0.459   8.295 -0.4142  0.6225  0.3872
 3171SOL    HW121146   3.969   0.424   8.277 -1.1326 -0.5451 -0.8369
 3171SOL    HW221147   3.842   0.394   8.237  1.2053  0.2175 -0.2483
 3172SOL     OW21148   2.581   2.611  11.832 -0.0842 -0.0884 -0.3547
 3172SOL    HW121149   2.625   2.674  11.890 -0.5178  0.5448 -0.7076
 3172SOL    HW221150   2.610   2.640  11.746  1.3356 -0.6201 -0.0572
 3173SOL     OW21151   2.484   0.744   9.046  0.5406  0.0626 -0.1890
 3173SOL    HW121152   2.426   0.760   8.972 -0.6628  3.1729  1.4068
 3173SOL    HW221153   2.516   0.830   9.075 -0.9209 -0.0768  1.8210
 3174SOL     OW21154   1.504   3.551  15.860 -0.1145  0.4021  0.4185
 3174SOL    HW121155   1.445   3.476  15.862  1.7550 -1.1116 -1.1693
 3174SOL    HW221156   1.566   3.529  15.790 -1.3998  0.7048 -0.8081
 3175SOL     OW21157   0.207   1.143   1.999 -0.1392 -0.2374  0.1393
 3175SOL    HW121158   0.140   1.205   1.971 -0.7607  0.3711  2.9331
 3175SOL    HW221159   0.144   1.074   2.017 -0.6037  0.3048  0.6145
 3176SOL     OW21160   4.264   0.571  16.274 -0.2545 -0.3907 -0.0662
 3176SOL    HW121161   4.312   0.643  16.315  0.7449 -0.5998 -0.8697
 3176SOL    HW221162   4.338   0.522  16.239 -0.2968 -1.6359  1.5765
 3177SOL     OW21163   4.275   3.746  11.855  0.3915 -0.0240 -0.2326
 3177SOL    HW121164   4.205   3.727  11.793 -0.3125  2.2619 -0.1597
 3177SOL    HW221165   4.338   3.778  11.791  1.5077  1.2695  1.5014
 3178SOL     OW21166   1.420   3.598   3.476 -0.2839  0.0621  0.1667
 3178SOL    HW121167   1.466   3.665   3.526 -1.5025  1.0430 -0.0230
 3178SOL    HW221168   1.438   3.519   3.527  2.0779 -0.9844 -2.2851
 3179SOL     OW21169   1.827   4.488   7.940 -0.0905  0.4130 -0.6976
 3179SOL    HW121170   1.754   4.540   7.907 -1.6557 -0.5665  1.2453
 3179SOL    HW221171   1.897   4.552   7.955  1.1286 -0.7838 -1.2500
 3180SOL     OW21172   2.495   3.606   7.243 -0.0368 -0.0094  0.1218
 3180SOL    HW121173   2.447   3.524   7.234  2.1496 -1.2434 -0.4809
 3180SOL    HW221174   2.484   3.648   7.158 -0.6113  0.0020  0.2047
 3181SOL     OW21175   0.748   0.837   9.204 -0.4963 -0.2340  0.1497
 3181SOL    HW121176   0.781   0.749   9.217  1.6440  0.7622  1.3247
 3181SOL    HW221177   0.815   0.878   9.150  0.1918 -0.6934  0.6570
 3182SOL     OW21178   1.088   0.129   3.624 -0.1912 -0.4148  0.2539
 3182SOL    HW121179   1.155   0.183   3.666  0.2829  0.0739 -1.1246
 3182SOL    HW221180   1.010   0.173   3.657 -1.1736 -2.5328  0.7722
 3183SOL     OW21181   4.644   1.960   1.817  0.1158  0.1592  0.2560
 3183SOL    HW121182   4.675   2.033   1.763  0.0757  0.6433  0.8869
 3183SOL    HW221183   4.617   1.898   1.749  1.1122 -0.4248  0.4042
 3184SOL     OW21184   3.274   3.283   6.516 -0.0056  0.0701  0.3947
 3184SOL    HW121185   3.288   3.362   6.568  0.7514  1.4783 -1.9307
 3184SOL    HW221186   3.189   3.299   6.474 -0.9288 -0.5437  2.0248
 3185SOL     OW21187   1.416   1.902  14.212  0.2310  0.9491  0.6534
 3185SOL    HW121188   1.471   1.874  14.139  1.0818 -0.9756  1.9986
 3185SOL    HW221189   1.455   1.855  14.287  0.2736 -0.6920 -0.4079
 3186SOL     OW21190   4.693   1.380   1.063  0.1365  0.4695 -0.8297
 3186SOL    HW121191   4.694   1.291   1.029 -0.7982  0.4484 -0.8134
 3186SOL    HW221192   4.603   1.382   1.097 -0.2981  0.0421 -1.9622
 3187SOL     OW21193   0.998   3.964  12.173  0.0650  0.1895 -0.0268
 3187SOL    HW121194   1.053   3.963  12.251  0.5226  1.4538 -0.3456
 3187SOL    HW221195   0.973   4.055  12.187 -0.7839  0.3204 -2.4280
 3188SOL     OW21196   2.586   3.249   2.638 -0.4648  0.4119  0.2400
 3188SOL    HW121197   2.645   3.196   2.585  1.6230  1.6790  1.2999
 3188SOL    HW221198   2.512   3.188   2.646  1.1918 -1.8741 -2.1540
 3189SOL     OW21199   3.591   3.775   5.510  0.1978  0.3816 -0.2096
 3189SOL    HW121200   3.567   3.805   5.597 -0.9861  0.3831 -0.5374
 3189SOL    HW221201   3.610   3.857   5.465 -1.4654  0.6017 -0.5336
 3190SOL     OW21202   0.216   2.987  15.876  0.3730  0.2856  0.4646
 3190SOL    HW121203   0.302   2.956  15.849 -0.3555 -1.7572  0.4535
 3190SOL    HW221204   0.248   3.071  15.909 -0.9143  1.2296 -0.6530
 3191SOL     OW21205   2.792   4.314   6.287  0.1821  0.2024 -0.6203
 3191SOL    HW121206   2.698   4.296   6.297 -0.0963  2.4787  0.8471
 3191SOL    HW221207   2.782   4.356   6.202  1.2813 -0.0738 -0.8762
 3192SOL     OW21208   2.015   4.082   6.238 -0.1010 -0.1489 -0.6985
 3192SOL    HW121209   1.989   4.024   6.166 -2.2644 -3.3886  2.7252
 3192SOL    HW221210   2.096   4.116   6.200  2.5011 -3.9731  1.3620
 3193SOL     OW21211   4.573   3.778   6.588 -0.5536 -0.1961  0.1107
 3193SOL    HW121212   4.632   3.743   6.520  2.5119 -0.6582  3.0000
 3193SOL    HW221213   4.538   3.851   6.537  1.6894  0.4736 -0.4897
 3194SOL     OW21214   0.693   4.545  14.173 -0.4802 -0.1228  0.1295
 3194SOL    HW121215   0.786   4.532  14.154 -0.6581 -1.1371 -0.0370
 3194SOL    HW221216   0.667   4.605  14.103 -0.4215  0.5226  0.6693
 3195SOL     OW21217   4.493   1.205   8.323 -0.2529 -0.3444 -0.1605
 3195SOL    HW121218   4.491   1.131   8.384  1.4073  1.4331  2.0691
 3195SOL    HW221219   4.578   1.237   8.351 -0.7889  0.6191  0.3753
 3196SOL     OW21220   0.804   1.352   2.557  0.1458 -0.2703 -0.2228
 3196SOL    HW121221   0.720   1.387   2.586  0.9191  0.8969  0.6301
 3196SOL    HW221222   0.776   1.263   2.540 -1.4793  0.0802  0.6564
 3197SOL     OW21223   2.495   1.286   7.638 -0.6058  0.4511 -0.2896
 3197SOL    HW121224   2.410   1.329   7.648 -1.2551 -1.2977  1.6992
 3197SOL    HW221225   2.521   1.265   7.728  0.2562  1.4833 -0.2975
 3198SOL     OW21226   4.340   3.293   5.013 -0.0836 -0.8419  0.3146
 3198SOL    HW121227   4.255   3.337   5.007  0.4093  0.0100 -0.4009
 3198SOL    HW221228   4.371   3.293   5.104  2.9880 -0.1931 -0.7260
 3199SOL     OW21229   1.438   2.714   6.933  0.0252  0.4104 -0.2863
 3199SOL    HW121230   1.376   2.712   6.860 -2.1081  1.0336  1.5031
 3199SOL    HW221231   1.497   2.782   6.900 -0.7620 -0.1314 -2.8346
 3200SOL     OW21232   4.001   0.198   5.005  0.3746  0.7618 -0.0513
 3200SOL    HW121233   4.001   0.294   4.997  1.2798  0.8569  0.9762
 3200SOL    HW221234   3.927   0.192   4.945 -0.0587 -1.4314  0.7104
 3201SOL     OW21235   4.246   0.277  11.296  0.0611 -0.3989  0.1012
 3201SOL    HW121236   4.322   0.311  11.342 -0.4035  0.7490  0.0100
 3201SOL    HW221237   4.212   0.201  11.344  2.1149 -1.3126  0.0815
 3202SOL     OW21238   3.622   0.397   0.285 -0.6067 -0.7022  0.2482
 3202SOL    HW121239   3.556   0.449   0.332  0.6894 -1.1667  2.5594
 3202SOL    HW221240   3.571   0.341   0.226 -0.4312 -2.5968  1.9231
 3203SOL     OW21241   2.338   0.956   2.215 -0.2968 -0.2714 -0.2213
 3203SOL    HW121242   2.265   0.952   2.277  0.0754 -1.3119  0.1450
 3203SOL    HW221243   2.415   0.947   2.271  0.7437 -4.0065 -2.3043
 3204SOL     OW21244   1.111   4.711   7.010 -0.1271  0.1797 -1.2533
 3204SOL    HW121245   1.092   0.073   7.010 -0.3282  0.1294  1.2909
 3204SOL    HW221246   1.019   4.685   7.016  0.1501  0.0319  1.9001
 3205SOL     OW21247   4.555   3.238  14.639 -0.0106 -0.9187  0.1319
 3205SOL    HW121248   4.594   3.277  14.561  2.0228 -0.6321  1.2924
 3205SOL    HW221249   4.600   3.278  14.714 -0.3498 -0.8932  0.3238
 3206SOL     OW21250   0.922   4.114   1.989 -0.4049  0.2290  0.3537
 3206SOL    HW121251   0.848   4.173   1.977  1.0412  1.7616 -1.0613
 3206SOL    HW221252   0.915   4.059   1.911 -0.0522 -2.1022  1.9651
 3207SOL     OW21253   1.592   0.886   2.047  0.3941 -0.5400  0.1327
 3207SOL    HW121254   1.531   0.953   2.014  1.4401  0.3838  0.0810
 3207SOL    HW221255   1.677   0.929   2.059 -0.2176  0.9613 -0.8793
 3208SOL     OW21256   2.232   3.840   4.507  0.3666 -0.1737  0.0760
 3208SOL    HW121257   2.249   3.826   4.414 -1.9717 -0.9558 -0.2336
 3208SOL    HW221258   2.137   3.832   4.510  0.4174 -0.2770  1.3035
 3209SOL     OW21259   0.998   1.474  10.781  0.3933  0.3386  0.2282
 3209SOL    HW121260   0.905   1.497  10.773  0.2101 -0.9052 -1.1196
 3209SOL    HW221261   1.035   1.556  10.749  0.9978  0.1256  0.3938
 3210SOL     OW21262   2.759   3.703   9.822 -0.2852 -0.5448 -0.3028
 3210SOL    HW121263   2.826   3.756   9.779 -0.5493 -0.0970 -0.1618
 3210SOL    HW221264   2.801   3.662   9.898 -0.7272 -0.3917  0.0255
 3211SOL     OW21265   2.523   4.685   6.617  0.0881  0.5127 -0.4320
 3211SOL    HW121266   2.556   4.640   6.538 -0.7932  0.0987 -0.5639
 3211SOL    HW221267   2.591   0.020   6.628  2.3919 -1.9107  0.2622
 3212SOL     OW21268   3.890   4.274   5.130 -0.0370  0.0715  0.1505
 3212SOL    HW121269   3.811   4.232   5.096  0.6382 -0.0970 -1.2165
 3212SOL    HW221270   3.859   4.365   5.137 -0.9034 -0.3060  1.1644
 3213SOL     OW21271   3.954   3.922   7.601  0.2942  0.1806 -0.0176
 3213SOL    HW121272   3.942   3.827   7.613 -0.3599  0.4111  1.1550
 3213SOL    HW221273   3.949   3.947   7.693  0.5271  2.1113 -0.5349
 3214SOL     OW21274   0.322   2.560   5.178 -0.2629  0.0454 -0.2560
 3214SOL    HW121275   0.381   2.484   5.177 -0.3856 -0.0376 -1.1323
 3214SOL    HW221276   0.295   2.562   5.086  3.9018 -0.9631 -1.5401
 3215SOL     OW21277   4.308   2.741  13.723 -0.2791  0.5234 -0.2649
 3215SOL    HW121278   4.282   2.831  13.707 -0.2633  0.8115  1.3267
 3215SOL    HW221279   4.401   2.736  13.699 -0.6727  0.7469 -1.8445
 3216SOL     OW21280   1.416   1.975   1.407  0.2560 -0.2892 -0.1439
 3216SOL    HW121281   1.495   1.949   1.360 -1.5410 -2.5988 -1.8959
 3216SOL    HW221282   1.357   1.903   1.384 -1.6616  1.5309 -0.9341
 3217SOL     OW21283   4.072   0.044   8.674 -0.5731 -0.0853  0.1355
 3217SOL    HW121284   4.147   0.013   8.624  0.4756  3.0333 -0.2003
 3217SOL    HW221285   4.068   0.133   8.641  2.9157 -0.5201 -1.4354
 3218SOL     OW21286   2.021   1.439   4.904  0.2687  0.5702  0.0512
 3218SOL    HW121287   1.962   1.369   4.931 -0.8724  0.5696 -2.4487
 3218SOL    HW221288   2.064   1.394   4.832 -0.4049  1.4727 -0.9161
 3219SOL     OW21289   3.357   1.369   5.289  0.4624 -0.3486 -0.0225
 3219SOL    HW121290   3.278   1.362   5.343 -0.7900 -1.8966 -2.0797
 3219SOL    HW221291   3.398   1.445   5.331 -0.3775  0.9482 -1.5410
 3220SOL     OW21292   3.176   2.391  14.985 -0.3434  0.9582 -0.6176
 3220SOL    HW121293   3.201   2.398  15.077 -0.9993 -2.2846 -0.2008
 3220SOL    HW221294   3.263   2.364  14.957  0.1597  2.5001 -0.5143
 3221SOL     OW21295   1.840   0.035   4.408  0.3905 -0.0050  0.6702
 3221SOL    HW121296   1.803   4.681   4.428 -0.7247  0.0316 -1.1746
 3221SOL    HW221297   1.875   0.031   4.319 -4.5622  1.8388 -1.3414
 3222SOL     OW21298   0.453   0.596   8.728  0.5091 -0.1077 -0.0937
 3222SOL    HW121299   0.438   0.588   8.822  1.9884 -3.0545 -0.1037
 3222SOL    HW221300   0.497   0.513   8.710  0.1328 -0.3835  0.2528
 3223SOL     OW21301   0.279   2.434   2.988 -0.2707 -0.1325  0.0395
 3223SOL    HW121302   0.248   2.361   2.934  1.2143 -2.2259  2.0353
 3223SOL    HW221303   0.374   2.428   2.977 -0.3099  1.1813 -0.9958
 3224SOL     OW21304   3.523   4.291  10.182  0.2988  0.9636 -0.6203
 3224SOL    HW121305   3.494   4.306  10.092 -2.6209 -1.2037 -0.0324
 3224SOL    HW221306   3.566   4.375  10.197  0.0147  0.9017  0.5019
 3225SOL     OW21307   0.600   3.758   9.277  0.1540  0.4958  0.4674
 3225SOL    HW121308   0.660   3.798   9.340 -0.0309  2.8025 -0.8459
 3225SOL    HW221309   0.515   3.769   9.321  0.1935 -0.4473  0.7775
 3226SOL     OW21310   3.528   4.474   1.909  0.3826  0.2838 -0.1562
 3226SOL    HW121311   3.434   4.484   1.894  0.2826 -1.0237 -0.4696
 3226SOL    HW221312   3.531   4.415   1.985 -0.3649 -0.5741 -0.7913
 3227SOL     OW21313   1.622   0.986   3.641  0.4173  0.4477 -0.4598
 3227SOL    HW121314   1.576   0.908   3.609 -0.3648  0.7172  0.0042
 3227SOL    HW221315   1.570   1.011   3.717 -1.0050 -0.8838 -0.9983
 3228SOL     OW21316   1.543   2.499   5.260 -0.0199  0.0463 -0.3324
 3228SOL    HW121317   1.575   2.581   5.297  1.0713  0.2234 -1.7280
 3228SOL    HW221318   1.451   2.527   5.252 -0.0832 -0.3162 -0.8675
 3229SOL     OW21319   2.375   4.467  13.020  0.0485 -0.2272 -0.0027
 3229SOL    HW121320   2.448   4.409  12.998 -0.1054  0.1358 -1.4997
 3229SOL    HW221321   2.408   4.552  12.991 -1.4334  0.1925 -0.4320
 3230SOL     OW21322   0.901   2.141   1.861  0.8253  0.4612  0.0597
 3230SOL    HW121323   0.863   2.054   1.874 -1.2030  1.1921 -1.0072
 3230SOL    HW221324   0.985   2.128   1.905 -0.3818 -2.6262  1.4373
 3231SOL     OW21325   2.972   2.404   3.678 -0.1016 -0.1346  0.8607
 3231SOL    HW121326   2.942   2.338   3.615  1.2943 -0.4545  0.5315
 3231SOL    HW221327   3.065   2.407   3.655 -0.4631  2.6984 -0.3231
 3232SOL     OW21328   0.918   0.859   9.477  0.2279  0.0362 -0.1644
 3232SOL    HW121329   0.844   0.836   9.534  0.5846  2.1467  1.1837
 3232SOL    HW221330   0.902   0.798   9.405  1.9658 -0.5942 -0.0118
 3233SOL     OW21331   0.476   0.446   6.396  0.5868  0.2615 -0.8378
 3233SOL    HW121332   0.409   0.385   6.364  1.1167 -1.1929  0.8204
 3233SOL    HW221333   0.542   0.377   6.390  1.3402  1.0329 -1.4295
 3234SOL     OW21334   1.465   3.770   4.175 -0.0757  0.3710  0.6879
 3234SOL    HW121335   1.500   3.830   4.108 -2.2417  1.0520  0.1782
 3234SOL    HW221336   1.380   3.738   4.144  0.6193 -0.2262 -0.6264
 3235SOL     OW21337   4.211   1.167  13.901  0.3036 -0.2468 -0.1710
 3235SOL    HW121338   4.161   1.159  13.982  1.9829 -0.4126  0.8420
 3235SOL    HW221339   4.297   1.140  13.933  2.0240  3.9748 -1.2450
 3236SOL     OW21340   3.514   0.973   7.276 -0.1614 -0.2451  0.1046
 3236SOL    HW121341   3.607   0.964   7.256 -0.1771 -1.7125  0.6448
 3236SOL    HW221342   3.517   0.930   7.362 -1.1975 -0.1209  0.2007
 3237SOL     OW21343   1.991   3.290   8.300 -0.1773 -0.1073 -0.4275
 3237SOL    HW121344   1.943   3.356   8.350  1.2870  0.2981  0.4326
 3237SOL    HW221345   1.949   3.295   8.214 -1.4997 -3.3572  0.0266
 3238SOL     OW21346   1.940   1.590  14.748 -0.4260 -0.2490  0.0670
 3238SOL    HW121347   1.994   1.595  14.827  2.5266 -0.7781 -1.8898
 3238SOL    HW221348   2.003   1.582  14.675  0.2054 -0.7497  0.6702
 3239SOL     OW21349   2.078   2.807  12.519 -0.1103  0.0336  0.4379
 3239SOL    HW121350   2.079   2.837  12.610 -0.6328 -1.0375  0.8014
 3239SOL    HW221351   2.083   2.714  12.542 -0.0634 -0.0822 -0.0399
 3240SOL     OW21352   3.087   2.154   8.727 -0.0842  0.6540 -0.1948
 3240SOL    HW121353   3.023   2.166   8.657 -0.9362 -1.0294  0.2869
 3240SOL    HW221354   3.160   2.116   8.679  0.1042  0.4753  0.2341
 3241SOL     OW21355   0.730   0.417  17.347 -0.4780 -0.2561 -0.8797
 3241SOL    HW121356   0.818   0.456  17.338 -0.8356  0.2693 -2.2033
 3241SOL    HW221357   0.734   0.352  17.277 -0.9240 -1.4784  0.2309
 3242SOL     OW21358   2.210   0.154   0.836 -0.7881  0.0780 -0.3392
 3242SOL    HW121359   2.299   0.133   0.806 -0.3153  1.2822  0.1822
 3242SOL    HW221360   2.163   0.139   0.754 -1.0429 -1.1643  0.0357
 3243SOL     OW21361   2.226   1.480   1.682 -0.2416 -0.4952  0.4362
 3243SOL    HW121362   2.233   1.525   1.598  1.7303  2.5010  2.1970
 3243SOL    HW221363   2.254   1.391   1.660  0.0688 -0.2514 -0.1406
 3244SOL     OW21364   3.060   1.243   4.293  0.1397  0.1387  0.2555
 3244SOL    HW121365   3.015   1.326   4.279  1.1359  1.2568  3.6930
 3244SOL    HW221366   3.144   1.260   4.250 -0.0250  0.5210  0.0867
 3245SOL     OW21367   4.563   0.419   2.752  0.3196 -0.4965  0.1562
 3245SOL    HW121368   4.593   0.363   2.823 -2.1652  0.7928  2.2101
 3245SOL    HW221369   4.648   0.457   2.732  0.6671 -1.2200  0.2472
 3246SOL     OW21370   3.008   4.368   6.861 -0.2877 -0.0532 -0.0497
 3246SOL    HW121371   2.989   4.354   6.954  0.4311 -0.6533  0.0157
 3246SOL    HW221372   2.921   4.372   6.822 -0.0068  0.7378 -0.6043
 3247SOL     OW21373   2.572   0.532   9.393  0.0168 -0.5516  0.1120
 3247SOL    HW121374   2.537   0.621   9.400  3.0567  0.6412  0.2047
 3247SOL    HW221375   2.626   0.530   9.473 -0.5891 -2.3412  0.4749
 3248SOL     OW21376   2.623   1.911   2.125  0.0551  0.2161  0.5235
 3248SOL    HW121377   2.578   1.988   2.089  2.1301  0.7687 -0.8237
 3248SOL    HW221378   2.663   1.944   2.206 -1.9451  0.8398  1.2699
 3249SOL     OW21379   3.250   3.213   5.715 -0.3947  0.1647  0.3319
 3249SOL    HW121380   3.328   3.162   5.691 -1.5442 -1.7294  0.6099
 3249SOL    HW221381   3.186   3.213   5.644 -0.9997 -1.8780  0.8637
 3250SOL     OW21382   2.462   3.903  11.349 -0.7579 -0.0918  0.4145
 3250SOL    HW121383   2.490   3.958  11.422 -1.8122  1.5596 -0.4272
 3250SOL    HW221384   2.463   3.973  11.284 -1.2542  1.5388  2.1880
 3251SOL     OW21385   0.152   1.229   8.697 -0.3553 -0.7660 -0.1217
 3251SOL    HW121386   0.141   1.202   8.788 -1.2206 -0.6808 -0.1932
 3251SOL    HW221387   0.100   1.310   8.691  0.2874 -0.4308 -1.0306
 3252SOL     OW21388   0.655   3.716   5.769 -0.1032 -0.1855  0.1797
 3252SOL    HW121389   0.654   3.733   5.675 -0.4086  3.2223  0.7837
 3252SOL    HW221390   0.569   3.676   5.779 -0.6826  0.9161 -0.4710
 3253SOL     OW21391   0.048   4.292   9.052 -0.0547  0.1664  0.0120
 3253SOL    HW121392   0.032   4.343   9.131  0.8958 -1.4199  1.2298
 3253SOL    HW221393   0.111   4.229   9.085 -1.9768 -0.3123  2.7531
 3254SOL     OW21394   0.712   3.587   6.336  0.9234 -0.1205  0.1806
 3254SOL    HW121395   0.718   3.638   6.255 -0.7579 -0.2987 -0.0686
 3254SOL    HW221396   0.798   3.608   6.372  0.9614 -0.2017  0.1383
 3255SOL     OW21397   0.080   3.108  15.391  0.1919 -0.2748 -0.2043
 3255SOL    HW121398   0.146   3.168  15.427  1.2130 -0.3475 -1.9256
 3255SOL    HW221399   0.005   3.138  15.443 -0.1175  0.3908 -1.0299
 3256SOL     OW21400   1.359   1.606   3.875 -0.0600  0.0126  0.6956
 3256SOL    HW121401   1.294   1.658   3.921  0.3679 -0.3977  1.7476
 3256SOL    HW221402   1.368   1.531   3.933 -2.2390 -2.1142 -1.6808
 3257SOL     OW21403   3.163   1.083   5.729 -0.0125  0.1958 -0.3327
 3257SOL    HW121404   3.166   0.993   5.697  1.3726  0.3295 -0.5983
 3257SOL    HW221405   3.095   1.115   5.670  2.8576  0.0088 -3.7538
 3258SOL     OW21406   2.114   0.085   0.579 -0.0120 -0.0727 -0.0331
 3258SOL    HW121407   2.027   0.121   0.560  0.3885  0.4653 -0.8605
 3258SOL    HW221408   2.094   4.726   0.561 -1.3417  0.1151  0.5184
 3259SOL     OW21409   3.796   1.962   5.441 -0.3305  0.2716 -0.5131
 3259SOL    HW121410   3.708   1.999   5.439 -0.7023 -0.7259 -2.9915
 3259SOL    HW221411   3.829   2.007   5.518  0.4896 -1.0107 -0.1175
 3260SOL     OW21412   2.019   2.008  12.521  0.3751 -0.0822  0.1192
 3260SOL    HW121413   2.041   1.957  12.443  1.9040  0.1622  0.3750
 3260SOL    HW221414   1.925   1.997  12.528  0.4461 -1.7315 -1.3442
 3261SOL     OW21415   1.346   0.206   7.903  0.0453  0.5400  0.6370
 3261SOL    HW121416   1.359   0.137   7.838  0.7789  1.3108 -0.0510
 3261SOL    HW221417   1.316   0.169   7.985 -0.7037  2.6295  1.2887
 3262SOL     OW21418   1.344   2.200   3.332 -0.1304  0.3275 -0.5978
 3262SOL    HW121419   1.281   2.203   3.259 -0.3217  1.2595 -0.3945
 3262SOL    HW221420   1.340   2.110   3.365 -2.0598  0.4827 -0.3724
 3263SOL     OW21421   1.862   3.543  17.139  0.3911  0.5980  0.3602
 3263SOL    HW121422   1.781   3.580  17.105  1.7998  0.2028 -3.4043
 3263SOL    HW221423   1.853   3.453  17.109 -1.7847  1.2075 -0.8380
 3264SOL     OW21424   1.155   4.321   1.672  0.6120  0.0410  0.3364
 3264SOL    HW121425   1.106   4.382   1.727 -0.0634  0.6090 -0.8982
 3264SOL    HW221426   1.101   4.317   1.593  1.1259 -1.1993  0.0521
 3265SOL     OW21427   0.894   2.103   6.650  0.1279 -0.0887 -0.4646
 3265SOL    HW121428   0.963   2.058   6.699 -1.0316  1.5794  2.7107
 3265SOL    HW221429   0.925   2.084   6.562  1.4206  1.9372 -0.4607
 3266SOL     OW21430   2.760   0.989  13.281  0.5523  0.1466  0.2430
 3266SOL    HW121431   2.789   0.945  13.201  1.3024 -0.7277  0.9875
 3266SOL    HW221432   2.716   0.918  13.327 -0.2939  0.1297 -0.5889
 3267SOL     OW21433   1.013   0.704   2.223 -0.4487 -0.2095  0.4684
 3267SOL    HW121434   1.000   0.770   2.290  2.6439  1.0021 -0.1243
 3267SOL    HW221435   0.948   0.638   2.248 -0.2764  0.0229  1.5493
 3268SOL     OW21436   1.666   3.304   6.537 -0.1104  0.2045 -0.0073
 3268SOL    HW121437   1.597   3.370   6.545  1.0465  1.2973  0.8665
 3268SOL    HW221438   1.699   3.312   6.626  0.4501 -2.0456 -0.0262
 3269SOL     OW21439   3.104   0.440   8.803  0.2038 -0.7217 -0.0144
 3269SOL    HW121440   3.168   0.480   8.862  1.3985 -3.6946  0.7072
 3269SOL    HW221441   3.164   0.385   8.753 -1.2393 -1.8214 -0.5117
 3270SOL     OW21442   0.296   4.666   8.503 -0.0544  0.0824  0.2743
 3270SOL    HW121443   0.267   4.606   8.572 -0.2836  0.5820  0.6078
 3270SOL    HW221444   0.287   4.614   8.423 -0.4466  0.9236 -0.2296
 3271SOL     OW21445   2.249   1.494   9.663 -0.0968  0.0800  0.0646
 3271SOL    HW121446   2.216   1.583   9.654 -0.1954  0.0023 -0.3496
 3271SOL    HW221447   2.282   1.490   9.753 -1.4058 -3.5538  0.3943
 3272SOL     OW21448   1.593   3.688   5.388  0.3853  0.0968 -0.2348
 3272SOL    HW121449   1.615   3.759   5.448  2.0686 -1.1954  0.6868
 3272SOL    HW221450   1.528   3.726   5.329 -2.2984 -1.4147  1.7390
 3273SOL     OW21451   2.362   3.279   4.114  0.3406 -0.3330 -0.8313
 3273SOL    HW121452   2.318   3.201   4.080 -0.9036 -0.5554  1.2647
 3273SOL    HW221453   2.390   3.249   4.200 -1.1321  2.2795  0.5475
 3274SOL     OW21454   3.843   1.404   5.000 -0.3134 -0.4485 -0.3708
 3274SOL    HW121455   3.753   1.381   4.977 -0.2575  0.0525 -1.0763
 3274SOL    HW221456   3.890   1.394   4.917 -0.0613 -1.3074 -0.1249
 3275SOL     OW21457   2.382   2.853  14.482 -0.5372  1.1606  0.1535
 3275SOL    HW121458   2.296   2.850  14.442  0.7601  0.5187 -2.5677
 3275SOL    HW221459   2.376   2.934  14.532  0.9899  2.4902 -1.8105
 3276SOL     OW21460   0.138   0.481  16.440  0.6921  0.0741  0.0205
 3276SOL    HW121461   0.102   0.455  16.524  1.1490 -1.0340 -0.1244
 3276SOL    HW221462   0.216   0.527  16.472 -0.3356  1.2009  0.8961
 3277SOL     OW21463   0.218   4.102   5.934 -0.2251 -0.6729 -0.6308
 3277SOL    HW121464   0.177   4.062   5.857  0.4910  0.5412 -1.6552
 3277SOL    HW221465   0.142   4.139   5.979  0.1627 -0.9797  0.2556
 3278SOL     OW21466   4.229   0.715   5.085 -0.0232  0.1044 -0.2524
 3278SOL    HW121467   4.211   0.762   5.166  1.0842 -0.4288  0.2992
 3278SOL    HW221468   4.206   0.779   5.017 -0.7164 -0.1976 -0.2974
 3279SOL     OW21469   3.381   2.584   2.587 -0.1741  0.2884 -0.1515
 3279SOL    HW121470   3.356   2.659   2.535  0.3440  0.1856 -0.5522
 3279SOL    HW221471   3.470   2.606   2.616  0.3255 -2.7008  0.6010
 3280SOL     OW21472   1.193   2.255   7.651 -0.1625  0.2796  0.2465
 3280SOL    HW121473   1.171   2.344   7.681 -0.9770  0.3971 -0.7006
 3280SOL    HW221474   1.281   2.286   7.634 -0.2733  1.9037  2.5751
 3281SOL     OW21475   3.205   1.153   3.151  0.2207  0.0167  0.5104
 3281SOL    HW121476   3.138   1.179   3.089  1.1078 -0.6841 -0.7352
 3281SOL    HW221477   3.273   1.217   3.128 -0.8922  1.6909  1.8660
 3282SOL     OW21478   0.872   0.961   0.951 -0.2394  0.3909  0.1681
 3282SOL    HW121479   0.823   0.986   0.873  0.0734 -0.1799 -0.2091
 3282SOL    HW221480   0.859   0.866   0.951 -0.3644  0.4089 -0.1564
 3283SOL     OW21481   1.426   0.461  12.732 -0.1349  0.2522  0.3569
 3283SOL    HW121482   1.476   0.543  12.730  1.1748 -0.5530  0.0890
 3283SOL    HW221483   1.468   0.421  12.808 -3.9173 -0.7723  1.9057
 3284SOL     OW21484   0.582   1.314   7.245 -0.6103 -0.3425  0.2367
 3284SOL    HW121485   0.504   1.274   7.282  1.0466 -1.8624  2.0703
 3284SOL    HW221486   0.567   1.292   7.153 -3.1204  1.2964  0.2461
 3285SOL     OW21487   4.052   2.578   7.122  0.3974 -0.1921 -0.2205
 3285SOL    HW121488   3.990   2.632   7.170  0.4550  0.1170 -0.4930
 3285SOL    HW221489   4.030   2.492   7.159 -2.2766  0.4200 -0.4046
 3286SOL     OW21490   3.283   4.452   2.984 -0.2126  0.2920  0.1263
 3286SOL    HW121491   3.205   4.479   3.034  0.7444 -2.4188  3.0628
 3286SOL    HW221492   3.304   4.537   2.944  0.3552  0.5483  0.9708
 3287SOL     OW21493   3.991   3.521   1.836 -0.2639 -0.0452  0.1766
 3287SOL    HW121494   4.051   3.462   1.790 -0.6402  0.5788 -1.1224
 3287SOL    HW221495   4.015   3.500   1.926  0.6571 -1.8009 -0.4818
 3288SOL     OW21496   0.548   0.165   9.156 -0.1217  0.1716  0.1067
 3288SOL    HW121497   0.508   0.244   9.193  1.0709  0.6715  0.3092
 3288SOL    HW221498   0.629   0.194   9.114 -1.7896  1.4840 -2.2116
 3289SOL     OW21499   0.902   2.385  17.659  0.1408 -0.2375  0.1377
 3289SOL    HW121500   0.973   2.331  17.694  1.8728  0.6749 -1.9554
 3289SOL    HW221501   0.851   2.399   0.011 -0.5393 -1.2908 -0.1242
 3290SOL     OW21502   1.466   3.928   7.666  0.1201  0.1810  0.2822
 3290SOL    HW121503   1.539   3.952   7.723 -1.0170  0.7613  1.5214
 3290SOL    HW221504   1.484   3.836   7.650 -1.6551 -0.0177 -0.6120
 3291SOL     OW21505   4.210   3.897   4.533 -0.0430 -0.4276 -0.1603
 3291SOL    HW121506   4.291   3.899   4.583 -0.3948 -1.0853  0.4413
 3291SOL    HW221507   4.226   3.832   4.465  1.9655 -0.2213  0.1389
 3292SOL     OW21508   1.746   3.043   8.418 -0.2430 -0.0600 -0.3700
 3292SOL    HW121509   1.678   2.989   8.458 -0.4685  0.4850 -0.0063
 3292SOL    HW221510   1.696   3.066   8.339  0.3837  0.9000 -0.4872
 3293SOL     OW21511   2.854   0.950   6.642  0.6086 -0.1082  0.0583
 3293SOL    HW121512   2.947   0.953   6.620 -0.0876 -0.0373 -2.9506
 3293SOL    HW221513   2.821   0.929   6.555  0.7261 -1.7843  0.4227
 3294SOL     OW21514   0.355   3.686   3.365  0.4306  0.0272  0.5879
 3294SOL    HW121515   0.427   3.623   3.359  1.3063  1.1863 -0.8639
 3294SOL    HW221516   0.282   3.627   3.380 -0.9094  1.5788  0.1293
 3295SOL     OW21517   1.960   1.539   9.724  0.0047  1.0166 -0.2983
 3295SOL    HW121518   1.993   1.628   9.734 -2.3148  2.1474 -2.6510
 3295SOL    HW221519   2.000   1.498   9.800  1.7082  1.8333 -0.7682
 3296SOL     OW21520   0.105   0.038   2.023  0.0865  0.0432 -0.1289
 3296SOL    HW121521   0.129   0.032   2.115 -1.0360  1.7397  0.2705
 3296SOL    HW221522   0.019   4.730   2.037 -0.2699  0.6189 -0.6863
 3297SOL     OW21523   4.027   3.631   2.911 -0.2508  0.0208 -0.0565
 3297SOL    HW121524   3.967   3.572   2.957  0.9502  0.5435  2.1743
 3297SOL    HW221525   4.091   3.663   2.975 -0.0010 -0.2265 -0.1802
 3298SOL     OW21526   2.875   3.937  11.361 -0.7264 -0.0206 -0.8212
 3298SOL    HW121527   2.867   3.918  11.455 -0.7509  3.2637 -0.1460
 3298SOL    HW221528   2.970   3.938  11.351 -0.9214  0.7509 -2.6780
 3299SOL     OW21529   4.181   0.740   2.911  0.0340 -0.5067  0.2619
 3299SOL    HW121530   4.229   0.658   2.920  0.1242 -0.4430  0.3604
 3299SOL    HW221531   4.127   0.728   2.833 -0.8348 -2.0688  1.0953
 3300SOL     OW21532   3.959   0.968   4.688  0.0143 -0.5082 -0.0856
 3300SOL    HW121533   3.988   1.049   4.646  2.4406 -1.1336  0.4381
 3300SOL    HW221534   4.031   0.942   4.745 -0.0118  0.7065  0.4899
 3301SOL     OW21535   0.118   3.179   2.182  0.1620  0.2178  0.2019
 3301SOL    HW121536   0.157   3.143   2.262  1.7379  1.2906 -0.0668
 3301SOL    HW221537   0.156   3.267   2.177  3.3221 -1.1431 -0.2621
 3302SOL     OW21538   1.516   2.497   6.729 -0.5587  0.1086  0.0109
 3302SOL    HW121539   1.444   2.434   6.729 -0.1363 -0.3705 -0.0028
 3302SOL    HW221540   1.499   2.545   6.810  0.1542  1.8323 -0.8463
 3303SOL     OW21541   3.182   4.572  17.202 -0.3806  0.0476  0.0804
 3303SOL    HW121542   3.108   4.621  17.240  2.1300  1.8209  2.6740
 3303SOL    HW221543   3.252   4.637  17.205  0.3854 -0.7169 -1.5909
 3304SOL     OW21544   0.937   0.491   9.529  0.0987 -0.3149 -0.1074
 3304SOL    HW121545   0.970   0.512   9.616 -1.2046 -3.9817  1.2496
 3304SOL    HW221546   0.890   0.409   9.544  0.1457 -0.3598 -0.2033
 3305SOL     OW21547   0.632   3.060   1.799 -0.0333 -0.3724 -0.6011
 3305SOL    HW121548   0.546   3.043   1.838  0.1767  3.4786  1.5382
 3305SOL    HW221549   0.681   3.071   1.881  0.1899 -0.5146 -0.7158
 3306SOL     OW21550   4.494   1.740   1.602  0.1728  0.5694 -0.4495
 3306SOL    HW121551   4.463   1.723   1.690  0.1388  1.7628 -0.2301
 3306SOL    HW221552   4.412   1.768   1.560 -3.1656 -2.4814  4.1098
 3307SOL     OW21553   3.851   4.593   9.033 -0.3170 -0.5988 -0.0399
 3307SOL    HW121554   3.855   4.688   9.027  1.0468 -0.5993  0.9044
 3307SOL    HW221555   3.870   4.574   8.941  0.6618  0.8537 -0.1267
 3308SOL     OW21556   1.671   3.201  17.258  0.8312 -0.3044 -0.4783
 3308SOL    HW121557   1.660   3.270  17.192 -1.1682 -0.3429 -0.1759
 3308SOL    HW221558   1.674   3.256  17.337 -4.8258  0.6761 -0.9427
 3309SOL     OW21559   1.838   0.712   4.493 -1.0788  0.2295 -0.2127
 3309SOL    HW121560   1.867   0.623   4.513  0.1840  0.8093  0.5659
 3309SOL    HW221561   1.840   0.746   4.583 -3.6767  0.1581 -0.1366
 3310SOL     OW21562   3.397   0.004  16.946 -0.2996  0.5945 -0.1518
 3310SOL    HW121563   3.405   0.098  16.928 -2.5007  0.5418 -1.3148
 3310SOL    HW221564   3.309   0.008  16.985 -0.7341  1.6827 -1.2618
 3311SOL     OW21565   3.465   1.449   4.718 -0.0896 -0.0491 -0.0043
 3311SOL    HW121566   3.373   1.477   4.717 -0.7393 -2.1947  0.8681
 3311SOL    HW221567   3.504   1.534   4.738  1.1522 -0.7463  0.5668
 3312SOL     OW21568   2.742   4.118  13.060 -0.3812  0.0343 -0.5850
 3312SOL    HW121569   2.754   4.056  12.988  0.1565  1.0437 -1.3630
 3312SOL    HW221570   2.814   4.090  13.117 -0.2780 -0.7817 -1.1050
 3313SOL     OW21571   3.233   1.479   8.885 -0.3662  0.3787  0.2721
 3313SOL    HW121572   3.254   1.389   8.860 -0.1258  0.2920  0.7909
 3313SOL    HW221573   3.254   1.477   8.978 -0.7188 -2.0612  0.3003
 3314SOL     OW21574   4.425   4.403  14.605 -0.2558 -0.0981 -0.6758
 3314SOL    HW121575   4.460   4.468  14.544 -1.7062  2.4591  1.1873
 3314SOL    HW221576   4.332   4.395  14.588 -0.1964 -0.9524 -0.5771
 3315SOL     OW21577   4.255   0.545  13.924 -0.3765  0.7034  0.4396
 3315SOL    HW121578   4.241   0.561  14.017 -1.6691  1.5216  0.0984
 3315SOL    HW221579   4.315   0.614  13.896 -0.2720  1.3295  2.1890
 3316SOL     OW21580   2.132   1.044   4.584  0.2980 -0.1001 -0.3031
 3316SOL    HW121581   2.079   1.054   4.504 -1.4980 -3.1338  0.4874
 3316SOL    HW221582   2.215   1.083   4.555 -0.3139  1.4960  0.1136
 3317SOL     OW21583   2.174   4.536   8.567 -0.0343 -0.2495  0.0316
 3317SOL    HW121584   2.091   4.560   8.527  0.3762  0.7554 -0.2135
 3317SOL    HW221585   2.157   4.444   8.588 -1.7451 -0.2246 -1.2309
 3318SOL     OW21586   0.482   1.342  12.088  0.5385 -0.2886  0.0321
 3318SOL    HW121587   0.515   1.431  12.084 -0.9306  0.3368  1.8608
 3318SOL    HW221588   0.484   1.316  11.995  3.0405  1.0084 -0.2682
 3319SOL     OW21589   1.055   1.217  14.796  0.1192 -0.7417  0.0317
 3319SOL    HW121590   1.097   1.208  14.710 -2.8870 -0.6906 -1.4247
 3319SOL    HW221591   1.008   1.134  14.796  0.6197 -1.0237 -0.4616
 3320SOL     OW21592   3.469   2.515   8.196 -0.3964  0.0738  0.2006
 3320SOL    HW121593   3.495   2.605   8.173  0.2914 -0.3665 -0.7157
 3320SOL    HW221594   3.419   2.475   8.124 -0.7525  0.8061  0.0342
 3321SOL     OW21595   0.786   2.336   1.714 -0.1083 -0.3332  0.3480
 3321SOL    HW121596   0.848   2.284   1.765  0.9430  1.9605  1.4057
 3321SOL    HW221597   0.710   2.286   1.742 -0.3719 -0.2703 -0.2623
 3322SOL     OW21598   3.450   3.888   8.219 -0.9657  0.5619 -0.0391
 3322SOL    HW121599   3.511   3.924   8.155  0.9567 -2.5863  0.0343
 3322SOL    HW221600   3.504   3.851   8.288  0.8566 -0.0797 -1.8297
 3323SOL     OW21601   2.068   3.458   2.247  0.1244 -0.0292 -0.8269
 3323SOL    HW121602   2.030   3.373   2.225 -1.2579  1.0019 -2.4404
 3323SOL    HW221603   2.135   3.452   2.178 -0.2018  0.3977 -1.1752
 3324SOL     OW21604   1.202   0.426   7.795  0.1656 -0.6223 -0.2540
 3324SOL    HW121605   1.251   0.352   7.830  1.6400  1.4062  1.9607
 3324SOL    HW221606   1.237   0.445   7.708 -2.2179 -1.6274 -1.4097
 3325SOL     OW21607   4.373   3.101   6.814 -0.3439  0.0235 -0.0382
 3325SOL    HW121608   4.417   3.016   6.818 -0.8863 -0.1549  2.4265
 3325SOL    HW221609   4.385   3.113   6.720 -1.1680  0.0600 -0.1401
 3326SOL     OW21610   0.370   3.133   3.849  0.2749  0.2942 -0.1104
 3326SOL    HW121611   0.335   3.080   3.921  1.0967 -0.2227 -0.0885
 3326SOL    HW221612   0.302   3.200   3.851 -1.4465 -1.4683  1.1999
 3327SOL     OW21613   3.057   3.300   6.141  0.3973 -0.7737  0.4229
 3327SOL    HW121614   3.105   3.381   6.160 -0.2239 -0.7849  2.0658
 3327SOL    HW221615   3.114   3.272   6.069  1.5065 -3.0237  2.1801
 3328SOL     OW21616   2.876   2.295   7.268 -0.1140  0.0547  0.1331
 3328SOL    HW121617   2.796   2.315   7.219  0.6973 -2.9028 -2.4593
 3328SOL    HW221618   2.848   2.311   7.358 -0.1087  2.0837 -0.2222
 3329SOL     OW21619   4.214   2.151   4.968 -0.2041 -0.2508 -0.4607
 3329SOL    HW121620   4.147   2.188   5.026  0.1906  2.0156 -1.4410
 3329SOL    HW221621   4.237   2.226   4.913 -0.7380  0.8160  0.7477
 3330SOL     OW21622   0.617   0.334   5.781  0.2273 -0.2129  0.5766
 3330SOL    HW121623   0.567   0.385   5.717  2.1501  0.5525 -0.2997
 3330SOL    HW221624   0.574   0.249   5.773  0.0438  0.0140 -0.9553
 3331SOL     OW21625   1.171   0.948   3.840 -0.4633  0.0098  0.2835
 3331SOL    HW121626   1.107   0.884   3.811  0.8522 -1.9636  1.7452
 3331SOL    HW221627   1.153   1.004   3.765 -0.0927  1.8013  1.5317
 3332SOL     OW21628   1.242   3.726   2.313 -0.1382 -0.1073  0.6023
 3332SOL    HW121629   1.194   3.647   2.288  1.0492 -0.7868  0.4591
 3332SOL    HW221630   1.194   3.786   2.255 -0.9569 -1.0241  0.3291
 3333SOL     OW21631   2.574   1.255   7.919 -0.0376  0.2929  0.4226
 3333SOL    HW121632   2.589   1.274   8.011  1.4461 -0.7009  0.3962
 3333SOL    HW221633   2.605   1.165   7.911 -0.3824  0.0616  1.7638
 3334SOL     OW21634   1.887   0.589  12.572 -0.0657  0.4926  0.1548
 3334SOL    HW121635   1.824   0.635  12.627 -1.9665  0.2237 -1.7971
 3334SOL    HW221636   1.955   0.657  12.567 -0.2482  0.7796  1.7098
 3335SOL     OW21637   4.481   3.527   0.611  0.4063  0.4660  0.3711
 3335SOL    HW121638   4.509   3.449   0.660  3.1090  0.3273 -1.4094
 3335SOL    HW221639   4.431   3.563   0.684  1.0782  0.5345  0.7991
 3336SOL     OW21640   3.618   2.641   2.993  0.6215 -0.5697 -0.4244
 3336SOL    HW121641   3.664   2.725   2.990 -3.5991  1.8059  1.5559
 3336SOL    HW221642   3.530   2.656   3.025  0.7185 -0.2500 -0.3095
 3337SOL     OW21643   0.828   2.222   1.197 -0.1624 -0.3389 -0.2838
 3337SOL    HW121644   0.735   2.228   1.175  0.0619 -1.2402 -1.4536
 3337SOL    HW221645   0.837   2.128   1.183 -1.3561 -0.1765 -2.0813
 3338SOL     OW21646   3.428   4.474   3.812  0.2053  0.2560  0.0658
 3338SOL    HW121647   3.413   4.389   3.770  1.4977  0.0003  0.1281
 3338SOL    HW221648   3.518   4.491   3.785  0.7057  0.0206  1.5681
 3339SOL     OW21649   1.872   1.084   6.596  0.0746  0.1579 -0.4294
 3339SOL    HW121650   1.935   1.106   6.528  0.3398 -1.5179 -0.7363
 3339SOL    HW221651   1.937   1.041   6.651  1.0582  0.2121 -1.5430
 3340SOL     OW21652   0.124   0.590  10.694 -1.0746 -0.2243  0.0428
 3340SOL    HW121653   0.112   0.677  10.731  1.0706 -0.7083  1.8811
 3340SOL    HW221654   0.087   0.540  10.767 -0.8380 -0.5085 -0.0328
 3341SOL     OW21655   0.831   3.627   4.702  0.0997  0.2296  0.3839
 3341SOL    HW121656   0.894   3.564   4.666  1.3127  2.0851 -0.8060
 3341SOL    HW221657   0.864   3.705   4.658 -0.8492  0.9056  0.8770
 3342SOL     OW21658   0.938   1.865   8.861 -0.5865 -0.3620  0.1117
 3342SOL    HW121659   0.981   1.842   8.778 -1.2601  1.2935 -0.6950
 3342SOL    HW221660   0.901   1.778   8.878 -1.4943 -0.1225 -0.6660
 3343SOL     OW21661   0.920   3.352  15.697  0.6618  0.0605 -0.0951
 3343SOL    HW121662   0.878   3.437  15.701 -0.5720 -0.4988 -1.1622
 3343SOL    HW221663   0.857   3.294  15.653 -0.2689  0.2372  1.0131
 3344SOL     OW21664   0.513   0.590   1.937 -1.0645  0.2112 -0.0118
 3344SOL    HW121665   0.534   0.630   2.021 -0.3111 -0.4640  0.1145
 3344SOL    HW221666   0.571   0.514   1.932 -0.3254  0.7747 -0.1688
 3345SOL     OW21667   1.482   1.435   0.089  0.4897  0.5172  0.0026
 3345SOL    HW121668   1.547   1.454   0.022 -0.2721  1.8487 -0.3400
 3345SOL    HW221669   1.402   1.447   0.039 -0.5204  0.0452  1.4919
 3346SOL     OW21670   1.461   1.312  14.175 -0.0332  0.7775 -0.5865
 3346SOL    HW121671   1.456   1.237  14.116 -1.4914  0.8306 -0.5476
 3346SOL    HW221672   1.432   1.375  14.109 -2.8981  1.4851  1.3297
 3347SOL     OW21673   3.884   2.439   6.923  0.5983  0.6279  0.0429
 3347SOL    HW121674   3.847   2.407   7.005 -1.8311 -0.9444 -1.6752
 3347SOL    HW221675   3.963   2.481   6.958 -1.1079  1.3241  3.0509
 3348SOL     OW21676   2.055   0.238   7.515 -0.4839  0.0481 -0.3271
 3348SOL    HW121677   2.037   0.329   7.536  0.1195 -0.1785  1.1580
 3348SOL    HW221678   2.043   0.197   7.600 -2.5763  0.8429 -0.2533
 3349SOL     OW21679   1.393   4.625   4.131  0.9599  0.1924 -0.0176
 3349SOL    HW121680   1.485   4.634   4.155  1.0999  2.3961 -1.3360
 3349SOL    HW221681   1.378   4.718   4.118  0.2944  0.3039  1.6060
 3350SOL     OW21682   0.669   2.593   4.683 -0.0202 -0.1617  0.4352
 3350SOL    HW121683   0.688   2.605   4.776  0.2473  1.3021  0.2042
 3350SOL    HW221684   0.750   2.621   4.639  1.9273 -2.4333  2.6035
 3351SOL     OW21685   0.216   3.746  13.769 -0.6867  0.2300  0.3581
 3351SOL    HW121686   0.149   3.730  13.835 -0.2688  3.5986  1.6236
 3351SOL    HW221687   0.254   3.660  13.752 -0.0022  0.3072  1.4872
 3352SOL     OW21688   1.418   2.155   8.284  0.0281 -0.4292 -0.2440
 3352SOL    HW121689   1.452   2.083   8.231 -0.5620 -0.1579 -0.9880
 3352SOL    HW221690   1.503   2.197   8.294  0.1450 -1.5381  3.5008
 3353SOL     OW21691   4.476   0.835   5.459 -0.3611  0.4027  0.0369
 3353SOL    HW121692   4.388   0.809   5.484 -0.0281  1.0234  1.9077
 3353SOL    HW221693   4.525   0.822   5.541  1.0236  2.5387 -0.4488
 3354SOL     OW21694   3.122   2.243   5.477  0.2370  0.8290 -0.7207
 3354SOL    HW121695   3.060   2.271   5.411 -0.6730  1.1352  0.2632
 3354SOL    HW221696   3.106   2.311   5.543  2.5252  0.0064  0.7123
 3355SOL     OW21697   4.229   4.683   2.278  0.3993  0.2820  0.0246
 3355SOL    HW121698   4.226   0.006   2.356 -1.6938 -1.3931  1.1273
 3355SOL    HW221699   4.170   0.003   2.223 -0.2988 -0.0528  0.4652
 3356SOL     OW21700   2.238   2.225  11.140  0.0318 -0.1300 -0.1552
 3356SOL    HW121701   2.177   2.288  11.101 -2.2522 -0.8282  2.2652
 3356SOL    HW221702   2.318   2.278  11.139 -0.3993  0.5113 -1.5741
 3357SOL     OW21703   2.566   4.306  14.221 -0.1692  0.5582 -0.3121
 3357SOL    HW121704   2.513   4.228  14.204  1.6667 -0.8787  0.6169
 3357SOL    HW221705   2.611   4.312  14.137 -0.8365  1.3499 -0.6224
 3358SOL     OW21706   2.990   2.429  13.543  0.2480  0.3162 -0.4990
 3358SOL    HW121707   3.034   2.464  13.621  1.1649 -0.5804 -0.6166
 3358SOL    HW221708   3.050   2.473  13.483  4.1052  1.3464  4.0378
 3359SOL     OW21709   3.009   0.385   9.140  0.6020 -0.5134  0.5285
 3359SOL    HW121710   3.021   0.359   9.231 -0.5887  0.4145  0.9532
 3359SOL    HW221711   3.026   0.306   9.088 -2.9840 -0.7126 -0.3773
 3360SOL     OW21712   2.229   0.865   9.620  0.3478 -0.5275  0.4051
 3360SOL    HW121713   2.202   0.937   9.676  0.9163 -1.3016  1.6757
 3360SOL    HW221714   2.276   0.916   9.554  0.1630 -1.8964 -0.7963
 3361SOL     OW21715   2.051   2.383   4.812 -0.0542  0.4322  0.1627
 3361SOL    HW121716   1.995   2.449   4.853 -2.3351 -0.1695 -1.9749
 3361SOL    HW221717   1.985   2.318   4.790 -1.0739  0.9529  1.7129
 3362SOL     OW21718   2.659   0.737   5.680  0.0767  0.8088 -0.2618
 3362SOL    HW121719   2.658   0.818   5.732  1.8460  0.4883  0.2575
 3362SOL    HW221720   2.742   0.695   5.703  0.8319  2.4225 -0.0702
 3363SOL     OW21721   4.164   1.977  17.167  0.0924  0.7751 -0.0091
 3363SOL    HW121722   4.249   1.936  17.181 -1.4483 -2.8141 -1.0809
 3363SOL    HW221723   4.171   1.992  17.073 -3.0385 -0.2128 -0.4109
 3364SOL     OW21724   1.735   4.261   6.969 -0.2374 -0.4377 -0.6046
 3364SOL    HW121725   1.802   4.239   6.905  1.7907  0.9076  1.0254
 3364SOL    HW221726   1.710   4.176   7.005  0.2751 -0.5500 -0.5050
 3365SOL     OW21727   2.812   1.634   3.934  0.1396 -0.3398  0.5953
 3365SOL    HW121728   2.790   1.572   4.003  1.2746 -4.7732 -3.0187
 3365SOL    HW221729   2.890   1.592   3.896 -0.1132  0.5421 -0.8962
 3366SOL     OW21730   2.363   2.303   8.544 -0.2882 -0.8456 -0.0434
 3366SOL    HW121731   2.333   2.266   8.626 -0.4588 -1.7991 -0.5452
 3366SOL    HW221732   2.386   2.393   8.569  0.1522 -0.6539 -1.1001
 3367SOL     OW21733   2.523   4.309   2.601  0.1659 -0.2302 -0.4207
 3367SOL    HW121734   2.557   4.389   2.562  0.7371 -0.9156 -1.3355
 3367SOL    HW221735   2.565   4.240   2.550  0.0250  0.6791 -1.7475
 3368SOL     OW21736   2.828   2.138   1.241 -0.2602 -0.0573  0.4657
 3368SOL    HW121737   2.793   2.096   1.162  1.8843 -0.9464 -0.0031
 3368SOL    HW221738   2.752   2.139   1.299  0.5545 -1.2667  1.5548
 3369SOL     OW21739   1.423   0.160   6.353 -0.0618  0.9649 -0.4279
 3369SOL    HW121740   1.369   0.236   6.375 -0.4313  0.8487 -0.9350
 3369SOL    HW221741   1.363   0.088   6.334  0.7379  0.0885  0.4435
 3370SOL     OW21742   2.908   0.613   7.043 -0.0550 -0.0506 -0.0034
 3370SOL    HW121743   2.987   0.566   7.018 -0.4684  0.3300 -1.9753
 3370SOL    HW221744   2.892   0.668   6.967 -0.2914  0.3457  0.3311
 3371SOL     OW21745   0.847   1.387   4.302  0.0440  0.0238  0.6481
 3371SOL    HW121746   0.933   1.401   4.263 -1.1154  0.5792 -1.7029
 3371SOL    HW221747   0.870   1.345   4.385 -0.5269 -0.1181  0.7326
 3372SOL     OW21748   3.158   0.749   4.225 -0.9311  0.1452  0.8001
 3372SOL    HW121749   3.246   0.787   4.234  0.5811 -2.9956 -0.8772
 3372SOL    HW221750   3.105   0.827   4.207  0.2330  0.8807  0.5115
 3373SOL     OW21751   1.355   1.593   6.353  0.3475 -0.1123  0.1229
 3373SOL    HW121752   1.374   1.540   6.430  1.2862 -0.3099 -0.2466
 3373SOL    HW221753   1.365   1.532   6.281  0.4720 -0.2953  0.2974
 3374SOL     OW21754   3.572   2.234   8.499  0.9741  0.2097  0.5962
 3374SOL    HW121755   3.606   2.192   8.578 -0.7690  1.0170  1.7732
 3374SOL    HW221756   3.652   2.230   8.446  1.5551 -1.0300  1.5744
 3375SOL     OW21757   3.075   2.117   0.277  0.1553  0.5377 -0.2607
 3375SOL    HW121758   2.991   2.106   0.232  0.5864 -0.3761 -0.8383
 3375SOL    HW221759   3.138   2.109   0.205  0.8643  0.7965  0.3353
 3376SOL     OW21760   2.081   1.501   5.910  0.0923  0.3888  0.2200
 3376SOL    HW121761   2.068   1.434   5.977 -0.1421  0.6556  0.4410
 3376SOL    HW221762   2.127   1.448   5.844 -2.1958  0.6911 -1.6092
 3377SOL     OW21763   4.392   0.603   7.507 -0.5546  0.3036 -0.7254
 3377SOL    HW121764   4.380   0.685   7.555 -0.4330  0.9326 -1.7607
 3377SOL    HW221765   4.338   0.534   7.545 -2.0175  0.5481 -2.3760
 3378SOL     OW21766   2.669   1.695   3.015 -0.5280  0.1244  0.0827
 3378SOL    HW121767   2.754   1.738   3.009 -1.3717  1.8463  0.2524
 3378SOL    HW221768   2.693   1.603   3.014 -0.2409  0.2061 -0.6204
 3379SOL     OW21769   2.967   1.847   8.279 -0.1496 -0.0640  0.4857
 3379SOL    HW121770   2.930   1.931   8.251 -1.4034 -1.2277 -1.3220
 3379SOL    HW221771   3.060   1.864   8.267 -0.1543 -0.5258 -0.1672
 3380SOL     OW21772   0.002   2.979   1.016 -0.6819  0.4881  0.3499
 3380SOL    HW121773   4.699   2.978   1.105 -0.1918 -0.5024  0.5190
 3380SOL    HW221774   0.079   3.033   1.031  1.5466 -2.2109 -1.5048
 3381SOL     OW21775   2.688   0.579   6.064 -0.2284  0.1727 -0.1426
 3381SOL    HW121776   2.724   0.668   6.061  1.6747 -0.7343 -3.0434
 3381SOL    HW221777   2.770   0.531   6.074 -0.5292  0.1255  2.2012
 3382SOL     OW21778   1.941   1.642  15.653  0.2093  0.2964  0.5222
 3382SOL    HW121779   1.878   1.649  15.581  0.5720 -1.4239  0.0310
 3382SOL    HW221780   2.016   1.697  15.631  0.0064  0.9971  1.6104
 3383SOL     OW21781   4.353   0.948   7.383 -0.0199  0.1990 -0.5404
 3383SOL    HW121782   4.355   0.905   7.468  0.6901  2.6518  0.6890
 3383SOL    HW221783   4.288   1.017   7.396  1.5848  1.8815 -1.4104
 3384SOL     OW21784   1.977   3.949   2.350 -0.4576 -0.5221  0.1318
 3384SOL    HW121785   1.956   3.856   2.343  0.6343 -0.7846  0.2997
 3384SOL    HW221786   1.978   3.983   2.261  0.8516 -2.3371 -0.5287
 3385SOL     OW21787   4.006   1.471   9.941 -0.6160 -0.5184  0.3935
 3385SOL    HW121788   3.968   1.559   9.945 -1.8542 -0.9960 -0.8175
 3385SOL    HW221789   4.037   1.461   9.851 -0.1109  3.1000  0.1285
 3386SOL     OW21790   4.213   2.362  17.299 -0.2949 -0.0601 -0.1012
 3386SOL    HW121791   4.268   2.299  17.252  1.5175  1.8207 -0.4766
 3386SOL    HW221792   4.211   2.436  17.239 -5.2912 -1.0484 -1.1465
 3387SOL     OW21793   3.513   3.209   5.123 -0.5389  0.2007 -0.0989
 3387SOL    HW121794   3.531   3.123   5.159 -1.9508  0.4832  1.2849
 3387SOL    HW221795   3.422   3.219   5.150 -0.8791 -2.1767 -0.3867
 3388SOL     OW21796   1.802   3.654   2.902  0.1224 -0.4660 -0.3554
 3388SOL    HW121797   1.827   3.722   2.965  0.0522 -0.5203 -0.2688
 3388SOL    HW221798   1.783   3.717   2.832 -0.1639  0.9025  0.9549
 3389SOL     OW21799   3.572   4.061  16.531  0.2794  0.2954  0.4368
 3389SOL    HW121800   3.637   4.094  16.593  0.0336 -0.0806  0.8925
 3389SOL    HW221801   3.620   3.997  16.478 -0.4237 -2.0387  2.6729
 3390SOL     OW21802   0.435   1.933   2.321  0.2742  0.3746 -0.2334
 3390SOL    HW121803   0.365   1.966   2.377  1.5696 -1.7087  2.5969
 3390SOL    HW221804   0.482   1.882   2.388 -1.6217  0.3564  1.0840
 3391SOL     OW21805   0.291   1.157   5.223  0.1087 -0.0136 -0.1665
 3391SOL    HW121806   0.300   1.131   5.315  0.1268 -0.3427 -0.2598
 3391SOL    HW221807   0.274   1.250   5.234 -1.7499 -0.2416 -1.0035
 3392SOL     OW21808   3.826   4.693  17.005  0.0382 -0.0530 -0.0971
 3392SOL    HW121809   3.763   4.629  17.038 -0.4071  1.9248  2.9356
 3392SOL    HW221810   3.770   0.022  16.956 -2.9664 -2.3953  0.4061
 3393SOL     OW21811   1.320   4.677  17.283 -0.4693  0.3470  0.4010
 3393SOL    HW121812   1.410   4.662  17.314 -1.6182 -2.7736  2.2477
 3393SOL    HW221813   1.276   4.716  17.359  0.5308  2.2638 -0.0227
 3394SOL     OW21814   0.677   1.652   2.053  0.3944  0.1576  0.0232
 3394SOL    HW121815   0.604   1.655   1.992 -1.1536 -1.0526  1.8012
 3394SOL    HW221816   0.728   1.727   2.021  0.5894 -0.1430 -0.3722
 3395SOL     OW21817   1.616   0.097   8.169  0.2654 -0.2221  0.0236
 3395SOL    HW121818   1.642   0.071   8.257 -1.2440 -0.6125  0.3498
 3395SOL    HW221819   1.529   0.057   8.168  0.2253 -0.1254 -0.5890
 3396SOL     OW21820   2.324   0.372   4.758 -0.0243 -0.3084  0.3509
 3396SOL    HW121821   2.258   0.303   4.755  1.6843 -1.9891  0.6132
 3396SOL    HW221822   2.344   0.388   4.666  0.8875 -1.1686  0.3881
 3397SOL     OW21823   3.568   1.392   0.571 -0.1526  0.1544 -0.4665
 3397SOL    HW121824   3.597   1.330   0.638  0.5768 -0.1094 -1.0321
 3397SOL    HW221825   3.503   1.450   0.610  0.2042  0.0574  0.2664
 3398SOL     OW21826   2.407   0.758   0.822  0.4514  0.1025 -0.3133
 3398SOL    HW121827   2.321   0.718   0.810  0.5119 -0.1829  0.2124
 3398SOL    HW221828   2.392   0.839   0.774 -0.1244  0.3456  0.2741
 3399SOL     OW21829   1.211   4.008   8.780  0.1223 -0.0645  0.1454
 3399SOL    HW121830   1.262   4.061   8.719  3.0212 -3.1503 -0.1234
 3399SOL    HW221831   1.125   4.037   8.751 -1.1540 -0.5643  3.4363
 3400SOL     OW21832   2.284   2.702  15.501  0.6780  0.1990  0.0196
 3400SOL    HW121833   2.323   2.783  15.470 -0.6626  0.8272 -0.0321
 3400SOL    HW221834   2.224   2.683  15.429 -0.6468 -0.4191  1.2876
 3401SOL     OW21835   0.820   1.581   3.541  0.8429  0.2477 -0.2653
 3401SOL    HW121836   0.765   1.636   3.485 -1.6704 -0.0117  2.0115
 3401SOL    HW221837   0.831   1.636   3.618  2.4556  1.3062 -1.2256
 3402SOL     OW21838   3.918   1.949   5.760 -0.2582 -0.3007  0.0902
 3402SOL    HW121839   3.895   1.918   5.847 -0.9748 -1.4293 -0.4986
 3402SOL    HW221840   3.994   1.898   5.731 -0.0271  0.7277 -1.1143
 3403SOL     OW21841   1.808   3.595   1.932  0.0697 -0.2147 -0.0872
 3403SOL    HW121842   1.897   3.615   1.904  0.6077  0.9314  2.4483
 3403SOL    HW221843   1.755   3.675   1.931  0.4351  0.0215 -0.7439
 3404SOL     OW21844   4.595   3.624  10.908 -0.3036  0.1192 -0.3559
 3404SOL    HW121845   4.553   3.575  10.979 -0.3992  0.5768 -0.0909
 3404SOL    HW221846   4.592   3.712  10.947  4.1378 -0.9232  2.2516
 3405SOL     OW21847   1.301   3.189   5.535 -0.6424 -0.0568  0.0419
 3405SOL    HW121848   1.336   3.261   5.483  1.4300 -1.0717  0.0569
 3405SOL    HW221849   1.380   3.158   5.578  1.0165  1.9424 -1.6056
 3406SOL     OW21850   4.421   3.791   3.105  0.4402 -0.3458 -0.1767
 3406SOL    HW121851   4.415   3.697   3.117 -0.3377 -0.1877  0.6716
 3406SOL    HW221852   4.393   3.816   3.193  0.0229  0.0076 -0.4060
 3407SOL     OW21853   1.507   1.455   9.711 -0.1718  0.2948  0.2575
 3407SOL    HW121854   1.488   1.542   9.675 -2.2618 -0.2545  0.0359
 3407SOL    HW221855   1.450   1.404   9.653  0.2355 -0.4777  0.5329
 3408SOL     OW21856   3.437   0.437   4.825 -0.5962  0.3158  0.0097
 3408SOL    HW121857   3.359   0.382   4.820 -0.0526 -0.3851 -0.7951
 3408SOL    HW221858   3.411   0.497   4.755 -3.2518 -2.6799 -1.5686
 3409SOL     OW21859   4.627   1.353  12.744 -0.4075  0.3282 -0.0742
 3409SOL    HW121860   4.589   1.304  12.671 -0.7911  0.0248  0.3280
 3409SOL    HW221861   4.630   1.442  12.708 -0.4492  1.0388  1.6462
 3410SOL     OW21862   1.929   0.168   2.123  0.4221  0.1248  0.3995
 3410SOL    HW121863   1.871   0.091   2.117  0.2127  0.1777  1.8432
 3410SOL    HW221864   1.976   0.143   2.202  0.4081 -0.0433  0.3549
 3411SOL     OW21865   2.387   1.852   5.688  0.0690  0.1020  0.4840
 3411SOL    HW121866   2.303   1.826   5.727 -1.3974  0.6678 -2.2799
 3411SOL    HW221867   2.456   1.795   5.721 -0.9392  1.2825  4.6029
 3412SOL     OW21868   3.973   0.485   8.865 -0.0725  0.4102 -0.1032
 3412SOL    HW121869   3.977   0.452   8.955 -2.6157 -1.3283 -0.6386
 3412SOL    HW221870   4.039   0.554   8.864  1.2045 -0.8086  0.1638
 3413SOL     OW21871   2.921   0.726   8.459  0.0230  0.0202  0.1024
 3413SOL    HW121872   2.891   0.816   8.447  0.5773  0.3552  1.1974
 3413SOL    HW221873   3.010   0.748   8.484 -0.2798 -3.1756  4.0637
 3414SOL     OW21874   3.189   1.908  12.063 -0.2856  0.2235 -0.1722
 3414SOL    HW121875   3.141   1.988  12.040  2.1400  2.2371  1.8015
 3414SOL    HW221876   3.118   1.875  12.118  0.5564 -0.4884  0.4848
 3415SOL     OW21877   0.740   1.286  16.738  0.7887 -0.3682  0.1871
 3415SOL    HW121878   0.776   1.332  16.814  0.0260 -0.1378  0.4066
 3415SOL    HW221879   0.737   1.198  16.775 -2.5457 -0.7884 -1.0838
 3416SOL     OW21880   0.341   1.800   5.211 -0.0495 -0.0224 -0.2957
 3416SOL    HW121881   0.336   1.707   5.190 -0.2987 -0.4932  1.7737
 3416SOL    HW221882   0.417   1.808   5.268 -0.4619 -2.0635  0.5469
 3417SOL     OW21883   2.855   1.226   4.024  0.2373  0.1033 -0.3305
 3417SOL    HW121884   2.878   1.295   3.962 -1.5224  0.6542 -0.3811
 3417SOL    HW221885   2.930   1.168   4.015 -1.9594 -2.7998  0.0069
 3418SOL     OW21886   4.030   2.063   1.763  0.5168  0.6048 -0.0153
 3418SOL    HW121887   4.111   2.045   1.716  0.1371  0.1462 -0.5013
 3418SOL    HW221888   4.053   2.141   1.813  0.8242 -1.4238  2.9876
 3419SOL     OW21889   1.385   4.670   3.061 -0.1747 -0.2631  0.3655
 3419SOL    HW121890   1.345   4.604   3.005  0.2781 -0.4383  0.2479
 3419SOL    HW221891   1.372   0.011   3.001 -1.7324 -1.2313 -0.4865
 3420SOL     OW21892   4.405   3.321  12.480 -0.2309  0.2251  0.6831
 3420SOL    HW121893   4.360   3.239  12.462 -1.6498  1.0504  0.4016
 3420SOL    HW221894   4.489   3.287  12.449 -2.1296 -2.2648 -1.7100
 3421SOL     OW21895   0.144   0.216   8.499  0.6319  1.0817 -0.1290
 3421SOL    HW121896   0.065   0.215   8.554 -0.0434  0.5817 -1.0992
 3421SOL    HW221897   0.153   0.124   8.474  0.5998  1.6478 -2.2474
 3422SOL     OW21898   3.109   0.803   5.721  0.7260 -0.3395  0.5830
 3422SOL    HW121899   3.059   0.781   5.799  0.1274  1.5544  0.7377
 3422SOL    HW221900   3.118   0.719   5.675  0.4219  0.6776 -1.3459
 3423SOL     OW21901   3.216   4.321   3.517 -0.6242  0.4312 -0.9249
 3423SOL    HW121902   3.218   4.340   3.423  2.0547  2.2312 -0.4955
 3423SOL    HW221903   3.281   4.253   3.534  0.7622  1.6586 -1.3695
 3424SOL     OW21904   0.368   0.028   8.916 -0.4485  0.3820 -0.0308
 3424SOL    HW121905   0.297   0.090   8.930 -0.7052 -0.0317  0.5320
 3424SOL    HW221906   0.318   4.685   8.885 -0.5564  0.3141  0.2998
 3425SOL     OW21907   3.492   3.149   9.504 -0.4096 -0.1126 -0.5322
 3425SOL    HW121908   3.456   3.115   9.422  1.0491 -0.7759 -0.9018
 3425SOL    HW221909   3.581   3.115   9.512 -0.5213 -0.1913  0.3658
 3426SOL     OW21910   2.064   4.036   8.248 -0.1524 -0.1584  0.7346
 3426SOL    HW121911   2.077   3.947   8.215  2.0339  1.0512 -1.5619
 3426SOL    HW221912   2.144   4.078   8.217 -0.1350 -1.0921 -0.4929
 3427SOL     OW21913   0.581   0.265   0.114  0.2432 -0.0461  0.8395
 3427SOL    HW121914   0.495   0.234   0.087 -0.7788  2.2823  1.4707
 3427SOL    HW221915   0.637   0.246   0.039  2.6157  2.7862  1.8927
 3428SOL     OW21916   4.330   4.716   3.717  0.2736 -0.2892  0.2832
 3428SOL    HW121917   4.262   4.649   3.710 -0.7392  0.6219  1.2324
 3428SOL    HW221918   4.302   0.030   3.796 -0.2921  0.9530 -0.6295
 3429SOL     OW21919   1.285   1.706  14.749  0.0634 -0.0472  0.2040
 3429SOL    HW121920   1.361   1.725  14.805 -1.6272 -0.7259  2.6988
 3429SOL    HW221921   1.283   1.610  14.743  4.1808 -0.0156 -2.1382
 3430SOL     OW21922   3.480   1.080  15.803  0.3729  0.6730  0.4339
 3430SOL    HW121923   3.518   1.153  15.853  0.7992  1.6665 -1.3526
 3430SOL    HW221924   3.534   1.079  15.724 -2.0520 -1.3590 -1.1777
 3431SOL     OW21925   4.486   3.992   7.167  0.4900 -0.1224  0.3565
 3431SOL    HW121926   4.578   4.007   7.143  0.0099  1.5881 -0.3962
 3431SOL    HW221927   4.488   3.896   7.167  2.2467 -0.0963  0.7124
 3432SOL     OW21928   4.287   4.296   9.415 -0.2272 -0.4644 -0.2321
 3432SOL    HW121929   4.286   4.211   9.459  0.1343  0.7548  2.1335
 3432SOL    HW221930   4.204   4.331   9.446  0.5797  0.2189  1.1754
 3433SOL     OW21931   2.550   0.718   6.463  0.0582 -0.0181  0.4832
 3433SOL    HW121932   2.538   0.627   6.492  0.0404  0.0033  0.5417
 3433SOL    HW221933   2.494   0.727   6.386  0.7260  1.4293  0.1716
 3434SOL     OW21934   0.470   0.948   4.227 -0.0437  0.5108 -0.5202
 3434SOL    HW121935   0.538   0.969   4.164  0.9318 -0.6731  0.1521
 3434SOL    HW221936   0.418   0.889   4.172  1.1568 -1.1989  0.2016
 3435SOL     OW21937   0.319   4.095  11.633  0.1282 -0.3254 -0.2008
 3435SOL    HW121938   0.361   4.137  11.709 -0.3281  1.0590 -0.7361
 3435SOL    HW221939   0.353   4.005  11.635 -2.5255 -1.3006  0.1895
 3436SOL     OW21940   3.546   3.073   5.956 -0.2872 -0.2786  0.0272
 3436SOL    HW121941   3.581   3.046   5.871 -0.0573 -2.2759  0.7462
 3436SOL    HW221942   3.543   2.988   6.000  0.6266 -0.7915 -0.8917
 3437SOL     OW21943   3.285   1.297   6.539  0.3070 -0.1278  0.4558
 3437SOL    HW121944   3.247   1.384   6.526 -0.3999 -0.4564  0.3436
 3437SOL    HW221945   3.371   1.299   6.497  1.1395 -0.0573  2.1274
 3438SOL     OW21946   0.460   2.974   6.537 -0.0256  0.2518 -0.9136
 3438SOL    HW121947   0.466   3.068   6.552 -1.2562  0.0783  0.7377
 3438SOL    HW221948   0.381   2.950   6.586 -0.7626 -0.1305 -2.2927
 3439SOL     OW21949   1.276   0.999   3.249 -0.1307 -0.3540 -0.6270
 3439SOL    HW121950   1.303   0.939   3.179  0.5340 -0.4667 -0.2701
 3439SOL    HW221951   1.194   0.953   3.267  1.5056 -1.3735  4.2738
 3440SOL     OW21952   2.362   3.109   2.732  0.2893 -1.1136  0.1871
 3440SOL    HW121953   2.341   3.195   2.769  0.8297 -2.3446  3.3113
 3440SOL    HW221954   2.328   3.060   2.806 -1.1619  0.9891  0.9245
 3441SOL     OW21955   2.507   3.362  17.355  0.1420 -0.5492 -0.0410
 3441SOL    HW121956   2.548   3.279  17.383  1.8273 -0.4734 -2.2602
 3441SOL    HW221957   2.449   3.330  17.286  0.8390  0.3663 -1.0383
 3442SOL     OW21958   4.026   0.314   8.649 -0.3702  0.8397 -0.2712
 3442SOL    HW121959   4.110   0.358   8.640 -0.0282  0.8520  2.8829
 3442SOL    HW221960   3.998   0.361   8.728 -1.8569 -0.0657 -0.2560
 3443SOL     OW21961   3.245   1.189   1.305  0.2516 -0.1663 -0.0954
 3443SOL    HW121962   3.162   1.197   1.257  0.6745 -0.9962 -0.9557
 3443SOL    HW221963   3.213   1.178   1.394  4.0203 -2.8140  0.9063
 3444SOL     OW21964   0.977   0.561  15.306 -0.3595 -0.3882 -0.2949
 3444SOL    HW121965   1.071   0.561  15.320 -0.4233 -2.5390  0.0793
 3444SOL    HW221966   0.966   0.532  15.216  2.1162  2.5556 -1.5389
 3445SOL     OW21967   4.537   0.964  17.402  0.9300 -0.6042  0.5182
 3445SOL    HW121968   4.592   1.020  17.347 -1.0738  0.8698 -0.0080
 3445SOL    HW221969   4.546   0.998  17.491 -0.0080  0.7671  0.0837
 3446SOL     OW21970   4.056   1.318   8.160 -0.0856  0.4929  0.3388
 3446SOL    HW121971   4.101   1.242   8.196 -1.0736 -0.4736 -0.5027
 3446SOL    HW221972   4.132   1.371   8.135 -0.5832  1.2455  0.4217
 3447SOL     OW21973   1.190   3.888   4.173  0.4604  0.7961  0.1942
 3447SOL    HW121974   1.178   3.951   4.101 -0.5158  0.8856  0.4313
 3447SOL    HW221975   1.124   3.931   4.228 -0.7667 -1.1310  0.2080
 3448SOL     OW21976   2.462   1.196   8.529  0.1017 -0.6503 -0.3269
 3448SOL    HW121977   2.383   1.161   8.570  2.7878 -3.6460  2.2124
 3448SOL    HW221978   2.440   1.246   8.450  0.4238 -0.7454 -0.4781
 3449SOL     OW21979   2.824   1.436   1.903  0.6870  1.0578 -0.3405
 3449SOL    HW121980   2.743   1.421   1.853 -0.5093 -0.3027  1.9865
 3449SOL    HW221981   2.882   1.371   1.862  0.2674 -0.3267  1.2672
 3450SOL     OW21982   2.107   0.064   8.152  0.2900 -0.1853 -0.5653
 3450SOL    HW121983   2.094   0.116   8.232  0.2012 -0.7268 -0.2286
 3450SOL    HW221984   2.194   0.087   8.120  0.9691  1.2222  2.3027
 3451SOL     OW21985   2.252   2.172   4.294 -0.0249 -0.6528 -0.1366
 3451SOL    HW121986   2.298   2.088   4.292  1.7898  0.3217  0.4204
 3451SOL    HW221987   2.276   2.206   4.208 -0.2490  0.3443  0.1951
 3452SOL     OW21988   4.513   0.974   0.662 -0.0607  0.2558  0.0080
 3452SOL    HW121989   4.583   0.909   0.666  0.0533  0.2551 -1.9106
 3452SOL    HW221990   4.493   0.962   0.569 -1.7382  0.3400  0.3531
 3453SOL     OW21991   0.620   2.543   2.892  0.5504 -0.0191  0.2984
 3453SOL    HW121992   0.699   2.524   2.841 -0.1788  2.1056 -1.6101
 3453SOL    HW221993   0.648   2.608   2.956 -1.3583 -0.5916  1.7101
 3454SOL     OW21994   3.704   3.321  13.087  0.0574 -0.2613 -0.0379
 3454SOL    HW121995   3.668   3.372  13.014 -1.4982 -0.9026  0.2710
 3454SOL    HW221996   3.713   3.388  13.155  0.5096  0.7588 -1.1037
 3455SOL     OW21997   4.181   0.366   5.310  0.3344  0.2352 -0.1237
 3455SOL    HW121998   4.170   0.380   5.216 -2.2189  0.7131  0.2520
 3455SOL    HW221999   4.274   0.344   5.321 -0.6120 -4.0321 -0.7411
 3456SOL     OW22000   0.448   1.053   6.787  0.0078 -0.0103 -0.5129
 3456SOL    HW122001   0.505   1.081   6.716 -1.5065  2.6874 -0.6817
 3456SOL    HW222002   0.502   1.073   6.863 -1.0783  0.5193  0.1127
 3457SOL     OW22003   2.440   2.220   2.398 -0.1291 -0.3196  0.5565
 3457SOL    HW122004   2.447   2.311   2.429  0.3513 -0.5105  1.0124
 3457SOL    HW222005   2.350   2.193   2.416 -1.0097  2.1014 -0.1643
 3458SOL     OW22006   4.207   3.264  10.429  0.3572  0.4309  0.0031
 3458SOL    HW122007   4.192   3.306  10.514 -0.1250  3.0756 -1.3810
 3458SOL    HW222008   4.303   3.267  10.423  0.2993  0.3042 -0.9234
 3459SOL     OW22009   4.683   1.815   6.197 -0.1662 -0.5306  0.1195
 3459SOL    HW122010   4.614   1.870   6.234  1.6193  3.0693 -1.8810
 3459SOL    HW222011   4.665   1.739   6.252 -0.4081 -0.3591  0.2811
 3460SOL     OW22012   1.572   0.783  16.108 -0.1369  0.0811 -0.2674
 3460SOL    HW122013   1.611   0.843  16.172 -0.7589  0.9249 -0.6780
 3460SOL    HW222014   1.573   0.702  16.160  0.3898 -0.3837 -1.0060
 3461SOL     OW22015   3.909   0.712  14.074 -0.0531  0.3713  0.9166
 3461SOL    HW122016   3.834   0.656  14.054 -0.8990  0.8524  2.7346
 3461SOL    HW222017   3.940   0.744  13.989  0.5100 -0.3716  0.8414
 3462SOL     OW22018   4.419   0.883   7.642 -0.2828 -0.0325 -0.4448
 3462SOL    HW122019   4.504   0.899   7.683 -1.5287  0.7484  1.8520
 3462SOL    HW222020   4.366   0.848   7.714  0.9732 -1.5070 -0.2362
 3463SOL     OW22021   0.301   0.146   5.141 -0.6904  0.4320  0.4189
 3463SOL    HW122022   0.355   0.070   5.122 -1.3810  0.6458 -2.4163
 3463SOL    HW222023   0.297   0.147   5.236 -0.8090 -2.4081  0.4234
 3464SOL     OW22024   3.031   4.214  17.610 -0.1435 -0.4869 -0.2460
 3464SOL    HW122025   3.029   4.263  17.528 -0.1102  0.8338  0.5471
 3464SOL    HW222026   2.975   4.268  17.665 -1.4006  0.9319 -2.9154
 3465SOL     OW22027   3.718   0.469   7.370 -0.3645 -0.8127  0.2398
 3465SOL    HW122028   3.660   0.477   7.446 -0.7125  0.0220 -0.1126
 3465SOL    HW222029   3.671   0.527   7.310  0.8104 -0.4129 -0.2995
 3466SOL     OW22030   3.751   3.607   6.841 -0.2956 -0.1021 -0.4501
 3466SOL    HW122031   3.767   3.514   6.827 -1.2152 -0.3529  0.2073
 3466SOL    HW222032   3.675   3.599   6.898  0.5685  0.0487  0.7279
 3467SOL     OW22033   4.364   3.427   8.076  0.3807 -0.1077  0.0867
 3467SOL    HW122034   4.352   3.521   8.061 -0.2470 -0.0148  1.1236
 3467SOL    HW222035   4.395   3.390   7.993 -0.4748  2.4761 -1.3858
 3468SOL     OW22036   1.331   0.253   3.757  0.1713  0.6308 -0.2828
 3468SOL    HW122037   1.384   0.176   3.735  0.1235  0.5395 -0.0825
 3468SOL    HW222038   1.401   0.314   3.735 -0.3201  1.6230  0.9129
 3469SOL     OW22039   1.549   1.898  12.539 -0.3354  0.4130 -0.0334
 3469SOL    HW122040   1.519   1.813  12.507 -2.7464  1.2159  0.0557
 3469SOL    HW222041   1.529   1.959  12.467 -0.1047  0.4059 -0.1016
 3470SOL     OW22042   3.807   3.651   2.486 -0.0138  0.2346 -0.4669
 3470SOL    HW122043   3.724   3.607   2.505 -0.0642  0.5679  0.0785
 3470SOL    HW222044   3.788   3.743   2.506 -1.5468  0.5112 -3.1670
 3471SOL     OW22045   1.716   2.092  16.161  0.0971  0.2535 -0.0885
 3471SOL    HW122046   1.725   2.187  16.167 -1.1040  0.3732 -0.2381
 3471SOL    HW222047   1.765   2.074  16.080 -1.6673 -2.7826 -0.4936
 3472SOL     OW22048   2.985   4.476  15.746  0.3203 -0.4420 -0.2810
 3472SOL    HW122049   2.970   4.396  15.797  2.7701  0.4218  1.7434
 3472SOL    HW222050   3.077   4.493  15.762  0.2115  0.0422 -0.1695
 3473SOL     OW22051   0.615   3.293   4.921  0.2744 -0.7762 -0.1670
 3473SOL    HW122052   0.587   3.373   4.966  1.6614  0.7212 -1.9821
 3473SOL    HW222053   0.614   3.227   4.991 -2.1791  0.5153  1.0175
 3474SOL     OW22054   2.543   1.683  14.110  0.1923  0.4629  0.1366
 3474SOL    HW122055   2.544   1.778  14.095  2.4742  0.1595 -1.8053
 3474SOL    HW222056   2.528   1.649  14.022  1.4784 -0.2522  0.1841
 3475SOL     OW22057   1.690   2.383   5.977  0.5451 -0.1445 -0.4512
 3475SOL    HW122058   1.729   2.471   5.981  1.6073 -0.7379  2.3341
 3475SOL    HW222059   1.688   2.370   6.072 -0.3992 -0.0796 -0.4657
 3476SOL     OW22060   4.232   0.008   7.728  0.0465  0.2140  0.4405
 3476SOL    HW122061   4.293   4.715   7.797 -0.1916  1.4375  1.0985
 3476SOL    HW222062   4.205   0.094   7.761  1.7325  0.6822  0.6081
 3477SOL     OW22063   3.412   3.578  10.178 -0.1444 -0.1271  0.7184
 3477SOL    HW122064   3.472   3.504  10.170 -0.2325 -0.5204  3.5864
 3477SOL    HW222065   3.345   3.541  10.235 -0.4932  0.9618  1.0108
 3478SOL     OW22066   4.635   3.406   6.268  0.4332  0.1421  0.3339
 3478SOL    HW122067   4.588   3.364   6.197  0.6115  0.6097 -0.0572
 3478SOL    HW222068   4.719   3.428   6.227  0.0858  1.3106  0.2654
 3479SOL     OW22069   2.192   1.549   0.545  0.0053  0.1713 -0.0978
 3479SOL    HW122070   2.187   1.603   0.624 -0.5986  1.3533 -0.9411
 3479SOL    HW222071   2.165   1.609   0.475  0.0319 -1.0055 -1.1251
 3480SOL     OW22072   2.104   1.743   2.316 -0.3307 -0.4105 -0.0522
 3480SOL    HW122073   2.174   1.761   2.253 -1.0627  1.4985 -0.3263
 3480SOL    HW222074   2.147   1.766   2.397  0.4247  0.4885 -0.7155
 3481SOL     OW22075   2.105   0.596   2.636  0.4453  0.4644 -0.5440
 3481SOL    HW122076   2.134   0.596   2.544  0.4810  1.6357 -0.5395
 3481SOL    HW222077   2.051   0.520   2.656  3.2755 -0.9063  1.8221
 3482SOL     OW22078   0.637   2.925  15.581  0.0828  0.4347 -0.1428
 3482SOL    HW122079   0.657   2.872  15.659 -0.4243 -1.7115 -1.4982
 3482SOL    HW222080   0.588   2.858  15.533  0.5006  1.0705 -1.4348
 3483SOL     OW22081   1.904   2.510   9.662  0.4808  0.2125 -0.1688
 3483SOL    HW122082   1.957   2.526   9.584 -0.8226 -0.8871 -1.2898
 3483SOL    HW222083   1.868   2.427   9.632 -1.0228  1.2947 -1.3367
 3484SOL     OW22084   2.206   3.115   7.460  0.2836  0.7492 -0.8092
 3484SOL    HW122085   2.265   3.161   7.520 -0.5165  0.7077  0.0235
 3484SOL    HW222086   2.117   3.130   7.494 -0.1937 -1.6548 -0.9745
 3485SOL     OW22087   3.847   4.150   2.086  0.5086  0.1312 -0.5438
 3485SOL    HW122088   3.874   4.134   2.177  1.4270 -1.4916 -1.0842
 3485SOL    HW222089   3.752   4.145   2.099  0.4845  0.1510 -0.7124
 3486SOL     OW22090   0.839   1.974   1.574 -0.1707 -0.0847  0.1314
 3486SOL    HW122091   0.910   2.026   1.537  2.6687 -1.0952  4.2753
 3486SOL    HW222092   0.880   1.916   1.637 -1.0149 -2.2784 -1.3379
 3487SOL     OW22093   1.745   1.923   7.669 -0.2247  0.4261 -1.1398
 3487SOL    HW122094   1.721   2.006   7.710 -2.1051 -0.9110  0.4799
 3487SOL    HW222095   1.774   1.871   7.744 -4.0166  0.4816  0.4008
 3488SOL     OW22096   2.288   2.846  13.949  0.0006 -0.0934 -0.2204
 3488SOL    HW122097   2.280   2.941  13.946 -1.1009 -0.1982 -0.5467
 3488SOL    HW222098   2.335   2.823  13.869  0.0357 -0.8730  0.0208
 3489SOL     OW22099   4.170   4.029   5.263 -0.2559 -0.4143 -0.7209
 3489SOL    HW122100   4.260   3.998   5.275 -0.4377 -1.2575 -1.5149
 3489SOL    HW222101   4.181   4.114   5.221  3.1946 -1.0365 -1.0248
 3490SOL     OW22102   2.506   4.530   3.391 -0.8712  0.0440  0.0264
 3490SOL    HW122103   2.529   4.609   3.441 -0.7603 -0.1331  0.2546
 3490SOL    HW222104   2.590   4.488   3.373 -1.3067 -1.3457  1.3147
 3491SOL     OW22105   2.801   2.874   3.012  0.3458 -0.3957  0.1196
 3491SOL    HW122106   2.893   2.878   3.039 -0.1397  3.9855  1.0189
 3491SOL    HW222107   2.764   2.858   3.100  2.7646 -0.2787  1.1497
 3492SOL     OW22108   4.536   3.814   0.206 -0.0941 -0.0209  0.0024
 3492SOL    HW122109   4.532   3.776   0.293 -0.9680 -1.0470 -0.4982
 3492SOL    HW222110   4.498   3.898   0.231  0.5422  1.7321 -4.8343
 3493SOL     OW22111   1.735   4.037   1.926 -0.2036  0.0669  0.1076
 3493SOL    HW122112   1.704   4.040   1.835 -0.4063  2.2331  0.2466
 3493SOL    HW222113   1.728   3.943   1.941 -0.6136  0.3348  1.5210
 3494SOL     OW22114   0.013   4.181   5.127 -0.5835  0.5269  0.5151
 3494SOL    HW122115   0.051   4.096   5.150  1.6970  0.7425 -2.4050
 3494SOL    HW222116   0.010   4.220   5.214  1.7048  0.8651  0.4395
 3495SOL     OW22117   1.673   3.010   4.483 -0.4709  0.0779 -0.3534
 3495SOL    HW122118   1.742   2.978   4.425 -1.2754 -2.7551  0.2444
 3495SOL    HW222119   1.722   3.081   4.524 -0.8105  1.5656 -2.5753
 3496SOL     OW22120   3.722   2.054   3.815 -0.0553 -0.3466 -0.1210
 3496SOL    HW122121   3.713   2.149   3.819  1.4561 -0.2229  0.4375
 3496SOL    HW222122   3.722   2.047   3.719 -0.6051  0.0954 -0.1549
 3497SOL     OW22123   4.192   1.053   2.121 -0.1388  0.2727 -0.0465
 3497SOL    HW122124   4.100   1.082   2.121  0.2667  1.5573 -2.0699
 3497SOL    HW222125   4.195   0.973   2.174  1.5786 -0.6422 -1.5286
 3498SOL     OW22126   4.418   1.651   5.433  0.1309  0.0954  0.5159
 3498SOL    HW122127   4.406   1.741   5.464  2.0544  0.0238  1.5111
 3498SOL    HW222128   4.340   1.641   5.379 -0.1384 -1.0217  1.1217
 3499SOL     OW22129   1.610   3.532   3.143 -0.0843  0.6238  0.3618
 3499SOL    HW122130   1.678   3.599   3.149 -0.1310  0.6753  0.3028
 3499SOL    HW222131   1.647   3.481   3.071  1.9884  2.0215  0.4239
 3500SOL     OW22132   3.770   3.031   7.566 -0.2408 -0.2975 -0.1229
 3500SOL    HW122133   3.689   3.015   7.614 -0.5237  1.1743 -0.1020
 3500SOL    HW222134   3.802   3.105   7.617  0.0222 -0.2380 -0.3708
 3501SOL     OW22135   3.458   0.204   3.757  0.4518 -0.0622 -0.2054
 3501SOL    HW122136   3.399   0.211   3.832 -0.6526 -0.5667 -1.0235
 3501SOL    HW222137   3.460   0.300   3.749 -0.0237  0.0011  0.4334
 3502SOL     OW22138   3.713   0.910  15.381 -0.5010  0.1312 -0.0803
 3502SOL    HW122139   3.653   0.863  15.440 -1.9601  0.2497 -1.4733
 3502SOL    HW222140   3.680   0.877  15.298 -0.0500  1.3771 -0.7521
 3503SOL     OW22141   2.870   4.063   4.925  0.2564  0.3395  0.0427
 3503SOL    HW122142   2.951   4.109   4.944  1.1071 -0.7057 -1.0879
 3503SOL    HW222143   2.865   4.076   4.830  0.3383 -0.3950 -0.0629
 3504SOL     OW22144   3.404   2.957   8.346  0.2650  0.1379 -0.4529
 3504SOL    HW122145   3.319   2.928   8.312  0.0571 -0.6672  0.7554
 3504SOL    HW222146   3.400   2.923   8.435  1.4427  0.4334 -0.2904
 3505SOL     OW22147   3.497   2.109   7.107 -0.2706 -0.5240 -0.1893
 3505SOL    HW122148   3.418   2.091   7.057  0.5134 -0.0729 -1.5746
 3505SOL    HW222149   3.537   2.023   7.119 -0.5287 -0.6019  0.0978
 3506SOL     OW22150   0.002   4.584   7.900  0.3208  0.2695  0.0393
 3506SOL    HW122151   0.004   4.679   7.900  1.8681  0.2349  0.6781
 3506SOL    HW222152   0.002   4.580   7.996 -1.2972  1.5560  0.0821
 3507SOL     OW22153   3.653   1.916   5.033 -0.0646  0.5420  0.1700
 3507SOL    HW122154   3.627   1.874   5.115 -1.1412  0.8402 -0.0130
 3507SOL    HW222155   3.680   1.833   4.994 -1.0123 -0.1174  0.9018
 3508SOL     OW22156   3.281   2.470   3.089  0.0869 -0.1227  0.2021
 3508SOL    HW122157   3.337   2.405   3.131  3.3326  2.8903  0.5508
 3508SOL    HW222158   3.249   2.430   3.007 -0.9084 -0.8899  0.9703
 3509SOL     OW22159   0.834   2.727   3.229 -0.0968  0.5372 -0.1851
 3509SOL    HW122160   0.800   2.735   3.140 -1.9598  0.9853  0.5541
 3509SOL    HW222161   0.912   2.782   3.215 -0.6616  1.5538  0.5934
 3510SOL     OW22162   4.002   2.489   2.772  0.2503  0.2636 -0.2401
 3510SOL    HW122163   4.038   2.521   2.855  0.9737  0.3976 -0.6072
 3510SOL    HW222164   4.009   2.570   2.721 -1.1928  0.7391  0.3316
 3511SOL     OW22165   3.544   2.156  10.770  0.0173  0.3442 -0.0901
 3511SOL    HW122166   3.593   2.088  10.817  0.0886  0.0263 -0.6193
 3511SOL    HW222167   3.486   2.182  10.841  0.8589  0.1943  0.6613
 3512SOL     OW22168   1.647   1.417  10.186  0.2049  0.1379 -0.3680
 3512SOL    HW122169   1.591   1.436  10.110 -0.7907 -0.7673  0.1289
 3512SOL    HW222170   1.619   1.477  10.255 -1.7592 -0.9859 -0.1603
 3513SOL     OW22171   4.729   0.090   9.325  0.0909  0.0475  0.0353
 3513SOL    HW122172   0.061   0.038   9.275 -0.3305 -1.5044  1.1291
 3513SOL    HW222173   0.051   0.163   9.356 -2.5291  1.1363  2.0079
 3514SOL     OW22174   0.047   0.814   2.121 -0.2158 -0.1599 -0.2889
 3514SOL    HW122175   0.096   0.731   2.121  0.8663  0.4838  0.3520
 3514SOL    HW222176   0.007   0.796   2.036 -0.0899  1.3236 -0.6508
 3515SOL     OW22177   1.405   0.669   7.533  0.1667  0.6177  0.0209
 3515SOL    HW122178   1.431   0.688   7.623  1.3052 -0.1944 -0.1321
 3515SOL    HW222179   1.386   0.575   7.532  2.0472  0.2537 -1.9740
 3516SOL     OW22180   0.599   2.705   5.638  0.1826 -0.0586  0.2740
 3516SOL    HW122181   0.599   2.796   5.609  2.2400 -0.1863 -0.1042
 3516SOL    HW222182   0.693   2.702   5.656  0.0368  0.8779  1.1701
 3517SOL     OW22183   1.129   4.330   6.575 -0.0944 -0.3315  0.2285
 3517SOL    HW122184   1.186   4.284   6.513 -0.6174 -2.0212  0.9762
 3517SOL    HW222185   1.092   4.258   6.626  0.7858 -1.0582 -0.1399
 3518SOL     OW22186   3.220   3.910   5.692 -0.1136 -0.4528 -0.3003
 3518SOL    HW122187   3.232   3.975   5.623 -0.8203 -0.3013 -0.2793
 3518SOL    HW222188   3.301   3.914   5.743 -0.5924  1.7049  0.2911
 3519SOL     OW22189   0.112   3.717   9.619 -0.3660 -0.7292 -0.1137
 3519SOL    HW122190   0.035   3.670   9.589  0.1420 -1.5481 -0.1414
 3519SOL    HW222191   0.150   3.653   9.680 -0.5862  0.2628  1.0416
 3520SOL     OW22192   4.685   0.247  14.962  0.6927 -0.1495 -0.1856
 3520SOL    HW122193   4.694   0.156  14.932  0.1926 -0.1932 -0.2051
 3520SOL    HW222194   4.593   0.260  14.940  0.9321 -1.8599 -2.2303
 3521SOL     OW22195   4.349   4.325   8.713  0.8011  0.0120  0.3458
 3521SOL    HW122196   4.332   4.417   8.735 -2.6097 -1.0939  2.3402
 3521SOL    HW222197   4.423   4.297   8.766  2.6875 -0.9901 -2.8414
 3522SOL     OW22198   1.913   0.354  15.273  0.1066  0.5170 -0.1806
 3522SOL    HW122199   1.847   0.311  15.219  0.0721  1.3721 -0.8200
 3522SOL    HW222200   1.883   0.443  15.253  2.4281  1.4583  0.5623
 3523SOL     OW22201   4.277   4.340  10.733 -0.5209  0.4970 -0.1457
 3523SOL    HW122202   4.289   4.419  10.786  0.9504  0.9018 -1.0812
 3523SOL    HW222203   4.368   4.309  10.731 -0.9795 -0.7174 -2.2927
 3524SOL     OW22204   3.134   3.396  11.183  1.0291 -0.7293 -0.0974
 3524SOL    HW122205   3.110   3.314  11.140  0.4885  0.3666 -1.8571
 3524SOL    HW222206   3.112   3.378  11.275  2.3557  0.8108  0.5200
 3525SOL     OW22207   4.104   0.846   3.388  0.1718  0.4095  0.6092
 3525SOL    HW122208   4.079   0.754   3.379 -2.4477  1.3873 -2.0084
 3525SOL    HW222209   4.198   0.838   3.406  0.2651  0.6234  0.2089
 3526SOL     OW22210   3.329   2.341   9.818  0.6636  0.0391 -0.2506
 3526SOL    HW122211   3.294   2.284   9.750  0.2255 -1.1359  0.9679
 3526SOL    HW222212   3.349   2.420   9.768 -0.7233  0.1785 -0.5843
 3527SOL     OW22213   1.451   1.245   7.771  0.2051 -0.0613  0.0867
 3527SOL    HW122214   1.356   1.243   7.777  0.2770 -1.4869  0.6399
 3527SOL    HW222215   1.477   1.154   7.759  0.3464  0.1740 -1.3179
 3528SOL     OW22216   4.455   0.546   4.133 -0.0335 -0.3357 -0.5689
 3528SOL    HW122217   4.447   0.640   4.115 -1.1360 -0.1731  0.8177
 3528SOL    HW222218   4.512   0.549   4.210 -1.5049 -2.1741  0.5731
 3529SOL     OW22219   0.213   1.356   7.426 -0.0519 -0.2388 -0.3009
 3529SOL    HW122220   0.210   1.327   7.335 -1.7739  0.0904 -0.3545
 3529SOL    HW222221   0.301   1.394   7.423 -0.2301  0.3272  1.5079
 3530SOL     OW22222   4.288   4.157  12.126  0.7310 -0.2439  0.2059
 3530SOL    HW122223   4.262   4.066  12.116 -0.3903  0.3530 -2.2382
 3530SOL    HW222224   4.352   4.153  12.055  0.8246  0.2936  0.2592
 3531SOL     OW22225   0.248   3.606  14.077  0.9246 -0.6062 -0.2493
 3531SOL    HW122226   0.176   3.669  14.069  0.3690 -1.4987 -2.2073
 3531SOL    HW222227   0.212   3.545  14.012  0.6758  1.1842 -1.7677
 3532SOL     OW22228   0.012   4.017   0.775 -0.5052 -0.1759 -0.0040
 3532SOL    HW122229   4.725   3.938   0.724 -2.0183  1.0811 -1.3748
 3532SOL    HW222230   4.705   4.083   0.718  1.0619  1.8379  1.2609
 3533SOL     OW22231   3.918   4.681   6.556  0.2805  0.1239  0.3448
 3533SOL    HW122232   3.918   4.587   6.572  1.0694  0.2127  0.8283
 3533SOL    HW222233   4.006   4.700   6.525  0.1878 -1.2597 -0.7811
 3534SOL     OW22234   1.506   1.118   0.527  0.2954 -0.2306  0.1605
 3534SOL    HW122235   1.519   1.211   0.505  0.9004 -0.6755 -1.3806
 3534SOL    HW222236   1.548   1.116   0.613 -0.8873 -0.2952  0.7296
 3535SOL     OW22237   0.203   3.314  11.341  0.2231  0.5654 -0.7616
 3535SOL    HW122238   0.149   3.238  11.322 -0.6199  0.9354  0.1875
 3535SOL    HW222239   0.284   3.295  11.294  0.1427 -1.1445 -0.2123
 3536SOL     OW22240   0.931   0.587  17.233 -0.1872  0.2257  0.2127
 3536SOL    HW122241   0.936   0.604  17.139 -0.4201  1.2599  0.3863
 3536SOL    HW222242   0.901   0.673  17.261 -2.2962 -1.7872  4.0665
 3537SOL     OW22243   3.375   3.566   8.352 -0.5287 -0.4686 -0.0051
 3537SOL    HW122244   3.342   3.477   8.361  0.3146 -0.9192 -1.3173
 3537SOL    HW222245   3.295   3.611   8.325  0.4518  0.8702 -0.7168
 3538SOL     OW22246   0.705   4.678   4.872 -0.3920 -0.8235  0.2340
 3538SOL    HW122247   0.757   4.608   4.911  0.4729 -0.2712  0.0702
 3538SOL    HW222248   0.636   4.636   4.820 -2.1596 -1.3186  2.9283
 3539SOL     OW22249   1.677   1.552   9.394 -0.4206 -0.1842  0.3263
 3539SOL    HW122250   1.646   1.613   9.327  1.0551 -0.7334 -0.8775
 3539SOL    HW222251   1.682   1.467   9.350  1.1084  0.2041 -0.2506
 3540SOL     OW22252   0.205   2.396  12.063  0.4192  0.1276 -0.3385
 3540SOL    HW122253   0.188   2.385  11.970 -0.9266  0.2529 -0.1042
 3540SOL    HW222254   0.237   2.308  12.086 -1.4105 -0.4273  0.0924
 3541SOL     OW22255   0.837   1.128   3.995 -0.0523 -0.6134  0.5126
 3541SOL    HW122256   0.916   1.129   4.048 -0.4503 -0.1202  1.1033
 3541SOL    HW222257   0.827   1.219   3.964 -0.0018 -0.5703  0.6241
 3542SOL     OW22258   3.596   2.763   9.387 -0.1855  0.7440  0.5845
 3542SOL    HW122259   3.628   2.780   9.299 -0.4206 -0.1638  0.3303
 3542SOL    HW222260   3.557   2.677   9.372 -0.2614  0.8760  0.0284
 3543SOL     OW22261   2.532   1.110   6.581  0.5125  0.1864  0.0853
 3543SOL    HW122262   2.508   1.172   6.649 -2.5142 -1.7983  0.7952
 3543SOL    HW222263   2.619   1.148   6.568  1.2990 -1.7083 -0.1797
 3544SOL     OW22264   4.694   2.341   0.702  0.4867 -0.3813  0.7056
 3544SOL    HW122265   4.726   2.404   0.767 -1.9587 -0.1039  1.6544
 3544SOL    HW222266   4.664   2.271   0.759 -1.4069 -1.0594 -1.1077
 3545SOL     OW22267   2.741   2.422  11.742 -0.1962  0.1956 -0.3771
 3545SOL    HW122268   2.677   2.381  11.684 -0.3369  0.5538 -0.4814
 3545SOL    HW222269   2.693   2.497  11.778 -0.4061 -0.6432  1.0796
 3546SOL     OW22270   4.002   1.459   2.819 -0.4950  0.2473  0.1402
 3546SOL    HW122271   4.020   1.377   2.774 -1.6205  0.6711 -1.0962
 3546SOL    HW222272   3.909   1.442   2.835  0.1281 -0.8694  2.5782
 3547SOL     OW22273   3.471   4.509   3.423 -0.3530 -0.0021 -0.3686
 3547SOL    HW122274   3.447   4.459   3.345  0.2295  0.0754 -0.5989
 3547SOL    HW222275   3.387   4.548   3.446 -0.7065 -0.6062 -0.6238
 3548SOL     OW22276   2.398   1.854  11.376 -0.2664 -0.1650 -0.0643
 3548SOL    HW122277   2.383   1.808  11.459 -2.2317  0.6327  0.0112
 3548SOL    HW222278   2.487   1.827  11.352  0.3640  0.6514  1.2783
 3549SOL     OW22279   2.148   2.865   3.169  0.2098  0.6616 -0.1052
 3549SOL    HW122280   2.156   2.915   3.251 -0.7020 -0.5142  0.6893
 3549SOL    HW222281   2.093   2.790   3.189  1.1077 -0.3015 -1.2822
 3550SOL     OW22282   4.129   1.626   5.887  0.0889  0.2243  0.0354
 3550SOL    HW122283   4.192   1.574   5.838 -0.0078  0.5202 -0.4087
 3550SOL    HW222284   4.108   1.687   5.816  1.7285 -0.2823 -0.8821
 3551SOL     OW22285   3.900   0.048  13.555  0.1323 -0.2583 -0.2840
 3551SOL    HW122286   3.973   0.111  13.558  0.1144 -0.3729  2.5237
 3551SOL    HW222287   3.859   0.053  13.641 -0.0063  0.7637 -0.3996
 3552SOL     OW22288   1.899   1.909   3.091  0.1542 -0.1488 -0.1954
 3552SOL    HW122289   1.876   1.886   3.001 -0.3777 -1.8881  0.4017
 3552SOL    HW222290   1.878   1.828   3.137  1.8620 -0.0076  0.8344
 3553SOL     OW22291   3.820   1.525   7.683  0.6476  0.4923  0.4063
 3553SOL    HW122292   3.795   1.548   7.593  0.2128  1.8977  0.9011
 3553SOL    HW222293   3.895   1.582   7.700  1.0912  0.1215 -0.3034
 3554SOL     OW22294   2.554   2.299   6.421  0.8084  0.3909 -0.4302
 3554SOL    HW122295   2.482   2.345   6.379 -0.0272  1.9619  2.6895
 3554SOL    HW222296   2.504   2.227   6.459 -1.5290  2.3897  0.2654
 3555SOL     OW22297   3.765   0.017   0.010  0.1595  0.2762  0.0821
 3555SOL    HW122298   3.788   0.108  17.717  1.1563  0.1868  0.7847
 3555SOL    HW222299   3.695   0.032   0.074  0.8542  2.1313  0.4323
 3556SOL     OW22300   0.049   1.500   3.299  0.6193  0.2514  0.1815
 3556SOL    HW122301   0.073   1.510   3.391  0.2226 -2.9876  0.6377
 3556SOL    HW222302   0.131   1.468   3.260  0.2844  0.9782 -1.1447
 3557SOL     OW22303   3.636   0.627   3.756  0.1664  0.2290  0.0021
 3557SOL    HW122304   3.556   0.585   3.725 -0.6687 -0.5281  3.2818
 3557SOL    HW222305   3.703   0.587   3.701 -0.3737  1.3654 -1.4907
 3558SOL     OW22306   3.231   2.187   7.747 -0.0285  0.2237  0.0245
 3558SOL    HW122307   3.196   2.257   7.801 -2.6903 -0.2084 -1.1337
 3558SOL    HW222308   3.326   2.200   7.751  0.0365 -0.6247  1.1693
 3559SOL     OW22309   0.952   1.721  15.756 -0.0172 -0.2173 -0.0381
 3559SOL    HW122310   0.860   1.715  15.731  0.1992 -2.2641 -0.3806
 3559SOL    HW222311   0.965   1.813  15.778 -1.5531 -0.4415  1.8108
 3560SOL     OW22312   0.108   4.430   6.667  0.3350  0.2927  0.3520
 3560SOL    HW122313   0.192   4.406   6.628 -1.3006 -2.2300 -1.6178
 3560SOL    HW222314   0.047   4.423   6.593 -1.2912  1.2219  1.5994
 3561SOL     OW22315   1.457   3.801   3.291 -0.0812  0.5174 -0.0965
 3561SOL    HW122316   1.459   3.716   3.334 -1.2631  1.0855  1.0928
 3561SOL    HW222317   1.483   3.857   3.365 -1.0414  2.6379 -1.3469
 3562SOL     OW22318   1.150   1.387   0.214  0.0401 -0.1570  0.6940
 3562SOL    HW122319   1.173   1.427   0.130 -0.5091  0.0892  0.6573
 3562SOL    HW222320   1.185   1.300   0.196 -0.3171 -0.3711  1.0528
 3563SOL     OW22321   4.539   2.190   6.410  0.6205 -0.1947  0.1879
 3563SOL    HW122322   4.507   2.263   6.357  0.7610 -1.8965 -2.2436
 3563SOL    HW222323   4.472   2.181   6.478  1.9936 -1.8197  1.3317
 3564SOL     OW22324   1.118   4.374   5.396 -0.5858  0.5974 -0.0127
 3564SOL    HW122325   1.038   4.340   5.437 -0.0710 -0.6809 -0.0943
 3564SOL    HW222326   1.093   4.360   5.305  2.0154  0.8586 -0.7713
 3565SOL     OW22327   0.840   3.600   3.462  0.2317 -0.0983 -0.3291
 3565SOL    HW122328   0.856   3.523   3.517  0.2685 -1.7332 -2.6236
 3565SOL    HW222329   0.863   3.672   3.521  1.5401  1.6084 -2.9284
 3566SOL     OW22330   0.648   2.071  11.350  0.4332 -0.6189  0.4494
 3566SOL    HW122331   0.574   2.067  11.411  0.9487 -0.1107  1.1219
 3566SOL    HW222332   0.718   2.024  11.395 -1.1415 -0.9523  2.5601
 3567SOL     OW22333   2.471   3.592   2.966 -0.1581  0.1667 -0.3459
 3567SOL    HW122334   2.529   3.660   2.999  0.0952 -0.4134  0.4014
 3567SOL    HW222335   2.534   3.533   2.925  0.8674  0.7742  0.3508
 3568SOL     OW22336   1.978   2.916   7.292  0.1885  0.4024 -0.5198
 3568SOL    HW122337   1.901   2.864   7.267 -0.3442 -0.4573  2.8662
 3568SOL    HW222338   2.048   2.850   7.292  1.3656  1.6294  2.7851
 3569SOL     OW22339   3.848   3.828   6.721  0.8392  0.1639  0.0288
 3569SOL    HW122340   3.852   3.734   6.739 -0.1705  0.6472  2.7266
 3569SOL    HW222341   3.753   3.835   6.715  0.6854 -2.1483  0.0167
 3570SOL     OW22342   0.573   0.514   3.942 -0.2452 -0.7882  0.9398
 3570SOL    HW122343   0.527   0.504   4.025  0.0642 -2.4064  0.9229
 3570SOL    HW222344   0.654   0.556   3.969  0.4911 -1.4463 -0.1841
 3571SOL     OW22345   0.849   1.632   6.946 -0.0184  0.1193 -0.7964
 3571SOL    HW122346   0.756   1.610   6.937 -0.5528  1.9592  0.4593
 3571SOL    HW222347   0.855   1.683   6.865 -0.5339  1.1400 -0.1870
 3572SOL     OW22348   4.284   3.188  14.876 -0.0085  0.1901 -0.0279
 3572SOL    HW122349   4.241   3.239  14.807 -1.6616 -1.2923 -0.0794
 3572SOL    HW222350   4.359   3.147  14.833  0.2987  0.5653  0.1464
 3573SOL     OW22351   3.104   1.858   4.073 -0.3425  0.1631 -0.2018
 3573SOL    HW122352   3.138   1.840   4.160 -0.6813 -0.2670 -0.1605
 3573SOL    HW222353   3.080   1.769   4.048  0.6126 -0.3949  0.8712
 3574SOL     OW22354   0.674   2.786   2.491  0.1655 -0.1670 -0.3842
 3574SOL    HW122355   0.721   2.867   2.511  0.8359 -0.4825 -0.7082
 3574SOL    HW222356   0.630   2.811   2.410 -1.2630  0.0669  0.4674
 3575SOL     OW22357   2.711   0.240  15.678  0.0666  0.0310  0.0973
 3575SOL    HW122358   2.642   0.305  15.690 -2.2429 -2.4468  0.3827
 3575SOL    HW222359   2.698   0.228  15.584  2.3927  0.8177 -0.3248
 3576SOL     OW22360   1.180   0.746   8.780 -0.1970  0.3116 -0.2752
 3576SOL    HW122361   1.153   0.728   8.689 -0.8339 -0.2960  0.0324
 3576SOL    HW222362   1.273   0.728   8.765 -0.4937 -0.4100 -1.2797
 3577SOL     OW22363   1.936   3.112   6.252  0.0901 -0.5342  0.1432
 3577SOL    HW122364   1.998   3.142   6.186  0.1194 -0.0103  0.4100
 3577SOL    HW222365   1.918   3.186   6.310 -0.0053  2.0358 -3.1602
 3578SOL     OW22366   4.199   2.195   6.242 -0.0587 -0.0574 -0.1546
 3578SOL    HW122367   4.273   2.256   6.243  0.3205 -0.5360  1.1818
 3578SOL    HW222368   4.163   2.210   6.155 -0.5962 -1.6617 -0.2046
 3579SOL     OW22369   2.717   4.524   4.413 -0.4062  0.1263 -0.0293
 3579SOL    HW122370   2.670   4.529   4.330 -1.6764 -0.0874  0.6723
 3579SOL    HW222371   2.642   4.522   4.473 -0.3572  0.1305  0.0319
 3580SOL     OW22372   3.570   0.316   8.559 -0.0091  0.3709  0.2239
 3580SOL    HW122373   3.491   0.273   8.590  1.0043 -1.5151  0.1616
 3580SOL    HW222374   3.626   0.239   8.550 -0.1457  0.3393 -0.4112
 3581SOL     OW22375   4.279   4.170   7.043  0.1100 -0.0658 -0.5137
 3581SOL    HW122376   4.372   4.149   7.044 -0.2478 -1.5329  0.7891
 3581SOL    HW222377   4.268   4.188   7.137  0.0842 -0.1361 -0.5034
 3582SOL     OW22378   2.146   3.612   4.979 -0.5335 -0.1748 -0.5002
 3582SOL    HW122379   2.136   3.585   4.888  0.1273  0.7819 -0.8621
 3582SOL    HW222380   2.060   3.654   4.976 -0.8621 -0.6461  2.5533
 3583SOL     OW22381   4.077   2.085   9.407 -0.0440 -0.1226  0.4353
 3583SOL    HW122382   4.080   2.151   9.337  0.0981  1.2888  1.7747
 3583SOL    HW222383   3.993   2.043   9.390  0.0278  0.8457 -2.3057
 3584SOL     OW22384   1.311   0.405   7.546 -0.7978 -0.3139 -0.5152
 3584SOL    HW122385   1.337   0.386   7.456 -1.2611  0.4917 -0.8138
 3584SOL    HW222386   1.282   0.315   7.565  0.7256 -1.1580 -2.1771
 3585SOL     OW22387   2.120   0.387   3.770  0.0646 -0.8909  0.1483
 3585SOL    HW122388   2.026   0.407   3.773  0.1997 -0.6102  2.3617
 3585SOL    HW222389   2.127   0.312   3.829 -0.0756  0.7742  2.2933
 3586SOL     OW22390   3.092   0.233   3.829 -0.1408 -0.3654  0.3141
 3586SOL    HW122391   3.119   0.171   3.896  1.8764 -1.0776 -1.1728
 3586SOL    HW222392   3.154   0.214   3.759  1.7944  2.2325  1.3263
 3587SOL     OW22393   0.723   3.282   4.655  0.2888 -0.3556  0.4103
 3587SOL    HW122394   0.701   3.290   4.748  0.4397 -1.6978  0.5637
 3587SOL    HW222395   0.819   3.284   4.664  0.3909  1.9860 -1.3033
 3588SOL     OW22396   0.890   4.588  15.874 -0.3608 -0.0098 -0.7596
 3588SOL    HW122397   0.836   4.578  15.795 -0.7646 -0.9135 -0.3655
 3588SOL    HW222398   0.975   4.614  15.837 -0.5771  2.0310  0.1945
 3589SOL     OW22399   3.402   1.119   8.008  0.0846 -0.1480 -0.0457
 3589SOL    HW122400   3.310   1.120   7.979  0.6227  1.1472 -1.7054
 3589SOL    HW222401   3.421   1.211   7.989  0.4005 -0.2437 -0.2005
 3590SOL     OW22402   2.670   3.380  10.087 -0.1152  0.0183 -0.6155
 3590SOL    HW122403   2.731   3.447  10.119 -0.8636  0.6073 -0.4322
 3590SOL    HW222404   2.592   3.431  10.064 -1.0340 -1.6453 -1.1554
 3591SOL     OW22405   4.440   0.942   0.912 -0.0831 -0.4666 -0.2375
 3591SOL    HW122406   4.493   0.987   0.846  0.6314 -0.3470  0.4135
 3591SOL    HW222407   4.507   0.896   0.962 -1.1795 -0.2161  1.4264
 3592SOL     OW22408   1.726   0.993  11.104 -0.7882  0.0617 -0.4664
 3592SOL    HW122409   1.789   1.061  11.128 -0.9414 -0.1864  0.6372
 3592SOL    HW222410   1.657   1.005  11.170  1.6998 -1.8287  2.4741
 3593SOL     OW22411   4.309   1.576  15.390 -0.0331  0.4934 -0.0358
 3593SOL    HW122412   4.391   1.604  15.431 -0.3052  0.0869  0.7784
 3593SOL    HW222413   4.267   1.529  15.462  1.0462  0.0299  0.2868
 3594SOL     OW22414   2.200   0.578   2.033 -0.0376  0.1402 -0.0796
 3594SOL    HW122415   2.165   0.490   2.022 -0.5610  0.4622 -0.9763
 3594SOL    HW222416   2.293   0.561   2.047  0.4382  1.1035 -2.0743
 3595SOL     OW22417   1.251   3.394   1.147 -0.3885 -0.0207  0.6961
 3595SOL    HW122418   1.328   3.428   1.192  0.0286 -0.8377  0.6066
 3595SOL    HW222419   1.185   3.454   1.182  1.1544  0.7747  2.2497
 3596SOL     OW22420   0.252   3.647  11.121 -0.1797  0.3691 -0.4203
 3596SOL    HW122421   0.332   3.694  11.144 -0.2558  0.0253  0.5209
 3596SOL    HW222422   0.268   3.634  11.027  1.4354  0.0047 -0.0878
 3597SOL     OW22423   2.497   1.563   3.860  0.4493  0.2383  0.1163
 3597SOL    HW122424   2.413   1.601   3.833  0.2329 -0.1162  0.3043
 3597SOL    HW222425   2.557   1.637   3.851  0.2659  0.4729  0.7971
 3598SOL     OW22426   3.508   0.519   7.549  0.5322 -0.0557 -0.3109
 3598SOL    HW122427   3.445   0.448   7.562  0.8688 -0.6711 -1.9450
 3598SOL    HW222428   3.466   0.598   7.584  1.3987  0.8373 -1.2875
 3599SOL     OW22429   3.359   1.218   9.788  0.0762  0.1789 -0.3470
 3599SOL    HW122430   3.352   1.193   9.880 -0.8042  0.8726 -0.2282
 3599SOL    HW222431   3.317   1.143   9.745  2.0807 -0.6973 -0.7788
 3600SOL     OW22432   1.151   1.981  17.510  0.1376 -0.3373  0.6433
 3600SOL    HW122433   1.161   2.033  17.431  1.1164  0.0473  1.0199
 3600SOL    HW222434   1.119   2.047  17.572  1.8801  1.3437 -0.2526
 3601SOL     OW22435   2.104   4.336   4.821  0.2797 -0.2420  0.0926
 3601SOL    HW122436   2.189   4.380   4.821  0.0374  0.2315 -0.1741
 3601SOL    HW222437   2.045   4.407   4.797 -0.9940 -1.0446  0.8697
 3602SOL     OW22438   4.243   3.651   9.361  0.3070  0.0395  0.1208
 3602SOL    HW122439   4.186   3.693   9.296  1.1835  1.3734  0.1976
 3602SOL    HW222440   4.252   3.577   9.301 -0.2707  0.4424 -0.4577
 3603SOL     OW22441   1.980   2.301  12.518  0.1848 -0.2198  0.2576
 3603SOL    HW122442   2.020   2.219  12.546 -1.0613 -0.8933  0.0624
 3603SOL    HW222443   1.893   2.262  12.525 -0.2939  1.0180  1.2925
 3604SOL     OW22444   2.440   0.786   1.405  0.2193 -0.4936  0.2101
 3604SOL    HW122445   2.516   0.821   1.359 -1.8883  3.5211 -0.1568
 3604SOL    HW222446   2.489   0.739   1.473  1.4495 -1.0362 -1.0585
 3605SOL     OW22447   4.525   3.217   3.193  0.1779 -0.3446  0.2522
 3605SOL    HW122448   4.618   3.195   3.201 -0.3875 -2.5334  1.0220
 3605SOL    HW222449   4.493   3.158   3.261  0.2547  0.5416  1.0554
 3606SOL     OW22450   1.960   1.677  17.722  0.7392 -0.6313  0.0742
 3606SOL    HW122451   2.043   1.678  17.674  0.5837 -1.3596 -0.2081
 3606SOL    HW222452   1.920   1.743  17.665  0.2212 -0.5713  0.5155
 3607SOL     OW22453   3.753   3.832   0.838 -0.1230  0.1211  0.0122
 3607SOL    HW122454   3.686   3.772   0.807 -0.7296  0.6539  0.2921
 3607SOL    HW222455   3.698   3.888   0.892 -0.2310 -1.5112  1.5838
 3608SOL     OW22456   0.676   2.055   0.007  0.2580 -0.0571 -0.4741
 3608SOL    HW122457   0.606   2.110   0.043 -2.3368 -3.3844 -0.4658
 3608SOL    HW222458   0.665   2.090  17.646 -2.4340  0.9619  0.2506
 3609SOL     OW22459   0.107   4.116   3.558 -0.2664  0.1639 -0.2473
 3609SOL    HW122460   0.146   4.080   3.479 -0.3427  1.4994 -0.8894
 3609SOL    HW222461   0.044   4.179   3.523 -2.3517 -1.3964  0.6523
 3610SOL     OW22462   3.689   0.035   2.125  0.3419  0.7249 -0.0149
 3610SOL    HW122463   3.649   0.030   2.039  0.0018 -0.8343  0.2384
 3610SOL    HW222464   3.686   0.130   2.138  0.0970  0.7971 -0.5858
 3611SOL     OW22465   1.398   0.296   5.047  0.3959  0.5228  0.3000
 3611SOL    HW122466   1.428   0.229   5.109  1.0007 -0.2064 -0.7931
 3611SOL    HW222467   1.455   0.369   5.073 -2.1729  2.8426 -0.6531
 3612SOL     OW22468   3.085   3.566   2.337 -0.1462 -0.0786 -0.2662
 3612SOL    HW122469   3.053   3.481   2.366  1.0407  0.4620  2.6503
 3612SOL    HW222470   3.176   3.548   2.314  0.0618 -0.9611  1.2280
 3613SOL     OW22471   0.560   3.809   8.257 -0.9123  0.1692 -0.3263
 3613SOL    HW122472   0.501   3.810   8.182  0.6963  0.2705 -1.5939
 3613SOL    HW222473   0.497   3.792   8.327  0.0653 -0.7218  0.3296
 3614SOL     OW22474   2.814   2.836   7.505  0.4369  0.2640  0.5664
 3614SOL    HW122475   2.791   2.766   7.566 -0.1316 -0.2061 -0.1792
 3614SOL    HW222476   2.886   2.802   7.452  0.9691  2.3290 -0.0326
 3615SOL     OW22477   0.685   4.599   1.579  0.1045 -0.1344  0.3005
 3615SOL    HW122478   0.728   4.650   1.647 -0.9402 -0.2639  1.0543
 3615SOL    HW222479   0.592   4.593   1.600  0.1887 -0.5634  0.5455
 3616SOL     OW22480   4.286   4.546   4.955 -0.4840  0.4107 -0.8764
 3616SOL    HW122481   4.230   4.616   4.921  1.0590  2.2660  0.3941
 3616SOL    HW222482   4.287   4.486   4.880 -1.9940  0.3653 -0.8662
 3617SOL     OW22483   4.175   2.939   0.684  0.3045  0.5127 -0.5454
 3617SOL    HW122484   4.174   2.866   0.746  1.5823  0.2071 -0.8788
 3617SOL    HW222485   4.238   2.903   0.621  1.2401 -1.7614  1.7093
 3618SOL     OW22486   1.891   1.807   1.122 -0.1854 -0.6519  0.0333
 3618SOL    HW122487   1.801   1.791   1.093 -1.2218 -0.7566  3.3485
 3618SOL    HW222488   1.877   1.879   1.183 -1.5176 -1.2206  0.3906
 3619SOL     OW22489   0.931   4.706   3.015  0.6954 -0.2006  0.0769
 3619SOL    HW122490   1.012   4.717   2.966  1.0320  1.4147  0.9926
 3619SOL    HW222491   0.868   0.001   2.948  1.3918 -0.1039 -0.5318
 3620SOL     OW22492   2.002   1.152  11.815 -0.1268  0.4371  0.5551
 3620SOL    HW122493   2.005   1.132  11.721  1.2870 -1.8798  1.0928
 3620SOL    HW222494   2.083   1.204  11.817  0.4928 -0.4711 -0.8673
 3621SOL     OW22495   2.983   4.558   4.234 -0.2979  0.1919 -0.1480
 3621SOL    HW122496   3.069   4.517   4.240 -1.1312 -1.1934  2.2402
 3621SOL    HW222497   2.990   4.632   4.294 -0.0914 -0.6850  0.9185
 3622SOL     OW22498   2.451   2.403  16.626 -0.4773 -0.4892 -0.4688
 3622SOL    HW122499   2.413   2.331  16.575  2.5711 -0.4746 -2.8383
 3622SOL    HW222500   2.491   2.451  16.553 -0.4554  2.3699  1.4420
 3623SOL     OW22501   4.431   1.297   1.179  0.1430  0.0166 -0.2253
 3623SOL    HW122502   4.338   1.301   1.157 -0.0510 -0.8010  0.4871
 3623SOL    HW222503   4.436   1.206   1.206 -1.6778  0.3162  1.0688
 3624SOL     OW22504   3.713   3.163   9.853 -0.0538  0.5041 -0.3099
 3624SOL    HW122505   3.650   3.094   9.872 -0.8306  1.8066  1.9277
 3624SOL    HW222506   3.798   3.132   9.885 -0.7730  0.2241  1.3224
 3625SOL     OW22507   4.069   1.662   4.647  0.3872  0.9681 -0.2614
 3625SOL    HW122508   4.131   1.600   4.607  1.8264  2.7175 -0.7190
 3625SOL    HW222509   4.103   1.669   4.736 -1.6542 -2.7717  0.8134
 3626SOL     OW22510   3.031   0.190   7.939  0.3604  0.6373  0.1227
 3626SOL    HW122511   3.041   0.114   7.882  1.5243  0.3063  0.7620
 3626SOL    HW222512   3.075   0.172   8.022  1.5146 -0.8630 -0.8344
 3627SOL     OW22513   3.523   2.874   3.711 -0.1164 -0.0889  0.3672
 3627SOL    HW122514   3.573   2.859   3.631  1.6169 -0.5640  1.5449
 3627SOL    HW222515   3.556   2.796   3.756  1.0142  0.3556  0.3313
 3628SOL     OW22516   2.978   0.889   2.399 -0.0443  0.0767 -0.7001
 3628SOL    HW122517   3.045   0.826   2.426 -0.4024  0.3936  0.9066
 3628SOL    HW222518   2.936   0.850   2.323 -1.0883  0.4610 -0.3146
 3629SOL     OW22519   2.691   0.966   4.856  0.1427  0.2315 -0.0840
 3629SOL    HW122520   2.677   0.987   4.764  0.5277 -0.3942 -0.2878
 3629SOL    HW222521   2.618   1.007   4.902  0.5845 -0.0570  0.8747
 3630SOL     OW22522   2.480   2.719   3.296 -0.4168  0.1031  0.5171
 3630SOL    HW122523   2.549   2.680   3.349 -1.4413 -1.1872  0.9099
 3630SOL    HW222524   2.533   2.764   3.231 -1.3842  0.2776 -0.1459
 3631SOL     OW22525   3.155   3.166   4.532 -0.5897 -0.0909 -0.1143
 3631SOL    HW122526   3.061   3.165   4.519 -0.8028  1.7915  1.2464
 3631SOL    HW222527   3.186   3.107   4.600 -3.0254 -0.2088  0.8726
 3632SOL     OW22528   3.898   2.303   6.669  0.0504  0.0183  0.0070
 3632SOL    HW122529   3.840   2.378   6.658 -0.4572 -0.3869 -0.0448
 3632SOL    HW222530   3.922   2.327   6.759  3.3229  0.9312 -1.1111
 3633SOL     OW22531   0.077   0.851  17.354  0.4321  0.2552 -0.3568
 3633SOL    HW122532   0.056   0.865  17.446  0.0217  0.3660 -0.4653
 3633SOL    HW222533   0.080   0.755  17.347 -1.3333  0.1320  0.7425
 3634SOL     OW22534   1.773   2.861   5.513 -0.5647  0.0900  0.0605
 3634SOL    HW122535   1.721   2.917   5.571 -0.2952 -1.2967  1.6607
 3634SOL    HW222536   1.704   2.805   5.477 -0.8150  0.5140 -0.1134
 3635SOL     OW22537   4.407   2.167  17.227 -0.5017  0.0268  0.0236
 3635SOL    HW122538   4.397   2.074  17.206  0.7663 -0.5452  1.9548
 3635SOL    HW222539   4.466   2.152  17.301 -0.1349  2.8876  0.2879
 3636SOL     OW22540   4.682   0.066  14.328  0.3388 -0.3713 -0.1251
 3636SOL    HW122541   0.006   0.129  14.374  0.6402  0.0333 -1.0539
 3636SOL    HW222542   4.594   0.070  14.366  0.9197  0.3491  1.1582
 3637SOL     OW22543   2.326   2.723   2.500 -0.0464 -0.3058 -0.1693
 3637SOL    HW122544   2.381   2.801   2.497 -2.0616  1.0493 -1.3122
 3637SOL    HW222545   2.264   2.734   2.428  0.8206 -0.6595 -0.9814
 3638SOL     OW22546   0.933   2.740   0.816 -0.1043 -0.0885  1.0709
 3638SOL    HW122547   0.920   2.832   0.797 -2.7019 -0.8765 -1.0215
 3638SOL    HW222548   0.843   2.707   0.822  0.0284 -0.6037  0.1424
 3639SOL     OW22549   2.664   1.601   7.350 -0.0276 -0.2245 -0.1450
 3639SOL    HW122550   2.572   1.573   7.341 -0.7098  1.4562  1.5949
 3639SOL    HW222551   2.680   1.571   7.439  0.2783  1.8877  0.4890
 3640SOL     OW22552   3.459   3.336  15.170 -0.4491 -0.3364  0.8197
 3640SOL    HW122553   3.395   3.289  15.224 -0.0024 -0.1971  1.4752
 3640SOL    HW222554   3.452   3.270  15.101  2.3828  0.7765 -0.4914
 3641SOL     OW22555   0.090   3.938  16.181 -0.5307  0.2082 -0.2624
 3641SOL    HW122556   0.043   4.000  16.125  1.1097  4.1530  2.6897
 3641SOL    HW222557   0.025   3.892  16.235  0.7439  0.0270  1.1169
 3642SOL     OW22558   3.709   3.102  10.627  0.2390  0.3936 -0.4365
 3642SOL    HW122559   3.645   3.042  10.587  0.6072  0.9933 -1.9031
 3642SOL    HW222560   3.792   3.056  10.619  1.6344  3.2784 -2.3696
 3643SOL     OW22561   2.699   0.758   3.490 -0.2443  0.6039  0.0502
 3643SOL    HW122562   2.668   0.670   3.510  1.6017  0.1644  0.9915
 3643SOL    HW222563   2.626   0.786   3.435  0.2556  0.1636 -0.8387
 3644SOL     OW22564   2.115   1.010   2.412  0.2450 -0.2453 -0.2788
 3644SOL    HW122565   2.174   1.036   2.483 -2.0894  0.8607  1.2288
 3644SOL    HW222566   2.079   1.095   2.385  2.8086  0.3521 -1.8535
 3645SOL     OW22567   0.637   1.461   9.454  0.8121  0.0787 -0.5471
 3645SOL    HW122568   0.578   1.481   9.381  1.4821  1.4120 -0.7362
 3645SOL    HW222569   0.700   1.533   9.442  1.1651 -0.0161  0.7889
 3646SOL     OW22570   3.289   3.522   7.788  0.2977 -0.1226  0.0346
 3646SOL    HW122571   3.342   3.494   7.862 -1.1085  2.2380  1.9121
 3646SOL    HW222572   3.246   3.605   7.806 -0.2290 -0.1031 -1.2761
 3647SOL     OW22573   0.517   2.347  10.070 -0.0861 -0.8650 -0.4447
 3647SOL    HW122574   0.577   2.283  10.109 -1.0535 -0.6071  1.4548
 3647SOL    HW222575   0.538   2.415  10.134 -0.5648 -1.4644  0.3438
 3648SOL     OW22576   0.375   2.362   6.545 -0.4194  0.2933  0.1091
 3648SOL    HW122577   0.404   2.449   6.572 -0.8196  0.2078  0.8037
 3648SOL    HW222578   0.382   2.305   6.622 -3.2611  1.0025  0.8646
 3649SOL     OW22579   0.459   4.518   2.971  0.6519 -0.0728 -0.0296
 3649SOL    HW122580   0.425   4.431   2.994 -1.2286  0.6296 -0.1469
 3649SOL    HW222581   0.396   4.563   2.916 -1.2776  0.4849  2.6125
 3650SOL     OW22582   2.544   1.305  13.000  0.7179 -0.5525 -0.2026
 3650SOL    HW122583   2.457   1.342  12.989  1.1719  0.0798 -1.6031
 3650SOL    HW222584   2.530   1.242  13.071 -3.3171  0.1003 -0.4141
 3651SOL     OW22585   1.607   1.094   2.596 -0.2420 -0.2707  0.6446
 3651SOL    HW122586   1.575   1.004   2.603 -0.0046 -0.3377  0.8715
 3651SOL    HW222587   1.523   1.139   2.588 -0.1446 -0.0696  0.7696
 3652SOL     OW22588   2.446   4.035   6.899  0.5000 -0.1928  0.3503
 3652SOL    HW122589   2.371   4.026   6.840  1.3903  1.3663 -1.0038
 3652SOL    HW222590   2.394   4.009   6.975  2.0749 -0.9887  1.1462
 3653SOL     OW22591   4.093   2.445   8.549 -0.4113 -0.6810 -0.0791
 3653SOL    HW122592   4.012   2.428   8.502 -2.1262 -0.5381  2.8227
 3653SOL    HW222593   4.147   2.493   8.486  2.6987 -1.7660  1.7182
 3654SOL     OW22594   1.715   0.492   0.170  0.1917  0.1160 -0.0408
 3654SOL    HW122595   1.781   0.491   0.100 -0.3350 -0.5678 -0.5283
 3654SOL    HW222596   1.668   0.409   0.163 -0.0150  0.4505 -2.5406
 3655SOL     OW22597   3.400   0.075   3.485 -0.4154 -0.1817  0.3646
 3655SOL    HW122598   3.431   0.080   3.575 -1.0154 -0.2074  0.5738
 3655SOL    HW222599   3.308   0.051   3.500 -0.4191  0.2849  1.0357
 3656SOL     OW22600   1.157   4.214   0.399 -0.1440 -0.4218  0.7106
 3656SOL    HW122601   1.184   4.265   0.475  1.6149  0.1309 -0.3103
 3656SOL    HW222602   1.181   4.276   0.331  1.9371 -1.8185  0.1742
 3657SOL     OW22603   1.134   1.729   6.261 -0.1711  0.0742 -0.1965
 3657SOL    HW122604   1.217   1.689   6.288  0.0095  0.9392  0.5006
 3657SOL    HW222605   1.096   1.657   6.210  0.0957 -0.5717  0.5110
 3658SOL     OW22606   2.668   0.058   8.009  0.0054  0.0197  0.2711
 3658SOL    HW122607   2.678   0.149   7.982  0.1734  0.1090  0.6326
 3658SOL    HW222608   2.706   0.062   8.097  1.3256 -1.3899 -0.2299
 3659SOL     OW22609   3.749   1.596   5.503  0.2634  0.0840  0.4207
 3659SOL    HW122610   3.793   1.569   5.583  0.5579  0.7752  0.4935
 3659SOL    HW222611   3.809   1.583   5.429  1.2599 -0.8150  1.3807
 3660SOL     OW22612   3.809   0.256   8.096 -0.3287 -0.0089 -0.4803
 3660SOL    HW122613   3.765   0.255   8.011 -0.7624 -4.8790 -0.1973
 3660SOL    HW222614   3.879   0.194   8.076 -0.2327 -0.2625  0.6470
 3661SOL     OW22615   2.072   2.470  10.822  0.4095 -0.2097 -0.4153
 3661SOL    HW122616   2.158   2.506  10.800  1.0383 -1.8518 -0.6002
 3661SOL    HW222617   2.020   2.488  10.743  2.1084 -2.1625 -1.9952
 3662SOL     OW22618   0.529   4.352   8.398  0.2048 -0.5909 -1.0684
 3662SOL    HW122619   0.463   4.399   8.347  1.9390  1.4128 -1.4759
 3662SOL    HW222620   0.529   4.266   8.358 -0.8613 -0.8221 -0.5866
 3663SOL     OW22621   2.757   4.489   6.049  0.1501 -0.4996  0.7924
 3663SOL    HW122622   2.837   4.541   6.057  1.1288 -1.8684 -0.1106
 3663SOL    HW222623   2.760   4.431   5.973  1.2480 -1.0791  1.2776
 3664SOL     OW22624   0.050   2.109   3.680  0.0868  0.1390  0.0835
 3664SOL    HW122625   0.108   2.034   3.693  0.5304  0.4189 -0.2385
 3664SOL    HW222626   0.043   2.147   3.768  2.2721 -0.1349  0.3762
 3665SOL     OW22627   1.223   3.654   4.012 -0.7424 -0.8299 -0.0504
 3665SOL    HW122628   1.255   3.717   3.948 -1.4682 -0.0727  0.3226
 3665SOL    HW222629   1.185   3.726   4.062 -0.1938 -1.0051  0.6202
 3666SOL     OW22630   2.333   2.119   9.259 -0.2933 -0.1272  0.3000
 3666SOL    HW122631   2.246   2.155   9.276 -1.2599 -1.7071 -1.3844
 3666SOL    HW222632   2.318   2.026   9.276  0.1306  0.1802  2.4396
 3667SOL     OW22633   1.550   0.140   6.094  0.0205 -0.2287 -0.8721
 3667SOL    HW122634   1.519   0.159   6.183 -2.2884  1.8468 -2.0995
 3667SOL    HW222635   1.474   0.157   6.038  0.1388  1.8274 -0.4126
 3668SOL     OW22636   4.054   3.260  17.598  0.0371  0.5100  0.1726
 3668SOL    HW122637   4.014   3.287  17.680 -0.0537 -1.4031  0.7468
 3668SOL    HW222638   3.991   3.290  17.532 -2.8157 -3.9982  0.8591
 3669SOL     OW22639   0.766   2.541   6.452 -0.0032 -0.2401 -0.0390
 3669SOL    HW122640   0.722   2.624   6.472  0.3769  0.0567 -0.4216
 3669SOL    HW222641   0.718   2.491   6.517  1.9932 -0.0543  1.5516
 3670SOL     OW22642   2.262   4.130   5.309 -0.9269  0.0177 -0.1890
 3670SOL    HW122643   2.319   4.067   5.353 -1.3103 -0.1070  0.1331
 3670SOL    HW222644   2.301   4.105   5.225  1.8854 -0.7864  1.3407
 3671SOL     OW22645   1.845   0.950   2.119  1.1193  0.0020  0.2741
 3671SOL    HW122646   1.911   0.881   2.114  0.4937 -0.4146 -2.2319
 3671SOL    HW222647   1.846   0.968   2.213  1.2618  0.8106  0.1182
 3672SOL     OW22648   0.106   4.430   0.182 -0.1957 -0.0398  0.2715
 3672SOL    HW122649   0.096   4.524   0.168  0.4524  0.0228  0.2389
 3672SOL    HW222650   0.167   4.418   0.255 -1.7088 -2.9116  1.0533
 3673SOL     OW22651   0.009   1.027   2.494 -0.6810  0.6519  0.1642
 3673SOL    HW122652   0.076   1.081   2.453 -0.2574  1.0485  1.3770
 3673SOL    HW222653   4.684   1.094   2.532  0.8538  1.8731  0.3002
 3674SOL     OW22654   4.260   2.799  16.124 -0.0693 -0.0813 -0.0427
 3674SOL    HW122655   4.185   2.832  16.075 -0.2741  2.2642  1.7902
 3674SOL    HW222656   4.281   2.880  16.171  0.0366  1.2680 -2.4506
 3675SOL     OW22657   0.016   2.982   7.807  0.5079  0.2442 -0.2918
 3675SOL    HW122658   0.032   3.047   7.739 -1.7266 -0.0107 -1.0594
 3675SOL    HW222659   4.729   2.909   7.747 -0.9595  2.7864 -2.9001
 3676SOL     OW22660   1.900   3.629  16.802  0.6742  0.2634 -0.6693
 3676SOL    HW122661   1.882   3.537  16.820  0.6156  0.7550  1.7858
 3676SOL    HW222662   1.820   3.661  16.761 -0.4842  1.7965  2.7752
 3677SOL     OW22663   3.530   3.559   4.461  0.1986  0.1535 -0.1500
 3677SOL    HW122664   3.463   3.497   4.433  0.2337  0.3341 -0.6349
 3677SOL    HW222665   3.580   3.560   4.380 -2.1465 -1.3061 -1.6217
 3678SOL     OW22666   1.828   1.993   8.668  0.0079  0.1111  0.0766
 3678SOL    HW122667   1.859   1.940   8.594 -0.9447  0.3349 -0.4875
 3678SOL    HW222668   1.808   2.077   8.627 -0.0754 -0.2581 -0.6521
 3679SOL     OW22669   3.327   3.561   5.962  0.1769 -0.2432 -0.0763
 3679SOL    HW122670   3.330   3.472   5.997  3.4929  0.0797  0.4651
 3679SOL    HW222671   3.256   3.547   5.900  0.9413 -1.7547 -0.6145
 3680SOL     OW22672   3.716   2.801   9.143 -0.0266 -0.2150  0.3139
 3680SOL    HW122673   3.790   2.846   9.103  0.2811  0.3965  1.5811
 3680SOL    HW222674   3.749   2.712   9.157  0.5811 -0.1903 -1.0044
 3681SOL     OW22675   1.106   3.339   5.916  0.4193  0.0555  0.1532
 3681SOL    HW122676   1.132   3.429   5.897 -0.9057  0.4914  0.3991
 3681SOL    HW222677   1.055   3.346   5.997 -0.5833 -0.0298 -0.4741
 3682SOL     OW22678   0.537   0.006   4.185  0.1733 -0.2008 -0.0231
 3682SOL    HW122679   0.580   0.071   4.128 -0.9174  0.7949  0.2852
 3682SOL    HW222680   0.553   0.036   4.274 -2.0574 -1.5808  0.8180
 3683SOL     OW22681   4.023   1.077  16.024  0.1323 -0.0926 -0.3399
 3683SOL    HW122682   3.991   1.082  16.114 -1.1234 -1.5608 -0.7173
 3683SOL    HW222683   4.085   1.150  16.018 -1.3271  1.1304 -0.2518
 3684SOL     OW22684   0.292   0.378   1.333 -0.2277  0.5405 -0.5369
 3684SOL    HW122685   0.357   0.338   1.275  0.9905  0.6724  0.7277
 3684SOL    HW222686   0.349   0.394   1.409  0.6607 -1.2077 -0.8296
 3685SOL     OW22687   1.631   1.296   4.826  0.4616 -0.1122  0.6149
 3685SOL    HW122688   1.685   1.366   4.863  1.1014 -0.5686  0.5423
 3685SOL    HW222689   1.678   1.217   4.851  1.2407  0.5684  1.3297
 3686SOL     OW22690   2.660   0.295   9.640  0.3818 -0.1187  0.0376
 3686SOL    HW122691   2.656   0.390   9.646 -0.4011 -0.0532 -1.5878
 3686SOL    HW222692   2.667   0.275   9.734  1.5259  0.1269  0.0080
 3687SOL     OW22693   0.229   0.319   2.234 -0.6102  0.4189 -0.2858
 3687SOL    HW122694   0.268   0.372   2.164  1.1838  1.2266  1.3170
 3687SOL    HW222695   0.251   0.232   2.200 -0.9690  0.9977 -2.0264
 3688SOL     OW22696   3.769   0.511   6.892 -0.1309  0.0036 -0.4625
 3688SOL    HW122697   3.732   0.423   6.902 -0.5113  0.1506 -0.5674
 3688SOL    HW222698   3.697   0.560   6.931 -1.2051 -1.5494 -0.4644
 3689SOL     OW22699   4.440   1.920   6.289 -0.4180 -0.2023  0.4386
 3689SOL    HW122700   4.353   1.880   6.288 -0.8679  0.8528 -2.0274
 3689SOL    HW222701   4.424   1.979   6.362  0.4463 -0.5458  0.9039
 3690SOL     OW22702   1.263   4.004  14.859 -0.1332  0.1732  0.1365
 3690SOL    HW122703   1.310   4.083  14.834 -1.6852  1.2553  0.6009
 3690SOL    HW222704   1.336   3.954  14.895  1.6196  1.4264 -1.7100
 3691SOL     OW22705   0.925   3.900   1.825 -0.4149 -0.3416  0.2118
 3691SOL    HW122706   0.911   3.849   1.905 -0.1906  1.4264  1.3889
 3691SOL    HW222707   0.859   3.853   1.775  1.5156 -1.9002 -0.8691
 3692SOL     OW22708   4.545   0.195  12.293 -0.1445 -0.0945 -0.5967
 3692SOL    HW122709   4.469   0.146  12.262  0.4742 -2.1520  1.1498
 3692SOL    HW222710   4.578   0.132  12.358  1.0833 -0.0763 -1.1974
 3693SOL     OW22711   4.120   3.102   9.566  0.3028 -0.3518  0.4746
 3693SOL    HW122712   4.032   3.101   9.603  0.0609 -0.4352 -0.1019
 3693SOL    HW222713   4.121   3.017   9.522  0.8635  1.3347 -2.7680
 3694SOL     OW22714   2.061   2.561  11.739 -0.2104 -0.2939  0.1060
 3694SOL    HW122715   2.079   2.502  11.667  1.4326  1.3284 -0.8062
 3694SOL    HW222716   2.152   2.585  11.753 -0.0817 -0.8361  0.1786
 3695SOL     OW22717   2.122   4.268   8.672  0.5104  0.0260 -0.2858
 3695SOL    HW122718   2.095   4.229   8.755 -2.5025 -1.0276 -1.7789
 3695SOL    HW222719   2.051   4.239   8.615 -0.3271 -1.6963  1.6521
 3696SOL     OW22720   0.131   1.528   5.481 -0.1839  0.1284 -0.0357
 3696SOL    HW122721   0.052   1.524   5.535  1.0340 -0.9404  1.6294
 3696SOL    HW222722   0.150   1.619   5.503  0.8709  0.2984 -1.5973
 3697SOL     OW22723   0.279   1.366   2.198  0.0273  0.3602  0.3551
 3697SOL    HW122724   0.257   1.293   2.141 -1.7571  0.6382  0.6686
 3697SOL    HW222725   0.281   1.441   2.137 -3.0909  1.5618  1.7143
 3698SOL     OW22726   1.805   3.829  14.902 -0.1757 -0.0862  0.0360
 3698SOL    HW122727   1.783   3.920  14.920  1.5713  0.0249  1.5242
 3698SOL    HW222728   1.893   3.832  14.866  1.2231 -0.1647  3.4532
 3699SOL     OW22729   1.401   1.262   2.552 -0.2069 -0.6904 -0.3068
 3699SOL    HW122730   1.387   1.326   2.622  3.1629 -0.1214 -0.1521
 3699SOL    HW222731   1.404   1.318   2.475 -1.4150  0.0990  0.2070
 3700SOL     OW22732   4.393   1.836   7.304 -0.1494 -0.4413 -0.0227
 3700SOL    HW122733   4.393   1.767   7.237 -1.9339 -0.9597  0.5002
 3700SOL    HW222734   4.450   1.899   7.260 -1.5380  1.1379  0.4406
 3701SOL     OW22735   1.512   4.637   6.557 -0.0024  0.4894 -0.6730
 3701SOL    HW122736   1.477   4.684   6.632 -2.6068 -0.0383 -1.5498
 3701SOL    HW222737   1.512   4.706   6.491 -0.3042 -1.7422 -3.0256
 3702SOL     OW22738   1.506   1.105   7.455 -0.0561 -0.0384 -0.2861
 3702SOL    HW122739   1.539   1.016   7.452  0.6378  0.2066  0.1712
 3702SOL    HW222740   1.543   1.136   7.538 -0.3476 -1.0612  0.2277
 3703SOL     OW22741   2.113   3.064   9.838  0.0465  0.2301  0.2027
 3703SOL    HW122742   2.134   2.972   9.858  0.9158 -0.0363 -2.0077
 3703SOL    HW222743   2.201   3.100   9.843 -0.1129  0.9456 -2.4720
 3704SOL     OW22744   1.054   3.298   9.194 -0.0859 -0.0795  0.1808
 3704SOL    HW122745   1.035   3.384   9.231  3.0317  0.9524 -0.5755
 3704SOL    HW222746   1.136   3.269   9.236  0.6036  0.2532 -0.9324
 3705SOL     OW22747   1.029   1.824   1.329 -0.2319  0.0492 -0.0075
 3705SOL    HW122748   1.070   1.798   1.412  0.6005  2.2367  0.2593
 3705SOL    HW222749   1.038   1.738   1.288 -0.0267 -0.6041  1.4060
 3706SOL     OW22750   4.533   0.168   0.771  0.5311  0.2612 -0.0111
 3706SOL    HW122751   4.573   0.253   0.787  2.9320 -0.8138 -0.2690
 3706SOL    HW222752   4.583   0.113   0.831 -0.8742 -0.7482  0.2366
 3707SOL     OW22753   2.638   3.305   6.939 -0.1099 -0.5219 -0.0780
 3707SOL    HW122754   2.721   3.260   6.923 -0.1399 -1.6160  2.8805
 3707SOL    HW222755   2.661   3.337   7.026 -0.8741 -2.2778  0.7655
 3708SOL     OW22756   2.296   4.615  13.528 -0.4560 -0.0162 -0.3423
 3708SOL    HW122757   2.370   4.667  13.558  0.3053 -0.7785 -0.9156
 3708SOL    HW222758   2.325   4.571  13.449  0.0824  2.0991 -1.3176
 3709SOL     OW22759   4.309   2.408   9.436 -0.3335  0.0189  0.2470
 3709SOL    HW122760   4.398   2.405   9.400 -0.0314 -1.7579  1.1759
 3709SOL    HW222761   4.324   2.390   9.529  0.2317 -1.1400 -0.0679
 3710SOL     OW22762   0.679   2.876   0.038  0.2033 -0.4552  0.0926
 3710SOL    HW122763   0.671   2.961   0.082 -0.0550 -2.6857  4.3104
 3710SOL    HW222764   0.734   2.900  17.691  0.2877  0.3236  0.4087
 3711SOL     OW22765   2.098   1.231   1.027  0.0484  0.4888 -0.0780
 3711SOL    HW122766   2.069   1.226   1.118 -0.8107  1.5334 -0.3036
 3711SOL    HW222767   2.189   1.201   1.035  0.0660  0.6766  0.4199
 3712SOL     OW22768   0.421   2.713   2.278 -0.0961  0.0009  0.2098
 3712SOL    HW122769   0.499   2.693   2.226 -0.1823  0.3675 -0.0616
 3712SOL    HW222770   0.358   2.662   2.227 -1.2619  1.0917  0.5629
 3713SOL     OW22771   1.865   3.629   5.656  0.1250  0.2334  0.5748
 3713SOL    HW122772   1.830   3.674   5.578 -4.7974  0.8184  3.1063
 3713SOL    HW222773   1.929   3.687   5.697  0.5586 -0.4082  0.8002
 3714SOL     OW22774   4.280   0.836   2.410 -0.4880 -0.2553 -0.3507
 3714SOL    HW122775   4.353   0.845   2.470  0.0704 -1.3935 -0.8584
 3714SOL    HW222776   4.332   0.822   2.331 -1.4928 -2.6632 -0.5780
 3715SOL     OW22777   2.787   3.863   4.401  0.3003  0.0866 -0.3089
 3715SOL    HW122778   2.850   3.826   4.340  1.6754  0.5352  0.8421
 3715SOL    HW222779   2.841   3.936   4.430 -0.8172 -0.2003  2.5510
 3716SOL     OW22780   3.941   0.914   3.608  0.2767 -0.5181 -0.1481
 3716SOL    HW122781   4.021   0.877   3.572  0.7202 -1.7339  2.0703
 3716SOL    HW222782   3.881   0.845   3.581 -1.4007  0.7787  0.1785
 3717SOL     OW22783   3.827   2.635  17.255  0.7193 -0.0992 -0.1075
 3717SOL    HW122784   3.891   2.657  17.186  0.6916  0.3303  0.0084
 3717SOL    HW222785   3.846   2.694  17.327  0.5025  0.0358 -0.1633
 3718SOL     OW22786   1.040   0.986  17.136 -0.5872  0.0055  0.5388
 3718SOL    HW122787   0.952   0.957  17.115 -1.1494  3.2213 -1.5602
 3718SOL    HW222788   1.095   0.945  17.069  1.0463  0.3147  1.6727
 3719SOL     OW22789   2.274   1.694   8.368 -0.5100  0.4501  0.1315
 3719SOL    HW122790   2.344   1.630   8.377 -0.2708  0.8257  0.9317
 3719SOL    HW222791   2.304   1.763   8.427 -1.7935  0.0614  1.2347
 3720SOL     OW22792   3.606   2.640   5.425 -0.5608  0.0756 -0.4758
 3720SOL    HW122793   3.604   2.700   5.350 -0.2694 -0.9996 -1.3316
 3720SOL    HW222794   3.664   2.572   5.393  3.3095  3.2093 -0.0739
 3721SOL     OW22795   3.487   3.780   8.831 -0.4333 -0.3150 -0.1468
 3721SOL    HW122796   3.477   3.836   8.755 -1.8146 -0.9553 -0.4326
 3721SOL    HW222797   3.445   3.702   8.796  0.3450 -1.2332  0.9217
 3722SOL     OW22798   3.625   1.966   2.556 -0.5499  0.3575  0.0266
 3722SOL    HW122799   3.698   2.024   2.532 -0.7471  1.3245  1.7702
 3722SOL    HW222800   3.654   1.889   2.506 -0.4375  2.3644 -3.0566
 3723SOL     OW22801   3.264   1.262   4.746 -0.0891  0.1339 -0.1889
 3723SOL    HW122802   3.276   1.332   4.810  2.0362  0.3801 -0.8620
 3723SOL    HW222803   3.355   1.236   4.758 -0.0831  1.4776  2.6644
 3724SOL     OW22804   2.852   0.405   7.585  0.0056 -0.6102 -0.0996
 3724SOL    HW122805   2.936   0.430   7.548 -0.6239  0.5563 -0.7339
 3724SOL    HW222806   2.849   0.448   7.670 -1.2180  0.8865 -0.9024
 3725SOL     OW22807   2.082   1.058  15.823 -0.1099  0.4550  0.3948
 3725SOL    HW122808   2.164   1.036  15.867  1.6684  1.9764 -2.0780
 3725SOL    HW222809   2.099   1.152  15.810 -0.7455  0.6960  1.3351
 3726SOL     OW22810   4.321   4.432   9.848 -0.1364  0.1599  0.0144
 3726SOL    HW122811   4.292   4.416   9.938 -1.3778  2.4491  0.0010
 3726SOL    HW222812   4.357   4.520   9.854 -0.3541  0.3079 -0.8847
 3727SOL     OW22813   2.261   2.835   7.408 -0.0476 -0.5386  0.1059
 3727SOL    HW122814   2.293   2.813   7.495  0.6127 -0.9264 -0.2336
 3727SOL    HW222815   2.249   2.929   7.421 -0.7324 -0.1293 -3.3426
 3728SOL     OW22816   1.395   3.771   6.465 -0.1721 -0.0142 -0.4356
 3728SOL    HW122817   1.395   3.676   6.459 -0.9462 -0.0905  0.7574
 3728SOL    HW222818   1.303   3.787   6.485  0.0699 -0.3434  0.9933
 3729SOL     OW22819   0.270   2.310   1.001  0.0056  0.0918  0.8559
 3729SOL    HW122820   0.250   2.219   1.025 -1.4610  0.6453  1.7359
 3729SOL    HW222821   0.251   2.361   1.080 -4.2272  2.1306 -1.5024
 3730SOL     OW22822   0.837   3.634   7.192  0.7018  0.2797  0.3900
 3730SOL    HW122823   0.867   3.559   7.243 -1.0797 -0.5434  0.2197
 3730SOL    HW222824   0.743   3.618   7.202  1.1251 -0.4547  3.0999
 3731SOL     OW22825   2.765   1.235   6.505  0.0275  0.0995 -0.3499
 3731SOL    HW122826   2.819   1.208   6.431 -2.2079  0.2227 -1.9919
 3731SOL    HW222827   2.810   1.314   6.536  1.3993  0.3341 -2.9282
 3732SOL     OW22828   2.242   0.964   5.658  0.4258 -0.2335 -0.0538
 3732SOL    HW122829   2.182   1.038   5.644  1.4605  0.6992  0.4166
 3732SOL    HW222830   2.322   1.005   5.690  0.6542 -1.9027  1.4882
 3733SOL     OW22831   0.998   0.620   7.878  0.0686 -0.4648  0.6122
 3733SOL    HW122832   1.040   0.537   7.854  0.1405 -0.1187 -0.4216
 3733SOL    HW222833   0.959   0.593   7.962  1.0832 -0.6855  1.0108
 3734SOL     OW22834   0.870   3.755   7.931 -0.0277 -0.7584 -0.1287
 3734SOL    HW122835   0.893   3.831   7.879  0.7960 -1.2933 -0.5404
 3734SOL    HW222836   0.849   3.805   8.010  1.8199 -0.2584  0.0450
 3735SOL     OW22837   1.598   4.438   4.915 -0.0422  0.2972 -0.4598
 3735SOL    HW122838   1.626   4.384   4.989 -0.7677  0.1421 -0.3005
 3735SOL    HW222839   1.503   4.433   4.910 -0.0756  2.9623 -2.6846
 3736SOL     OW22840   4.149   4.141   3.973 -0.0402 -0.1672  0.5572
 3736SOL    HW122841   4.186   4.228   3.985  0.3871 -0.4469  1.2237
 3736SOL    HW222842   4.060   4.161   3.943 -0.0867 -1.1198  0.0527
 3737SOL     OW22843   4.310   0.772  15.086  1.0621 -0.4638  0.0357
 3737SOL    HW122844   4.319   0.730  15.171  1.3452 -0.3970  0.0370
 3737SOL    HW222845   4.314   0.691  15.035  2.8539 -0.1905 -0.2359
 3738SOL     OW22846   0.242   0.583  13.168 -0.5421 -0.0101 -0.1731
 3738SOL    HW122847   0.208   0.643  13.234 -0.8576  0.1014 -0.4412
 3738SOL    HW222848   0.335   0.592  13.192 -0.9657 -2.0436  2.2570
 3739SOL     OW22849   3.429   3.934   8.620 -0.7711  0.3941  0.2886
 3739SOL    HW122850   3.455   4.015   8.664 -0.1609  0.4351 -0.1441
 3739SOL    HW222851   3.482   3.952   8.542  0.0479 -0.2362  0.6967
 3740SOL     OW22852   3.383   3.866   2.344  0.1591  0.0368  0.0647
 3740SOL    HW122853   3.334   3.906   2.416 -0.7244  0.8276 -0.9772
 3740SOL    HW222854   3.392   3.944   2.288  2.7065 -0.3584 -0.0630
 3741SOL     OW22855   1.653   0.267   7.376 -0.4520  0.7270 -0.0873
 3741SOL    HW122856   1.672   0.173   7.365 -1.1014  0.5879 -0.0306
 3741SOL    HW222857   1.558   0.273   7.382 -0.4911 -0.9564  0.8626
 3742SOL     OW22858   0.662   0.353   5.439  0.1904  0.0878  0.1951
 3742SOL    HW122859   0.615   0.371   5.358 -0.9884  0.3755  0.9406
 3742SOL    HW222860   0.590   0.354   5.502 -0.4868  2.1474 -0.6217
 3743SOL     OW22861   3.234   1.217   2.197 -0.0498 -0.2452  0.4322
 3743SOL    HW122862   3.185   1.253   2.271 -0.2096  2.4189 -0.9697
 3743SOL    HW222863   3.306   1.281   2.188 -0.6997  0.3027 -0.8641
 3744SOL     OW22864   3.964   3.648   7.648 -0.0154 -0.0071  0.1178
 3744SOL    HW122865   3.995   3.595   7.721  1.0722 -1.1947 -1.2031
 3744SOL    HW222866   3.975   3.590   7.573  4.2331  1.3886 -0.4014
 3745SOL     OW22867   0.757   1.473   6.635  0.5617 -0.2917  0.0654
 3745SOL    HW122868   0.760   1.568   6.637  0.1807 -0.3630  4.2177
 3745SOL    HW222869   0.700   1.462   6.559 -0.2862 -0.9637  0.7954
 3746SOL     OW22870   2.939   2.661   3.434 -0.3125 -0.0601 -0.3910
 3746SOL    HW122871   2.996   2.585   3.427 -0.5406 -0.1513 -1.2046
 3746SOL    HW222872   2.857   2.612   3.438 -0.5201  0.4864  1.9279
 3747SOL     OW22873   4.045   0.274   1.476 -0.2087 -0.2444  0.0535
 3747SOL    HW122874   4.129   0.319   1.481 -0.1950 -0.2888  0.2484
 3747SOL    HW222875   4.052   0.233   1.390 -0.7836  0.7221 -0.4534
 3748SOL     OW22876   1.795   4.023   7.961  0.3680  0.2342  0.1643
 3748SOL    HW122877   1.757   4.052   7.878 -0.7674  1.9031  1.2734
 3748SOL    HW222878   1.891   4.026   7.957  0.5397 -3.6615  0.8351
 3749SOL     OW22879   2.044   1.047   8.369  0.7469  0.1420 -0.0590
 3749SOL    HW122880   2.044   1.019   8.460  1.5258 -0.2757 -0.1881
 3749SOL    HW222881   1.978   1.117   8.364 -0.7339 -1.2859 -0.3217
 3750SOL     OW22882   3.334   0.435   6.938  0.1812  0.1566 -0.2644
 3750SOL    HW122883   3.267   0.503   6.939  0.4665  0.4375 -0.3634
 3750SOL    HW222884   3.294   0.361   6.892  0.7808 -0.7904  0.7494
 3751SOL     OW22885   1.691   4.724   3.847 -0.0890 -0.5018  0.1156
 3751SOL    HW122886   1.640   0.059   3.802  1.7770 -0.6375 -2.1936
 3751SOL    HW222887   1.758   4.696   3.785 -1.5464 -0.1882 -1.5966
 3752SOL     OW22888   2.797   3.617  13.388  0.3742 -0.0496  0.0536
 3752SOL    HW122889   2.778   3.695  13.440 -1.5209 -0.6389  0.2605
 3752SOL    HW222890   2.730   3.634  13.322  1.0549 -0.6587 -0.7897
 3753SOL     OW22891   0.372   3.631   5.445 -0.1952 -0.0940 -0.2488
 3753SOL    HW122892   0.337   3.552   5.403 -0.8029  1.1081 -2.0157
 3753SOL    HW222893   0.378   3.696   5.375  1.7658  0.3137  0.3159
 3754SOL     OW22894   3.903   0.898  15.876  0.0243 -0.0634 -1.2212
 3754SOL    HW122895   3.966   0.889  15.803 -1.6633 -0.6621 -2.5990
 3754SOL    HW222896   3.949   0.958  15.935 -3.7721  0.9559  0.6683
 3755SOL     OW22897   3.004   2.358   1.354  0.4097  0.1664  0.2686
 3755SOL    HW122898   2.920   2.316   1.371  0.5226  0.0370  0.5044
 3755SOL    HW222899   3.015   2.319   1.267  0.1386  0.1574  0.2390
 3756SOL     OW22900   4.133   4.338   8.073 -0.7462 -0.2575  0.1019
 3756SOL    HW122901   4.137   4.428   8.107 -0.2340 -0.5811  0.9065
 3756SOL    HW222902   4.220   4.308   8.098 -0.3672  0.8079  0.0778
 3757SOL     OW22903   4.640   2.824   7.600 -0.2717  0.7240  0.0826
 3757SOL    HW122904   4.659   2.735   7.570 -1.1568  0.2585  0.9009
 3757SOL    HW222905   4.629   2.873   7.519  1.2112 -0.7336 -1.0181
 3758SOL     OW22906   4.197   1.471   3.273 -0.4583 -0.3393  0.0956
 3758SOL    HW122907   4.275   1.417   3.282  1.5893  2.6538  0.2812
 3758SOL    HW222908   4.136   1.446   3.342 -1.6539 -0.2705 -0.9230
 3759SOL     OW22909   0.189   0.951   7.484  0.1564 -0.1520 -0.2803
 3759SOL    HW122910   0.151   0.868   7.513  0.2827  0.7376  2.4667
 3759SOL    HW222911   0.262   0.921   7.429 -0.6655 -0.1964 -1.3390
 3760SOL     OW22912   2.097   3.491   3.649 -0.2545 -0.0815 -0.7291
 3760SOL    HW122913   2.058   3.408   3.621 -0.5195 -0.2825  0.2286
 3760SOL    HW222914   2.061   3.497   3.738 -0.6975 -0.3254 -0.8900
 3761SOL     OW22915   1.952   3.857   4.458  0.3776 -0.2591 -0.1352
 3761SOL    HW122916   1.982   3.772   4.426 -0.2649  0.0715 -1.6087
 3761SOL    HW222917   1.863   3.856   4.424  0.3206  0.7336 -0.0239
 3762SOL     OW22918   0.159   3.056   4.489  0.3175  0.0510  0.2596
 3762SOL    HW122919   0.116   3.058   4.574  0.8184 -1.4769  0.5447
 3762SOL    HW222920   0.186   3.148   4.490 -0.7862  0.3628  1.1296
 3763SOL     OW22921   2.233   0.279   2.360  0.1058  0.4063  0.6486
 3763SOL    HW122922   2.249   0.186   2.378 -2.6690 -0.5932 -2.1227
 3763SOL    HW222923   2.303   0.295   2.297  0.4441  0.4368  1.0307
 3764SOL     OW22924   4.233   3.825   7.606  0.1098 -0.0061 -0.0163
 3764SOL    HW122925   4.137   3.817   7.611  0.2053 -0.4270  1.2502
 3764SOL    HW222926   4.237   3.892   7.538  2.2120  0.5138  0.6355
 3765SOL     OW22927   2.477   3.418   3.222 -0.2233 -0.0016  0.0904
 3765SOL    HW122928   2.407   3.454   3.168 -1.4663 -0.7791  1.2116
 3765SOL    HW222929   2.557   3.459   3.188 -0.0226  0.3387  0.9863
 3766SOL     OW22930   0.910   1.144   8.758  0.0424 -0.3930  0.0150
 3766SOL    HW122931   0.856   1.091   8.700 -1.1801  0.1207  0.6614
 3766SOL    HW222932   0.968   1.072   8.782  0.2453 -0.4690 -0.7404
 3767SOL     OW22933   3.958   4.332   1.876 -0.4080 -0.1699  0.1241
 3767SOL    HW122934   3.902   4.398   1.836  0.0229  0.4450  0.5544
 3767SOL    HW222935   3.919   4.317   1.962 -0.9158 -1.1796 -0.2740
 3768SOL     OW22936   4.553   0.094   4.288 -0.1094  0.3678 -0.2581
 3768SOL    HW122937   4.499   0.085   4.366  0.2374 -2.4828 -0.3662
 3768SOL    HW222938   4.604   0.013   4.284 -1.5861 -0.4949 -1.7866
 3769SOL     OW22939   2.988   0.209  14.523  0.6644 -0.0296 -0.0591
 3769SOL    HW122940   2.936   0.284  14.550 -2.1536 -1.4910 -1.4627
 3769SOL    HW222941   3.025   0.234  14.438  0.2510 -0.3661 -0.3365
 3770SOL     OW22942   1.982   4.287   5.796  0.2984 -0.8944  0.1842
 3770SOL    HW122943   2.010   4.195   5.804 -0.2842 -1.2606 -2.2211
 3770SOL    HW222944   1.908   4.288   5.856  0.2153 -0.2310  0.0687
 3771SOL     OW22945   4.046   1.236   2.660  0.1403  0.1508 -0.3844
 3771SOL    HW122946   4.032   1.153   2.616 -0.0466 -0.5305  0.9603
 3771SOL    HW222947   4.131   1.259   2.622  0.6455  0.9422  1.2185
 3772SOL     OW22948   1.967   2.352   4.125 -0.5570 -0.0151  0.0065
 3772SOL    HW122949   2.022   2.405   4.183  0.8754 -1.4500 -0.0396
 3772SOL    HW222950   1.962   2.276   4.184  2.3067 -0.0815  0.1755
 3773SOL     OW22951   0.307   0.655   6.360  0.1812  0.1620 -0.1242
 3773SOL    HW122952   0.365   0.589   6.321 -2.0715 -1.6115 -0.5054
 3773SOL    HW222953   0.376   0.721   6.360 -0.3401  0.7083  0.4584
 3774SOL     OW22954   2.133   2.224   5.487 -0.1048  0.1468 -0.0285
 3774SOL    HW122955   2.178   2.252   5.407  0.5123  2.0580  0.9840
 3774SOL    HW222956   2.044   2.235   5.454 -0.3725  2.5424  1.4945
 3775SOL     OW22957   2.413   4.158  14.777  0.1778  0.3777  0.3062
 3775SOL    HW122958   2.406   4.119  14.690 -0.1358  2.2463 -0.5140
 3775SOL    HW222959   2.449   4.242  14.747  0.5362  0.0625 -0.1478
 3776SOL     OW22960   3.788   0.695   8.133  0.5277  0.0831  0.1474
 3776SOL    HW122961   3.848   0.766   8.108 -0.5836  1.2463  0.7887
 3776SOL    HW222962   3.849   0.622   8.144 -0.1844 -0.7299 -1.2402
 3777SOL     OW22963   2.058   0.491   7.376  0.1186 -0.5525 -0.5248
 3777SOL    HW122964   2.011   0.497   7.292  0.4401  2.1369 -0.5196
 3777SOL    HW222965   1.984   0.478   7.435  1.6818 -1.5127  1.1978
 3778SOL     OW22966   3.197   0.923   7.821 -0.6107  0.7088  0.9101
 3778SOL    HW122967   3.111   0.957   7.846 -0.6914  0.4195  1.0263
 3778SOL    HW222968   3.187   0.837   7.862 -3.1282  0.1122 -0.9167
 3779SOL     OW22969   0.704   4.317   2.568 -0.3616 -0.1495  0.2002
 3779SOL    HW122970   0.712   4.237   2.515  0.3007  0.4164 -0.5485
 3779SOL    HW222971   0.620   4.351   2.536 -0.4348 -1.4382 -0.9751
 3780SOL     OW22972   1.443   1.250   3.563  0.8051  0.1859  0.5428
 3780SOL    HW122973   1.382   1.179   3.581 -0.8806  1.7904  1.2423
 3780SOL    HW222974   1.474   1.268   3.652  0.4845  0.8257  0.5270
 3781SOL     OW22975   3.023   4.084   2.432  0.2754  0.4102  0.0104
 3781SOL    HW122976   2.968   4.070   2.509  1.5553 -4.5035  0.0131
 3781SOL    HW222977   2.982   4.023   2.370  0.7265  0.9008 -0.7766
 3782SOL     OW22978   4.415   4.339   2.777 -0.1912 -0.5398 -0.8273
 3782SOL    HW122979   4.444   4.341   2.686 -0.3617  1.2774 -0.8403
 3782SOL    HW222980   4.494   4.364   2.825 -0.5971 -0.4737 -0.1974
 3783SOL     OW22981   0.526   0.905   5.736 -0.3600  0.1121  1.3326
 3783SOL    HW122982   0.588   0.943   5.674 -1.8499  1.5428  0.7144
 3783SOL    HW222983   0.591   0.892   5.805 -0.7833 -2.3166  1.3020
 3784SOL     OW22984   3.889   4.218  16.167 -0.1037 -0.0661 -0.3931
 3784SOL    HW122985   3.923   4.282  16.105 -2.3474  2.3356  0.8712
 3784SOL    HW222986   3.825   4.170  16.114  0.4144 -0.8273 -0.3356
 3785SOL     OW22987   1.861   2.073  14.878 -0.2797  0.0349  0.4539
 3785SOL    HW122988   1.906   2.150  14.913  0.2473 -0.1109  0.0945
 3785SOL    HW222989   1.770   2.105  14.880 -0.9852 -1.9520  0.2081
 3786SOL     OW22990   3.642   1.018   7.847 -0.4347  0.0207  0.1127
 3786SOL    HW122991   3.688   1.084   7.899 -1.6325  0.6924  0.3370
 3786SOL    HW222992   3.553   1.053   7.853 -1.5108 -2.2314 -2.8580
 3787SOL     OW22993   4.663   3.926  17.281  0.1070 -0.0090  0.2273
 3787SOL    HW122994   0.021   3.893  17.283 -0.9675 -2.7342  2.6026
 3787SOL    HW222995   4.639   3.916  17.373 -1.4239  0.3284 -0.1357
 3788SOL     OW22996   0.831   0.938   2.602  0.1176 -0.7128  0.0338
 3788SOL    HW122997   0.877   0.984   2.532 -0.1151 -1.6044 -0.7145
 3788SOL    HW222998   0.773   0.881   2.550 -0.6980  0.8542 -0.7846
 3789SOL     OW22999   2.335   1.059  17.369  0.1621 -0.4645 -0.2394
 3789SOL    HW123000   2.275   0.999  17.325 -0.2789 -0.6865  0.6582
 3789SOL    HW223001   2.306   1.069  17.460 -1.6803  1.1357 -0.9848
 3790SOL     OW23002   2.147   2.820  13.233  0.4433  0.1485 -0.2051
 3790SOL    HW123003   2.238   2.850  13.236  0.5682  0.1563 -4.3027
 3790SOL    HW223004   2.118   2.837  13.323 -0.1608  1.6456 -0.6826
 3791SOL     OW23005   4.069   1.034   8.346  0.0351  0.1226  0.1261
 3791SOL    HW123006   4.142   1.050   8.286 -1.0497 -1.1048 -1.5281
 3791SOL    HW223007   4.102   1.084   8.420  1.0752 -0.9698  0.3918
 3792SOL     OW23008   2.079   3.080   2.509 -0.1054 -0.1915 -0.1011
 3792SOL    HW123009   2.064   3.170   2.539 -0.6201 -0.8760  1.7391
 3792SOL    HW223010   2.001   3.056   2.458 -1.5111  1.2443  1.3715
 3793SOL     OW23011   1.242   2.953  17.461  0.1186  0.1811 -0.3124
 3793SOL    HW123012   1.228   2.954  17.556  1.4605 -1.4598 -0.0964
 3793SOL    HW223013   1.186   2.880  17.438 -0.4252  0.0591  1.3698
 3794SOL     OW23014   4.676   1.220   5.024  0.0174  0.4180  0.5226
 3794SOL    HW123015   0.011   1.246   5.087  0.9653 -0.6334 -0.0555
 3794SOL    HW223016   4.722   1.201   4.942  1.4335 -1.3484  1.7312
 3795SOL     OW23017   1.550   2.570   1.779 -0.7166 -0.0961 -0.2910
 3795SOL    HW123018   1.513   2.510   1.714 -0.9108  0.4102 -0.6395
 3795SOL    HW223019   1.521   2.529   1.861  0.7918 -1.1934 -0.2969
 3796SOL     OW23020   3.453   0.799   7.459 -0.5797  0.2411  0.1390
 3796SOL    HW123021   3.515   0.791   7.532  1.9267  0.5654 -1.9865
 3796SOL    HW223022   3.380   0.748   7.496 -0.8519  0.6183  0.1251
 3797SOL     OW23023   4.583   1.430   2.227  0.6246 -0.8391 -0.0480
 3797SOL    HW123024   4.508   1.469   2.271  0.2406 -2.9378  1.1363
 3797SOL    HW223025   4.553   1.344   2.199 -0.0201  0.3783 -3.1873
 3798SOL     OW23026   3.019   1.254   2.972  0.5473 -0.2812  0.0123
 3798SOL    HW123027   2.963   1.332   2.978 -0.7037 -1.0467 -1.5724
 3798SOL    HW223028   2.984   1.235   2.885  1.5180 -1.4944 -0.1217
 3799SOL     OW23029   0.514   0.101   6.615 -0.8562 -0.0865 -0.1544
 3799SOL    HW123030   0.598   0.104   6.569 -0.8996  0.3613 -0.2060
 3799SOL    HW223031   0.463   0.077   6.538 -1.7209 -1.8428  0.9725
 3800SOL     OW23032   1.230   1.151  17.268 -0.2706  0.8731  0.2644
 3800SOL    HW123033   1.166   1.109  17.210  2.0587 -0.8500 -1.0609
 3800SOL    HW223034   1.294   1.084  17.293  0.7572  0.8820 -2.3492
 3801SOL     OW23035   4.647   2.850   9.047 -0.0858 -1.0246 -1.0375
 3801SOL    HW123036   4.608   2.903   9.117  0.1570  1.1016 -2.5239
 3801SOL    HW223037   4.696   2.908   8.989  1.4931  0.3388  1.6644
 3802SOL     OW23038   0.600   2.087  17.467  0.5765  0.2228 -0.6368
 3802SOL    HW123039   0.598   2.180  17.445  1.2413  0.2003 -0.7941
 3802SOL    HW223040   0.665   2.054  17.405  1.4917  0.9969 -0.0760
 3803SOL     OW23041   3.721   2.895   8.782  0.4494 -0.0443 -0.0396
 3803SOL    HW123042   3.738   2.983   8.816 -0.3932 -1.0639  2.9923
 3803SOL    HW223043   3.791   2.847   8.827  1.6254 -0.2856 -2.1312
 3804SOL     OW23044   1.741   2.177  12.499 -0.5371  0.1336 -0.4845
 3804SOL    HW123045   1.715   2.120  12.427 -0.5889 -1.9978  1.2199
 3804SOL    HW223046   1.660   2.224  12.519 -0.2266  0.7796 -0.7404
 3805SOL     OW23047   2.808   3.187   6.250 -0.2948 -0.2475  0.4321
 3805SOL    HW123048   2.819   3.114   6.188 -0.2613  0.8752 -0.8884
 3805SOL    HW223049   2.881   3.237   6.215 -2.2848  2.0384 -0.4847
 3806SOL     OW23050   0.549   4.369  12.034 -0.3311 -0.1072 -0.3673
 3806SOL    HW123051   0.640   4.398  12.042  0.3389 -2.5898  0.8755
 3806SOL    HW223052   0.502   4.425  12.096  1.9644 -2.0505  3.0941
 3807SOL     OW23053   2.743   3.267   7.191 -0.0978  0.4129 -0.4629
 3807SOL    HW123054   2.701   3.329   7.250 -3.2083  1.3119 -3.6112
 3807SOL    HW223055   2.679   3.197   7.186 -2.1076  2.3012 -1.1289
 3808SOL     OW23056   3.665   0.897  17.356  0.4575 -0.5129 -0.2291
 3808SOL    HW123057   3.717   0.971  17.390 -0.0508 -1.4362  2.5757
 3808SOL    HW223058   3.655   0.922  17.264  0.3399  2.3078  0.5332
 3809SOL     OW23059   2.240   4.727   2.383  0.1765 -0.0520  0.4319
 3809SOL    HW123060   2.308   4.661   2.366  0.8042  0.6089  0.4076
 3809SOL    HW223061   2.173   4.710   2.316 -0.1584  0.7013  0.5790
 3810SOL     OW23062   0.376   0.994   3.908 -0.3616  0.1814 -0.1303
 3810SOL    HW123063   0.337   0.938   3.976 -0.0992 -0.8274 -0.8138
 3810SOL    HW223064   0.461   0.949   3.911 -0.5527 -0.2220 -0.6899
 3811SOL     OW23065   2.657   0.258  10.296  0.2866 -0.2980  0.2249
 3811SOL    HW123066   2.618   0.312  10.227  0.2966 -1.0392 -0.3612
 3811SOL    HW223067   2.617   0.176  10.267 -0.0814 -0.3337  0.8277
 3812SOL     OW23068   3.285   2.953   5.090  0.1289 -0.6111 -0.1072
 3812SOL    HW123069   3.356   2.891   5.105  0.6564 -0.1407 -0.6468
 3812SOL    HW223070   3.307   3.009   5.164 -1.0536 -1.4433  0.8645
 3813SOL     OW23071   3.279   0.938   3.621  0.1666 -0.9151  0.5445
 3813SOL    HW123072   3.353   0.941   3.681  0.1156 -0.0293  0.5650
 3813SOL    HW223073   3.255   0.846   3.630 -2.4195 -0.2790  0.3287
 3814SOL     OW23074   3.715   3.640   7.742 -0.6302  0.6719 -0.0141
 3814SOL    HW123075   3.799   3.632   7.697 -0.3045  2.3313  0.3052
 3814SOL    HW223076   3.730   3.607   7.831  0.0511 -2.4766 -1.2989
 3815SOL     OW23077   1.753   4.125   7.701  0.2563 -0.3980 -0.0144
 3815SOL    HW123078   1.780   4.195   7.641  1.0076  0.0068  0.7903
 3815SOL    HW223079   1.797   4.049   7.664  1.6341  0.3602  0.0586
 3816SOL     OW23080   2.766   3.410  11.189  0.1694 -0.0773 -0.7541
 3816SOL    HW123081   2.697   3.425  11.124  0.0398 -1.1653 -0.8601
 3816SOL    HW223082   2.753   3.497  11.229 -2.5591 -0.5105 -0.7142
 3817SOL     OW23083   1.901   4.332   1.901  0.3359  0.0911  0.8988
 3817SOL    HW123084   1.945   4.326   1.817 -0.3578  3.2258  0.3276
 3817SOL    HW223085   1.876   4.241   1.918 -0.8387 -0.3259 -3.1778
 3818SOL     OW23086   3.417   2.454   7.170  0.8090 -0.6176  0.3014
 3818SOL    HW123087   3.388   2.528   7.117 -0.4470 -2.2918 -1.3382
 3818SOL    HW223088   3.334   2.430   7.211 -0.2806  2.7758  0.0990
 3819SOL     OW23089   2.616   3.327   4.003  0.0832  0.4676  0.0659
 3819SOL    HW123090   2.649   3.237   4.002 -0.3389  0.3271 -1.8857
 3819SOL    HW223091   2.525   3.326   4.033 -0.0350 -0.8223 -0.3126
 3820SOL     OW23092   2.427   3.200   2.231 -0.0873  0.2587  0.3285
 3820SOL    HW123093   2.407   3.152   2.312  2.7489 -0.2805  0.7148
 3820SOL    HW223094   2.494   3.142   2.195 -1.1510 -2.1353  2.1625
 3821SOL     OW23095   3.608   1.051   4.168 -0.1245 -0.2875  0.5983
 3821SOL    HW123096   3.608   1.136   4.210 -0.6876 -0.4747  0.9762
 3821SOL    HW223097   3.620   1.078   4.077 -2.5404 -0.8583  0.1158
 3822SOL     OW23098   1.223   3.459   7.751  0.2453 -0.1307 -0.1240
 3822SOL    HW123099   1.254   3.471   7.841  0.7468 -0.1400 -0.2917
 3822SOL    HW223100   1.250   3.541   7.708 -0.7727  0.4101  0.2725
 3823SOL     OW23101   2.170   4.191  10.310 -0.3741 -0.9479 -0.3028
 3823SOL    HW123102   2.158   4.124  10.377 -1.1379 -1.0222 -0.5208
 3823SOL    HW223103   2.158   4.270  10.364 -5.4350  1.1397 -4.5013
 3824SOL     OW23104   4.061   2.138   4.309 -0.1651 -0.2995 -0.1251
 3824SOL    HW123105   3.971   2.107   4.301 -0.5114  0.5532  0.5022
 3824SOL    HW223106   4.093   2.070   4.367  2.6627  1.5238  0.4528
 3825SOL     OW23107   2.900   3.361   5.000  0.5119 -0.5082 -0.5689
 3825SOL    HW123108   2.949   3.440   5.021 -0.3983  0.7394 -3.0570
 3825SOL    HW223109   2.810   3.392   5.006  1.0965  1.1527 -0.2736
 3826SOL     OW23110   0.365   2.360   1.670  0.1539 -0.2793 -0.0938
 3826SOL    HW123111   0.306   2.427   1.635 -0.2792 -1.3939 -1.4879
 3826SOL    HW223112   0.439   2.380   1.613  0.5270  2.4298  1.3349
 3827SOL     OW23113   3.287   0.565   2.710  0.1480  0.1899 -0.4749
 3827SOL    HW123114   3.261   0.628   2.778 -1.2064 -1.9146  0.9448
 3827SOL    HW223115   3.325   0.624   2.645  0.6961  1.5821  1.0997
 3828SOL     OW23116   3.470   3.581  12.908 -0.3836 -0.1883 -0.4289
 3828SOL    HW123117   3.566   3.577  12.902 -0.2495  2.5459 -0.5383
 3828SOL    HW223118   3.435   3.497  12.882 -0.4296 -0.3949  0.3082
 3829SOL     OW23119   4.547   0.444  10.407 -0.1350  0.4444 -0.2325
 3829SOL    HW123120   4.532   0.496  10.486  1.3115  0.1394  0.2460
 3829SOL    HW223121   4.526   0.354  10.433 -1.0886  0.3208 -1.4038
 3830SOL     OW23122   2.277   1.463   7.625  0.2333  0.1286 -0.1365
 3830SOL    HW123123   2.288   1.549   7.665  1.0468 -0.6791  1.3362
 3830SOL    HW223124   2.186   1.435   7.640 -0.1076  1.0376 -0.4840
 3831SOL     OW23125   0.916   1.979   3.628  0.3419  0.1993  0.8637
 3831SOL    HW123126   0.849   1.966   3.696 -0.8829 -4.1770 -1.1736
 3831SOL    HW223127   0.957   2.056   3.666  1.4485 -0.0478  0.1544
 3832SOL     OW23128   2.334   2.561   7.253  0.3544  0.3604  0.3396
 3832SOL    HW123129   2.292   2.643   7.277 -0.1668  0.6757 -1.6157
 3832SOL    HW223130   2.265   2.503   7.285  1.0860  0.0706  1.3808
 3833SOL     OW23131   2.803   3.660   4.918  0.1255  1.0252 -0.0897
 3833SOL    HW123132   2.885   3.709   4.922  1.8479 -1.8908 -0.2279
 3833SOL    HW223133   2.758   3.722   4.861 -0.2608  1.0889  0.2780
 3834SOL     OW23134   3.107   2.392   7.152 -0.0023 -0.0957  0.2900
 3834SOL    HW123135   3.031   2.349   7.192  1.7117 -0.7184  2.8455
 3834SOL    HW223136   3.055   2.452   7.097  0.0367 -0.3444 -0.0236
 3835SOL     OW23137   2.655   1.279   2.799  0.2840 -0.0573  0.1696
 3835SOL    HW123138   2.731   1.223   2.781  0.9068  1.2574 -1.2693
 3835SOL    HW223139   2.634   1.258   2.890  2.0865 -0.6629  0.4467
 3836SOL     OW23140   3.494   0.588   0.497  0.2984  0.0312 -0.4051
 3836SOL    HW123141   3.561   0.617   0.559  0.1797 -2.4801  0.9406
 3836SOL    HW223142   3.440   0.666   0.487 -0.6302 -0.3805  1.3163
 3837SOL     OW23143   1.087   0.898  17.430 -0.0602 -0.2488  0.0242
 3837SOL    HW123144   1.114   0.807  17.424 -0.2195 -0.2469 -0.7731
 3837SOL    HW223145   1.067   0.904  17.336 -1.1745  1.8345  0.3796
 3838SOL     OW23146   4.200   0.589   6.328  0.1006  0.2098  0.2467
 3838SOL    HW123147   4.120   0.562   6.373  0.0096  3.6557  2.1462
 3838SOL    HW223148   4.161   0.652   6.268  2.4552  1.6655  0.2535
 3839SOL     OW23149   2.262   2.304   2.042 -0.1364  0.4656 -0.7139
 3839SOL    HW123150   2.202   2.362   1.995 -2.0796 -1.4579 -0.6234
 3839SOL    HW223151   2.222   2.220   2.019 -1.5225  1.0653 -0.4911
 3840SOL     OW23152   0.387   2.551  17.477  0.0597 -0.0386  0.1103
 3840SOL    HW123153   0.457   2.609  17.507  0.0780 -0.1239  0.2356
 3840SOL    HW223154   0.392   2.491  17.552  0.9667  0.8555  0.7596
 3841SOL     OW23155   4.592   1.748   4.108  1.1796  0.1347 -0.4029
 3841SOL    HW123156   4.519   1.740   4.047 -0.2046 -0.6988  1.3483
 3841SOL    HW223157   4.608   1.662   4.147 -0.5699 -0.2121 -0.4569
 3842SOL     OW23158   4.319   1.840   5.900  0.1336 -0.3124  0.0254
 3842SOL    HW123159   4.229   1.809   5.891  0.8202 -2.1899 -0.4839
 3842SOL    HW223160   4.367   1.757   5.896  0.8566  0.1496 -0.7792
 3843SOL     OW23161   1.254   0.227  12.868  0.2175  0.0115 -0.0817
 3843SOL    HW123162   1.293   0.166  12.805  2.3950 -0.4247  1.7165
 3843SOL    HW223163   1.275   0.313  12.832 -1.3283  0.8037  0.9250
 3844SOL     OW23164   3.742   3.928   2.445  0.4434 -0.3681 -0.9770
 3844SOL    HW123165   3.760   4.021   2.454 -0.2070 -0.1655 -1.7964
 3844SOL    HW223166   3.648   3.939   2.434  0.2560 -1.2026 -0.1899
 3845SOL     OW23167   1.516   2.161  13.889  0.1502 -0.0151  0.3590
 3845SOL    HW123168   1.448   2.224  13.863  0.6226  0.3600  0.0298
 3845SOL    HW223169   1.588   2.186  13.831 -0.1941  2.6017  1.0533
 3846SOL     OW23170   4.178   2.929   5.725 -0.0287  0.1531 -0.0341
 3846SOL    HW123171   4.247   2.896   5.667 -0.9957  0.4481 -1.3445
 3846SOL    HW223172   4.184   3.024   5.720 -1.2587  0.2705  0.8783
 3847SOL     OW23173   3.309   4.287   2.065 -0.4230  0.3602 -0.1537
 3847SOL    HW123174   3.281   4.367   2.110 -1.4852 -0.3960  0.5536
 3847SOL    HW223175   3.285   4.309   1.975 -1.9576  1.1089  0.4410
 3848SOL     OW23176   2.165   2.796   9.896  0.3833 -0.3072 -0.4375
 3848SOL    HW123177   2.188   2.718   9.946  0.1043 -0.3453 -0.3698
 3848SOL    HW223178   2.072   2.780   9.885  0.4445 -0.8874 -0.1575
 3849SOL     OW23179   3.828   3.844   3.627 -0.2140 -0.3367 -0.0902
 3849SOL    HW123180   3.885   3.921   3.634 -2.6580  1.5467 -1.2220
 3849SOL    HW223181   3.890   3.780   3.663 -0.7730  0.4167  2.2054
 3850SOL     OW23182   3.464   4.148   8.799  0.3982 -0.2663 -0.3037
 3850SOL    HW123183   3.491   4.132   8.889  0.3653 -0.6092 -0.3535
 3850SOL    HW223184   3.487   4.240   8.789 -1.8363  0.3409  0.2554
 3851SOL     OW23185   0.072   2.238   4.279 -0.4286  0.2501 -0.1239
 3851SOL    HW123186   0.132   2.228   4.353  0.6258 -0.5926 -1.0926
 3851SOL    HW223187   0.029   2.152   4.273  0.6600 -0.3245  0.2303
 3852SOL     OW23188   3.793   3.257   3.612  0.5294  0.0017 -0.3244
 3852SOL    HW123189   3.708   3.213   3.620  0.2010  0.4299 -1.4800
 3852SOL    HW223190   3.771   3.347   3.634  1.0915 -0.0665  0.5113
 3853SOL     OW23191   3.597   1.143   3.052  0.2060  0.0055 -0.0186
 3853SOL    HW123192   3.600   1.108   3.140  1.8855  0.5150  0.1265
 3853SOL    HW223193   3.691   1.158   3.045 -0.1600  2.2738 -0.2079
 3854SOL     OW23194   3.716   2.814   5.181 -0.1685 -0.1792 -0.5355
 3854SOL    HW123195   3.758   2.826   5.096  2.9060 -1.1426  0.8782
 3854SOL    HW223196   3.663   2.741   5.148 -1.9397  0.9208 -0.1630
 3855SOL     OW23197   1.684   2.890   3.482  0.3785 -0.2579  0.1211
 3855SOL    HW123198   1.685   2.893   3.577 -0.3756  2.1210  0.0530
 3855SOL    HW223199   1.776   2.873   3.464  0.2602  0.5655 -1.2876
 3856SOL     OW23200   2.469   0.708   7.353  0.2086 -0.1423 -0.1444
 3856SOL    HW123201   2.467   0.745   7.265  0.6079 -0.5953 -0.3417
 3856SOL    HW223202   2.510   0.622   7.337  0.1960 -0.0687 -0.5793
 3857SOL     OW23203   2.060   2.032   7.726  0.1571 -0.1338  0.0390
 3857SOL    HW123204   2.075   2.107   7.669  0.2193 -0.1882 -0.0161
 3857SOL    HW223205   2.061   1.956   7.667  0.9774 -0.0660 -0.0338
 3858SOL     OW23206   4.136   0.153   0.763  0.6241  0.2620  0.2920
 3858SOL    HW123207   4.227   0.132   0.741 -0.0703 -3.0529  0.5738
 3858SOL    HW223208   4.105   0.187   0.679 -0.5698 -0.3361  0.4962
 3859SOL     OW23209   2.738   3.086   3.989  0.2820 -0.1216 -0.0530
 3859SOL    HW123210   2.814   3.081   4.047  0.0995 -0.5902  0.1428
 3859SOL    HW223211   2.710   2.995   3.988 -1.4942  0.4213  0.5631
 3860SOL     OW23212   1.563   0.655   6.382  0.2141  0.2209 -0.0393
 3860SOL    HW123213   1.573   0.566   6.416  1.5499  0.4209  0.0711
 3860SOL    HW223214   1.653   0.683   6.399  0.1281 -1.2595  2.9120
 3861SOL     OW23215   4.410   2.142   9.038 -0.3012 -0.8047 -0.5893
 3861SOL    HW123216   4.463   2.063   9.043  1.1453  0.3249  1.5343
 3861SOL    HW223217   4.332   2.105   9.080 -2.4940  1.9293 -2.2643
 3862SOL     OW23218   1.553   2.356   8.683 -0.4222  0.1450  0.0561
 3862SOL    HW123219   1.506   2.409   8.619 -1.7795 -0.5848  0.4570
 3862SOL    HW223220   1.486   2.300   8.722  0.0441 -0.0778  0.5417
 3863SOL     OW23221   2.177   3.373   4.509 -0.4989  0.0816  0.7878
 3863SOL    HW123222   2.111   3.321   4.464  1.3416 -0.9804 -0.7196
 3863SOL    HW223223   2.256   3.328   4.478 -0.7187  0.1561  0.1234
 3864SOL     OW23224   3.276   1.399   5.013 -0.1432 -0.3753 -0.7822
 3864SOL    HW123225   3.310   1.468   5.071  0.4088 -0.1703 -1.3479
 3864SOL    HW223226   3.295   1.326   5.072  0.0971  0.6869  0.4705
 3865SOL     OW23227   0.722   0.265   4.836  0.2701 -0.2686 -0.0068
 3865SOL    HW123228   0.739   0.174   4.812 -0.1771 -0.0566 -1.1335
 3865SOL    HW223229   0.748   0.268   4.928 -1.7792 -3.0037  0.6733
 3866SOL     OW23230   0.058   2.823   1.723 -0.1636  0.2664 -0.3630
 3866SOL    HW123231   4.726   2.864   1.780 -1.1601 -3.8284  1.4539
 3866SOL    HW223232   0.080   2.744   1.772  1.7092 -0.1545 -1.8346
 3867SOL     OW23233   0.206   1.806  17.146 -0.0903  0.1305  0.4550
 3867SOL    HW123234   0.235   1.820  17.236  0.1918  0.3127  0.3369
 3867SOL    HW223235   0.269   1.870  17.113  0.9034 -0.0903  1.9382
 3868SOL     OW23236   1.566   3.846   4.519  0.7118 -0.1259  0.0970
 3868SOL    HW123237   1.503   3.896   4.467  0.5778 -0.8942 -0.4735
 3868SOL    HW223238   1.633   3.819   4.456  1.5113  0.9190  0.5062
 3869SOL     OW23239   3.313   0.148   7.136  0.8797 -0.7556 -0.2296
 3869SOL    HW123240   3.351   0.235   7.150 -0.4110 -0.2507  0.1655
 3869SOL    HW223241   3.389   0.090   7.135  1.9206  0.6085 -0.3514
 3870SOL     OW23242   2.456   2.334   3.213 -0.3088 -0.6360 -0.0635
 3870SOL    HW123243   2.374   2.371   3.179  0.5581  1.6758  0.3610
 3870SOL    HW223244   2.457   2.247   3.173 -1.9793 -2.0498  2.9504
 3871SOL     OW23245   1.150   0.003   2.828 -0.1134  0.8728 -0.2998
 3871SOL    HW123246   1.189   0.057   2.759 -0.9825  1.0020 -0.6949
 3871SOL    HW223247   1.228   4.681   2.842 -0.5260 -0.1988 -2.1213
 3872SOL     OW23248   2.655   4.096  14.995 -0.0410  0.6660 -0.6269
 3872SOL    HW123249   2.666   4.184  14.960 -2.4475  1.2073  0.0162
 3872SOL    HW223250   2.740   4.064  14.963  1.1891  0.2154  3.0838
 3873SOL     OW23251   1.499   1.758  12.244 -0.3597 -0.0900 -0.4622
 3873SOL    HW123252   1.474   1.694  12.178 -0.9015  0.6422 -0.9644
 3873SOL    HW223253   1.418   1.802  12.269 -0.9906 -0.3076 -2.1062
 3874SOL     OW23254   3.782   3.714   9.307 -0.1553  0.3579 -0.3806
 3874SOL    HW123255   3.739   3.645   9.256 -1.2616  1.9956 -1.6540
 3874SOL    HW223256   3.757   3.687   9.396 -1.4048  0.0382 -0.8221
 3875SOL     OW23257   0.426   0.638   3.332 -0.0131 -0.0509  0.5670
 3875SOL    HW123258   0.381   0.592   3.403 -0.5337  0.2736  0.4507
 3875SOL    HW223259   0.518   0.622   3.354 -0.3196 -0.5997  1.4476
 3876SOL     OW23260   4.232   3.275   6.987  0.6592  0.3090 -0.1052
 3876SOL    HW123261   4.272   3.224   6.917  0.2014 -0.3445  0.1152
 3876SOL    HW223262   4.142   3.243   6.987  0.2953  1.3251 -0.9951
 3877SOL     OW23263   4.593   1.498   1.458 -0.1405  0.0869  0.5842
 3877SOL    HW123264   4.599   1.545   1.375 -3.0340  0.3891  0.5423
 3877SOL    HW223265   4.543   1.557   1.515 -1.2724 -1.6602  1.3942
 3878SOL     OW23266   4.457   1.397   3.350  0.3979 -0.4135  0.2751
 3878SOL    HW123267   4.495   1.453   3.417 -1.0258  0.8982 -0.0089
 3878SOL    HW223268   4.524   1.373   3.286  1.7334  1.5930  0.9230
 3879SOL     OW23269   4.086   0.312   3.424 -0.3717 -0.2002 -0.7250
 3879SOL    HW123270   4.004   0.308   3.373 -0.4259 -2.5115 -0.4644
 3879SOL    HW223271   4.085   0.221   3.453 -2.3515  0.1554  0.3498
 3880SOL     OW23272   0.689   4.208   7.528  0.1237  0.4754 -0.1538
 3880SOL    HW123273   0.607   4.234   7.570  0.5645 -1.5849  1.9884
 3880SOL    HW223274   0.699   4.124   7.573 -1.1338  0.1488 -0.5050
 3881SOL     OW23275   1.549   0.031   6.841 -0.0657  0.2785  0.6159
 3881SOL    HW123276   1.455   0.010   6.848  0.4642 -1.9226  1.1067
 3881SOL    HW223277   1.544   0.112   6.789  1.9600 -1.1706 -1.8154
 3882SOL     OW23278   3.467   3.082   4.624  0.0962 -0.5139 -0.1784
 3882SOL    HW123279   3.419   3.088   4.706  1.6376 -2.0364  0.8466
 3882SOL    HW223280   3.454   2.991   4.599 -1.6592 -0.5934  1.0779
 3883SOL     OW23281   0.260   0.116   7.697 -0.4975  0.0125  0.1765
 3883SOL    HW123282   0.335   0.060   7.676  0.3130  1.2237 -0.1709
 3883SOL    HW223283   0.236   0.147   7.610  0.1540  0.4267  0.1442
 3884SOL     OW23284   4.619   1.025   8.570  0.1587  0.3676 -0.4529
 3884SOL    HW123285   4.572   1.076   8.636 -1.3647  0.1801 -1.4009
 3884SOL    HW223286   4.686   0.986   8.627 -1.7567 -2.0351  0.1225
 3885SOL     OW23287   0.492   1.210   9.662 -0.1300  0.5451  0.0999
 3885SOL    HW123288   0.457   1.124   9.638 -0.4956  1.1847 -1.7136
 3885SOL    HW223289   0.577   1.214   9.617  0.2522  0.3407  0.8187
 3886SOL     OW23290   0.337   0.130   9.445 -0.1700 -0.7506  0.0269
 3886SOL    HW123291   0.379   0.044   9.448 -0.8190 -1.0715 -0.1223
 3886SOL    HW223292   0.320   0.125   9.351 -0.7459  0.7407  0.0486
 3887SOL     OW23293   2.919   2.305   4.454 -0.2025  0.0300  0.1337
 3887SOL    HW123294   2.925   2.212   4.477  1.8807  0.6867  2.3461
 3887SOL    HW223295   2.875   2.336   4.533  0.6862 -1.2444  1.1331
 3888SOL     OW23296   1.083   3.440   3.431 -0.0812  0.4704  0.0314
 3888SOL    HW123297   1.133   3.390   3.496  0.6642 -0.7210 -1.4561
 3888SOL    HW223298   1.120   3.528   3.437  0.2787  0.3730 -0.6732
 3889SOL     OW23299   3.496   4.280  12.879 -0.1960 -1.0298 -0.1198
 3889SOL    HW123300   3.574   4.279  12.934 -2.5781 -2.3025  3.2587
 3889SOL    HW223301   3.431   4.310  12.943  0.7251 -1.5833  1.0733
 3890SOL     OW23302   0.655   4.324  15.566  0.6444 -0.3940  0.1327
 3890SOL    HW123303   0.720   4.395  15.562  1.5745 -1.4183 -2.8751
 3890SOL    HW223304   0.635   4.296  15.476  2.1762  0.6253 -0.5314
 3891SOL     OW23305   0.384   1.545   5.113  0.6685 -0.2266 -0.2170
 3891SOL    HW123306   0.418   1.539   5.024 -0.5416 -0.2428 -0.6677
 3891SOL    HW223307   0.293   1.523   5.095 -0.0993  0.3422  2.9926
 3892SOL     OW23308   1.398   1.508   4.534 -0.0787  0.4049 -0.0310
 3892SOL    HW123309   1.432   1.419   4.526 -0.2117  0.2674  0.9321
 3892SOL    HW223310   1.306   1.481   4.543 -0.0590  0.6410  0.9317
 3893SOL     OW23311   3.278   3.439   3.032 -0.0701  1.3734 -0.7704
 3893SOL    HW123312   3.183   3.439   3.038  0.0308  2.6527  0.8167
 3893SOL    HW223313   3.299   3.491   3.109  0.3643  0.9313 -0.5836
 3894SOL     OW23314   2.639   0.214   6.119 -0.2070  0.3968  0.1530
 3894SOL    HW123315   2.550   0.221   6.153 -0.5903  0.1047 -0.8018
 3894SOL    HW223316   2.688   0.195   6.199  0.6610 -1.7067 -0.8850
 3895SOL     OW23317   1.464   4.138   6.729 -0.0425 -0.0718 -0.5017
 3895SOL    HW123318   1.467   4.231   6.750 -0.2950 -0.1432 -0.1501
 3895SOL    HW223319   1.554   4.109   6.745 -0.1222  0.7571  1.4165
 3896SOL     OW23320   3.537   2.129   0.307  0.0765  0.1155  0.1218
 3896SOL    HW123321   3.528   2.160   0.397  0.7058  2.1848 -0.5249
 3896SOL    HW223322   3.508   2.039   0.323 -0.1537 -0.3325 -2.8907
 3897SOL     OW23323   1.969   4.177   5.309 -0.3943  0.2283 -0.2994
 3897SOL    HW123324   1.956   4.258   5.261 -0.0970 -0.0890 -0.9194
 3897SOL    HW223325   2.059   4.182   5.343 -0.3195 -2.1264 -0.1210
 3898SOL     OW23326   0.508   2.109  15.043 -0.0340  0.3044 -0.2578
 3898SOL    HW123327   0.508   2.118  15.138  1.3447 -0.9359 -0.1465
 3898SOL    HW223328   0.562   2.184  15.019 -0.1292 -0.0993 -1.7631
 3899SOL     OW23329   4.543   3.525   3.608  0.2061 -0.5038 -0.8331
 3899SOL    HW123330   4.454   3.499   3.585 -1.0461  3.0539 -0.0682
 3899SOL    HW223331   4.539   3.619   3.588  0.7072 -0.2311  0.3297
 3900SOL     OW23332   0.335   4.711   4.774  0.1372 -0.0370 -0.0428
 3900SOL    HW123333   0.251   4.665   4.777  0.3257 -0.3731  0.0823
 3900SOL    HW223334   0.373   4.669   4.851  0.6735  0.2758 -0.1409
 3901SOL     OW23335   0.894   0.756   7.057 -0.5992 -0.5433 -0.1464
 3901SOL    HW123336   0.871   0.739   7.149  1.7210  0.4189  0.5879
 3901SOL    HW223337   0.962   0.689   7.056 -1.0329 -1.0106  1.6670
 3902SOL     OW23338   2.894   0.760   6.822 -0.3853  0.0945  0.0377
 3902SOL    HW123339   2.969   0.809   6.855 -0.1103  1.2290 -2.2596
 3902SOL    HW223340   2.872   0.833   6.764  0.2383 -1.7000 -2.4647
 3903SOL     OW23341   3.691   1.715   2.467 -0.2905  0.0117 -0.3062
 3903SOL    HW123342   3.638   1.688   2.542  2.0495 -0.3533  1.2006
 3903SOL    HW223343   3.725   1.627   2.447  2.6642  0.8172  1.1856
 3904SOL     OW23344   3.749   0.175  17.273 -0.7273 -0.1846 -0.6101
 3904SOL    HW123345   3.714   0.253  17.316 -1.5681 -0.8660 -0.0649
 3904SOL    HW223346   3.834   0.167  17.316 -1.7865  3.8913  2.2210
 3905SOL     OW23347   2.552   2.382   4.850  0.0052  0.8431  0.0830
 3905SOL    HW123348   2.554   2.367   4.945  2.3486 -3.1845 -0.6157
 3905SOL    HW223349   2.489   2.451   4.830 -0.9719  0.3602  1.4128
 3906SOL     OW23350   3.865   4.413  10.524 -0.1397  0.6782 -0.1263
 3906SOL    HW123351   3.776   4.376  10.525  0.9854 -2.0368 -1.2026
 3906SOL    HW223352   3.904   4.341  10.474  2.4201  1.5577  0.6366
 3907SOL     OW23353   0.247   4.473  13.835 -0.5185 -0.3946  0.4707
 3907SOL    HW123354   0.306   4.409  13.874 -1.2511 -1.6816 -0.5515
 3907SOL    HW223355   0.220   4.423  13.758 -0.4409 -1.3227  1.0527
 3908SOL     OW23356   0.790   0.464   4.466  0.8218  0.1467  0.0472
 3908SOL    HW123357   0.785   0.558   4.448 -0.2006  0.1769  0.4733
 3908SOL    HW223358   0.710   0.451   4.517  1.7715 -1.5360  1.1031
 3909SOL     OW23359   3.217   3.404   1.078 -0.1369  0.0043 -0.2305
 3909SOL    HW123360   3.232   3.332   1.139 -1.3079 -0.3632 -0.3780
 3909SOL    HW223361   3.143   3.442   1.125 -0.5263 -1.4389  0.3084
 3910SOL     OW23362   2.731   3.115  10.000  0.3377  0.1130 -0.1046
 3910SOL    HW123363   2.687   3.040  10.041  1.5407  0.3070  1.5606
 3910SOL    HW223364   2.702   3.196  10.043 -0.4943 -1.1816  1.7942
 3911SOL     OW23365   1.195   1.179   5.782  0.3078  0.4178 -0.1806
 3911SOL    HW123366   1.279   1.141   5.808  1.5098  1.8632 -1.9324
 3911SOL    HW223367   1.198   1.154   5.690 -2.0334  0.8226 -0.3573
 3912SOL     OW23368   4.316   2.918  10.151  0.0920 -0.3335  0.7830
 3912SOL    HW123369   4.266   2.854  10.101  0.1021  0.4770 -0.2740
 3912SOL    HW223370   4.397   2.871  10.172  0.9506 -0.1594 -2.1018
 3913SOL     OW23371   4.671   3.271   7.588 -0.3058  0.2481 -0.3914
 3913SOL    HW123372   4.580   3.241   7.583 -0.2280 -0.3894  2.0140
 3913SOL    HW223373   4.651   3.365   7.582 -0.7066  0.1872 -0.0306
 3914SOL     OW23374   0.190   3.164   2.497  0.8574  0.0507 -0.8662
 3914SOL    HW123375   0.231   3.081   2.521 -2.2647 -1.0399  0.7774
 3914SOL    HW223376   0.114   3.162   2.556 -0.0285 -1.1006 -2.0335
 3915SOL     OW23377   4.269   3.660   0.342  0.3139  0.9333 -0.1866
 3915SOL    HW123378   4.357   3.690   0.368 -0.0751  1.4448  0.5402
 3915SOL    HW223379   4.225   3.736   0.381 -1.8901 -1.0894  1.2069
 3916SOL     OW23380   0.927   2.918   5.507 -0.5802 -0.1213 -0.1761
 3916SOL    HW123381   0.931   2.828   5.539 -3.0442 -0.3314 -0.4359
 3916SOL    HW223382   0.999   2.956   5.557  0.9101 -1.7747 -1.0912
 3917SOL     OW23383   4.140   3.366   1.667 -0.4925  0.0978 -0.0756
 3917SOL    HW123384   4.147   3.307   1.592 -1.7515  0.5749 -0.5695
 3917SOL    HW223385   4.230   3.367   1.701 -0.3521 -0.5263 -0.4330
 3918SOL     OW23386   2.607   1.117   3.975 -0.0122 -0.4599  0.3695
 3918SOL    HW123387   2.608   1.071   3.891  0.1875 -1.2155  0.7880
 3918SOL    HW223388   2.694   1.157   3.972  1.4540 -3.6482  0.6236
 3919SOL     OW23389   0.127   0.368   3.324 -0.1140  0.4357  0.2222
 3919SOL    HW123390   0.178   0.375   3.243 -1.3020  1.6352 -0.4248
 3919SOL    HW223391   0.048   0.316   3.304  0.1653 -0.3377  1.1100
 3920SOL     OW23392   0.694   1.391   4.811  0.2673  0.1803 -0.0113
 3920SOL    HW123393   0.711   1.458   4.745  1.5697  0.1443  0.2798
 3920SOL    HW223394   0.614   1.423   4.854  1.4685  2.9929  0.1834
 3921SOL     OW23395   1.619   0.192   2.513  0.4339 -0.0562 -0.6273
 3921SOL    HW123396   1.578   0.241   2.584  1.9202 -2.4993  1.9135
 3921SOL    HW223397   1.617   0.266   2.451  1.7327  2.3215  2.1633
 3922SOL     OW23398   2.334   4.144  10.599  0.1201  1.0509  0.9269
 3922SOL    HW123399   2.343   4.229  10.642  1.9995  1.1928  0.2646
 3922SOL    HW223400   2.338   4.082  10.672 -0.9704 -0.6634 -0.4691
 3923SOL     OW23401   2.379   4.390  13.673 -0.2295 -0.0559 -0.0886
 3923SOL    HW123402   2.354   4.463  13.616  0.3562 -1.8217 -2.6001
 3923SOL    HW223403   2.313   4.409  13.739  0.7594 -1.5309  1.3265
 3924SOL     OW23404   0.625   1.412   7.836  0.1164  0.1959 -0.5172
 3924SOL    HW123405   0.540   1.368   7.826  0.2094  0.2340 -1.4374
 3924SOL    HW223406   0.626   1.439   7.928  2.1800  1.7099 -1.0054
 3925SOL     OW23407   1.350   3.155   7.871  0.1979  0.3266  0.1900
 3925SOL    HW123408   1.279   3.114   7.922 -0.1792  0.6903 -0.0425
 3925SOL    HW223409   1.354   3.243   7.908 -0.4471  0.6406 -0.4860
 3926SOL     OW23410   3.632   2.025   7.688  0.3717  0.0526 -0.0485
 3926SOL    HW123411   3.618   2.018   7.593  1.8250 -0.8354 -0.1878
 3926SOL    HW223412   3.666   2.113   7.702  0.9993 -0.1552 -0.2615
 3927SOL     OW23413   1.052   2.399  17.182  0.9144  0.1051  0.7003
 3927SOL    HW123414   1.103   2.475  17.155  1.1477  0.5679  2.4271
 3927SOL    HW223415   1.035   2.426  17.273  1.1009  0.9615  0.4815
 3928SOL     OW23416   3.939   2.026   5.122 -0.2347 -0.1047 -0.5359
 3928SOL    HW123417   3.946   2.118   5.148 -1.6835  0.0003 -0.4982
 3928SOL    HW223418   3.857   2.026   5.073 -0.2098  1.0758 -0.5780
 3929SOL     OW23419   1.748   4.033   6.759 -0.2784 -0.3874  0.1256
 3929SOL    HW123420   1.746   4.040   6.855  1.4469 -0.3460  0.1534
 3929SOL    HW223421   1.764   4.123   6.731  0.7216 -0.6654 -0.1610
 3930SOL     OW23422   4.443   2.871   3.799 -0.3667 -0.2634 -0.2729
 3930SOL    HW123423   4.533   2.856   3.829  0.1304  2.2622 -0.4732
 3930SOL    HW223424   4.407   2.905   3.881 -1.1034  0.4873 -0.9163
 3931SOL     OW23425   2.798   0.856   8.112  0.0683  0.4320  0.3258
 3931SOL    HW123426   2.844   0.789   8.062  1.2663 -0.6140  2.8183
 3931SOL    HW223427   2.854   0.858   8.189 -0.4610 -1.6575  0.7553
 3932SOL     OW23428   0.923   0.807   6.206  0.0015 -0.3090 -0.2329
 3932SOL    HW123429   0.986   0.848   6.146 -1.0261  2.0805  0.3068
 3932SOL    HW223430   0.981   0.764   6.269  1.5420  1.0541 -0.7101
 3933SOL     OW23431   2.708   3.106   5.702  0.0352  0.0083 -0.0670
 3933SOL    HW123432   2.759   3.109   5.783  0.8773 -1.4928 -0.5412
 3933SOL    HW223433   2.649   3.180   5.713  0.6960  0.5534 -0.1606
 3934SOL     OW23434   2.509   3.573   1.677  0.6863 -0.0116  0.1598
 3934SOL    HW123435   2.459   3.532   1.748 -0.6285  0.9200 -0.2287
 3934SOL    HW223436   2.568   3.501   1.657 -0.4121 -0.1648 -2.5023
 3935SOL     OW23437   3.102   1.196   0.965  0.0968 -0.5405  0.3623
 3935SOL    HW123438   3.099   1.151   0.880 -3.1069 -0.4310  0.4123
 3935SOL    HW223439   3.045   1.146   1.023  0.6107  0.0346  1.3735
 3936SOL     OW23440   0.012   3.294  13.736 -0.4914  0.2436 -0.4535
 3936SOL    HW123441   4.694   3.215  13.712  0.9863 -0.0362 -2.6133
 3936SOL    HW223442   0.076   3.302  13.666 -0.9452  2.0744 -0.6513
 3937SOL     OW23443   0.185   0.163   7.421  0.6286 -0.2489  0.4270
 3937SOL    HW123444   0.091   0.182   7.423  0.6842  0.0396  0.3388
 3937SOL    HW223445   0.171   0.069   7.426  0.9394 -0.2094  2.0688
 3938SOL     OW23446   1.788   2.563   7.301  0.4773  0.6784 -0.0596
 3938SOL    HW123447   1.771   2.541   7.210 -1.0210  0.1712  0.3473
 3938SOL    HW223448   1.711   2.618   7.320  0.8009  0.0839  3.0308
 3939SOL     OW23449   1.998   0.555  13.102  0.5785 -0.5168 -0.1990
 3939SOL    HW123450   2.056   0.553  13.026  1.1645  1.4035  0.2129
 3939SOL    HW223451   1.992   0.650  13.111 -1.4839 -0.6234 -0.3422
 3940SOL     OW23452   1.303   0.028   7.241  0.6946  0.1268 -0.1011
 3940SOL    HW123453   1.354   4.688   7.205 -2.6490 -1.9379 -0.7021
 3940SOL    HW223454   1.233   0.029   7.176 -0.1710 -0.1783  0.8356
 3941SOL     OW23455   4.430   1.107   5.005 -0.1891  0.3219  0.5487
 3941SOL    HW123456   4.479   1.176   5.050 -0.0449  0.5719  0.0017
 3941SOL    HW223457   4.503   1.045   4.994  0.4022  0.9490  0.9284
 3942SOL     OW23458   0.460   0.386   9.282  0.0060  0.3491  0.1673
 3942SOL    HW123459   0.532   0.437   9.318  1.2953 -0.0784 -1.8156
 3942SOL    HW223460   0.403   0.356   9.353 -1.7377 -1.9176 -2.1303
 3943SOL     OW23461   1.214   1.422   0.612  0.4439 -0.0180 -0.0189
 3943SOL    HW123462   1.122   1.403   0.594  0.4098  0.1671 -0.0348
 3943SOL    HW223463   1.232   1.392   0.702 -0.2084 -0.0709  0.0903
 3944SOL     OW23464   3.987   0.406  15.897  0.6466  0.9517  0.3635
 3944SOL    HW123465   3.936   0.485  15.915 -1.0361 -0.2507  0.9538
 3944SOL    HW223466   3.995   0.364  15.983 -2.9994  0.8201  0.6344
 3945SOL     OW23467   0.844   2.535   2.271 -0.1126  0.5924 -0.6988
 3945SOL    HW123468   0.874   2.453   2.231 -0.0657  1.8041 -3.1252
 3945SOL    HW223469   0.790   2.571   2.201  0.2112 -0.0747 -1.2902
 3946SOL     OW23470   1.782   0.451  14.328 -0.7337  0.2838  0.0086
 3946SOL    HW123471   1.714   0.402  14.280  0.4685  0.5021 -1.9143
 3946SOL    HW223472   1.819   0.508  14.260  1.0389 -0.8509  0.0339
 3947SOL     OW23473   0.063   2.217   1.666 -0.4653 -0.6875  0.0543
 3947SOL    HW123474   0.072   2.245   1.574 -1.0282 -1.8272 -0.3430
 3947SOL    HW223475   0.154   2.191   1.680  0.1180  0.8137 -0.9217
 3948SOL     OW23476   2.254   4.440   3.343 -0.1183 -0.2090  0.9986
 3948SOL    HW123477   2.268   4.348   3.322  1.9943  0.0375  1.2829
 3948SOL    HW223478   2.344   4.473   3.334 -0.1373 -0.5704 -0.5086
 3949SOL     OW23479   2.739   4.419   9.385 -0.0557  0.2656 -0.4638
 3949SOL    HW123480   2.754   4.511   9.362  1.1345  0.2952  0.4648
 3949SOL    HW223481   2.659   4.413   9.332 -0.1002  0.8735 -0.4687
 3950SOL     OW23482   0.118   4.158  16.414  0.4144 -0.0261 -0.1086
 3950SOL    HW123483   0.138   4.239  16.460  0.4166 -0.0470 -0.0729
 3950SOL    HW223484   0.130   4.179  16.321  1.8419 -0.6180 -0.0649
 3951SOL     OW23485   4.435   1.937   8.786  0.0129  0.4182  0.7731
 3951SOL    HW123486   4.473   2.020   8.760 -0.6700 -0.0080 -1.6519
 3951SOL    HW223487   4.345   1.970   8.790 -0.7882 -1.6892  0.4983
 3952SOL     OW23488   0.764   4.578   7.437  0.7584 -0.1595  0.0793
 3952SOL    HW123489   0.673   4.573   7.408  0.4905 -2.0746  1.2706
 3952SOL    HW223490   0.757   4.565   7.532  1.1653  2.1109  0.4415
 3953SOL     OW23491   1.292   3.151   4.219 -0.0668 -0.0175  0.1938
 3953SOL    HW123492   1.363   3.215   4.228 -0.0451  0.0885 -0.7581
 3953SOL    HW223493   1.246   3.146   4.303  0.1824 -1.1316  0.2672
 3954SOL     OW23494   4.222   0.389   7.597  0.4687  0.4277  0.2761
 3954SOL    HW123495   4.156   0.327   7.567 -0.0556  1.1767 -0.1303
 3954SOL    HW223496   4.164   0.465   7.595  0.8654  0.7235 -0.4396
 3955SOL     OW23497   0.233   1.043  12.271 -0.2365 -0.1499 -0.6318
 3955SOL    HW123498   0.195   1.114  12.219  2.1759 -0.6817 -3.1354
 3955SOL    HW223499   0.325   1.066  12.277 -0.9672  2.4152  0.6699
 3956SOL     OW23500   0.180   2.152  17.642  0.0920 -0.3334 -0.1950
 3956SOL    HW123501   0.147   2.186  17.725  0.3050  0.3815 -0.4050
 3956SOL    HW223502   0.254   2.210  17.624 -1.0094 -0.1900 -4.2329
 3957SOL     OW23503   4.680   1.978   4.237 -0.3626 -0.3393 -0.5219
 3957SOL    HW123504   4.674   1.893   4.194  0.4211 -0.1093 -1.0813
 3957SOL    HW223505   4.586   1.989   4.249 -0.0673  1.2885  0.2516
 3958SOL     OW23506   4.458   2.066   1.619 -0.0077  0.5162 -0.2946
 3958SOL    HW123507   4.395   1.996   1.638  2.7846 -2.4145 -1.7974
 3958SOL    HW223508   4.451   2.122   1.696  2.9036 -0.7143  0.8483
 3959SOL     OW23509   3.212   1.935   8.222  0.1722 -0.2122  0.4576
 3959SOL    HW123510   3.240   1.844   8.210  1.2775  0.1056  0.6070
 3959SOL    HW223511   3.277   1.957   8.288 -0.4705 -1.7131  1.5863
 3960SOL     OW23512   2.609   1.888  16.504  0.2021 -0.5196 -0.0772
 3960SOL    HW123513   2.667   1.962  16.487 -0.7162  0.0562 -0.7310
 3960SOL    HW223514   2.604   1.890  16.599  2.0871  1.5781 -0.0176
 3961SOL     OW23515   1.064   3.314  15.331 -0.3129 -0.4479 -0.3276
 3961SOL    HW123516   0.992   3.326  15.393 -0.6179  0.1302 -0.7935
 3961SOL    HW223517   1.130   3.371  15.370 -0.1939 -2.6998  2.7446
 3962SOL     OW23518   4.274   2.442   2.884 -0.0909 -0.2218 -0.3400
 3962SOL    HW123519   4.356   2.425   2.837 -0.8737  0.5091 -1.9514
 3962SOL    HW223520   4.225   2.361   2.869  1.0797 -0.9832 -0.1032
 3963SOL     OW23521   2.733   4.137  15.667 -0.0522 -0.5016  0.0497
 3963SOL    HW123522   2.705   4.220  15.629 -0.3812 -0.0312  1.3181
 3963SOL    HW223523   2.823   4.129  15.635  0.4170  1.7700  0.8135
 3964SOL     OW23524   1.477   3.802   8.316  0.0907  0.0726 -0.3590
 3964SOL    HW123525   1.410   3.750   8.270  1.0792 -1.3649 -0.1746
 3964SOL    HW223526   1.542   3.811   8.246 -0.0168 -0.1486 -0.4879
 3965SOL     OW23527   3.832   4.031   6.409 -0.3149  0.0406  0.1303
 3965SOL    HW123528   3.766   3.968   6.377  0.4264 -0.0660 -1.1925
 3965SOL    HW223529   3.791   4.075   6.484 -0.7896 -0.9382  0.4502
 3966SOL     OW23530   4.390   2.260   4.751  0.0647  0.5883 -0.9460
 3966SOL    HW123531   4.432   2.299   4.675  1.2471  0.3267 -0.4265
 3966SOL    HW223532   4.351   2.180   4.716  2.8280 -1.0829 -0.1515
 3967SOL     OW23533   2.988   4.137   6.354 -0.6386  0.0020 -0.1003
 3967SOL    HW123534   2.932   4.082   6.299 -1.9091 -1.8657  3.0332
 3967SOL    HW223535   2.933   4.214   6.368  2.8478  1.9383  2.8958
 3968SOL     OW23536   1.553   0.426  12.035 -1.1756 -0.1456 -0.5308
 3968SOL    HW123537   1.631   0.462  11.994 -0.2767 -0.0354  1.2700
 3968SOL    HW223538   1.590   0.361  12.094 -1.4489  1.0634  0.9675
 3969SOL     OW23539   2.145   4.436  16.292  0.1799  0.6189 -0.2013
 3969SOL    HW123540   2.172   4.513  16.242 -0.0243  1.0463  0.3390
 3969SOL    HW223541   2.086   4.408  16.222  0.8491 -0.2206 -0.4240
 3970SOL     OW23542   0.127   1.915   8.323 -0.3802  0.1196 -1.0060
 3970SOL    HW123543   0.214   1.933   8.287 -0.3679  3.9488  0.8978
 3970SOL    HW223544   0.131   1.973   8.400  2.5360  0.1716 -1.1874
 3971SOL     OW23545   0.696   4.724   0.153  0.1667 -0.1477  0.0550
 3971SOL    HW123546   0.693   0.055   0.080  0.8664 -0.8843 -0.6074
 3971SOL    HW223547   0.786   0.013   0.178  0.2046 -1.1391  0.7468
 3972SOL     OW23548   2.681   3.273   7.930  0.2586 -0.0113  0.0900
 3972SOL    HW123549   2.590   3.300   7.940 -0.1483 -1.9901  1.7566
 3972SOL    HW223550   2.679   3.220   7.850  1.3200  1.5450 -0.9749
 3973SOL     OW23551   2.865   4.418   1.785  0.1923 -0.0784 -0.2354
 3973SOL    HW123552   2.831   4.463   1.708  0.8629  1.3105  0.2743
 3973SOL    HW223553   2.930   4.484   1.808  0.8194 -0.0694 -2.0257
 3974SOL     OW23554   2.563   1.480   4.144  0.5131 -0.1942  0.3794
 3974SOL    HW123555   2.498   1.489   4.074 -0.8288 -2.4183  1.3567
 3974SOL    HW223556   2.627   1.422   4.102 -0.9982 -0.8587 -1.0270
 3975SOL     OW23557   3.195   0.400   3.525 -0.1074  0.2193  0.2188
 3975SOL    HW123558   3.179   0.307   3.540 -0.2661 -0.0690 -1.7015
 3975SOL    HW223559   3.186   0.403   3.430  4.3063 -0.9991 -0.2547
 3976SOL     OW23560   0.542   3.738   6.511  0.5265 -0.1500  0.5941
 3976SOL    HW123561   0.583   3.707   6.430 -0.9539 -2.5992  0.7730
 3976SOL    HW223562   0.451   3.746   6.482  0.4911  0.7979  0.9817
 3977SOL     OW23563   2.318   1.174  15.153 -0.6919 -0.0038 -0.3353
 3977SOL    HW123564   2.348   1.104  15.095 -1.9781  0.2451 -1.2982
 3977SOL    HW223565   2.396   1.229  15.162  0.5474 -1.6285 -1.1991
 3978SOL     OW23566   0.505   1.811   8.469  0.3864 -0.0804  0.2415
 3978SOL    HW123567   0.458   1.866   8.406 -1.4513  0.7377  2.3496
 3978SOL    HW223568   0.436   1.767   8.518 -0.1223 -0.5906 -0.9076
 3979SOL     OW23569   3.709   0.420  16.942  0.2298  0.0949  0.1826
 3979SOL    HW123570   3.697   0.446  16.850 -0.0702  0.7110  0.4041
 3979SOL    HW223571   3.625   0.442  16.981 -0.8019 -0.3050 -1.8173
 3980SOL     OW23572   2.752   3.192   9.015 -0.1515  0.2015 -0.3547
 3980SOL    HW123573   2.710   3.250   8.952 -0.7418  1.0858  0.8342
 3980SOL    HW223574   2.827   3.152   8.972 -1.9392 -2.7448 -0.7338
 3981SOL     OW23575   4.330   2.929  17.564 -0.1349 -0.4010 -0.2075
 3981SOL    HW123576   4.411   2.938  17.513 -0.7433  0.5124 -1.0063
 3981SOL    HW223577   4.270   2.977  17.506 -1.3613 -0.6227  0.8854
 3982SOL     OW23578   2.656   1.887   7.407  0.2428  0.4731  0.3275
 3982SOL    HW123579   2.655   1.802   7.363 -0.2737  1.7748 -2.1950
 3982SOL    HW223580   2.748   1.911   7.394  0.8089 -1.8628  0.0154
 3983SOL     OW23581   0.642   3.769   4.337 -0.0108  0.1491  0.1398
 3983SOL    HW123582   0.594   3.818   4.270 -0.9170  0.7125  1.1990
 3983SOL    HW223583   0.625   3.681   4.303 -1.5855 -0.5705  2.7878
 3984SOL     OW23584   2.489   2.737   3.834  0.3941 -0.5281  0.1697
 3984SOL    HW123585   2.443   2.771   3.758  0.5791 -1.2781 -0.2747
 3984SOL    HW223586   2.486   2.647   3.804  2.8160 -0.8286  0.8206
 3985SOL     OW23587   1.076   4.304   6.244  0.1617  0.5025 -0.4458
 3985SOL    HW123588   1.041   4.304   6.333  0.6878  1.7311 -0.2421
 3985SOL    HW223589   1.027   4.228   6.210 -0.5532  0.6024  0.3470
 3986SOL     OW23590   1.839   2.235   8.010 -0.1445  0.0452 -0.0256
 3986SOL    HW123591   1.908   2.177   8.042  0.8359  0.7954 -0.7418
 3986SOL    HW223592   1.892   2.314   7.995 -0.0142  0.1172  0.8376
 3987SOL     OW23593   4.502   2.271  13.210  0.2769 -0.3809  0.2716
 3987SOL    HW123594   4.572   2.305  13.266  0.8792 -1.0371 -0.0719
 3987SOL    HW223595   4.547   2.271  13.126 -3.0002 -0.4825 -1.4581
 3988SOL     OW23596   1.075   0.840   0.349  0.2249 -0.3946 -0.4808
 3988SOL    HW123597   0.988   0.806   0.367 -0.1801  1.6672  1.4981
 3988SOL    HW223598   1.125   0.761   0.366  0.9689 -0.3881 -2.6799
 3989SOL     OW23599   0.730   1.239   9.539  0.3590 -0.2000 -0.5729
 3989SOL    HW123600   0.690   1.326   9.529  0.8113  0.1919  0.9584
 3989SOL    HW223601   0.711   1.193   9.458 -3.8897  1.6747 -0.6645
 3990SOL     OW23602   4.522   3.630   8.777  0.2533 -0.9020 -0.5603
 3990SOL    HW123603   4.427   3.630   8.781  0.2403 -0.3268 -0.9187
 3990SOL    HW223604   4.534   3.680   8.696  0.3029 -0.7761 -0.4744
 3991SOL     OW23605   0.023   1.493   6.372 -0.1029 -0.0168 -0.2587
 3991SOL    HW123606   0.050   1.408   6.407 -0.6222 -0.4427 -0.8920
 3991SOL    HW223607   0.108   1.516   6.335 -0.1342  1.7268  0.7521
 3992SOL     OW23608   4.639   4.514   5.255 -0.3035 -0.1035  0.0332
 3992SOL    HW123609   4.573   4.506   5.323 -1.9421 -0.5425 -1.6047
 3992SOL    HW223610   4.622   4.602   5.220  1.6962 -0.2723 -1.3753
 3993SOL     OW23611   2.653   1.205  16.530 -0.2095 -0.2223 -0.1961
 3993SOL    HW123612   2.586   1.152  16.487 -0.7763  0.1892  0.1693
 3993SOL    HW223613   2.720   1.228  16.465 -0.2067  0.0295 -0.1055
 3994SOL     OW23614   0.485   0.454   7.558  0.3085 -0.2977  0.2953
 3994SOL    HW123615   0.488   0.378   7.501  0.4919  0.9184 -1.3101
 3994SOL    HW223616   0.499   0.525   7.495 -1.5605 -1.4321 -1.3641
 3995SOL     OW23617   1.021   3.484   8.977 -0.0488 -0.7023  0.6796
 3995SOL    HW123618   1.022   3.403   9.028  0.9701  0.1452  2.0193
 3995SOL    HW223619   1.112   3.497   8.950 -0.4122 -0.2221 -0.3372
 3996SOL     OW23620   3.171   1.198   1.561 -0.1549  0.1121 -0.4446
 3996SOL    HW123621   3.214   1.208   1.646 -2.7797 -0.2316  0.9503
 3996SOL    HW223622   3.093   1.150   1.591  0.9208  0.4895  2.9339
 3997SOL     OW23623   3.061   1.989   2.820  0.4765  0.5065 -0.2437
 3997SOL    HW123624   3.125   2.025   2.759  1.2968 -2.8850 -1.3383
 3997SOL    HW223625   3.000   2.061   2.803  0.1040  0.1189 -0.5477
 3998SOL     OW23626   0.145   0.357  16.702  0.4389 -0.2183 -0.2679
 3998SOL    HW123627   0.141   0.263  16.719 -2.3362 -0.0677 -0.1262
 3998SOL    HW223628   0.231   0.381  16.737  0.0075 -1.9275  1.9287
 3999SOL     OW23629   4.609   1.102   7.419 -0.3091 -0.1398 -0.1815
 3999SOL    HW123630   4.686   1.046   7.415 -0.7525 -0.8909  2.1190
 3999SOL    HW223631   4.538   1.039   7.421 -2.4386  2.2776  0.2153
 4000SOL     OW23632   4.468   3.713   7.509 -0.4437 -0.0889  0.2546
 4000SOL    HW123633   4.390   3.745   7.555 -0.3410  0.2072  0.2244
 4000SOL    HW223634   4.527   3.788   7.502 -0.5889  0.0304  0.3032
 4001SOL     OW23635   0.968   0.152   4.591  0.0622 -0.1421  0.6607
 4001SOL    HW123636   0.962   0.099   4.670  2.5459 -0.6776  0.5108
 4001SOL    HW223637   0.901   0.111   4.538  0.1616  0.9872 -0.3406
 4002SOL     OW23638   4.044   1.568   9.224 -1.2618 -0.4078  0.3796
 4002SOL    HW123639   4.068   1.526   9.142  1.9067 -0.4561  1.3531
 4002SOL    HW223640   3.951   1.545   9.233 -1.3830 -0.5431 -1.3851
 4003SOL     OW23641   0.528   0.859   8.763 -0.1201  0.1997 -0.7123
 4003SOL    HW123642   0.454   0.885   8.708 -0.4416 -0.6737 -0.6917
 4003SOL    HW223643   0.530   0.764   8.747  2.6920  0.2570 -0.6050
 4004SOL     OW23644   3.118   4.425   9.084 -0.4690 -0.1680  0.3681
 4004SOL    HW123645   3.120   4.369   9.006  0.7104 -0.4537  0.6043
 4004SOL    HW223646   3.173   4.376   9.145 -2.3944 -1.4310  1.1169
 4005SOL     OW23647   4.223   1.080  13.188  0.4327 -0.5692  0.0851
 4005SOL    HW123648   4.224   1.035  13.273  2.6816  0.2731  0.5049
 4005SOL    HW223649   4.295   1.043  13.138 -0.6354 -2.4905  0.0050
 4006SOL     OW23650   0.478   0.859   6.387 -0.0937 -0.5503 -0.0126
 4006SOL    HW123651   0.523   0.855   6.303  0.5445 -1.1652  0.3560
 4006SOL    HW223652   0.402   0.915   6.373  0.4703  0.1691 -0.2081
 4007SOL     OW23653   0.344   1.083  17.485  0.0001 -0.1198  0.1807
 4007SOL    HW123654   0.309   1.046  17.404  0.7760  1.4954 -0.8819
 4007SOL    HW223655   0.369   1.002  17.529 -0.3443 -0.4086 -0.1510
 4008SOL     OW23656   4.439   0.782  13.833  0.4591 -0.2851 -0.2173
 4008SOL    HW123657   4.358   0.822  13.864  0.8980  1.0367 -0.8008
 4008SOL    HW223658   4.502   0.840  13.875 -1.3550 -0.1244  2.3142
 4009SOL     OW23659   2.485   0.422   7.155 -0.1812  0.0436 -0.2282
 4009SOL    HW123660   2.391   0.441   7.150  0.0598  1.3110 -0.0515
 4009SOL    HW223661   2.497   0.336   7.114  0.9560  0.9779 -1.8416
 4010SOL     OW23662   1.583   2.044  16.471  0.2470  0.1301 -0.1516
 4010SOL    HW123663   1.656   2.049  16.409  1.8103 -0.9390  1.6147
 4010SOL    HW223664   1.618   2.065  16.557 -0.7600  2.5145 -0.3226
 4011SOL     OW23665   1.922   2.595   4.916  0.2239 -0.3868  0.5125
 4011SOL    HW123666   1.883   2.652   4.851  0.0276 -1.1276 -0.0186
 4011SOL    HW223667   1.847   2.583   4.975  0.7346 -0.6178  1.1211
 4012SOL     OW23668   1.438   2.045  12.742 -0.5091 -0.0923  0.0321
 4012SOL    HW123669   1.485   2.004  12.815 -0.6139 -0.7167 -0.2436
 4012SOL    HW223670   1.491   2.027  12.664  1.2894  1.6538  0.8614
 4013SOL     OW23671   3.375   4.347   9.629 -0.0410  0.4317  0.3569
 4013SOL    HW123672   3.298   4.327   9.575  1.1005  2.3827 -1.9860
 4013SOL    HW223673   3.436   4.380   9.563 -0.7674 -0.9279 -0.9968
 4014SOL     OW23674   2.318   0.014   2.902  0.4079 -0.2231  0.1006
 4014SOL    HW123675   2.304   0.013   2.808  0.3079 -0.9391  0.1279
 4014SOL    HW223676   2.410   4.723   2.894  0.7777  0.9016  0.9599
 4015SOL     OW23677   0.786   4.228   1.195  0.3658 -0.0822 -0.4669
 4015SOL    HW123678   0.745   4.290   1.256  0.0760 -0.4430 -0.2940
 4015SOL    HW223679   0.810   4.158   1.256  0.2163 -0.5424 -0.9355
 4016SOL     OW23680   3.434   3.850   4.232  0.4352  0.1843 -0.2893
 4016SOL    HW123681   3.389   3.768   4.253  1.8598 -0.3221  0.7722
 4016SOL    HW223682   3.442   3.838   4.137 -1.6191 -0.1709 -0.4068
 4017SOL     OW23683   2.849   2.333   8.061 -0.1779 -0.7199 -0.0992
 4017SOL    HW123684   2.835   2.364   8.150  0.1613  1.2675 -0.7509
 4017SOL    HW223685   2.920   2.269   8.065 -1.2500 -1.8712  0.9202
 4018SOL     OW23686   2.022   0.681   9.538  0.2547  0.0294  0.1056
 4018SOL    HW123687   2.082   0.754   9.550  0.0061  1.0185 -4.6019
 4018SOL    HW223688   1.958   0.699   9.606  0.3453  4.2245 -0.9349
 4019SOL     OW23689   3.772   2.401   5.123  0.1010 -0.5889 -0.2825
 4019SOL    HW123690   3.818   2.462   5.065 -2.0359 -0.7414 -2.1744
 4019SOL    HW223691   3.845   2.390   5.183  0.0246  1.0355  0.1170
 4020SOL     OW23692   1.462   4.383   3.214 -0.1112  0.1905  0.2785
 4020SOL    HW123693   1.530   4.321   3.241  0.3997  1.0494  0.9480
 4020SOL    HW223694   1.463   4.387   3.118  0.3161 -1.7923  0.1884
 4021SOL     OW23695   3.964   3.487   5.310  0.0565 -0.0568 -1.1608
 4021SOL    HW123696   4.002   3.573   5.293 -0.6633  0.3140 -0.8849
 4021SOL    HW223697   3.875   3.515   5.327  1.1179  2.3537  0.4332
 4022SOL     OW23698   4.031   3.330   9.847  0.2855 -0.1605  0.9006
 4022SOL    HW123699   4.107   3.330   9.905  1.5330 -1.1835 -0.7587
 4022SOL    HW223700   4.058   3.278   9.772 -2.3016  0.2404 -0.2969
 4023SOL     OW23701   1.421   4.116   4.682 -0.6825  0.0613 -0.0288
 4023SOL    HW123702   1.499   4.146   4.636 -0.1803 -0.9362  0.1647
 4023SOL    HW223703   1.349   4.162   4.640 -2.3130 -0.1179  2.5264
 4024SOL     OW23704   4.541   4.007   9.359 -0.3858 -0.3776  0.1971
 4024SOL    HW123705   4.577   4.086   9.316 -1.9953 -2.1295 -4.3976
 4024SOL    HW223706   4.551   3.932   9.300  2.0350 -1.0109  1.4215
 4025SOL     OW23707   2.444   0.498   6.028  0.3120 -0.1758 -0.9700
 4025SOL    HW123708   2.528   0.542   6.036  0.7891 -1.4281  0.9717
 4025SOL    HW223709   2.467   0.439   5.957  1.9283 -0.3416 -0.3083
 4026SOL     OW23710   3.286   4.409   7.564 -0.0917 -0.4405  0.1485
 4026SOL    HW123711   3.251   4.442   7.482  1.2970 -0.7389 -0.5654
 4026SOL    HW223712   3.265   4.315   7.561 -0.4022 -0.4042  1.0142
 4027SOL     OW23713   4.298   4.020   9.166 -0.0205  0.0670 -0.0490
 4027SOL    HW123714   4.266   4.005   9.077  4.4449  2.2908 -1.9875
 4027SOL    HW223715   4.254   3.945   9.208  2.0787  0.1154  2.2115
 4028SOL     OW23716   1.271   2.050   1.636 -0.0816  0.0057  0.1360
 4028SOL    HW123717   1.330   2.030   1.563 -0.4159  0.1538 -0.1747
 4028SOL    HW223718   1.294   1.990   1.706 -0.3678  1.7691  1.7511
 4029SOL     OW23719   0.590   3.076   7.768  0.5923  0.0891 -0.0061
 4029SOL    HW123720   0.561   3.162   7.800  0.2344  0.1185 -0.4108
 4029SOL    HW223721   0.553   3.080   7.679 -0.0629 -0.7660  0.2314
 4030SOL     OW23722   1.109   0.673   1.808  0.4390 -0.4677 -0.2343
 4030SOL    HW123723   1.021   0.710   1.808 -0.1104 -1.7765 -1.5517
 4030SOL    HW223724   1.124   0.675   1.902 -1.2460  0.2426  0.0256
 4031SOL     OW23725   3.325   2.451  14.331 -0.4741  0.3672  0.1632
 4031SOL    HW123726   3.403   2.409  14.366 -1.6919 -2.6583 -0.7696
 4031SOL    HW223727   3.257   2.451  14.399  0.1904 -1.4671  0.8156
 4032SOL     OW23728   4.230   3.786   5.814 -0.1074  0.4129  0.0223
 4032SOL    HW123729   4.306   3.796   5.756  0.0215  1.4821  0.3707
 4032SOL    HW223730   4.273   3.802   5.899  1.7016  2.7562 -1.3006
 4033SOL     OW23731   0.463   1.053   2.844 -0.2106  0.4910  0.3779
 4033SOL    HW123732   0.501   1.137   2.870  0.0033  0.5198 -0.0309
 4033SOL    HW223733   0.452   1.067   2.751  0.4286 -1.1568  0.0479
 4034SOL     OW23734   0.968   0.450  15.032  0.3197 -1.0209  0.5705
 4034SOL    HW123735   0.968   0.513  14.959 -0.2253 -2.3941 -0.6118
 4034SOL    HW223736   1.027   0.389  14.988 -0.1365 -1.9174  1.2178
 4035SOL     OW23737   1.380   0.911  16.838  0.2758  0.4123  0.3721
 4035SOL    HW123738   1.441   0.877  16.773 -1.0905 -2.0801  0.4172
 4035SOL    HW223739   1.418   0.997  16.856 -0.4209  0.4585  1.6094
 4036SOL     OW23740   2.846   1.764   4.954 -0.2671 -0.4786  0.0167
 4036SOL    HW123741   2.910   1.742   4.887 -0.2682 -1.9657  0.5007
 4036SOL    HW223742   2.781   1.811   4.902 -0.8963 -1.6974 -0.2876
 4037SOL     OW23743   2.156   4.200   3.604  0.5114 -0.1383 -0.2709
 4037SOL    HW123744   2.219   4.260   3.644  0.0405  0.2833 -0.1764
 4037SOL    HW223745   2.210   4.121   3.612 -0.1301 -0.6516 -0.9524
 4038SOL     OW23746   3.713   0.369   9.411  0.2904  0.3180  1.1703
 4038SOL    HW123747   3.777   0.434   9.439  0.8994 -0.2373  1.0607
 4038SOL    HW223748   3.773   0.304   9.374  0.6195  1.8301 -1.0130
 4039SOL     OW23749   3.711   4.351  13.843 -0.0619 -0.7018  0.5001
 4039SOL    HW123750   3.723   4.280  13.781  1.9690  2.1563 -2.3600
 4039SOL    HW223751   3.804   4.371  13.854  0.4782 -2.5840 -0.7063
 4040SOL     OW23752   3.957   1.654   3.376 -0.6759  0.0109 -0.2314
 4040SOL    HW123753   4.000   1.729   3.335 -1.8362 -0.3452 -2.0972
 4040SOL    HW223754   3.907   1.695   3.446 -1.0089 -1.1020  0.1705
 4041SOL     OW23755   4.711   3.006  13.605  0.7631 -0.4746 -0.2540
 4041SOL    HW123756   4.714   2.930  13.663  1.8371  0.2605  0.6705
 4041SOL    HW223757   0.069   2.991  13.576  0.1671 -2.0679 -1.2693
 4042SOL     OW23758   0.046   0.598  16.775 -0.1797 -0.0289  0.3901
 4042SOL    HW123759   0.040   0.635  16.687  1.0051 -0.5198  0.0966
 4042SOL    HW223760   0.042   0.507  16.745  0.6959  0.2857 -0.6551
 4043SOL     OW23761   1.691   4.410   5.540  0.0972 -0.3655  0.1281
 4043SOL    HW123762   1.772   4.443   5.499 -0.9228  0.3852 -1.2687
 4043SOL    HW223763   1.721   4.396   5.630  1.6472  1.8252 -0.0413
 4044SOL     OW23764   4.520   2.403   4.453  0.0850 -0.6117  0.0061
 4044SOL    HW123765   4.437   2.451   4.455  0.6007  0.3039 -0.4616
 4044SOL    HW223766   4.515   2.344   4.378  0.2143 -0.6797  0.0499
 4045SOL     OW23767   2.610   2.700   0.430 -0.0724 -0.3679  0.1681
 4045SOL    HW123768   2.628   2.736   0.344  0.1124 -0.6183  0.1007
 4045SOL    HW223769   2.532   2.647   0.412 -0.8879  0.7451  0.3961
 4046SOL     OW23770   2.333   0.663   4.828 -0.1209  0.6027  0.1031
 4046SOL    HW123771   2.425   0.667   4.855  0.2973 -0.0563 -1.2669
 4046SOL    HW223772   2.324   0.576   4.790 -0.3836  1.0560 -0.8767
 4047SOL     OW23773   3.734   3.879   8.286  0.2570  0.5799  0.0188
 4047SOL    HW123774   3.813   3.826   8.300 -0.8894 -1.2529 -0.5288
 4047SOL    HW223775   3.725   3.894   8.192 -1.4993  1.3016  0.2964
 4048SOL     OW23776   1.712   1.577  15.479 -0.1602 -0.4780 -0.1544
 4048SOL    HW123777   1.620   1.557  15.462 -0.7851  1.5172  0.8142
 4048SOL    HW223778   1.738   1.485  15.476 -0.2926 -0.5470  1.1369
 4049SOL     OW23779   4.384   1.140   5.317  0.3251  0.3982 -0.3661
 4049SOL    HW123780   4.467   1.093   5.319  0.4309  0.5616 -0.9828
 4049SOL    HW223781   4.353   1.114   5.230 -0.9950 -0.2963  0.3019
 4050SOL     OW23782   2.121   4.654   5.483 -0.1725  0.0696 -0.0087
 4050SOL    HW123783   2.173   4.716   5.431 -0.9701 -0.6790 -1.7142
 4050SOL    HW223784   2.195   4.618   5.532 -1.8607  1.1058  3.3018
 4051SOL     OW23785   2.899   2.478  11.964  0.0212  0.2640 -0.5271
 4051SOL    HW123786   2.865   2.567  11.953  0.1955  0.5223  1.1213
 4051SOL    HW223787   2.847   2.436  11.895 -1.2110 -0.8408  1.1045
 4052SOL     OW23788   3.692   4.668   9.695  0.2717  0.5701 -0.1828
 4052SOL    HW123789   3.670   4.588   9.647  0.7242 -0.1660  0.8265
 4052SOL    HW223790   3.639   4.655   9.773 -1.6659  1.5268 -1.3536
 4053SOL     OW23791   0.039   1.063   5.930  0.0605  0.8516 -0.3858
 4053SOL    HW123792   0.096   1.026   5.863 -2.4115  0.2993 -2.1504
 4053SOL    HW223793   4.690   1.051   5.882  0.6785 -0.2369 -1.1621
 4054SOL     OW23794   2.359   1.219   6.408 -0.3381 -0.6497  0.1012
 4054SOL    HW123795   2.400   1.206   6.322 -1.9243  0.4474 -0.8163
 4054SOL    HW223796   2.426   1.172   6.458  0.3788  0.6814  0.3754
 4055SOL     OW23797   0.801   2.001   4.374 -0.1924 -0.0853 -0.3417
 4055SOL    HW123798   0.786   2.075   4.315  0.8407  0.4131  0.0134
 4055SOL    HW223799   0.721   2.011   4.427  1.4012  3.0147  1.4715
 4056SOL     OW23800   1.842   3.112   9.780 -0.1965 -0.2357  0.4996
 4056SOL    HW123801   1.932   3.112   9.812 -0.1368  2.2237  0.3682
 4056SOL    HW223802   1.861   3.095   9.687 -0.5544 -3.7032  1.0764
 4057SOL     OW23803   1.745   1.603   5.669 -0.0632 -0.0243 -0.2177
 4057SOL    HW123804   1.787   1.518   5.678 -0.2682 -0.1877 -0.8247
 4057SOL    HW223805   1.816   1.665   5.657  1.1153 -0.9136  2.0444
 4058SOL     OW23806   0.421   0.385  12.943  0.0710 -0.1071  0.2242
 4058SOL    HW123807   0.393   0.430  12.863  2.4070  1.5660  0.3468
 4058SOL    HW223808   0.503   0.432  12.962  0.7665 -1.9569  1.7913
 4059SOL     OW23809   2.239   2.214  10.776  0.1718  0.3902  0.0370
 4059SOL    HW123810   2.273   2.267  10.704  1.3193 -0.9484 -0.4040
 4059SOL    HW223811   2.171   2.276  10.804  0.6867  0.9643  0.0162
 4060SOL     OW23812   3.672   0.293   5.710  0.6738  0.0682  0.0792
 4060SOL    HW123813   3.660   0.369   5.767  0.8095 -0.7934  1.2415
 4060SOL    HW223814   3.731   0.327   5.643 -0.7916  1.1128 -0.6945
 4061SOL     OW23815   0.416   1.119   1.562  0.2497 -0.2861 -0.1502
 4061SOL    HW123816   0.339   1.129   1.618 -1.3708 -0.6196 -2.2943
 4061SOL    HW223817   0.453   1.207   1.572  0.9966 -0.6490  0.2120
 4062SOL     OW23818   0.706   3.164  15.091 -0.1238 -0.0939 -0.3446
 4062SOL    HW123819   0.762   3.234  15.060  0.7882 -0.3861  0.6524
 4062SOL    HW223820   0.683   3.119  15.009 -0.9620 -3.7050  1.8257
 4063SOL     OW23821   4.097   2.677  13.559 -0.4864  0.9299  0.1392
 4063SOL    HW123822   4.103   2.583  13.539 -1.6714  0.3582  2.4402
 4063SOL    HW223823   4.186   2.685  13.593 -0.5884 -2.9871  1.3099
 4064SOL     OW23824   2.060   3.524   3.912 -0.3807  0.4820  0.2083
 4064SOL    HW123825   2.070   3.585   3.986  0.6988 -0.6579  0.9834
 4064SOL    HW223826   2.153   3.502   3.909 -0.8638 -1.4869 -0.1171
 4065SOL     OW23827   3.110   2.542  12.821  0.0234 -0.3108 -0.4018
 4065SOL    HW123828   3.072   2.625  12.850 -0.0662  0.2089 -2.0217
 4065SOL    HW223829   3.145   2.511  12.904  1.2212  0.4969 -0.6045
 4066SOL     OW23830   2.113   2.394   3.403 -0.5201 -0.2727  0.1883
 4066SOL    HW123831   2.122   2.309   3.447  0.0111 -1.3448 -1.9976
 4066SOL    HW223832   2.116   2.370   3.310 -0.5814 -0.0107  0.1206
 4067SOL     OW23833   0.233   2.727   7.851  0.2304 -0.5368 -0.3776
 4067SOL    HW123834   0.259   2.762   7.765  1.9094 -0.5091  0.1472
 4067SOL    HW223835   0.311   2.739   7.906 -0.6450  1.5987  0.3831
 4068SOL     OW23836   0.331   1.313   9.146 -0.1554  0.3507 -0.5821
 4068SOL    HW123837   0.277   1.236   9.128  1.6543 -0.7542 -1.2548
 4068SOL    HW223838   0.410   1.280   9.103  0.1909  3.4535 -2.3675
 4069SOL     OW23839   2.159   4.296  13.107  0.1911 -0.1799 -0.0873
 4069SOL    HW123840   2.179   4.291  13.201 -1.8367 -1.4702  0.2828
 4069SOL    HW223841   2.232   4.347  13.074  0.3900 -1.2002 -1.2454
 4070SOL     OW23842   0.861   2.757   1.862  0.3127 -0.7728  0.0281
 4070SOL    HW123843   0.943   2.747   1.911 -1.0298 -0.7220  2.3156
 4070SOL    HW223844   0.892   2.797   1.781 -0.7128  0.9647  0.4876
 4071SOL     OW23845   1.187   2.176  17.303 -0.5162  0.2198 -0.2108
 4071SOL    HW123846   1.255   2.193  17.239 -0.0674  0.8493  0.4254
 4071SOL    HW223847   1.126   2.245  17.275  1.7347  2.8598  1.3049
 4072SOL     OW23848   3.168   0.983  15.965 -0.1519 -0.0197  0.1933
 4072SOL    HW123849   3.157   1.077  15.948 -3.5580 -0.3469  0.4967
 4072SOL    HW223850   3.205   0.960  15.880  1.7179 -0.4318  1.1317
 4073SOL     OW23851   1.000   2.613   5.188 -0.3644 -0.5728  0.2817
 4073SOL    HW123852   1.071   2.634   5.249 -2.2781  1.6724  1.7347
 4073SOL    HW223853   1.054   2.596   5.111  0.9281  2.0968  0.6001
 4074SOL     OW23854   2.141   0.901   6.467 -0.0275  0.2171 -0.7124
 4074SOL    HW123855   2.198   0.851   6.525 -0.9061 -0.9346 -0.8471
 4074SOL    HW223856   2.127   0.977   6.524  1.7545 -1.1534  1.5354
 4075SOL     OW23857   1.901   0.216   7.025  0.3806 -0.0581 -0.4372
 4075SOL    HW123858   1.861   0.131   7.045 -0.7581  0.8009  0.9789
 4075SOL    HW223859   1.991   0.183   7.026  0.1143 -0.8086 -2.0412
 4076SOL     OW23860   0.943   0.410   4.020  0.5899 -0.2681 -0.0440
 4076SOL    HW123861   0.898   0.338   4.064 -1.0129  0.4684 -0.4769
 4076SOL    HW223862   0.942   0.482   4.083 -1.5356 -0.2368 -0.1029
 4077SOL     OW23863   0.313   0.485   0.864  0.0536  0.5544  0.3768
 4077SOL    HW123864   0.340   0.523   0.780 -0.5746  0.4973  0.1457
 4077SOL    HW223865   0.244   0.434   0.821  1.8247 -1.1439 -0.4294
 4078SOL     OW23866   1.145   1.923  14.147 -0.6828  0.2667 -0.0794
 4078SOL    HW123867   1.232   1.895  14.174 -0.1135  0.9053 -1.2831
 4078SOL    HW223868   1.154   1.983  14.073 -0.5523  0.3887  0.0376
 4079SOL     OW23869   0.297   0.904   1.213  0.1818 -0.1424  0.0927
 4079SOL    HW123870   0.240   0.859   1.276  1.0532 -0.5597  0.5772
 4079SOL    HW223871   0.234   0.946   1.154  0.8326 -1.7068 -1.7055
 4080SOL     OW23872   2.065   2.770  14.074 -0.5827 -0.6981  0.1669
 4080SOL    HW123873   2.055   2.675  14.065 -0.4363 -0.6742 -0.2367
 4080SOL    HW223874   2.147   2.785  14.026 -0.0369 -2.7915  0.4340
 4081SOL     OW23875   1.914   1.687   6.142  0.2577 -0.3874 -0.2354
 4081SOL    HW123876   1.901   1.598   6.108  1.3277 -0.3503 -0.7551
 4081SOL    HW223877   1.937   1.664   6.232 -3.2778 -0.6923  0.5926
 4082SOL     OW23878   1.668   1.576  17.012  0.4753  0.5323 -0.5595
 4082SOL    HW123879   1.641   1.655  16.966 -1.6103  2.0523  3.2534
 4082SOL    HW223880   1.619   1.586  17.094  0.8902 -1.2764 -0.0923
 4083SOL     OW23881   2.260   1.241  14.794  0.1117 -0.0640  0.3279
 4083SOL    HW123882   2.203   1.240  14.717  1.8476  1.8677 -0.9858
 4083SOL    HW223883   2.200   1.286  14.853  0.1180 -0.0093  0.2926
 4084SOL     OW23884   2.619   1.210   8.246 -0.8406  0.2846  0.2058
 4084SOL    HW123885   2.539   1.257   8.270  0.0830  3.0040 -1.9659
 4084SOL    HW223886   2.646   1.170   8.329  2.8314 -0.6767 -1.4381
 4085SOL     OW23887   1.035   1.303   9.527  0.0894  0.0953 -0.5038
 4085SOL    HW123888   0.957   1.248   9.537  0.5666 -0.7252 -1.2675
 4085SOL    HW223889   1.053   1.325   9.618 -1.7799  0.0638 -0.1331
 4086SOL     OW23890   0.563   1.812   2.524  0.5155 -0.3915 -0.1557
 4086SOL    HW123891   0.627   1.746   2.495  0.7987 -0.2527  0.1588
 4086SOL    HW223892   0.589   1.824   2.615 -1.7653 -0.5845  0.4969
 4087SOL     OW23893   0.018   1.152   0.633  0.2585 -0.5951  0.2334
 4087SOL    HW123894   0.104   1.183   0.604 -0.9181  2.4368  0.0699
 4087SOL    HW223895   0.034   1.057   0.637 -2.0735 -0.9808  0.3156
 4088SOL     OW23896   2.119   1.755   9.677  0.7840 -0.2686  0.1121
 4088SOL    HW123897   2.203   1.776   9.718 -0.4519 -0.2742  2.6378
 4088SOL    HW223898   2.118   1.813   9.601 -1.2495  0.0673  0.4067
 4089SOL     OW23899   4.240   3.224   2.584 -0.3440  0.3558  0.8132
 4089SOL    HW123900   4.206   3.260   2.502  2.5979 -1.6457 -1.2635
 4089SOL    HW223901   4.198   3.284   2.646 -2.0810 -0.0116  0.0039
 4090SOL     OW23902   4.203   3.219  12.026 -0.0029 -0.1512  0.6446
 4090SOL    HW123903   4.241   3.283  12.086 -0.9919 -1.4669  2.6863
 4090SOL    HW223904   4.243   3.136  12.054  1.1980 -0.7547 -2.8955
 4091SOL     OW23905   4.583   4.270   4.302  0.5079 -0.0788 -0.8280
 4091SOL    HW123906   4.583   4.234   4.213 -3.0779 -0.2703 -0.7370
 4091SOL    HW223907   4.581   4.193   4.358  0.1803  1.3721  1.1845
 4092SOL     OW23908   1.372   4.530   3.430 -0.4311  0.1399 -0.1013
 4092SOL    HW123909   1.384   4.476   3.351  0.6353  1.0578 -0.5579
 4092SOL    HW223910   1.306   4.596   3.407  0.6823  1.1736 -0.3040
 4093SOL     OW23911   0.417   1.636   6.633  0.5512 -0.3178  0.4372
 4093SOL    HW123912   0.399   1.550   6.671  1.3565 -0.3810  0.6860
 4093SOL    HW223913   0.417   1.690   6.712 -4.0103  2.5185 -1.4994
 4094SOL     OW23914   2.520   3.412  15.782 -0.4254 -0.0042  0.8454
 4094SOL    HW123915   2.564   3.470  15.844 -0.8324 -0.6673  1.7598
 4094SOL    HW223916   2.563   3.427  15.697  2.5009  0.5392  2.4052
 4095SOL     OW23917   1.551   0.630   1.197  0.3589  0.6113 -0.0510
 4095SOL    HW123918   1.459   0.620   1.172  0.4214  0.9304 -0.4020
 4095SOL    HW223919   1.570   0.541   1.225  2.1215 -0.4486 -4.7769
 4096SOL     OW23920   4.568   3.724   8.284  0.1262 -0.1845 -0.1672
 4096SOL    HW123921   4.624   3.801   8.278  0.2833 -0.4056 -1.5236
 4096SOL    HW223922   4.550   3.697   8.194  1.2072  0.4726 -0.5745
 4097SOL     OW23923   1.237   2.589   8.195  0.1336  0.2646 -0.4016
 4097SOL    HW123924   1.182   2.511   8.201 -0.1672  0.4903 -0.2414
 4097SOL    HW223925   1.182   2.638   8.133 -0.8142  2.4367  2.1500
 4098SOL     OW23926   4.311   3.363  12.224  0.0688 -0.8018 -0.2031
 4098SOL    HW123927   4.305   3.391  12.315 -1.3702  3.0173 -1.4727
 4098SOL    HW223928   4.349   3.440  12.181 -1.0213  0.0701  0.4113
 4099SOL     OW23929   4.397   0.853   4.089 -0.1473 -0.6078  0.2892
 4099SOL    HW123930   4.490   0.870   4.076  0.1385 -0.7675  2.0923
 4099SOL    HW223931   4.366   0.854   3.999  0.6249 -0.4669  0.0238
 4100SOL     OW23932   4.050   0.521  12.770 -0.1778  0.1094  0.4457
 4100SOL    HW123933   4.042   0.597  12.827  2.6015 -1.2698  2.6388
 4100SOL    HW223934   4.045   0.561  12.683 -1.4127  1.0578  0.9421
 4101SOL     OW23935   0.829   1.330   6.082  0.1507 -0.9237  0.0711
 4101SOL    HW123936   0.804   1.287   6.164 -1.4251  0.1467  0.1502
 4101SOL    HW223937   0.895   1.269   6.049  0.6359  0.2933 -1.1904
 4102SOL     OW23938   0.395   0.481  12.704 -0.1630  0.8342  0.7559
 4102SOL    HW123939   0.350   0.456  12.623  1.0872  1.2457 -0.0671
 4102SOL    HW223940   0.450   0.550  12.665  2.5082 -0.7387  1.7367
 4103SOL     OW23941   1.597   3.195   8.081  0.3488 -0.4447  0.2761
 4103SOL    HW123942   1.595   3.102   8.102  0.2380 -0.3943  0.4874
 4103SOL    HW223943   1.508   3.227   8.092  0.6510  0.6040 -0.3713
 4104SOL     OW23944   0.077   0.291  17.658  0.7869  0.2684 -0.0697
 4104SOL    HW123945   0.005   0.237  17.692 -0.3315  1.0892 -1.1456
 4104SOL    HW223946   0.038   0.354  17.597  0.0239 -0.4341 -0.3095
 4105SOL     OW23947   2.585   4.633  13.540 -0.6441  0.5941  0.2466
 4105SOL    HW123948   2.597   4.564  13.475 -0.3486  1.9734 -1.1691
 4105SOL    HW223949   2.678   4.648  13.556 -0.4143  1.1349 -1.6073
 4106SOL     OW23950   0.163   0.844   4.346  0.2536  0.2354 -0.0700
 4106SOL    HW123951   0.109   0.794   4.284 -0.2258  0.6812 -0.0118
 4106SOL    HW223952   0.191   0.775   4.406 -0.0320 -0.1531 -0.3781
 4107SOL     OW23953   2.625   0.478   3.548  0.0275  0.0077  0.0972
 4107SOL    HW123954   2.570   0.435   3.614  0.1892  1.0571  0.9272
 4107SOL    HW223955   2.708   0.431   3.556  0.4131  0.2743 -2.5433
 4108SOL     OW23956   3.178   1.617   6.308  0.3707 -0.2244  0.4845
 4108SOL    HW123957   3.176   1.614   6.403  2.9236 -0.0708  0.5310
 4108SOL    HW223958   3.128   1.696   6.288  1.0855  0.7078  2.4116
 4109SOL     OW23959   2.678   1.266   4.281 -0.2855 -0.4589 -0.1776
 4109SOL    HW123960   2.685   1.235   4.190  0.2413  0.2570 -0.3831
 4109SOL    HW223961   2.605   1.327   4.279  0.9220  0.9522 -0.8818
 4110SOL     OW23962   2.275   4.010  16.212 -0.5198 -0.0028  0.5447
 4110SOL    HW123963   2.323   3.958  16.277  0.3170  1.5633  1.1859
 4110SOL    HW223964   2.343   4.048  16.157 -0.1524 -2.2869 -0.5799
 4111SOL     OW23965   4.417   3.913   4.915  0.7168 -0.0011  0.4716
 4111SOL    HW123966   4.374   3.998   4.920  1.1395  0.1861  0.9942
 4111SOL    HW223967   4.357   3.860   4.969 -1.0864  0.3147 -1.2303
 4112SOL     OW23968   0.506   2.965   0.362  0.5632 -0.0059  0.0137
 4112SOL    HW123969   0.528   3.011   0.281 -0.4092 -0.8416 -0.7208
 4112SOL    HW223970   0.418   3.002   0.373 -0.3933 -1.5974 -2.5496
 4113SOL     OW23971   3.933   4.108  13.712  0.3767 -0.0832  0.6882
 4113SOL    HW123972   3.950   4.093  13.619  1.8883 -0.0181  0.9539
 4113SOL    HW223973   3.973   4.036  13.761 -0.9595  0.1608  2.1384
 4114SOL     OW23974   1.376   3.415   6.717 -0.4442  0.3236  0.7696
 4114SOL    HW123975   1.441   3.485   6.717 -0.4694  0.3471  1.7172
 4114SOL    HW223976   1.299   3.462   6.687 -0.2810  0.2588  0.2513
 4115SOL     OW23977   2.526   1.535  10.484  0.2391 -0.4559  0.3211
 4115SOL    HW123978   2.592   1.488  10.433  0.9785  0.2826  0.6096
 4115SOL    HW223979   2.465   1.461  10.492  3.1181 -2.5747  2.4493
 4116SOL     OW23980   2.232   4.675  10.395 -0.0617  0.4020 -0.4590
 4116SOL    HW123981   2.241   0.038  10.399  2.6101  0.2327 -2.2411
 4116SOL    HW223982   2.309   4.650  10.445  0.7535  1.2433 -1.2857
 4117SOL     OW23983   2.971   0.564   6.197  0.3228  0.2502  0.3355
 4117SOL    HW123984   2.991   0.645   6.245  0.4664  0.0671  0.5809
 4117SOL    HW223985   3.002   0.494   6.253  2.0383  0.0528 -0.8781
 4118SOL     OW23986   3.164   1.166   3.943  0.2517  0.5409  0.3296
 4118SOL    HW123987   3.173   1.071   3.953 -1.4676  0.2416 -1.0278
 4118SOL    HW223988   3.152   1.167   3.848 -0.3254  2.0979  0.4276
 4119SOL     OW23989   0.388   0.398   5.580  0.1334  0.2160  0.6863
 4119SOL    HW123990   0.322   0.429   5.517  0.6743 -1.4816 -0.7145
 4119SOL    HW223991   0.396   0.482   5.625  0.7124 -0.5461  1.9864
 4120SOL     OW23992   1.547   2.636   5.793 -0.0992 -0.0614 -0.2402
 4120SOL    HW123993   1.615   2.594   5.740  1.0869 -0.5321  1.6149
 4120SOL    HW223994   1.601   2.658   5.870 -0.1756  0.3895 -0.3131
 4121SOL     OW23995   2.610   0.600   4.870 -0.0816 -0.1009 -0.3298
 4121SOL    HW123996   2.647   0.513   4.885 -2.6590 -0.8775  1.4445
 4121SOL    HW223997   2.616   0.616   4.776 -2.5929 -1.1702 -0.6727
 4122SOL     OW23998   0.376   3.728   7.614  0.0493  0.0697  0.0031
 4122SOL    HW123999   0.411   3.680   7.539  1.9058 -1.0955  1.6019
 4122SOL    HW224000   0.413   3.670   7.681 -0.3744 -2.0565 -1.6269
 4123SOL     OW24001   2.892   2.779  17.511 -0.3765  0.2490 -0.0841
 4123SOL    HW124002   2.933   2.700  17.476  2.8216  1.7301  0.3480
 4123SOL    HW224003   2.878   2.748  17.601 -1.9818  0.7280 -0.1630
 4124SOL     OW24004   2.182   0.327   3.457 -0.5885  0.8580  0.2154
 4124SOL    HW124005   2.137   0.404   3.422 -1.3986  1.1571  1.9334
 4124SOL    HW224006   2.123   0.304   3.528 -0.4315 -1.8115 -0.5228
 4125SOL     OW24007   0.830   2.456   5.346 -0.0715  0.3250  0.4922
 4125SOL    HW124008   0.903   2.507   5.310  0.5083 -0.7134  0.2147
 4125SOL    HW224009   0.856   2.441   5.438  1.0442  1.8892  0.4446
 4126SOL     OW24010   4.197   0.585   5.750  0.9364  0.1116  0.7153
 4126SOL    HW124011   4.252   0.526   5.801  0.9226 -2.3201 -2.0333
 4126SOL    HW224012   4.109   0.553   5.770  0.0252  0.1333 -3.1434
 4127SOL     OW24013   3.166   2.774   3.517  0.1990  0.6740 -0.5332
 4127SOL    HW124014   3.233   2.783   3.450 -0.0543 -3.3079 -1.2895
 4127SOL    HW224015   3.081   2.756   3.476  1.3691 -1.7515 -1.8687
 4128SOL     OW24016   1.359   1.176   0.135  0.3948 -0.0408  0.1173
 4128SOL    HW124017   1.419   1.250   0.149 -0.6307  1.2441 -2.2519
 4128SOL    HW224018   1.379   1.163   0.043  0.5994 -1.6402  0.3841
 4129SOL     OW24019   3.197   3.774   6.614  0.3291  0.2711  0.2490
 4129SOL    HW124020   3.141   3.741   6.544  0.2540  1.6973 -0.3489
 4129SOL    HW224021   3.171   3.713   6.684  0.8540 -1.4827 -1.0761
 4130SOL     OW24022   4.489   2.169   8.691 -0.5735  0.0847 -0.8002
 4130SOL    HW124023   4.543   2.230   8.742 -2.8809 -1.5883  3.6349
 4130SOL    HW224024   4.406   2.216   8.706 -0.3507  0.3403 -0.3849
 4131SOL     OW24025   0.035   0.446   1.389 -0.1066 -0.1591  0.5458
 4131SOL    HW124026   0.124   0.422   1.362 -0.0425 -1.1603  1.6853
 4131SOL    HW224027   0.040   0.421   1.481  0.0486 -1.3676  0.2152
 4132SOL     OW24028   0.748   4.469   4.042  0.2221  0.3961 -1.1020
 4132SOL    HW124029   0.658   4.489   4.069  0.0194  0.0865 -1.5454
 4132SOL    HW224030   0.804   4.515   4.104 -2.7576  0.8575  1.2724
 4133SOL     OW24031   3.591   4.056   8.434 -0.0986  0.1218  0.8289
 4133SOL    HW124032   3.643   3.987   8.394  0.6208  1.7021 -0.9632
 4133SOL    HW224033   3.642   4.134   8.413  0.0560 -0.1157  0.3229
 4134SOL     OW24034   2.244   2.672   9.619  0.3278  0.5086  0.3136
 4134SOL    HW124035   2.275   2.754   9.581  1.7115  0.0902  0.5324
 4134SOL    HW224036   2.260   2.674   9.713  1.9187 -0.1630  0.0611
 4135SOL     OW24037   4.489   4.656   5.874 -0.6536  0.3604 -0.5346
 4135SOL    HW124038   4.536   4.574   5.861  0.5346  0.5544  2.5571
 4135SOL    HW224039   4.404   4.631   5.837 -1.1238  1.9094 -0.5093
 4136SOL     OW24040   0.102   2.282   2.483 -0.3431 -0.7816 -0.1635
 4136SOL    HW124041   0.096   2.248   2.572 -2.1222 -0.1015 -0.0108
 4136SOL    HW224042   0.146   2.363   2.509 -1.6503  0.0012 -0.3474
 4137SOL     OW24043   2.966   3.965  12.197 -0.2499 -0.4904 -0.1233
 4137SOL    HW124044   3.047   4.006  12.165 -1.5664  2.7176  0.7510
 4137SOL    HW224045   2.920   4.040  12.233 -0.2609 -1.2667  1.4755
 4138SOL     OW24046   1.356   1.130   2.957 -0.7886 -0.6867 -0.5273
 4138SOL    HW124047   1.322   1.176   3.033  0.8909  0.2105 -0.3161
 4138SOL    HW224048   1.447   1.116   2.985 -0.3419 -0.5138 -1.8731
 4139SOL     OW24049   2.988   3.892  14.210  0.7070  0.4495 -0.1339
 4139SOL    HW124050   2.923   3.945  14.162 -1.9034 -2.6238 -0.0060
 4139SOL    HW224051   3.062   3.931  14.163  0.3980  0.2898 -0.7585
 4140SOL     OW24052   1.357   2.410  13.826 -0.1041  0.4577 -0.0612
 4140SOL    HW124053   1.310   2.448  13.752 -0.3987  0.9369  0.3816
 4140SOL    HW224054   1.423   2.478  13.836  0.6705 -0.4470  0.9833
 4141SOL     OW24055   2.071   1.546  14.503  0.4771  0.1132 -0.3973
 4141SOL    HW124056   2.086   1.520  14.412  1.3238 -3.5456  0.7737
 4141SOL    HW224057   2.163   1.553  14.528  0.3638  1.8244 -0.5032
 4142SOL     OW24058   0.991   1.241   7.173 -0.1944  0.5075  0.0507
 4142SOL    HW124059   1.059   1.228   7.239 -1.2118  0.8280  1.1591
 4142SOL    HW224060   0.930   1.288   7.230  1.2040  1.1336  1.0379
 4143SOL     OW24061   3.404   1.092   8.494  0.4045 -0.4745 -0.4320
 4143SOL    HW124062   3.421   1.147   8.418  1.5644  1.2823  1.0941
 4143SOL    HW224063   3.331   1.136   8.538  0.8623  0.3272 -0.4778
 4144SOL     OW24064   1.829   4.532   3.697  0.1943  0.2755 -0.6208
 4144SOL    HW124065   1.744   4.490   3.685 -0.6018  1.4478  0.7915
 4144SOL    HW224066   1.875   4.534   3.613 -0.1015  2.0160 -0.7503
 4145SOL     OW24067   2.335   1.965   4.569 -0.4520  0.0421 -0.0241
 4145SOL    HW124068   2.324   1.943   4.476 -0.1916  1.2742 -0.3596
 4145SOL    HW224069   2.368   2.054   4.555 -0.3099 -0.0784 -0.4685
 4146SOL     OW24070   0.974   1.913   1.079 -0.9307 -0.6890  0.0486
 4146SOL    HW124071   1.059   1.952   1.059 -0.8481 -1.9066 -1.9550
 4146SOL    HW224072   0.989   1.892   1.171 -0.3132  1.4875  0.4440
 4147SOL     OW24073   4.018   4.189   9.227 -0.2016 -0.0014 -0.8736
 4147SOL    HW124074   4.047   4.199   9.318 -0.0968  0.0124 -0.9082
 4147SOL    HW224075   3.944   4.128   9.227  1.0743 -1.5626 -1.0365
 4148SOL     OW24076   0.050   0.894   3.029 -0.2653  0.2764 -0.3679
 4148SOL    HW124077   0.105   0.938   3.094  0.2961  2.3909 -2.2519
 4148SOL    HW224078   0.061   0.948   2.950 -0.1611  0.0268 -0.5237
 4149SOL     OW24079   0.536   1.232   8.709  0.8647 -0.3573  0.5905
 4149SOL    HW124080   0.606   1.201   8.652  0.0221 -0.4791 -0.3742
 4149SOL    HW224081   0.464   1.232   8.646  2.2623  1.5435 -0.9633
 4150SOL     OW24082   4.356   3.768  10.059  0.7955  0.2105  0.3667
 4150SOL    HW124083   4.428   3.830  10.069 -1.6248  2.9953  0.5949
 4150SOL    HW224084   4.401   3.694  10.020 -0.2404  0.0236 -0.4666
 4151SOL     OW24085   3.792   1.853  16.163  0.1604  0.5990  0.0843
 4151SOL    HW124086   3.887   1.839  16.158 -0.0118 -0.1486 -1.0526
 4151SOL    HW224087   3.780   1.852  16.068  0.4088  0.0473  0.0589
 4152SOL     OW24088   3.948   3.047   9.962 -0.3187  0.5948 -0.1292
 4152SOL    HW124089   4.028   3.029  10.010 -1.0760  0.5888  1.1135
 4152SOL    HW224090   3.946   2.971   9.904  1.4185 -0.8177  1.7052
 4153SOL     OW24091   3.952   2.297  11.030  0.4116 -0.0873  0.0665
 4153SOL    HW124092   3.972   2.370  10.972  1.1243  1.3294  2.1206
 4153SOL    HW224093   3.864   2.315  11.063  0.9612  0.5404  1.1864
 4154SOL     OW24094   0.978   2.994   2.972 -0.2584  0.1035 -0.1610
 4154SOL    HW124095   0.883   2.995   2.976 -0.3213 -1.1342 -1.0734
 4154SOL    HW224096   1.004   2.930   3.038  0.3433 -0.4526 -0.9352
 4155SOL     OW24097   1.557   1.950   8.164  0.0443 -0.1173  0.2278
 4155SOL    HW124098   1.642   1.917   8.135  0.9475  2.2344  0.1883
 4155SOL    HW224099   1.525   1.867   8.198 -2.1420  0.5753 -0.1423
 4156SOL     OW24100   1.154   3.653   6.841  0.1874  0.6084 -0.3985
 4156SOL    HW124101   1.172   3.572   6.890 -0.4897  0.4133 -0.4707
 4156SOL    HW224102   1.141   3.714   6.913 -3.4750 -1.7051  0.8941
 4157SOL     OW24103   0.572   3.519   5.040 -0.2919  0.0480  0.1199
 4157SOL    HW124104   0.661   3.542   5.016 -0.5677 -1.9697 -2.7849
 4157SOL    HW224105   0.552   3.594   5.095  0.2838 -0.1919  0.6562
 4158SOL     OW24106   0.875   3.817   9.657  0.3630 -0.5643  0.2837
 4158SOL    HW124107   0.957   3.773   9.679 -0.6631 -1.8816  1.4213
 4158SOL    HW224108   0.877   3.884   9.726  1.0506 -1.4981  1.1717
 4159SOL     OW24109   0.144   4.346   3.280 -0.1839 -0.2362  0.2255
 4159SOL    HW124110   0.233   4.361   3.312 -0.2849 -0.7800  0.7812
 4159SOL    HW224111   0.144   4.394   3.197  1.7781  0.0119  0.3601
 4160SOL     OW24112   0.388   1.968   3.193  0.0429 -0.2258  0.8614
 4160SOL    HW124113   0.434   1.906   3.137 -0.2794  0.2800  0.0379
 4160SOL    HW224114   0.396   2.052   3.150 -1.2446  0.0499  1.1465
 4161SOL     OW24115   3.206   4.386   8.022  0.0045  0.2645  0.2845
 4161SOL    HW124116   3.114   4.403   8.002 -0.6392 -1.6992  1.4574
 4161SOL    HW224117   3.212   4.448   8.095  2.9028  0.2312  0.0850
 4162SOL     OW24118   0.984   3.181   9.529 -0.2076  0.0648  0.2160
 4162SOL    HW124119   0.905   3.173   9.475 -2.6244  2.0028  3.4550
 4162SOL    HW224120   1.009   3.273   9.523  0.7498 -0.1169  1.5095
 4163SOL     OW24121   2.780   0.388  14.595 -0.3485  0.5878 -0.8239
 4163SOL    HW124122   2.786   0.464  14.653 -1.2259 -1.2018  1.6318
 4163SOL    HW224123   2.685   0.374  14.597  0.0688 -1.9427  0.3582
 4164SOL     OW24124   0.228   3.714   4.078  0.1745  0.4855 -0.0626
 4164SOL    HW124125   0.152   3.743   4.028 -0.8356 -0.5409  0.8400
 4164SOL    HW224126   0.234   3.787   4.139  2.0757 -0.5396  0.9640
 4165SOL     OW24127   1.303   2.503   3.404  0.4870  0.0463 -0.2696
 4165SOL    HW124128   1.236   2.437   3.390  0.8398 -0.6422  1.2699
 4165SOL    HW224129   1.378   2.457   3.365  0.5530  0.2500 -0.3861
 4166SOL     OW24130   3.219   3.758   2.961 -0.2323  0.3475 -0.3951
 4166SOL    HW124131   3.135   3.766   3.008 -0.4809  0.9897 -0.9464
 4166SOL    HW224132   3.198   3.681   2.909  1.3230 -0.2342 -0.1355
 4167SOL     OW24133   3.053   2.587   5.138 -0.2642  0.3989 -0.6843
 4167SOL    HW124134   3.073   2.655   5.074  0.1917  0.6794 -0.2399
 4167SOL    HW224135   2.994   2.637   5.195 -0.3151  1.1629 -1.4079
 4168SOL     OW24136   3.739   0.064   4.928 -0.1643 -0.4881 -0.3196
 4168SOL    HW124137   3.722   0.126   5.000  0.2951 -3.4494  2.3254
 4168SOL    HW224138   3.675   0.100   4.866 -0.6810  0.3021  0.6654
 4169SOL     OW24139   2.430   3.691  14.022  0.1393  0.3467 -0.2012
 4169SOL    HW124140   2.499   3.755  14.040 -0.8923  0.9236  1.7621
 4169SOL    HW224141   2.407   3.733  13.940  0.3967  1.7238  0.4243
 4170SOL     OW24142   0.193   4.036   7.169  0.5658 -0.4847 -0.0184
 4170SOL    HW124143   0.191   4.116   7.116 -2.8888 -0.2656  0.4357
 4170SOL    HW224144   0.218   3.973   7.101 -0.3325 -1.5436  0.6395
 4171SOL     OW24145   3.536   4.496  12.664  0.3777  0.6525 -0.9987
 4171SOL    HW124146   3.460   4.464  12.617 -0.5652  0.2062  0.8111
 4171SOL    HW224147   3.546   4.425  12.728 -0.8129  0.1425 -1.3849
 4172SOL     OW24148   2.098   3.911  16.761  0.1979 -0.1862 -0.1640
 4172SOL    HW124149   2.106   3.870  16.847  0.3865  1.1976  0.4798
 4172SOL    HW224150   2.070   4.000  16.781  0.3394 -1.0715  3.9501
 4173SOL     OW24151   4.120   3.792   6.668 -0.4965  0.8866  0.1140
 4173SOL    HW124152   4.037   3.835   6.688  0.1448  2.5984 -0.9827
 4173SOL    HW224153   4.089   3.707   6.635  4.0636 -0.8473  0.2679
 4174SOL     OW24154   4.272   3.626   7.105  0.5125 -0.0793 -0.4912
 4174SOL    HW124155   4.211   3.636   7.033 -0.3130 -1.9537 -0.0674
 4174SOL    HW224156   4.326   3.551   7.082  1.8345  0.1840  1.6932
 4175SOL     OW24157   0.211   0.881   6.925 -0.2248  0.5173 -0.1974
 4175SOL    HW124158   0.236   0.794   6.893  3.3651  1.6418 -0.4866
 4175SOL    HW224159   0.265   0.934   6.866  0.8930  1.1852  1.4329
 4176SOL     OW24160   0.650   0.708   0.196 -0.0670  0.1498  0.5246
 4176SOL    HW124161   0.647   0.686   0.289 -2.9306  0.7337  0.5666
 4176SOL    HW224162   0.737   0.677   0.168 -0.2119  0.1016  0.1289
 4177SOL     OW24163   4.726   0.624   3.321  0.3904  0.4989  0.2062
 4177SOL    HW124164   4.657   0.631   3.255  1.7113  0.3541 -1.1924
 4177SOL    HW224165   0.034   0.544   3.287  1.2248  1.5910 -1.3704
 4178SOL     OW24166   2.194   2.972   5.185  0.1459 -0.0167  0.2121
 4178SOL    HW124167   2.199   2.937   5.274  2.2271 -1.4275 -0.4621
 4178SOL    HW224168   2.185   2.894   5.130 -0.2964  0.6156 -0.6123
 4179SOL     OW24169   1.378   1.782   0.262 -0.6453  0.1670 -0.3450
 4179SOL    HW124170   1.323   1.706   0.279 -0.1027 -0.3074 -0.7320
 4179SOL    HW224171   1.439   1.776   0.335 -0.3279 -1.1874 -0.7296
 4180SOL     OW24172   4.136   1.292  11.711  0.3705 -0.0156 -0.0063
 4180SOL    HW124173   4.182   1.291  11.628 -1.5372  0.0880 -1.0628
 4180SOL    HW224174   4.049   1.290  11.671 -0.4365 -3.5133  1.9234
 4181SOL     OW24175   4.718   3.748   3.926  0.6174  0.1603  0.5585
 4181SOL    HW124176   4.626   3.766   3.944  0.0909 -3.0085  1.0253
 4181SOL    HW224177   0.003   3.832   3.883  0.4480 -0.0872  0.0010
 4182SOL     OW24178   1.382   3.125   3.535  0.3280  0.1801  0.3005
 4182SOL    HW124179   1.385   3.030   3.525 -0.8489  0.2305 -0.4539
 4182SOL    HW224180   1.443   3.146   3.464 -0.5675 -4.1431 -1.7481
 4183SOL     OW24181   4.394   0.821   7.130  0.3472 -0.0385 -0.1429
 4183SOL    HW124182   4.425   0.736   7.158 -1.0261 -0.9567 -1.4015
 4183SOL    HW224183   4.397   0.859   7.218  2.1320 -1.7031  0.4910
 4184SOL     OW24184   4.601   1.720   1.256 -0.1882  0.1580 -0.1954
 4184SOL    HW124185   4.651   1.750   1.181  1.6746  0.0094  0.9860
 4184SOL    HW224186   4.519   1.712   1.207  1.1001 -0.9889 -2.1384
 4185SOL     OW24187   0.052   2.461   3.679 -0.6371  0.6567  0.3898
 4185SOL    HW124188   4.713   2.455   3.615  0.0284  0.4077 -0.3227
 4185SOL    HW224189   0.003   2.436   3.757 -0.0622 -1.0377  0.2044
 4186SOL     OW24190   0.328   1.157   0.195 -0.4758  0.2718  0.2410
 4186SOL    HW124191   0.382   1.078   0.189  0.2996  0.7788  0.6180
 4186SOL    HW224192   0.398   1.222   0.199  1.0436 -1.2703 -1.0222
 4187SOL     OW24193   3.564   4.408   4.234 -0.0639 -0.1955  0.6444
 4187SOL    HW124194   3.647   4.360   4.232  1.3480  2.3337 -2.5077
 4187SOL    HW224195   3.552   4.433   4.325  0.1320 -1.1560  0.9351
 4188SOL     OW24196   4.638   0.791   5.684  0.4104  0.2465  0.1962
 4188SOL    HW124197   4.591   0.841   5.750  0.8094  0.7174  0.1230
 4188SOL    HW224198   4.636   0.703   5.723 -0.4980  0.2981  0.2630
 4189SOL     OW24199   3.212   4.568   3.645  0.5851  0.1679 -0.4062
 4189SOL    HW124200   3.203   4.474   3.628 -0.6835  0.3233 -0.5983
 4189SOL    HW224201   3.274   4.569   3.718 -1.2376 -1.4118  1.1696
 4190SOL     OW24202   4.565   3.803   9.139  0.0592 -0.2884  0.0504
 4190SOL    HW124203   4.642   3.783   9.085  0.6209 -1.4004  1.2785
 4190SOL    HW224204   4.514   3.722   9.138  2.5571 -1.8519 -0.9164
 4191SOL     OW24205   1.653   2.333   6.227 -0.1802  0.1890  1.2306
 4191SOL    HW124206   1.612   2.383   6.298  1.7998  0.2196  2.3445
 4191SOL    HW224207   1.633   2.244   6.256 -0.1823  0.4026  1.8964
 4192SOL     OW24208   1.045   3.836   2.151  0.6767 -0.2294  0.3449
 4192SOL    HW124209   1.003   3.895   2.215 -0.2496  0.0590 -0.5290
 4192SOL    HW224210   0.965   3.804   2.109 -0.1477  1.0202  0.9447
 4193SOL     OW24211   2.865   1.560   2.312  0.6259 -0.1936 -0.1301
 4193SOL    HW124212   2.841   1.496   2.245 -1.8702  1.0355 -0.4159
 4193SOL    HW224213   2.898   1.638   2.266 -0.1536  0.1634 -0.0812
 4194SOL     OW24214   3.625   3.536   9.157 -0.2301 -0.1488 -0.1956
 4194SOL    HW124215   3.533   3.561   9.167 -0.2695 -0.2468 -0.3130
 4194SOL    HW224216   3.627   3.444   9.131  1.6221 -0.2601  0.3470
 4195SOL     OW24217   1.395   2.365  17.077 -0.5509  0.0836  0.3583
 4195SOL    HW124218   1.347   2.435  17.122 -0.4396  1.7369 -2.0820
 4195SOL    HW224219   1.344   2.366  16.996 -0.2423  0.2297  0.1636
 4196SOL     OW24220   2.342   2.531   4.332  0.0012 -0.0138  0.1289
 4196SOL    HW124221   2.280   2.563   4.266  0.0101 -0.4409 -0.0827
 4196SOL    HW224222   2.284   2.498   4.401  0.6919 -1.2398  0.1238
 4197SOL     OW24223   1.550   4.190   0.516 -0.6528 -0.6913 -0.9420
 4197SOL    HW124224   1.471   4.179   0.568 -2.4823  1.4296 -3.2628
 4197SOL    HW224225   1.593   4.257   0.569  1.0694 -1.7948 -0.9487
 4198SOL     OW24226   0.824   0.984   4.397  0.4572  0.3056  0.0831
 4198SOL    HW124227   0.784   1.008   4.480 -1.9375 -0.3170 -0.9045
 4198SOL    HW224228   0.840   0.890   4.408  0.1884  0.1164 -1.1105
 4199SOL     OW24229   3.200   1.686   1.010 -0.1329  0.0480  0.7557
 4199SOL    HW124230   3.164   1.615   0.957 -0.0522  1.2683 -0.9424
 4199SOL    HW224231   3.244   1.628   1.072 -0.7209 -0.5678  0.5849
 4200SOL     OW24232   0.857   0.367   0.399 -0.3763 -0.2136 -0.0022
 4200SOL    HW124233   0.807   0.447   0.414 -0.6982 -0.2659 -0.7627
 4200SOL    HW224234   0.884   0.376   0.307  0.0374 -0.1019  0.1288
 4201SOL     OW24235   3.947   4.162   2.344 -0.2911  0.3803 -0.0118
 4201SOL    HW124236   4.031   4.123   2.318 -0.5504 -1.6888  2.2009
 4201SOL    HW224237   3.944   4.130   2.435 -4.5300 -1.7127 -0.8806
 4202SOL     OW24238   3.370   4.467   5.673 -0.1720  0.1347 -0.0506
 4202SOL    HW124239   3.453   4.457   5.719  1.1148  3.1179 -1.7971
 4202SOL    HW224240   3.331   4.381   5.693  0.4741 -0.3376 -0.8259
 4203SOL     OW24241   2.970   4.655   5.767 -0.2525 -0.3660  0.6284
 4203SOL    HW124242   2.936   4.711   5.837 -0.0417 -0.7134  1.0098
 4203SOL    HW224243   2.982   4.570   5.809  0.3346 -0.8876 -0.6066
 4204SOL     OW24244   0.552   2.256   1.140 -0.2966  0.3071  0.1899
 4204SOL    HW124245   0.481   2.199   1.110  0.2941  0.3993 -1.3830
 4204SOL    HW224246   0.507   2.331   1.178 -1.5566 -0.6692  0.6066
 4205SOL     OW24247   1.779   1.760   3.898 -0.4549 -0.1489 -0.5931
 4205SOL    HW124248   1.737   1.840   3.867 -0.6092  0.7423  1.9104
 4205SOL    HW224249   1.726   1.728   3.971  1.3414 -0.7891  0.4300
 4206SOL     OW24250   2.226   0.664   3.037 -0.1799  0.2138 -0.4288
 4206SOL    HW124251   2.233   0.759   3.044  1.1771 -0.0194  1.3388
 4206SOL    HW224252   2.300   0.634   2.984  2.9407  1.2447  3.4120
 4207SOL     OW24253   0.498   4.106   8.286  0.0346  0.1437 -0.4035
 4207SOL    HW124254   0.494   4.031   8.346  1.8388 -0.0429 -0.5377
 4207SOL    HW224255   0.528   4.058   8.209  1.2893 -2.3534  1.6211
 4208SOL     OW24256   1.461   0.871  17.658  0.1364 -0.4787  0.0592
 4208SOL    HW124257   1.493   0.849   0.017  1.6474 -0.7614 -0.5560
 4208SOL    HW224258   1.389   0.934  17.664  2.1149  1.7880  0.2611
 4209SOL     OW24259   0.550   1.365   5.274 -0.2614  0.7178 -0.5185
 4209SOL    HW124260   0.570   1.442   5.328  2.0333 -0.4800  0.3274
 4209SOL    HW224261   0.513   1.394   5.190 -1.3265  0.6197 -0.0881
 4210SOL     OW24262   3.333   0.695   9.577 -0.0101 -0.2951  0.2546
 4210SOL    HW124263   3.407   0.634   9.572 -0.9905 -1.5144  0.5525
 4210SOL    HW224264   3.274   0.648   9.519  0.7962 -1.7706  0.6208
 4211SOL     OW24265   2.034   2.247  13.547  0.1714 -0.1248  0.2187
 4211SOL    HW124266   2.016   2.326  13.598  1.5284  0.5854 -0.4267
 4211SOL    HW224267   2.054   2.182  13.615 -0.0407 -1.1008 -0.6554
 4212SOL     OW24268   3.924   2.911   7.132  0.0324 -0.0882 -0.5278
 4212SOL    HW124269   3.877   2.989   7.161 -0.2919 -0.9793  1.3581
 4212SOL    HW224270   3.972   2.881   7.209 -1.9239 -1.0248  0.3494
 4213SOL     OW24271   1.774   3.761   6.713 -0.0958 -0.0929  0.8400
 4213SOL    HW124272   1.761   3.855   6.730  2.0572  0.1744  0.9273
 4213SOL    HW224273   1.837   3.755   6.785 -0.8899  0.1133  1.5591
 4214SOL     OW24274   1.323   1.582   8.621  0.1965  0.2670  0.0734
 4214SOL    HW124275   1.252   1.522   8.642 -0.6010  1.0901 -0.2689
 4214SOL    HW224276   1.375   1.533   8.558  0.9153 -0.6118  1.3480
 4215SOL     OW24277   3.939   1.318   4.752 -0.0920 -0.3897  0.1418
 4215SOL    HW124278   4.002   1.262   4.707 -0.6250  0.9296 -2.2409
 4215SOL    HW224279   3.881   1.341   4.680  1.1478 -0.4549 -0.8889
 4216SOL     OW24280   1.281   4.209   1.976  0.2630 -0.7424 -0.2729
 4216SOL    HW124281   1.281   4.134   2.035 -1.4146 -0.7324 -0.2356
 4216SOL    HW224282   1.252   4.164   1.897  0.2874 -1.2006 -0.0177
 4217SOL     OW24283   1.008   1.719  14.940  0.2208  0.3650  0.5724
 4217SOL    HW124284   1.004   1.637  14.891  1.4903  0.1326  0.8744
 4217SOL    HW224285   1.076   1.763  14.890 -1.0864  4.0556  2.0670
 4218SOL     OW24286   1.893   1.699  15.328 -0.1897 -0.1268 -0.2702
 4218SOL    HW124287   1.827   1.649  15.375 -0.1411  2.0222  2.0853
 4218SOL    HW224288   1.852   1.700  15.241 -0.1332  1.7545 -0.2779
 4219SOL     OW24289   2.115   1.144  16.110  0.5556 -0.3159 -0.2256
 4219SOL    HW124290   2.150   1.207  16.173  0.0959  0.4393 -0.7234
 4219SOL    HW224291   2.030   1.185  16.093  0.6898 -0.3835 -1.0546
 4220SOL     OW24292   0.024   2.215   2.053 -0.0037 -0.3261 -0.1200
 4220SOL    HW124293   0.118   2.232   2.042  0.3296 -1.8736  0.3458
 4220SOL    HW224294   0.021   2.179   2.142  0.7141  0.2279  0.1317
 4221SOL     OW24295   3.812   0.934   5.344  1.1028  0.2044  0.4743
 4221SOL    HW124296   3.738   0.895   5.297 -0.5504  2.2633  1.3572
 4221SOL    HW224297   3.814   1.024   5.312  0.5539 -0.3935 -1.2196
 4222SOL     OW24298   4.729   4.312   8.669  0.1994 -0.1863 -0.2294
 4222SOL    HW124299   4.660   4.284   8.730  1.0599  2.5345  1.9704
 4222SOL    HW224300   0.008   4.231   8.619  0.2064 -0.0419 -0.4613
 4223SOL     OW24301   0.255   0.397   7.308 -0.3128  0.0990 -0.6009
 4223SOL    HW124302   0.233   0.304   7.314 -0.9383  0.1693 -1.7382
 4223SOL    HW224303   0.279   0.401   7.216 -0.7140  0.7083 -0.6808
 4224SOL     OW24304   2.017   3.635   7.289  0.3034  1.0600  0.3475
 4224SOL    HW124305   2.081   3.683   7.342  2.4305 -1.6963  0.2871
 4224SOL    HW224306   1.989   3.568   7.351  1.5556  1.9682  1.9190
 4225SOL     OW24307   0.137   1.533   2.885  0.0576 -0.7199 -0.3236
 4225SOL    HW124308   0.047   1.562   2.873 -0.2040 -0.7148  1.6806
 4225SOL    HW224309   0.179   1.564   2.805  0.5446  1.6851  0.8692
 4226SOL     OW24310   1.586   1.748   2.197  0.4503  0.2734 -0.6919
 4226SOL    HW124311   1.682   1.748   2.198  0.4057 -1.7996  2.0955
 4226SOL    HW224312   1.556   1.826   2.244  1.6663  1.2018 -1.4245
 4227SOL     OW24313   1.373   1.126   4.953  0.1410 -0.2090  0.5047
 4227SOL    HW124314   1.334   1.119   4.866  1.6897 -3.4626  0.0930
 4227SOL    HW224315   1.387   1.220   4.964 -0.1398  0.1857 -2.5665
 4228SOL     OW24316   2.213   2.453   4.601  0.3237  0.2449 -0.2482
 4228SOL    HW124317   2.153   2.418   4.667 -0.0687  1.5679  0.0976
 4228SOL    HW224318   2.172   2.539   4.589  0.1803  0.2428  0.2303
 4229SOL     OW24319   2.215   1.122  11.308  0.5431  0.2345  0.1001
 4229SOL    HW124320   2.241   1.103  11.398  0.2833 -3.1522 -0.5515
 4229SOL    HW224321   2.240   1.212  11.289 -1.1128  0.9946  1.5433
 4230SOL     OW24322   0.679   3.753  11.701  0.3614 -0.0641 -0.0073
 4230SOL    HW124323   0.715   3.795  11.779 -0.5605 -0.7163  0.7784
 4230SOL    HW224324   0.761   3.717  11.668 -0.2505 -0.0938 -1.4756
 4231SOL     OW24325   1.598   2.766   7.283  0.1575 -0.5433  0.8122
 4231SOL    HW124326   1.605   2.793   7.375  1.1298  0.9124  0.3122
 4231SOL    HW224327   1.503   2.758   7.274  0.2430 -0.9087  0.2308
 4232SOL     OW24328   4.355   2.613   8.746  0.1574  0.1799  0.2037
 4232SOL    HW124329   4.408   2.559   8.687  0.6078  1.1178 -0.2712
 4232SOL    HW224330   4.398   2.607   8.831  1.0101 -0.7622 -0.2962
 4233SOL     OW24331   0.585   2.147   5.314 -0.2754  0.0464 -0.1310
 4233SOL    HW124332   0.670   2.121   5.349 -0.4352 -0.0899  0.1584
 4233SOL    HW224333   0.530   2.169   5.389  0.6833 -0.5385  0.7553
 4234SOL     OW24334   2.195   0.737   8.261  0.0732 -0.3057  0.4011
 4234SOL    HW124335   2.129   0.802   8.240  0.4774  0.2182  0.7652
 4234SOL    HW224336   2.146   0.655   8.267 -1.1130  0.3904  0.1448
 4235SOL     OW24337   3.607   2.273   4.617 -0.3456 -0.3431 -0.1439
 4235SOL    HW124338   3.525   2.225   4.601 -0.9138 -0.3826  2.7959
 4235SOL    HW224339   3.629   2.245   4.706  3.1383  2.6865 -0.1042
 4236SOL     OW24340   4.035   0.604   7.576 -0.6555 -1.0442  0.3397
 4236SOL    HW124341   4.016   0.623   7.484  1.4124  0.7249  0.2647
 4236SOL    HW224342   3.987   0.676   7.616  2.6695  0.7153  1.1629
 4237SOL     OW24343   4.479   3.010  14.740  0.2846 -0.2772 -0.2871
 4237SOL    HW124344   4.535   3.085  14.724  0.2553 -0.1021  0.4793
 4237SOL    HW224345   4.464   2.984  14.648  1.1821  0.1160 -0.5391
 4238SOL     OW24346   0.341   2.156   0.588 -0.4932 -0.3721  0.0345
 4238SOL    HW124347   0.323   2.223   0.654 -0.1176  1.7596 -2.0409
 4238SOL    HW224348   0.289   2.089   0.634 -0.3670 -1.6654 -1.7031
 4239SOL     OW24349   2.686   1.080   9.339 -0.4231  0.5503  0.1635
 4239SOL    HW124350   2.729   1.163   9.363 -2.3747  1.0495  1.9511
 4239SOL    HW224351   2.708   1.032   9.419  0.2782 -0.2204 -0.4954
 4240SOL     OW24352   3.079   3.793   4.124  0.0810 -0.3624  0.4431
 4240SOL    HW124353   3.089   3.886   4.147 -1.6596  0.6498 -2.7740
 4240SOL    HW224354   3.149   3.750   4.173 -1.2779  0.2829  2.9442
 4241SOL     OW24355   2.113   3.626   1.870  0.0973 -0.0507 -0.2810
 4241SOL    HW124356   2.131   3.684   1.944 -0.8764  0.0193 -0.0963
 4241SOL    HW224357   2.145   3.682   1.799  3.2952 -0.7468  0.6006
 4242SOL     OW24358   4.508   3.248   2.643 -0.4799 -0.6961  0.1886
 4242SOL    HW124359   4.413   3.239   2.637 -0.0354 -3.2889 -2.4139
 4242SOL    HW224360   4.518   3.325   2.586 -1.6826 -0.7683 -0.1184
 4243SOL     OW24361   2.477   1.996   1.889 -0.4714  0.4829 -0.8252
 4243SOL    HW124362   2.449   1.913   1.851 -1.0829  0.1175  0.4565
 4243SOL    HW224363   2.412   2.063   1.867  0.2687  1.3450 -0.4273
 4244SOL     OW24364   0.677   3.099  16.407 -0.2597 -0.2305 -0.4459
 4244SOL    HW124365   0.711   3.090  16.318 -0.5019  1.8048 -0.7456
 4244SOL    HW224366   0.756   3.110  16.460  0.9871  0.0372 -2.3629
 4245SOL     OW24367   3.039   0.991   4.192  0.4159 -0.0462 -0.2847
 4245SOL    HW124368   2.943   0.995   4.185  0.4118  0.7562  0.2046
 4245SOL    HW224369   3.064   1.083   4.199 -2.6730  0.7482  0.4300
 4246SOL     OW24370   3.227   0.630  15.905 -0.2743  0.6091 -0.2535
 4246SOL    HW124371   3.270   0.692  15.845 -0.2616  1.5874  0.7744
 4246SOL    HW224372   3.139   0.667  15.910 -0.3447  0.7651 -2.3829
 4247SOL     OW24373   3.326   3.231   0.358 -0.3150  0.3302 -0.4243
 4247SOL    HW124374   3.358   3.182   0.433 -2.2616 -2.1325 -1.1840
 4247SOL    HW224375   3.384   3.207   0.286 -0.1830 -0.0111 -0.2020
 4248SOL     OW24376   1.103   2.235   3.649 -0.7993 -0.8196 -0.2249
 4248SOL    HW124377   1.091   2.237   3.744 -0.9735  1.9153 -0.3056
 4248SOL    HW224378   1.144   2.150   3.634 -0.4191 -0.4434 -1.2799
 4249SOL     OW24379   2.955   3.367  16.633  0.1834  0.3159  0.4987
 4249SOL    HW124380   2.904   3.313  16.694 -1.1833 -0.1755 -1.0774
 4249SOL    HW224381   2.976   3.294  16.575 -1.0345  2.1245 -2.2594
 4250SOL     OW24382   3.795   4.685   6.074  0.5624  0.3222  0.1199
 4250SOL    HW124383   3.774   0.039   6.108 -1.2877  0.2870 -0.9159
 4250SOL    HW224384   3.743   4.669   5.995  1.8114 -1.5698 -0.3277
 4251SOL     OW24385   4.520   0.586   2.365  0.2935  0.0886  0.0337
 4251SOL    HW124386   4.532   0.633   2.447  2.0209 -1.3373  0.6039
 4251SOL    HW224387   4.487   0.657   2.311  0.9089  0.1084 -0.3199
 4252SOL     OW24388   0.384   3.534   6.796 -0.5793 -0.2354 -0.3273
 4252SOL    HW124389   0.470   3.571   6.778  0.2515  0.1064  4.4996
 4252SOL    HW224390   0.421   3.457   6.839  1.0238  0.8251  0.1663
 4253SOL     OW24391   3.151   3.719   9.606  0.3759  0.0148 -0.1120
 4253SOL    HW124392   3.144   3.626   9.585 -2.4654 -0.0130  0.9856
 4253SOL    HW224393   3.063   3.726   9.643  1.1589 -1.3093  1.9798
 4254SOL     OW24394   0.688   1.607   5.396  0.1015 -0.7333 -0.1581
 4254SOL    HW124395   0.733   1.664   5.333 -1.4347  3.2637  2.3818
 4254SOL    HW224396   0.620   1.671   5.416  0.2484 -0.0710 -1.7686
 4255SOL     OW24397   0.533   0.305   7.796 -0.5652 -0.6898 -0.0156
 4255SOL    HW124398   0.496   0.348   7.719  0.2463 -1.1836 -0.6813
 4255SOL    HW224399   0.603   0.253   7.758  0.2759  1.0896 -0.8753
 4256SOL     OW24400   2.277   1.757  14.714  0.1489 -0.3290  0.3281
 4256SOL    HW124401   2.314   1.698  14.648  1.7065 -0.4517  1.3102
 4256SOL    HW224402   2.243   1.700  14.783 -0.4589 -0.2220  0.1150
 4257SOL     OW24403   0.810   1.182   5.760  0.0911  0.1235 -0.1957
 4257SOL    HW124404   0.722   1.216   5.748  0.8371  1.5589 -1.5779
 4257SOL    HW224405   0.839   1.160   5.672 -0.7193  1.3279 -0.7484
 4258SOL     OW24406   2.098   1.449   0.206  0.0262 -0.3057  0.2145
 4258SOL    HW124407   2.012   1.418   0.232  0.1891 -1.4848 -0.6890
 4258SOL    HW224408   2.104   1.538   0.243 -0.0316  0.0001 -0.5207
 4259SOL     OW24409   3.411   2.019   8.415  0.1848  0.4115 -0.3682
 4259SOL    HW124410   3.471   2.093   8.428 -1.5355  1.3334  2.4456
 4259SOL    HW224411   3.468   1.943   8.418 -1.7016 -1.0376 -1.8204
 4260SOL     OW24412   3.542   0.941   6.557  0.5043  0.3356 -0.7914
 4260SOL    HW124413   3.515   0.908   6.471 -2.2270  0.4704  0.0268
 4260SOL    HW224414   3.611   0.993   6.517 -0.7963  1.7406 -1.2213
 4261SOL     OW24415   1.027   2.772  11.071 -0.3595 -0.2756 -0.1298
 4261SOL    HW124416   1.060   2.862  11.073  2.1099 -1.1901  0.1913
 4261SOL    HW224417   0.933   2.790  11.066  0.0766  2.0370  0.2117
 4262SOL     OW24418   3.078   1.538  13.648  0.0065  0.3887 -0.0163
 4262SOL    HW124419   3.105   1.630  13.642  3.0692 -0.6048 -1.0633
 4262SOL    HW224420   3.104   1.522  13.738 -0.6888 -1.5913 -0.1711
 4263SOL     OW24421   0.453   3.897   3.518  0.0075 -0.1945 -0.6665
 4263SOL    HW124422   0.538   3.874   3.480  0.3450 -0.8414  0.5076
 4263SOL    HW224423   0.414   3.818   3.481  0.0614 -0.3450 -0.3987
 4264SOL     OW24424   1.817   2.590  17.110 -0.1448  0.5680 -0.0639
 4264SOL    HW124425   1.883   2.600  17.042  0.9309  0.3925  0.9613
 4264SOL    HW224426   1.866   2.635  17.180  1.2021 -0.9197 -0.0497
 4265SOL     OW24427   2.049   3.286   6.000  0.1833  0.0434  0.5474
 4265SOL    HW124428   2.118   3.265   5.937  0.2664  1.1641  0.2775
 4265SOL    HW224429   1.990   3.344   5.952 -0.5726 -0.4240  0.9012
 4266SOL     OW24430   3.509   1.821   2.265  0.2155 -0.1679 -0.1676
 4266SOL    HW124431   3.571   1.800   2.195  0.6097  0.3654  0.0189
 4266SOL    HW224432   3.565   1.792   2.336  0.6884  0.2553 -0.3679
 4267SOL     OW24433   3.489   3.258   3.909  0.1174  0.3392 -0.1558
 4267SOL    HW124434   3.533   3.343   3.905 -2.0414  1.3936 -1.2761
 4267SOL    HW224435   3.492   3.226   3.819  0.5444  0.3397 -0.1413
 4268SOL     OW24436   3.450   2.123  15.954 -0.1633  0.0533 -0.4287
 4268SOL    HW124437   3.363   2.093  15.928 -0.4256  0.9917 -0.6295
 4268SOL    HW224438   3.504   2.047  15.930 -1.8208 -0.9561 -0.9831
 4269SOL     OW24439   2.504   1.561   8.198 -0.2162 -0.1009  0.6114
 4269SOL    HW124440   2.591   1.579   8.236  0.9159 -1.0795 -1.5259
 4269SOL    HW224441   2.507   1.630   8.132 -2.1604 -0.4046  0.2261
 4270SOL     OW24442   2.527   0.365  14.633  0.1814  0.4807  0.5498
 4270SOL    HW124443   2.510   0.390  14.724 -1.0380 -0.4513  0.5760
 4270SOL    HW224444   2.441   0.330  14.608  0.7833  0.1795 -1.0336
 4271SOL     OW24445   2.653   3.731   3.773  0.4130  0.2053  0.4640
 4271SOL    HW124446   2.674   3.640   3.750 -1.3601 -0.1610  0.3312
 4271SOL    HW224447   2.720   3.747   3.840  1.6065  1.2270 -0.9765
 4272SOL     OW24448   1.756   2.159   2.863 -0.0159  0.0480 -0.0503
 4272SOL    HW124449   1.803   2.180   2.782 -0.7897  0.1440 -0.4830
 4272SOL    HW224450   1.710   2.077   2.847 -0.0739  0.2823 -1.1542
 4273SOL     OW24451   4.073   2.432   4.403 -0.5329  0.0347  0.4712
 4273SOL    HW124452   4.027   2.358   4.442  0.4372 -0.2497  1.0741
 4273SOL    HW224453   3.997   2.462   4.353 -0.1682  2.0792  1.1450
 4274SOL     OW24454   2.943   1.192   5.601 -0.2237 -0.5536  0.2743
 4274SOL    HW124455   2.982   1.275   5.574 -0.7148 -0.8348 -1.2762
 4274SOL    HW224456   2.852   1.186   5.570  0.2841  1.8966 -1.6919
 4275SOL     OW24457   2.101   0.543   3.262  0.0064  0.3854  0.4821
 4275SOL    HW124458   2.144   0.574   3.182  0.6116 -2.9158 -0.4700
 4275SOL    HW224459   2.011   0.574   3.253 -0.8005 -2.8879 -2.6169
 4276SOL     OW24460   2.516   3.024   6.081 -0.3884  0.4840  0.4272
 4276SOL    HW124461   2.468   2.941   6.075  2.4817 -1.0094 -1.6460
 4276SOL    HW224462   2.562   3.007   6.163  0.5704  1.5252  0.0971
 4277SOL     OW24463   4.627   0.465   3.097  0.1911 -0.5491 -0.3194
 4277SOL    HW124464   4.670   0.383   3.071 -0.2351 -0.4646 -1.2594
 4277SOL    HW224465   4.537   0.434   3.101  1.2178 -3.3330  1.8529
 4278SOL     OW24466   3.954   0.917   5.578  0.0174  0.2350  0.5330
 4278SOL    HW124467   3.937   1.001   5.620  1.8403  1.7202 -1.7119
 4278SOL    HW224468   3.910   0.930   5.494  0.7401  1.1409  0.2970
 4279SOL     OW24469   2.519   0.745   5.356  0.0584  0.6808 -0.0527
 4279SOL    HW124470   2.610   0.775   5.358 -0.3914  1.9743  1.3645
 4279SOL    HW224471   2.514   0.701   5.440  0.2089 -3.8866 -2.4488
 4280SOL     OW24472   2.370   1.430   7.904  0.1385 -0.5160  0.1016
 4280SOL    HW124473   2.324   1.346   7.911 -0.2405 -0.3734 -0.6590
 4280SOL    HW224474   2.460   1.398   7.912  0.4266  0.4404  0.6530
 4281SOL     OW24475   3.947   1.021  11.803 -0.6303 -1.0340 -0.1617
 4281SOL    HW124476   3.923   1.055  11.889 -0.7634  0.4569 -0.7849
 4281SOL    HW224477   3.916   1.097  11.754 -0.9185  0.2248  1.9919
 4282SOL     OW24478   3.571   4.358  16.866  0.1004 -0.7363  0.2128
 4282SOL    HW124479   3.609   4.272  16.850  1.1973 -0.5613  1.8268
 4282SOL    HW224480   3.607   4.413  16.797 -0.5802  1.0596  1.2978
 4283SOL     OW24481   1.959   4.423   5.500 -0.3515 -0.3720  0.2856
 4283SOL    HW124482   2.012   4.501   5.487  1.1720 -1.9071 -2.8255
 4283SOL    HW224483   2.025   4.364   5.537  0.9863  0.7817 -0.2607
 4284SOL     OW24484   0.870   3.298   1.452 -0.7954  0.6403 -0.5120
 4284SOL    HW124485   0.869   3.202   1.461  1.0779  0.7566  0.8357
 4284SOL    HW224486   0.956   3.315   1.490  0.0069 -0.9990 -1.5769
 4285SOL     OW24487   1.414   1.519   1.832  0.2803  0.2870  0.0296
 4285SOL    HW124488   1.405   1.567   1.750 -0.8506 -0.6514 -0.3861
 4285SOL    HW224489   1.447   1.430   1.818 -0.9177 -0.4184  1.6758
 4286SOL     OW24490   4.487   3.688  12.845  0.0197 -0.3480 -0.1058
 4286SOL    HW124491   4.414   3.627  12.848 -0.3403  0.0514 -0.6367
 4286SOL    HW224492   4.500   3.702  12.751  0.5755  1.1785  0.1816
 4287SOL     OW24493   2.068   1.418   1.940  0.3010 -0.1984  0.0379
 4287SOL    HW124494   2.109   1.445   1.858 -0.2842 -2.1043 -0.8805
 4287SOL    HW224495   2.144   1.376   1.980 -0.1554  1.2825  2.5024
 4288SOL     OW24496   1.254   1.458  17.682  0.5566 -0.7774 -0.0345
 4288SOL    HW124497   1.222   1.396  17.616 -3.4265  1.3394 -0.0853
 4288SOL    HW224498   1.217   1.540  17.650  3.6343  0.9322  0.7591
 4289SOL     OW24499   0.655   4.620   8.239  0.2181  0.5068  0.1487
 4289SOL    HW124500   0.598   4.611   8.162 -0.3218  0.7716  0.5250
 4289SOL    HW224501   0.704   4.538   8.226 -1.0272 -0.3231  0.6906
 4290SOL     OW24502   3.914   0.257  17.055  0.3232  0.0801 -0.1637
 4290SOL    HW124503   3.853   0.303  16.998 -0.5642 -2.1497 -1.0106
 4290SOL    HW224504   3.849   0.218  17.113  0.0037 -0.2551 -0.7422
 4291SOL     OW24505   2.790   4.161  11.191 -0.1173 -0.2175 -0.0720
 4291SOL    HW124506   2.793   4.223  11.263  0.3239 -2.5895  1.9420
 4291SOL    HW224507   2.814   4.080  11.236 -0.8727  0.1141  0.9306
 4292SOL     OW24508   2.852   2.864   5.024  0.0541 -0.2062  0.2269
 4292SOL    HW124509   2.810   2.943   5.057  1.4536  0.6709 -0.1144
 4292SOL    HW224510   2.788   2.819   4.969  0.0942  0.6059 -0.4780
 4293SOL     OW24511   3.534   0.925   3.696 -0.4478 -0.2919  0.1248
 4293SOL    HW124512   3.614   0.874   3.688 -0.7145  0.1223 -4.8574
 4293SOL    HW224513   3.508   0.894   3.783  0.4360  3.4893  1.7072
 4294SOL     OW24514   1.942   2.485  12.054 -0.0432  0.1015  0.2544
 4294SOL    HW124515   2.015   2.499  11.994 -0.9505 -0.2686 -0.9496
 4294SOL    HW224516   1.869   2.466  11.995  0.5669  0.2734 -0.5588
 4295SOL     OW24517   2.240   0.259  10.317 -0.3075  0.1134 -0.1857
 4295SOL    HW124518   2.216   0.301  10.399  0.2325 -0.7958  0.4357
 4295SOL    HW224519   2.315   0.307  10.283 -0.8839  0.4662 -0.9637
 4296SOL     OW24520   4.031   0.623   5.395  0.0919 -0.5467 -0.0623
 4296SOL    HW124521   4.070   0.704   5.362 -0.8550  0.4320  1.2170
 4296SOL    HW224522   4.065   0.557   5.335 -3.0863 -2.6726  0.4964
 4297SOL     OW24523   3.830   2.844   4.024 -0.3535 -0.4545 -0.3904
 4297SOL    HW124524   3.903   2.887   4.067 -1.1135 -0.5834  1.0311
 4297SOL    HW224525   3.762   2.845   4.092  1.1158  2.5465  1.0674
 4298SOL     OW24526   4.095   2.626   3.823 -0.2928 -0.5852  0.2481
 4298SOL    HW124527   4.171   2.684   3.826 -1.1977  0.5496  1.1512
 4298SOL    HW224528   4.053   2.663   3.745  0.9852 -0.2623 -0.2822
 4299SOL     OW24529   1.736   2.310  17.211  0.0159  0.5112 -0.3836
 4299SOL    HW124530   1.781   2.395  17.207  1.7051 -0.3308  1.0648
 4299SOL    HW224531   1.792   2.261  17.271  0.8007  2.3852  0.4404
 4300SOL     OW24532   1.322   0.625   7.092 -0.3175 -0.2860 -0.6210
 4300SOL    HW124533   1.416   0.625   7.112 -0.3140  0.0684 -0.6444
 4300SOL    HW224534   1.298   0.711   7.125  1.2903  0.0775 -0.3942
 4301SOL     OW24535   1.121   3.497   2.529  0.1280  0.2800  0.4470
 4301SOL    HW124536   1.214   3.500   2.548 -0.1135  0.9606  1.5151
 4301SOL    HW224537   1.081   3.415   2.559 -1.3142  0.8175 -0.0070
 4302SOL     OW24538   1.347   3.035   5.882 -0.0941 -0.0438  0.0972
 4302SOL    HW124539   1.271   3.073   5.839 -1.3467  0.0608  2.3751
 4302SOL    HW224540   1.374   3.110   5.935 -0.9131  0.8457 -0.7350
 4303SOL     OW24541   3.425   2.017   4.310 -0.1685 -0.2603  0.2104
 4303SOL    HW124542   3.486   1.945   4.291 -2.1650 -2.4176  1.9709
 4303SOL    HW224543   3.459   2.086   4.254 -1.1106 -0.1442 -0.2023
 4304SOL     OW24544   3.117   0.917  13.612  0.1898  0.3830  0.6132
 4304SOL    HW124545   3.062   0.943  13.538 -0.1372  0.0284  0.7324
 4304SOL    HW224546   3.203   0.956  13.596 -0.2545  0.5789 -1.3393
 4305SOL     OW24547   2.166   0.946   7.874  0.7744  0.3588  0.5073
 4305SOL    HW124548   2.211   0.896   7.943  0.2370  0.2834  0.7970
 4305SOL    HW224549   2.086   0.896   7.863 -0.7684  2.6740  1.3228
 4306SOL     OW24550   4.338   0.173   0.544 -1.2610 -0.0244  0.0473
 4306SOL    HW124551   4.314   0.252   0.591  1.0924  1.6977 -1.6516
 4306SOL    HW224552   4.416   0.144   0.591 -1.3404 -0.2324  0.0546
 4307SOL     OW24553   1.213   1.949   9.335  0.5421 -0.6049  0.7575
 4307SOL    HW124554   1.201   1.866   9.381 -1.2627 -0.2613  0.9212
 4307SOL    HW224555   1.146   1.926   9.270  1.9716 -1.5707 -0.3561
 4308SOL     OW24556   1.741   1.164   4.460 -0.0863  0.0831  0.3377
 4308SOL    HW124557   1.829   1.162   4.421  0.0633  2.3736  0.5409
 4308SOL    HW224558   1.748   1.142   4.553  2.6861  1.2068  0.3854
 4309SOL     OW24559   2.871   4.061  14.028  0.0674 -0.0164  0.0314
 4309SOL    HW124560   2.856   4.155  14.038  0.3757  0.1400 -1.0332
 4309SOL    HW224561   2.923   4.063  13.948 -2.5261 -1.6184 -1.6693
 4310SOL     OW24562   1.269   3.639   0.942  0.4263  0.2698 -0.5495
 4310SOL    HW124563   1.339   3.580   0.970 -1.1593 -1.4328 -0.1215
 4310SOL    HW224564   1.272   3.628   0.847  0.2969  0.1516 -0.5412
 4311SOL     OW24565   3.936   3.126  13.949 -0.6432 -0.1135  0.1572
 4311SOL    HW124566   3.896   3.043  13.922  2.4910 -1.7729  0.6449
 4311SOL    HW224567   3.900   3.191  13.889  2.0380  2.6531  1.5126
 4312SOL     OW24568   3.221   1.553  17.180 -0.2891 -0.1473 -0.4288
 4312SOL    HW124569   3.231   1.582  17.271 -0.4270 -2.9806  0.4723
 4312SOL    HW224570   3.130   1.567  17.155 -0.1978 -0.2092 -0.7942
 4313SOL     OW24571   0.915   0.899   7.558 -0.5616 -0.2361  0.0079
 4313SOL    HW124572   0.976   0.973   7.559 -1.9569  0.9220  0.4092
 4313SOL    HW224573   0.916   0.870   7.649 -1.8397  2.4543  0.8796
 4314SOL     OW24574   1.449   0.527  13.508 -0.1752 -0.3312 -0.1208
 4314SOL    HW124575   1.429   0.587  13.580  0.9602 -0.1521  0.0389
 4314SOL    HW224576   1.474   0.452  13.562 -0.7924 -1.0300 -0.8100
 4315SOL     OW24577   3.618   0.325   5.008 -0.0070  0.6417  0.1889
 4315SOL    HW124578   3.558   0.292   5.075  0.4910  0.5168  0.5677
 4315SOL    HW224579   3.556   0.373   4.953  1.2153  0.8539 -1.0039
 4316SOL     OW24580   3.543   4.463   9.426 -0.0273  0.2200 -0.3121
 4316SOL    HW124581   3.489   4.433   9.353 -0.9309  2.0214 -0.3956
 4316SOL    HW224582   3.530   4.558   9.423  2.3808  0.5510 -0.4325
 4317SOL     OW24583   4.700   4.245   4.013  0.6829 -0.0587 -0.3437
 4317SOL    HW124584   4.633   4.176   4.010  1.0819 -0.4574 -0.1724
 4317SOL    HW224585   0.044   4.191   3.992  1.3506  0.0000  1.9824
 4318SOL     OW24586   4.205   2.194   2.575 -0.1254 -0.2867  0.6294
 4318SOL    HW124587   4.222   2.287   2.558  3.0069 -1.1474 -0.8211
 4318SOL    HW224588   4.123   2.202   2.623 -1.1525 -0.5774 -1.0971
 4319SOL     OW24589   4.306   0.192   8.453  0.1290 -0.0171  0.1186
 4319SOL    HW124590   4.252   0.248   8.398 -0.0119 -0.8143 -0.5646
 4319SOL    HW224591   4.388   0.179   8.404 -1.5804 -2.6149 -2.0380
 4320SOL     OW24592   1.528   0.372   1.285  1.2190  0.2724 -0.0391
 4320SOL    HW124593   1.490   0.334   1.364 -1.7791 -0.3318 -1.8010
 4320SOL    HW224594   1.473   0.336   1.215  0.5009 -1.0442  1.1970
 4321SOL     OW24595   0.610   0.505   6.643 -0.9210 -0.1294  1.0241
 4321SOL    HW124596   0.571   0.592   6.653 -1.9096 -0.5010  0.3395
 4321SOL    HW224597   0.587   0.486   6.552  0.2306  1.9779  0.2898
 4322SOL     OW24598   4.345   4.221   4.536 -0.1792 -0.7804 -0.0263
 4322SOL    HW124599   4.394   4.143   4.512  0.6139 -1.2267  3.1426
 4322SOL    HW224600   4.284   4.217   4.462 -0.9224  1.5434  0.4515
 4323SOL     OW24601   2.206   1.667   7.930 -0.7681 -0.6543  0.1456
 4323SOL    HW124602   2.122   1.646   7.889 -0.4100  1.2412 -1.5297
 4323SOL    HW224603   2.239   1.579   7.951  3.8233  0.7096 -1.3607
 4324SOL     OW24604   0.377   4.040   8.027 -0.1906 -0.1452  1.0548
 4324SOL    HW124605   0.426   4.003   7.954  0.9883  2.7614  0.3971
 4324SOL    HW224606   0.345   4.119   7.986  2.4795  0.0648 -0.5935
 4325SOL     OW24607   4.094   2.216  17.635 -0.2037 -0.9088  0.2483
 4325SOL    HW124608   4.183   2.251  17.639 -0.1896 -0.7255 -1.4592
 4325SOL    HW224609   4.111   2.122  17.643 -1.4963 -1.1506  0.2772
 4326SOL     OW24610   3.566   4.192  13.161 -0.2194 -0.2882  0.4518
 4326SOL    HW124611   3.516   4.269  13.188  0.4070  0.2388  0.0846
 4326SOL    HW224612   3.517   4.121  13.203  2.2672  0.5929  4.8596
 4327SOL     OW24613   2.347   0.437   6.286  0.0303 -0.1472 -0.0585
 4327SOL    HW124614   2.280   0.371   6.271 -0.1650  0.0011  0.1609
 4327SOL    HW224615   2.374   0.470   6.201  1.1334  1.5347  0.9303
 4328SOL     OW24616   3.511   1.718   4.145 -0.4371  0.0858 -0.1892
 4328SOL    HW124617   3.548   1.631   4.135 -2.1389 -0.4639 -1.7151
 4328SOL    HW224618   3.548   1.766   4.071 -0.3917  0.3280 -0.0097
 4329SOL     OW24619   3.240   4.628   4.431  0.3702  0.1794  0.5153
 4329SOL    HW124620   3.175   4.681   4.479 -1.1436  0.1212 -1.4833
 4329SOL    HW224621   3.246   4.549   4.485 -1.8251 -0.1292  0.2925
 4330SOL     OW24622   2.111   2.149  10.346  0.0444  0.1151  0.3521
 4330SOL    HW124623   2.178   2.082  10.357 -1.0328 -0.5197  3.2301
 4330SOL    HW224624   2.051   2.115  10.413 -1.4438  0.0388 -1.0161
 4331SOL     OW24625   0.189   2.853   3.053  0.7730 -0.2765 -0.2797
 4331SOL    HW124626   0.154   2.852   3.142 -1.1167  1.6667 -1.0062
 4331SOL    HW224627   0.283   2.860   3.067  0.4753  0.8964  1.1459
 4332SOL     OW24628   2.781   2.346   1.953 -0.3108  0.7551 -0.7846
 4332SOL    HW124629   2.761   2.427   1.905  1.3036  1.3242 -0.5020
 4332SOL    HW224630   2.704   2.333   2.008  1.1366  0.0672  1.0296
 4333SOL     OW24631   1.559   1.512   8.057  0.0522 -0.4631  0.5289
 4333SOL    HW124632   1.564   1.557   7.972 -0.6279 -2.2491 -0.4486
 4333SOL    HW224633   1.596   1.425   8.045  0.8689 -0.2743  1.6602
 4334SOL     OW24634   2.684   1.458   3.389  0.3995  0.5433  0.5865
 4334SOL    HW124635   2.765   1.408   3.400  1.2841  1.7969 -0.2493
 4334SOL    HW224636   2.678   1.514   3.466  1.2198 -0.1473  1.1610
 4335SOL     OW24637   1.437   3.097   8.838 -0.0570  0.4010 -0.2269
 4335SOL    HW124638   1.516   3.052   8.810 -0.8949 -0.7195 -0.7898
 4335SOL    HW224639   1.435   3.075   8.931  1.9011  1.3676  0.0312
 4336SOL     OW24640   0.445   2.164  10.299 -0.1069  0.1518 -0.1183
 4336SOL    HW124641   0.366   2.202  10.261 -0.7495  0.2751  1.3183
 4336SOL    HW224642   0.460   2.094  10.236 -0.6569  0.1965 -0.2956
 4337SOL     OW24643   2.720   3.573   4.162 -0.9368 -0.1928 -0.3912
 4337SOL    HW124644   2.784   3.528   4.217  0.4942 -0.0697 -1.9725
 4337SOL    HW224645   2.632   3.544   4.189 -1.1718  2.0923  1.3584
 4338SOL     OW24646   2.658   3.724   2.556 -0.0624  0.0921  0.9555
 4338SOL    HW124647   2.565   3.742   2.544 -0.0470 -0.7643 -0.4875
 4338SOL    HW224648   2.668   3.663   2.483  2.6655  2.7341 -0.8447
 4339SOL     OW24649   0.261   1.407  11.370  0.5161  0.1940  0.4029
 4339SOL    HW124650   0.318   1.333  11.348  1.7755  1.8032 -1.7944
 4339SOL    HW224651   0.200   1.368  11.432  2.2106 -2.3210  0.4657
 4340SOL     OW24652   3.506   1.962   1.919 -0.6068  0.2782  0.2941
 4340SOL    HW124653   3.520   2.022   1.846 -0.8429  0.8825  0.7398
 4340SOL    HW224654   3.427   2.000   1.956  0.6758  1.0017  2.3352
 4341SOL     OW24655   1.876   3.314  12.754  0.1620  0.5466  0.5854
 4341SOL    HW124656   1.898   3.221  12.749  1.1528  1.1160 -5.3123
 4341SOL    HW224657   1.966   3.342  12.736  1.2093 -2.1865  1.5114
 4342SOL     OW24658   4.459   0.738   8.249  0.2317 -0.3645  0.3642
 4342SOL    HW124659   4.427   0.802   8.312  0.9232 -2.0827  2.4657
 4342SOL    HW224660   4.523   0.686   8.297 -0.6319 -2.5527 -0.8587
 4343SOL     OW24661   0.400   3.040   0.643 -0.2830 -0.0395  0.0162
 4343SOL    HW124662   0.368   3.087   0.720  0.4969 -1.0569  0.9640
 4343SOL    HW224663   0.325   3.049   0.585 -0.4570  0.5935  0.3414
 4344SOL     OW24664   2.581   4.536   2.460 -0.4174 -0.8353 -0.0859
 4344SOL    HW124665   2.522   4.516   2.388  1.8089  0.1154 -2.1566
 4344SOL    HW224666   2.562   4.625   2.489  3.4989  0.1414 -0.5579
 4345SOL     OW24667   0.773   4.729   1.780 -0.7376  0.1293 -0.0532
 4345SOL    HW124668   0.744   4.711   1.870  0.6068  1.6700  0.6956
 4345SOL    HW224669   0.809   0.083   1.801  1.2953  0.0038 -3.1619
 4346SOL     OW24670   0.556   2.003   1.619 -0.3462  0.2657  0.1689
 4346SOL    HW124671   0.648   1.987   1.602 -1.0483 -1.4297 -2.0144
 4346SOL    HW224672   0.564   2.064   1.693  0.5361  1.9956 -1.3538
 4347SOL     OW24673   2.280   3.146  13.362  0.7262 -0.3105 -0.5962
 4347SOL    HW124674   2.357   3.138  13.419  0.2886 -2.8539 -0.3549
 4347SOL    HW224675   2.284   3.240  13.344  0.1445 -0.2741 -0.5210
 4348SOL     OW24676   0.738   3.971  11.028  0.3415  0.1366  0.2302
 4348SOL    HW124677   0.730   3.997  11.120 -2.0031 -0.2404  0.1177
 4348SOL    HW224678   0.801   4.037  11.001 -0.2890  0.9163  0.6741
 4349SOL     OW24679   1.391   3.525  10.316  0.7547  0.6506  0.1868
 4349SOL    HW124680   1.411   3.470  10.241  0.8468 -1.9468  2.1372
 4349SOL    HW224681   1.321   3.577  10.276 -0.7683 -0.3987  1.5351
 4350SOL     OW24682   1.338   0.150   2.378  0.2743 -0.3676  0.6062
 4350SOL    HW124683   1.353   0.058   2.357 -0.4797  0.1688 -2.2828
 4350SOL    HW224684   1.406   0.193   2.326 -1.1516  0.3062 -0.7120
 4351SOL     OW24685   4.233   1.158   6.949  0.7643  0.4646  0.2808
 4351SOL    HW124686   4.198   1.184   7.034  1.6169  1.5158  0.3113
 4351SOL    HW224687   4.321   1.196   6.948  1.8759 -2.1290 -3.0395
 4352SOL     OW24688   3.899   2.294   7.523  0.1556 -0.5713 -0.0124
 4352SOL    HW124689   3.937   2.210   7.547 -0.4844 -0.5728  0.9862
 4352SOL    HW224690   3.826   2.294   7.585  0.7223  0.6346  0.6557
 4353SOL     OW24691   3.209   1.767  13.622 -0.5268  0.0230 -0.3495
 4353SOL    HW124692   3.229   1.849  13.666  0.3842 -0.3004 -0.1498
 4353SOL    HW224693   3.291   1.734  13.585  1.6746  1.4394  3.2986
 4354SOL     OW24694   1.513   3.416  15.000 -0.2805 -0.1995 -0.2707
 4354SOL    HW124695   1.469   3.486  15.049  1.1911  0.1817  0.4955
 4354SOL    HW224696   1.568   3.470  14.943 -0.2695  1.4158  1.2688
 4355SOL     OW24697   2.613   1.734  11.299  0.5572  0.1054  0.1580
 4355SOL    HW124698   2.691   1.697  11.341 -0.1894 -0.5498  0.9488
 4355SOL    HW224699   2.650   1.803  11.244  3.1108 -0.2095  1.4570
 4356SOL     OW24700   4.645   2.000   9.592 -0.4360 -0.0134 -0.0666
 4356SOL    HW124701   4.727   1.955   9.612  0.6650  3.4208  3.2231
 4356SOL    HW224702   4.660   2.026   9.501 -0.6830  0.3591 -0.0011
 4357SOL     OW24703   2.438   0.068   9.202 -0.2371 -0.2777 -0.2412
 4357SOL    HW124704   2.409   0.107   9.120 -1.8952  0.7145  0.7919
 4357SOL    HW224705   2.493   0.136   9.240 -1.3888  1.7477 -2.1712
 4358SOL     OW24706   2.660   0.817   7.568 -0.1220  0.2873 -0.9849
 4358SOL    HW124707   2.635   0.766   7.491 -2.5170 -0.5956  0.3760
 4358SOL    HW224708   2.589   0.881   7.573  0.8427  1.0918  2.6770
 4359SOL     OW24709   3.162   3.444   9.482 -0.2105 -0.7219 -0.2060
 4359SOL    HW124710   3.257   3.437   9.493 -0.1885 -0.8426 -0.4591
 4359SOL    HW224711   3.152   3.445   9.387 -2.6139 -0.7656  0.0606
 4360SOL     OW24712   2.409   3.610  13.371 -0.1651 -0.1842  0.4805
 4360SOL    HW124713   2.474   3.667  13.329 -0.1603  1.5881  2.8700
 4360SOL    HW224714   2.338   3.673  13.378  1.2060  1.3128  0.9087
 4361SOL     OW24715   0.812   1.711  14.228 -0.4823  0.0904 -0.0606
 4361SOL    HW124716   0.762   1.777  14.276  0.4962  0.4763  0.4281
 4361SOL    HW224717   0.886   1.699  14.288 -0.4515 -1.4273 -0.3944
 4362SOL     OW24718   0.371   1.151   7.287 -0.6006 -0.1579  0.3576
 4362SOL    HW124719   0.304   1.118   7.227  1.7633  0.7900 -2.7923
 4362SOL    HW224720   0.428   1.074   7.291 -0.7357 -0.3735 -1.6565
 4363SOL     OW24721   0.414   0.146   5.705  0.5426 -0.3630 -0.1071
 4363SOL    HW124722   0.339   0.088   5.692  0.6503 -0.7106  0.7934
 4363SOL    HW224723   0.383   0.215   5.648 -2.3964 -2.4695 -1.0579
 4364SOL     OW24724   0.780   0.651   3.634  0.4308  0.2497 -0.3197
 4364SOL    HW124725   0.738   0.590   3.573 -2.3003  2.7148 -0.9138
 4364SOL    HW224726   0.740   0.613   3.712 -1.1533  1.7164 -0.3977
 4365SOL     OW24727   4.480   1.487   8.617 -0.2009  0.2655  0.1877
 4365SOL    HW124728   4.403   1.457   8.663 -0.2664 -1.3526 -0.9608
 4365SOL    HW224729   4.439   1.489   8.531  1.6380 -0.1772 -0.7214
 4366SOL     OW24730   1.764   2.403   2.691  0.1122  0.5886  0.5945
 4366SOL    HW124731   1.718   2.475   2.648 -2.0328 -0.8204  0.5444
 4366SOL    HW224732   1.851   2.440   2.673 -0.5193  1.9117  0.2323
 4367SOL     OW24733   1.424   4.545   7.100  0.3418  0.6642 -0.7114
 4367SOL    HW124734   1.510   4.553   7.060  0.6764 -3.1288 -0.7320
 4367SOL    HW224735   1.427   4.470   7.159  0.9966  0.2933 -1.2231
 4368SOL     OW24736   0.478   2.042   7.715  0.1861 -0.3186  0.1376
 4368SOL    HW124737   0.448   1.959   7.679 -0.3164  0.0900 -0.3931
 4368SOL    HW224738   0.424   2.035   7.794  2.3516  0.2559  1.6816
 4369SOL     OW24739   1.678   2.974  10.915 -0.0143 -0.6289  0.0815
 4369SOL    HW124740   1.618   2.934  10.978 -2.7296 -0.7854 -2.5973
 4369SOL    HW224741   1.755   2.968  10.971  1.6735 -0.8567 -2.2850
 4370SOL     OW24742   2.879   2.580   7.647  0.0287  0.6967 -0.3445
 4370SOL    HW124743   2.965   2.555   7.613 -0.5825  0.1140 -1.4477
 4370SOL    HW224744   2.884   2.580   7.743 -0.7398 -2.2062 -0.3129
 4371SOL     OW24745   3.243   3.010   1.427  0.4236 -0.0354 -0.1676
 4371SOL    HW124746   3.205   2.922   1.427  0.7009 -0.1486  1.4867
 4371SOL    HW224747   3.231   3.024   1.333 -0.3557 -1.3838 -0.2603
 4372SOL     OW24748   2.944   4.350   3.665  0.2108 -0.7007  0.3381
 4372SOL    HW124749   3.008   4.308   3.608  0.6596  1.4674 -0.7925
 4372SOL    HW224750   2.958   4.318   3.754  2.1569 -2.1078 -0.4806
 4373SOL     OW24751   1.403   4.691   4.445  0.5821 -0.0672 -0.0104
 4373SOL    HW124752   1.309   4.678   4.427  0.5430 -0.1358  0.2454
 4373SOL    HW224753   1.420   4.608   4.490  0.7857 -1.5310 -2.7249
 4374SOL     OW24754   0.956   2.968   4.132  0.0201  0.2038  0.3033
 4374SOL    HW124755   1.013   2.920   4.072 -0.6181  0.8190 -0.7713
 4374SOL    HW224756   0.867   2.934   4.132 -0.6490  1.9961 -0.8194
 4375SOL     OW24757   0.373   4.406  10.096  0.2659 -0.4328 -0.0728
 4375SOL    HW124758   0.292   4.357  10.081 -0.1501  0.5594 -0.9643
 4375SOL    HW224759   0.354   4.435  10.185  1.9090 -0.4778  0.2925
 4376SOL     OW24760   2.011   1.997   3.991  0.3108 -0.5675  0.1212
 4376SOL    HW124761   2.009   1.905   4.018 -0.8477  0.0209  2.0842
 4376SOL    HW224762   2.100   2.003   3.956 -0.5417  2.9213 -1.4736
 4377SOL     OW24763   1.647   2.608   2.551 -0.3157 -0.2747 -0.4526
 4377SOL    HW124764   1.577   2.672   2.536  1.4166  1.6061 -0.3832
 4377SOL    HW224765   1.660   2.564   2.467 -2.7238 -0.0567 -0.9344
 4378SOL     OW24766   4.240   3.899  12.506 -0.3418 -0.0490  0.1908
 4378SOL    HW124767   4.319   3.875  12.458 -0.8396 -0.6488 -0.3238
 4378SOL    HW224768   4.269   3.983  12.542  2.1989 -0.5379 -0.7111
 4379SOL     OW24769   4.481   3.526  16.793 -0.4790  0.4264  0.4059
 4379SOL    HW124770   4.418   3.569  16.851 -1.6766  0.0802 -0.6387
 4379SOL    HW224771   4.511   3.602  16.744  0.4223  0.8177  1.5497
 4380SOL     OW24772   4.044   1.670   7.086 -0.1444  0.2901  0.3434
 4380SOL    HW124773   4.115   1.666   7.021  0.1694 -0.4604  0.7259
 4380SOL    HW224774   3.973   1.709   7.035 -1.7826 -2.2972  0.6108
 4381SOL     OW24775   0.573   2.280   0.486  0.7930 -0.4276 -0.3561
 4381SOL    HW124776   0.522   2.358   0.468  2.2802  0.1501 -2.0587
 4381SOL    HW224777   0.508   2.212   0.506 -0.1223  0.0830 -1.6425
 4382SOL     OW24778   2.698   3.694   6.944  0.0697 -0.1594 -0.0550
 4382SOL    HW124779   2.764   3.745   6.896  0.4007 -0.1010  0.4591
 4382SOL    HW224780   2.728   3.609   6.910 -0.5925 -0.4094 -0.0131
 4383SOL     OW24781   3.983   0.101   9.029 -0.2319  0.0549  0.4933
 4383SOL    HW124782   4.039   0.157   8.976 -1.4167  2.9540  2.2709
 4383SOL    HW224783   4.037   0.024   9.048 -0.1494  0.8932  3.7062
 4384SOL     OW24784   1.430   3.196  15.580 -0.0391 -0.3192  0.4779
 4384SOL    HW124785   1.394   3.126  15.526 -1.5482  0.5677  0.3259
 4384SOL    HW224786   1.344   3.223  15.611  0.2421  3.7982 -2.3721
 4385SOL     OW24787   4.606   3.525   9.260 -0.1151 -0.5962  0.2349
 4385SOL    HW124788   4.686   3.540   9.209  0.2370 -4.0591 -0.2439
 4385SOL    HW224789   4.535   3.548   9.200  0.0911  3.4752  1.5148
 4386SOL     OW24790   2.699   1.684   8.561  0.1780  0.5473 -0.0737
 4386SOL    HW124791   2.605   1.688   8.578  0.2136 -1.6295  0.6413
 4386SOL    HW224792   2.733   1.638   8.637  1.6247 -0.0157 -1.0586
 4387SOL     OW24793   0.846   4.625   6.589  0.4884  0.3529  0.0345
 4387SOL    HW124794   0.816   4.581   6.509 -2.2324  0.3214  1.0794
 4387SOL    HW224795   0.806   4.566   6.652  1.7006 -2.4547 -1.8187
 4388SOL     OW24796   4.114   1.598  12.428  0.7229  0.7515 -0.0867
 4388SOL    HW124797   4.038   1.594  12.486 -1.1051 -1.8317 -2.6507
 4388SOL    HW224798   4.072   1.649  12.359 -0.0132  0.2030 -0.0447
 4389SOL     OW24799   2.877   2.915   3.530  0.1598  0.1065  0.1869
 4389SOL    HW124800   2.865   2.919   3.625 -1.8320  2.4742 -0.1709
 4389SOL    HW224801   2.890   2.822   3.513  1.1723  0.2971 -0.0396
 4390SOL     OW24802   2.062   4.647   2.195 -0.2678  0.0147 -0.2853
 4390SOL    HW124803   1.975   4.609   2.182  0.4230 -2.0722  1.1426
 4390SOL    HW224804   2.116   4.594   2.137 -0.0677  0.6358 -0.6662
 4391SOL     OW24805   3.067   4.606   1.778 -0.1167  0.1612 -0.2737
 4391SOL    HW124806   3.125   4.636   1.708 -2.2893  1.5637 -1.4602
 4391SOL    HW224807   3.006   4.680   1.777 -0.9272 -0.5619 -3.5620
 4392SOL     OW24808   1.226   1.009   7.703 -0.3652  0.2936  0.0057
 4392SOL    HW124809   1.321   1.020   7.698 -0.1350 -0.8710  1.7589
 4392SOL    HW224810   1.207   1.094   7.742 -0.6310 -1.0780  2.8281
 4393SOL     OW24811   2.274   0.129  14.719 -0.2221 -0.2611  0.3164
 4393SOL    HW124812   2.276   0.214  14.675  0.1431 -0.3729  0.1166
 4393SOL    HW224813   2.187   0.094  14.705 -1.0484  0.2151  4.2737
 4394SOL     OW24814   0.397   1.003   9.217 -0.1113 -0.3415  0.7380
 4394SOL    HW124815   0.388   0.911   9.192 -1.0734  0.0672 -0.4521
 4394SOL    HW224816   0.406   1.045   9.131  0.3878 -2.7289 -0.3652
 4395SOL     OW24817   0.455   3.422  15.647 -0.0796  0.1194 -0.0002
 4395SOL    HW124818   0.390   3.442  15.715  0.7895 -0.7490  1.0811
 4395SOL    HW224819   0.424   3.490  15.587  0.8674  2.1336  1.7812
 4396SOL     OW24820   0.136   0.585  17.330 -0.2264  0.0519  0.1119
 4396SOL    HW124821   0.104   0.532  17.258 -2.9540  0.2920  1.1560
 4396SOL    HW224822   0.102   0.530  17.400  1.3362  0.3695  1.1410
 4397SOL     OW24823   3.306   3.599   9.886 -0.5254  0.0869  0.2207
 4397SOL    HW124824   3.305   3.646   9.803  1.7395  1.3428  0.8995
 4397SOL    HW224825   3.381   3.641   9.928 -2.3225  2.6040  0.9127
 4398SOL     OW24826   3.955   0.142  14.972 -0.5204  0.3617  0.7603
 4398SOL    HW124827   3.869   0.182  14.982 -1.5358 -1.5724 -0.2954
 4398SOL    HW224828   3.934   0.049  14.966 -0.9049  0.5159 -0.2429
 4399SOL     OW24829   1.845   0.596  15.181 -0.4259  0.0494 -0.6206
 4399SOL    HW124830   1.913   0.663  15.187 -0.8039  0.4675 -1.0106
 4399SOL    HW224831   1.826   0.605  15.088  2.1510 -1.8106 -1.3103
 4400SOL     OW24832   3.810   1.820   7.557  0.0686  0.2207  0.1129
 4400SOL    HW124833   3.768   1.738   7.531 -3.6840  2.2913 -0.4956
 4400SOL    HW224834   3.749   1.887   7.526 -1.6065 -0.0744  2.7316
 4401SOL     OW24835   2.631   2.663  14.898 -0.2434 -0.3502  0.7801
 4401SOL    HW124836   2.608   2.647  14.989 -0.3214  0.7140  0.9518
 4401SOL    HW224837   2.584   2.592  14.854 -1.1918  1.9811 -1.9962
 4402SOL     OW24838   3.842   3.659   5.549 -0.0982 -0.0547 -0.6948
 4402SOL    HW124839   3.752   3.691   5.555 -0.1024 -0.4178  1.2898
 4402SOL    HW224840   3.877   3.729   5.605  1.0079  0.2736 -1.8241
 4403SOL     OW24841   0.823   1.713   4.440  0.0485 -0.1067 -0.6614
 4403SOL    HW124842   0.908   1.689   4.402  0.0185  0.2419 -0.9614
 4403SOL    HW224843   0.822   1.805   4.412  1.3676 -0.7969 -3.0611
 4404SOL     OW24844   2.646   3.911   2.253 -0.6839 -0.4192 -0.0613
 4404SOL    HW124845   2.722   3.886   2.306 -0.4391 -0.1370 -0.2786
 4404SOL    HW224846   2.686   3.870   2.177  0.5909  0.0300  0.3581
 4405SOL     OW24847   0.955   1.777   6.711 -0.1336 -0.0180  0.4942
 4405SOL    HW124848   0.867   1.763   6.677  0.6521  0.3066 -1.6707
 4405SOL    HW224849   0.996   1.805   6.629 -0.1208 -0.3797  0.3778
 4406SOL     OW24850   0.041   1.035  13.307 -0.2706 -0.2011 -0.5691
 4406SOL    HW124851   4.686   1.075  13.304 -0.5772 -0.8209  0.0350
 4406SOL    HW224852   0.069   1.045  13.216  0.3553  0.3487 -0.3090
 4407SOL     OW24853   1.798   3.864   2.739  0.0513  0.5659 -0.2504
 4407SOL    HW124854   1.892   3.881   2.742  0.3486 -0.7255 -1.6612
 4407SOL    HW224855   1.784   3.935   2.677  3.5306  3.4432  2.3009
 4408SOL     OW24856   4.151   4.029   2.226 -0.0104  0.9719 -0.1593
 4408SOL    HW124857   4.239   4.037   2.263  0.6421  0.3832 -1.5978
 4408SOL    HW224858   4.163   3.945   2.183  1.1980  0.5728  0.9794
 4409SOL     OW24859   4.633   0.431   5.225 -0.1003  0.3370  0.2645
 4409SOL    HW124860   4.659   0.517   5.257 -0.4070  0.6980 -0.4581
 4409SOL    HW224861   4.704   0.412   5.164 -0.5630  2.4844 -0.9186
 4410SOL     OW24862   0.953   0.543   6.085  0.9025  0.7568 -0.1410
 4410SOL    HW124863   1.015   0.616   6.075 -0.7574  1.9021 -2.0535
 4410SOL    HW224864   0.874   0.579   6.126 -0.4109 -0.0531 -1.9520
 4411SOL     OW24865   2.501   1.002  15.769  0.0812 -0.1038  0.4820
 4411SOL    HW124866   2.553   0.967  15.840  1.2592  1.8472  0.5922
 4411SOL    HW224867   2.489   1.093  15.796 -3.9328 -0.8646  1.3087
 4412SOL     OW24868   4.410   4.026   0.309  0.0331  0.7721 -0.2033
 4412SOL    HW124869   4.344   4.095   0.300 -0.0928  0.5870 -0.7076
 4412SOL    HW224870   4.352   3.976   0.366  0.5423  1.2549  0.7433
 4413SOL     OW24871   1.154   4.597   1.909  0.2062  0.6183  0.6825
 4413SOL    HW124872   1.204   4.545   1.973 -2.0254 -2.2977  0.0483
 4413SOL    HW224873   1.152   4.682   1.952 -0.9765  0.5139  0.8147
 4414SOL     OW24874   3.543   1.277   8.836 -0.0603 -0.2943  0.0630
 4414SOL    HW124875   3.564   1.189   8.803 -2.4270 -0.6869 -0.4164
 4414SOL    HW224876   3.449   1.282   8.818 -0.4318  1.4541  2.4803
 4415SOL     OW24877   3.551   2.294   7.394 -0.3770  0.1700 -0.3812
 4415SOL    HW124878   3.514   2.284   7.306  0.4585  0.2213 -0.7346
 4415SOL    HW224879   3.595   2.210   7.406  1.5617  0.9960 -1.8039
 4416SOL     OW24880   3.902   1.507   5.264  0.2791 -0.0558 -0.3018
 4416SOL    HW124881   3.862   1.473   5.184  0.2586  2.8276 -1.5347
 4416SOL    HW224882   3.935   1.587   5.225  1.1736 -1.2680 -1.9960
 4417SOL     OW24883   4.291   3.322   8.336  0.0536 -0.5404  0.0604
 4417SOL    HW124884   4.313   3.230   8.323 -1.8204 -0.8465 -0.9419
 4417SOL    HW224885   4.321   3.358   8.253 -1.3034 -0.3662 -0.3510
 4418SOL     OW24886   3.612   4.324  11.314 -0.2164  0.2835 -0.1746
 4418SOL    HW124887   3.626   4.253  11.377 -0.1642 -0.0278 -0.5359
 4418SOL    HW224888   3.699   4.362  11.326 -1.0436  1.8362  0.9295
 4419SOL     OW24889   3.818   2.127   2.477  0.0313 -0.0183 -0.4411
 4419SOL    HW124890   3.849   2.156   2.563 -0.5682 -0.3423 -0.1122
 4419SOL    HW224891   3.893   2.114   2.419  0.2286  0.3784 -0.2815
 4420SOL     OW24892   4.674   1.888   2.467  1.2971 -0.1571 -0.3604
 4420SOL    HW124893   4.680   1.794   2.445 -1.0734 -0.8139  1.8824
 4420SOL    HW224894   4.600   1.890   2.526  1.2418 -0.6475 -0.4063
 4421SOL     OW24895   3.383   3.184  16.217 -0.1966 -0.2172 -0.7082
 4421SOL    HW124896   3.388   3.101  16.264 -1.1459  1.1700  1.8851
 4421SOL    HW224897   3.353   3.239  16.290  2.1657  0.3964 -0.2155
 4422SOL     OW24898   4.618   4.416  10.030  0.4178 -0.5623 -0.2315
 4422SOL    HW124899   4.672   4.366   9.969  0.9449  0.7253 -0.8212
 4422SOL    HW224900   4.631   4.505   9.998 -1.3012  0.0018  0.6422
 4423SOL     OW24901   2.467   1.509  12.744  0.3157  0.3726 -0.1541
 4423SOL    HW124902   2.464   1.597  12.781 -0.5208 -0.0412  0.7464
 4423SOL    HW224903   2.457   1.529  12.651 -1.1057 -1.7765 -0.4478
 4424SOL     OW24904   0.800   2.213   7.851  0.2107 -0.4777  0.4569
 4424SOL    HW124905   0.895   2.199   7.851  0.0000 -1.9535 -1.6450
 4424SOL    HW224906   0.791   2.203   7.756 -0.8918 -1.1263  0.6238
 4425SOL     OW24907   3.241   3.476   5.202  0.6279  0.1297  0.0399
 4425SOL    HW124908   3.301   3.506   5.133  1.4504 -1.3065  0.1180
 4425SOL    HW224909   3.169   3.537   5.189  0.9845  0.8266  1.3514
 4426SOL     OW24910   0.284   4.683   0.310 -0.6395  0.2355  0.7811
 4426SOL    HW124911   0.365   4.636   0.290 -0.8156  1.7370 -3.3292
 4426SOL    HW224912   0.331   0.033   0.324 -0.0579  0.0140  0.1592
 4427SOL     OW24913   0.874   3.801   4.465  0.2060 -0.6086  0.7879
 4427SOL    HW124914   0.804   3.777   4.404 -1.7154  2.1498  1.9468
 4427SOL    HW224915   0.907   3.871   4.409 -2.7387  0.3829  0.2516
 4428SOL     OW24916   3.143   1.562   6.871  0.3235  0.0860  0.0744
 4428SOL    HW124917   3.154   1.479   6.917 -2.2338  0.6501  1.6912
 4428SOL    HW224918   3.050   1.580   6.884 -0.7242 -3.5296 -2.1552
 4429SOL     OW24919   3.158   2.631   1.642 -0.4802  0.0832 -0.2380
 4429SOL    HW124920   3.188   2.655   1.729  0.9620  0.2650 -0.7800
 4429SOL    HW224921   3.171   2.537   1.626 -0.2049  0.2860 -1.2433
 4430SOL     OW24922   1.084   4.120  14.271 -0.5000  0.0821 -0.4358
 4430SOL    HW124923   1.100   4.095  14.362  0.1053  0.9619 -0.3000
 4430SOL    HW224924   1.040   4.038  14.248 -0.0477 -0.4496  0.5951
 4431SOL     OW24925   2.121   1.581  15.203  0.5554  0.1929  0.1908
 4431SOL    HW124926   2.173   1.517  15.252 -2.6373 -2.1123  0.6160
 4431SOL    HW224927   2.053   1.613  15.263  1.4873 -1.1034  1.9167
 4432SOL     OW24928   1.628   2.483  16.947  0.0725 -0.5157 -0.3462
 4432SOL    HW124929   1.683   2.516  17.018 -0.5965  0.7856 -0.4327
 4432SOL    HW224930   1.566   2.428  16.995 -0.9320  0.2635 -0.7443
 4433SOL     OW24931   2.686   1.356   6.984  0.5677 -0.0231 -0.2143
 4433SOL    HW124932   2.696   1.290   6.915 -1.4678  0.4583 -0.9641
 4433SOL    HW224933   2.674   1.442   6.943  1.2932  0.6370  0.9518
 4434SOL     OW24934   0.865   0.479   2.232  0.5699 -0.2861 -0.1019
 4434SOL    HW124935   0.788   0.422   2.231  1.3141 -1.3563  1.9559
 4434SOL    HW224936   0.941   0.420   2.237  0.7860 -0.1153 -1.4541
 4435SOL     OW24937   0.062   1.031   3.927 -0.2141  0.8101 -0.6238
 4435SOL    HW124938   0.143   1.051   3.881 -1.0785 -0.8843 -2.8741
 4435SOL    HW224939   0.087   1.049   4.018  2.7303 -1.9198 -0.8655
 4436SOL     OW24940   3.428   4.386   9.171 -0.1369  0.1832  0.2013
 4436SOL    HW124941   3.450   4.300   9.135 -0.3919  0.2752 -0.1731
 4436SOL    HW224942   3.440   4.446   9.098  0.0160 -0.7170 -0.5176
 4437SOL     OW24943   2.337   0.530  11.972 -0.0560 -0.4197  0.0443
 4437SOL    HW124944   2.426   0.495  11.968 -0.1555 -0.6237 -0.3611
 4437SOL    HW224945   2.309   0.517  11.882  0.1422  0.9044 -0.2123
 4438SOL     OW24946   1.660   2.471   7.064 -0.4910  0.2036  0.0512
 4438SOL    HW124947   1.672   2.377   7.048 -1.3419 -0.0354  0.8220
 4438SOL    HW224948   1.569   2.468   7.095  0.5248  0.3966  3.0086
 4439SOL     OW24949   4.642   4.003   6.883  0.5728 -0.1574 -0.2064
 4439SOL    HW124950   4.652   3.908   6.875 -0.0430 -0.3180  1.0224
 4439SOL    HW224951   4.680   4.028   6.798 -2.5051 -2.0190 -2.1125
 4440SOL     OW24952   0.116   3.558   5.557 -0.2067 -0.2136  0.2614
 4440SOL    HW124953   0.086   3.542   5.647 -3.1286 -0.0301 -0.6710
 4440SOL    HW224954   0.210   3.574   5.560 -0.3815  1.3060 -3.0314
 4441SOL     OW24955   2.450   1.574   3.277  0.8179  0.1582 -0.5562
 4441SOL    HW124956   2.410   1.660   3.262 -0.3072 -0.3923 -0.7099
 4441SOL    HW224957   2.540   1.606   3.270  0.0665  1.7178 -3.3612
 4442SOL     OW24958   4.329   4.074   6.445 -1.0238 -0.1225  0.2030
 4442SOL    HW124959   4.255   4.018   6.467 -1.2249 -0.4854 -1.3517
 4442SOL    HW224960   4.322   4.151   6.501 -1.3903 -0.8166  1.0927
 4443SOL     OW24961   1.002   0.197   1.097 -0.5408  0.2162 -0.2569
 4443SOL    HW124962   1.018   0.271   1.039 -0.6895 -0.2262 -0.8524
 4443SOL    HW224963   1.045   0.126   1.049 -0.5650 -0.2940  0.4695
 4444SOL     OW24964   0.170   2.007   4.004 -0.3987 -0.0011 -0.3760
 4444SOL    HW124965   0.184   2.080   4.064 -0.2524 -0.9792  0.7718
 4444SOL    HW224966   0.229   1.939   4.037 -0.5240 -0.2772 -0.7231
 4445SOL     OW24967   3.267   3.883  17.167 -0.4092 -0.2107  0.0360
 4445SOL    HW124968   3.318   3.938  17.108 -0.0903 -0.3716  0.1631
 4445SOL    HW224969   3.272   3.938  17.245 -3.0777  0.8084 -0.5088
 4446SOL     OW24970   4.634   1.649   2.813 -1.0200 -0.1440  0.1353
 4446SOL    HW124971   4.655   1.706   2.887  0.9124 -1.4730  0.6063
 4446SOL    HW224972   4.576   1.592   2.863  1.6088 -2.6934  0.2787
 4447SOL     OW24973   2.280   2.150   7.364  0.0423 -0.3163 -0.0355
 4447SOL    HW124974   2.204   2.183   7.413  0.4576 -0.2643  0.5708
 4447SOL    HW224975   2.336   2.111   7.431  1.9254 -0.3016 -1.6211
 4448SOL     OW24976   2.440   4.480   5.322 -0.2487  0.2380 -0.3115
 4448SOL    HW124977   2.405   4.532   5.395 -2.2589 -2.0674  0.3708
 4448SOL    HW224978   2.379   4.500   5.251  1.1480  0.6779 -1.3959
 4449SOL     OW24979   1.572   1.217   9.902  0.0165 -0.2367  0.7825
 4449SOL    HW124980   1.540   1.306   9.914  2.8475  1.2709 -2.9117
 4449SOL    HW224981   1.507   1.176   9.845  0.4641  0.4269 -0.2021
 4450SOL     OW24982   0.817   0.731   4.481 -0.3359 -0.5377  0.3667
 4450SOL    HW124983   0.884   0.729   4.549 -1.4609 -0.9254  1.4770
 4450SOL    HW224984   0.741   0.741   4.538  0.1455  0.3021  0.8443
 4451SOL     OW24985   1.063   2.852   1.676  0.4304  0.4193  0.0912
 4451SOL    HW124986   1.048   2.945   1.691 -1.9872 -0.0301  0.4048
 4451SOL    HW224987   1.106   2.828   1.758  0.6977 -0.5663 -0.3292
 4452SOL     OW24988   3.070   3.632   3.497  0.1850 -0.5105  0.5798
 4452SOL    HW124989   3.095   3.599   3.584  0.6471  0.9204  1.0070
 4452SOL    HW224990   3.016   3.560   3.464 -1.2464  0.1129  1.5482
 4453SOL     OW24991   3.852   0.662   6.611 -0.3681  0.7038 -0.4534
 4453SOL    HW124992   3.804   0.619   6.682  1.3475  0.4786  0.5562
 4453SOL    HW224993   3.895   0.594   6.559 -3.7788  0.8245 -3.3834
 4454SOL     OW24994   2.775   3.097   2.468 -0.5623 -0.2648  0.0611
 4454SOL    HW124995   2.768   3.091   2.372 -0.8535 -1.5861  0.1672
 4454SOL    HW224996   2.871   3.099   2.469 -0.5878  2.0520 -2.2083
 4455SOL     OW24997   3.315   2.370   1.004  0.1656  0.0803  0.1413
 4455SOL    HW124998   3.303   2.465   1.004 -0.9164 -0.0593 -1.1125
 4455SOL    HW224999   3.226   2.338   1.012  0.8955 -1.7651  1.0089
 4456SOL     OW25000   1.588   3.168   5.601  0.5405 -0.2881  0.1807
 4456SOL    HW125001   1.616   3.091   5.651 -0.8436 -1.5704 -1.0086
 4456SOL    HW225002   1.641   3.242   5.631 -2.3157  0.4207  3.5243
 4457SOL     OW25003   4.280   1.931   2.702  0.2544 -0.0622  0.2310
 4457SOL    HW125004   4.187   1.905   2.697  0.5435 -0.8295 -1.3432
 4457SOL    HW225005   4.273   2.024   2.681 -0.7494  0.2773  2.0318
 4458SOL     OW25006   4.728   3.536   4.263 -0.2274 -0.0582  0.0405
 4458SOL    HW125007   4.707   3.588   4.341  1.0545 -0.8767  0.9306
 4458SOL    HW225008   0.012   3.449   4.300 -1.2096  0.1804  1.0222
 4459SOL     OW25009   3.804   4.105   0.614 -0.6234  0.2520 -0.0376
 4459SOL    HW125010   3.754   4.168   0.666 -0.4880  0.4880 -0.1927
 4459SOL    HW225011   3.751   4.031   0.643  1.6022 -1.3351 -0.0371
 4460SOL     OW25012   0.540   2.150   7.078 -0.1886 -0.1101 -0.3441
 4460SOL    HW125013   0.619   2.147   7.025 -0.7204 -1.2872 -1.0749
 4460SOL    HW225014   0.533   2.243   7.099  0.4508  0.2083 -1.5080
 4461SOL     OW25015   1.403   2.582  10.739 -0.2942 -0.0050 -0.2949
 4461SOL    HW125016   1.492   2.547  10.752  0.4417  1.8235 -0.4401
 4461SOL    HW225017   1.375   2.579  10.831 -1.4403 -0.3030 -0.6601
 4462SOL     OW25018   1.393   2.904  12.486  0.3150 -0.0495 -0.1825
 4462SOL    HW125019   1.470   2.959  12.469 -0.7306  2.0221  1.8434
 4462SOL    HW225020   1.322   2.966  12.471  1.7071  1.5262 -0.2675
 4463SOL     OW25021   3.799   1.097   7.387  0.0363  0.7273  0.0878
 4463SOL    HW125022   3.817   1.009   7.354  0.6724  0.6120  0.7358
 4463SOL    HW225023   3.832   1.152   7.315 -0.5270  0.6460 -0.2341
 4464SOL     OW25024   2.919   3.418   3.393 -0.4035  0.0839 -0.2542
 4464SOL    HW125025   2.926   3.323   3.400 -2.4146 -0.1106 -0.7501
 4464SOL    HW225026   2.839   3.442   3.345  0.6467  0.7438 -1.6626
 4465SOL     OW25027   1.991   3.440   3.055 -0.1689  0.3795 -0.3987
 4465SOL    HW125028   1.978   3.519   3.108  0.4017  0.0871  0.1735
 4465SOL    HW225029   1.959   3.466   2.969 -0.0026  1.2050 -0.2161
 4466SOL     OW25030   4.386   2.198   2.367  0.4411 -0.4252 -0.2377
 4466SOL    HW125031   4.448   2.249   2.418 -1.7388  2.6765 -0.6477
 4466SOL    HW225032   4.304   2.198   2.417  1.1576  0.5013  0.9205
 4467SOL     OW25033   1.822   1.102  15.278  0.0218 -0.2465  0.5674
 4467SOL    HW125034   1.849   1.054  15.199  0.9843  0.7443  0.2858
 4467SOL    HW225035   1.817   1.034  15.344 -1.4785  0.0425  0.7482
 4468SOL     OW25036   3.853   1.750  10.008 -0.1944 -0.0298 -0.0307
 4468SOL    HW125037   3.885   1.793  10.087  0.0772  1.6398 -1.0484
 4468SOL    HW225038   3.767   1.715  10.030  0.2517 -0.4650  1.0155
 4469SOL     OW25039   1.656   0.110  15.948 -0.1721 -0.6768 -0.5060
 4469SOL    HW125040   1.623   0.023  15.923 -0.4131 -0.2039 -1.8312
 4469SOL    HW225041   1.578   0.163  15.929 -0.6543 -0.2328  2.7125
 4470SOL     OW25042   4.361   3.300   4.032 -0.3691 -0.6187 -0.5054
 4470SOL    HW125043   4.416   3.370   4.068 -0.5696 -1.0226  0.5920
 4470SOL    HW225044   4.426   3.262   3.973 -0.5557 -0.6282 -0.7034
 4471SOL     OW25045   3.992   3.322   2.084  0.1590  0.0879 -0.0043
 4471SOL    HW125046   4.038   3.335   2.167  0.3430  0.6294 -0.1957
 4471SOL    HW225047   3.922   3.263   2.115 -0.7626  1.4320  0.4645
 4472SOL     OW25048   2.532   3.910   0.833  0.1545 -0.2781 -0.6344
 4472SOL    HW125049   2.578   3.848   0.777  1.3869  1.1059 -1.1352
 4472SOL    HW225050   2.460   3.854   0.862 -0.4631 -0.0966 -1.8006
 4473SOL     OW25051   3.905   3.730   4.716  0.4706  0.5272  0.0045
 4473SOL    HW125052   3.817   3.694   4.714  0.7481 -0.0811 -0.9434
 4473SOL    HW225053   3.912   3.785   4.794  3.1186 -1.0503  0.8962
 4474SOL     OW25054   0.284   0.450   3.090  0.4001  0.1700  0.1774
 4474SOL    HW125055   0.266   0.538   3.056  0.1537 -0.1817 -0.5988
 4474SOL    HW225056   0.377   0.462   3.105  0.6061  0.6082 -1.4357
 4475SOL     OW25057   0.462   1.960   6.702 -0.1467  0.0105 -0.2356
 4475SOL    HW125058   0.387   1.919   6.658 -1.3590  2.5839 -0.5173
 4475SOL    HW225059   0.508   1.978   6.619  1.5993  1.0320  0.9648
 4476SOL     OW25060   0.031   1.048  12.647 -0.0068 -0.2534  0.0775
 4476SOL    HW125061   0.049   1.140  12.664 -0.7068 -0.3209  1.2127
 4476SOL    HW225062   4.727   1.043  12.559  2.1945 -2.5315 -0.7129
 4477SOL     OW25063   4.593   3.815   2.275 -0.3099 -0.2685  0.0972
 4477SOL    HW125064   4.563   3.733   2.236  2.0412 -1.7163  1.3333
 4477SOL    HW225065   4.672   3.787   2.321  0.4301  0.6677 -0.5967
 4478SOL     OW25066   2.977   2.410   4.819 -0.2295  0.1803  0.2527
 4478SOL    HW125067   2.891   2.424   4.779 -0.0469  0.0805 -0.1718
 4478SOL    HW225068   2.972   2.459   4.901 -0.4083  1.2687 -0.4017
 4479SOL     OW25069   2.819   0.810   7.212  0.1146 -0.1196  0.0013
 4479SOL    HW125070   2.847   0.769   7.294 -0.2420 -0.8852 -0.2528
 4479SOL    HW225071   2.871   0.757   7.151  0.4490  0.8739 -0.5687
 4480SOL     OW25072   1.401   2.542   7.780 -0.4905  0.2717 -0.0866
 4480SOL    HW125073   1.421   2.457   7.740  0.4286  0.6017 -0.3242
 4480SOL    HW225074   1.318   2.554   7.735  0.8927  0.6667 -2.5395
 4481SOL     OW25075   2.660   4.576  11.069 -0.0773  0.2013 -0.1244
 4481SOL    HW125076   2.746   4.548  11.037 -0.5886  0.7626 -2.0119
 4481SOL    HW225077   2.635   4.602  10.980  0.5100  1.2741  0.0230
 4482SOL     OW25078   3.907   3.948   5.237  0.8320  0.5693  0.3844
 4482SOL    HW125079   3.933   3.879   5.299  3.4625  1.9299  0.8214
 4482SOL    HW225080   3.994   3.982   5.216  0.7011  0.9832  0.4962
 4483SOL     OW25081   2.858   0.988   9.119  0.5432  0.4660 -0.0416
 4483SOL    HW125082   2.827   0.980   9.209  3.3686  0.3741  0.9213
 4483SOL    HW225083   2.845   0.899   9.087  1.2592  0.8359 -1.3919
 4484SOL     OW25084   0.409   1.098   2.573  0.0044 -0.2532  0.7399
 4484SOL    HW125085   0.328   1.109   2.523  0.8172 -2.0956 -0.9744
 4484SOL    HW225086   0.483   1.092   2.513 -0.5523  0.6454 -0.0328
 4485SOL     OW25087   1.718   0.600  17.329  0.2553  0.1117 -0.1329
 4485SOL    HW125088   1.675   0.522  17.364 -1.5478  2.0106  1.8234
 4485SOL    HW225089   1.681   0.599  17.240 -0.7082  0.7180  0.2669
 4486SOL     OW25090   2.456   2.370   5.595 -0.0761  0.4693  0.0660
 4486SOL    HW125091   2.481   2.290   5.548  0.5539  1.0280 -0.5546
 4486SOL    HW225092   2.400   2.407   5.527  1.6602  0.7674 -1.2108
 4487SOL     OW25093   1.145   2.209   9.039  0.2324  0.2444  0.0061
 4487SOL    HW125094   1.195   2.144   8.990  1.4723 -0.2002  1.8551
 4487SOL    HW225095   1.064   2.214   8.989 -0.6382  2.5035  1.6501
 4488SOL     OW25096   0.480   1.985   6.241  0.1186 -0.2186  0.5763
 4488SOL    HW125097   0.428   2.055   6.279  0.6173  0.1434  0.5980
 4488SOL    HW225098   0.437   1.907   6.275 -2.1591  0.8084  0.0204
 4489SOL     OW25099   2.525   2.087   5.547  0.5677  0.6162  0.2648
 4489SOL    HW125100   2.479   2.015   5.590 -1.5048  0.5152 -2.0682
 4489SOL    HW225101   2.501   2.069   5.456 -3.0631  0.7829  1.1729
 4490SOL     OW25102   3.926   2.982   9.079  0.0454 -0.4443 -0.0071
 4490SOL    HW125103   3.981   2.962   9.003  0.2431  0.9169 -0.2314
 4490SOL    HW225104   3.892   3.071   9.065  0.1933 -0.4388 -0.3326
 4491SOL     OW25105   4.432   4.354   5.160  0.3103 -0.4065  1.0267
 4491SOL    HW125106   4.516   4.397   5.173  0.8558 -0.8387 -1.0316
 4491SOL    HW225107   4.427   4.370   5.066 -2.2844  3.0103  1.7556
 4492SOL     OW25108   4.070   0.494  15.108  0.1699  0.0441  0.5006
 4492SOL    HW125109   3.999   0.442  15.069  0.8014  0.9754 -1.8906
 4492SOL    HW225110   4.138   0.495  15.040  0.5551  1.0498  0.8960
 4493SOL     OW25111   4.082   4.059   0.631 -0.0798  0.8934 -0.5852
 4493SOL    HW125112   4.078   3.992   0.699  0.1998  1.4481 -0.0203
 4493SOL    HW225113   3.989   4.078   0.622 -0.0049  0.7971 -1.5572
 4494SOL     OW25114   4.334   3.613   4.958  0.2030  0.4408  0.1095
 4494SOL    HW125115   4.376   3.628   4.873 -1.5414 -2.1807 -1.1964
 4494SOL    HW225116   4.256   3.566   4.929  0.0437  0.7793 -0.0120
 4495SOL     OW25117   3.427   1.618   7.430  0.2795 -0.4285 -0.0966
 4495SOL    HW125118   3.483   1.581   7.499  0.4364 -0.0083  0.0030
 4495SOL    HW225119   3.388   1.538   7.396  2.7666 -1.0150 -1.5852
 4496SOL     OW25120   4.289   0.121   3.142  0.0217 -0.0473 -0.0249
 4496SOL    HW125121   4.195   0.132   3.134 -0.0302 -1.3818 -1.2058
 4496SOL    HW225122   4.303   0.028   3.158 -1.0922 -0.0027  1.2106
 4497SOL     OW25123   1.872   2.886   7.584 -0.2433 -0.2531 -0.0413
 4497SOL    HW125124   1.936   2.926   7.643 -0.3789  0.1242 -0.1491
 4497SOL    HW225125   1.919   2.814   7.542  1.4451  1.5203 -1.2212
 4498SOL     OW25126   2.932   2.553   2.258 -0.1680 -0.2286 -0.1158
 4498SOL    HW125127   2.966   2.464   2.250  0.4980 -0.0673  0.9061
 4498SOL    HW225128   2.842   2.529   2.280 -0.5604 -0.3345 -1.8680
 4499SOL     OW25129   0.833   4.400   4.340  0.2091  0.2542  0.1581
 4499SOL    HW125130   0.835   4.465   4.410 -0.9762 -0.4582  0.8586
 4499SOL    HW225131   0.838   4.314   4.381  0.1991  0.2635  0.1791
 4500SOL     OW25132   1.232   1.878  12.757 -0.0615  0.1728 -0.4263
 4500SOL    HW125133   1.268   1.796  12.791  1.1101  0.6583 -0.4672
 4500SOL    HW225134   1.303   1.942  12.762  0.3891 -0.3169 -0.5682
 4501SOL     OW25135   4.558   4.608   0.465 -0.3630  0.5842 -0.1405
 4501SOL    HW125136   4.519   4.632   0.549  1.6114  1.2479  0.5939
 4501SOL    HW225137   4.650   4.629   0.482 -0.0785  0.4381 -1.5141
 4502SOL     OW25138   3.434   0.845   4.188 -0.1752  0.2438 -0.4352
 4502SOL    HW125139   3.406   0.864   4.099 -2.4218  1.3143  0.5086
 4502SOL    HW225140   3.503   0.910   4.202 -0.0079  0.4477 -2.3082
 4503SOL     OW25141   0.551   2.899  13.632 -0.6849 -0.0085  0.3451
 4503SOL    HW125142   0.598   2.965  13.683  0.1533 -1.0087  0.8768
 4503SOL    HW225143   0.589   2.817  13.665 -0.4758 -0.6122 -1.4102
 4504SOL     OW25144   2.132   2.842  14.345  0.0123  0.4961  0.6125
 4504SOL    HW125145   2.051   2.818  14.391 -0.4458 -1.8310 -1.4681
 4504SOL    HW225146   2.104   2.906  14.279  0.6729  0.8945  0.7184
 4505SOL     OW25147   0.162   3.699   4.695 -0.1376  0.2398  0.1805
 4505SOL    HW125148   0.119   3.699   4.780 -1.1383  0.5063 -0.3244
 4505SOL    HW225149   0.244   3.658   4.725 -0.4971 -0.7821 -0.2268
 4506SOL     OW25150   4.326   2.503   1.374  0.4110 -0.3042  0.2032
 4506SOL    HW125151   4.362   2.421   1.410  0.4943 -0.3690 -0.0294
 4506SOL    HW225152   4.312   2.469   1.285 -1.6598  0.8693  0.0793
 4507SOL     OW25153   1.590   1.714   7.495  0.2006  0.4135 -0.4501
 4507SOL    HW125154   1.585   1.773   7.571 -0.9883 -0.9053  0.4861
 4507SOL    HW225155   1.646   1.644   7.529 -1.7700 -0.7506  0.3341
 4508SOL     OW25156   4.323   2.562   7.873 -0.1103  0.3003 -0.4567
 4508SOL    HW125157   4.370   2.555   7.790  1.3781  1.3759  0.3132
 4508SOL    HW225158   4.369   2.639   7.907 -0.7426  0.6662 -0.4302
 4509SOL     OW25159   2.114   2.286   9.343 -0.1582  0.4906  0.0490
 4509SOL    HW125160   2.086   2.374   9.368 -0.2897  0.3273  0.4743
 4509SOL    HW225161   2.041   2.246   9.296 -1.6374 -0.2988  3.0574
 4510SOL     OW25162   3.957   3.455  13.992  0.4445  0.4077 -0.0613
 4510SOL    HW125163   3.911   3.538  13.983  1.4506  1.0566  0.8354
 4510SOL    HW225164   4.045   3.483  13.966  0.5126 -0.9265 -1.2907
 4511SOL     OW25165   3.669   0.170   1.032  0.1515  0.0124 -0.2480
 4511SOL    HW125166   3.618   0.089   1.031  2.1666 -1.2748  1.1071
 4511SOL    HW225167   3.635   0.220   1.107 -1.9827 -0.6420 -0.7685
 4512SOL     OW25168   3.993   3.015   4.788 -0.2863 -0.6809 -0.4027
 4512SOL    HW125169   4.021   2.926   4.766  1.4902 -0.5940  1.5352
 4512SOL    HW225170   4.067   3.037   4.844 -2.2505  0.6795  1.6558
 4513SOL     OW25171   0.633   4.594   8.604 -0.0066 -0.1018 -0.5406
 4513SOL    HW125172   0.623   4.665   8.540  2.8239  1.2417  0.4876
 4513SOL    HW225173   0.584   4.521   8.565 -0.6020  0.0900 -0.1408
 4514SOL     OW25174   3.421   3.980  13.211 -0.0140  0.6401 -0.3314
 4514SOL    HW125175   3.443   3.889  13.232 -1.7044  0.4187  0.4538
 4514SOL    HW225176   3.417   3.967  13.116 -0.2456  2.3212 -0.5432
 4515SOL     OW25177   3.019   2.194   2.052 -0.4936 -0.2951  0.0281
 4515SOL    HW125178   2.952   2.259   2.028 -1.5630 -2.0028 -1.6192
 4515SOL    HW225179   2.970   2.154   2.124  3.0794 -0.8746  2.1171
 4516SOL     OW25180   1.810   3.914   9.080 -0.3490  0.2004  0.0000
 4516SOL    HW125181   1.765   3.991   9.114 -0.4937 -0.4144  1.2203
 4516SOL    HW225182   1.890   3.912   9.132  0.2823  2.6229 -0.8980
 4517SOL     OW25183   2.708   0.329   2.712 -0.2830  0.0938 -0.2711
 4517SOL    HW125184   2.700   0.369   2.626  3.0065  0.1556 -0.5473
 4517SOL    HW225185   2.685   0.397   2.776  2.8164  2.1622 -1.3322
 4518SOL     OW25186   4.261   3.873  12.125 -0.6201 -0.0985  0.8671
 4518SOL    HW125187   4.166   3.856  12.125 -0.5751 -0.3600  1.2360
 4518SOL    HW225188   4.282   3.820  12.048  0.2959  1.7220 -0.1143
 4519SOL     OW25189   1.802   4.644  11.376 -0.9662  0.5550 -0.1704
 4519SOL    HW125190   1.891   4.610  11.366 -0.9235  0.7405 -0.3918
 4519SOL    HW225191   1.794   4.659  11.471  0.4643  1.4011 -0.1886
 4520SOL     OW25192   1.685   0.882  17.001 -0.0398 -0.1946  0.8004
 4520SOL    HW125193   1.628   0.892  16.925 -0.1425  1.1987  1.0550
 4520SOL    HW225194   1.652   0.797  17.030  0.7908 -0.7129  0.2143
 4521SOL     OW25195   2.190   3.375  15.744 -0.0051  0.4380  0.3099
 4521SOL    HW125196   2.282   3.371  15.771  0.4950  0.6671 -1.3898
 4521SOL    HW225197   2.188   3.294  15.693  0.8546  0.0321  0.9093
 4522SOL     OW25198   2.834   0.822   2.141  0.0814 -0.4731  0.2875
 4522SOL    HW125199   2.902   0.814   2.075 -0.8694 -3.8913 -0.2518
 4522SOL    HW225200   2.766   0.774   2.095 -1.2278  0.8449  0.8474
 4523SOL     OW25201   1.989   0.825  12.354 -0.8104  0.1943  0.6846
 4523SOL    HW125202   1.896   0.818  12.335 -1.5135  1.9043  3.6470
 4523SOL    HW225203   2.002   0.917  12.373 -2.8384  0.7409 -0.5969
 4524SOL     OW25204   0.805   4.372   6.404  0.1804 -0.5391  0.1337
 4524SOL    HW125205   0.729   4.382   6.347  2.1434  1.1521 -2.1900
 4524SOL    HW225206   0.828   4.280   6.402 -2.3552 -1.1575 -0.6005
 4525SOL     OW25207   0.391   0.591   2.333  0.0458 -0.0551 -0.2376
 4525SOL    HW125208   0.340   0.543   2.399  0.0476 -0.5322 -0.5873
 4525SOL    HW225209   0.340   0.672   2.327 -0.8359 -0.5120  0.9061
 4526SOL     OW25210   0.671   2.681   0.807  0.5538 -0.3432 -0.1796
 4526SOL    HW125211   0.645   2.596   0.840  0.4011 -0.2054  0.0562
 4526SOL    HW225212   0.617   2.735   0.864 -1.4212 -1.8803 -0.5926
 4527SOL     OW25213   2.016   2.179   3.547  0.0038 -0.5385 -0.1605
 4527SOL    HW125214   1.934   2.149   3.509 -0.5506 -0.2459  0.8069
 4527SOL    HW225215   2.010   2.155   3.640 -1.3851 -2.3427 -0.7312
 4528SOL     OW25216   2.940   3.262   3.798  0.4667  0.6293  0.2306
 4528SOL    HW125217   2.881   3.202   3.845 -1.9736  1.7337 -1.4496
 4528SOL    HW225218   2.984   3.292   3.878 -1.6597  0.6025  1.4233
 4529SOL     OW25219   2.901   0.203   3.329  0.0428 -0.1103  0.1932
 4529SOL    HW125220   2.817   0.237   3.298  0.2242  1.0000  0.9478
 4529SOL    HW225221   2.969   0.264   3.301  0.6606  0.1454  2.2861
 4530SOL     OW25222   1.488   1.774  17.144  0.1693  0.0382  0.1079
 4530SOL    HW125223   1.398   1.778  17.176  0.2530 -1.0486  0.4910
 4530SOL    HW225224   1.479   1.834  17.070 -2.0000 -0.7304 -0.2536
 4531SOL     OW25225   2.094   2.312   6.047 -0.0420  0.1224 -0.2250
 4531SOL    HW125226   2.016   2.282   6.095  0.4887  0.5556  0.9081
 4531SOL    HW225227   2.098   2.250   5.974 -0.7399  0.7726 -0.8236
 4532SOL     OW25228   2.124   1.021  15.363 -0.3260 -0.1302 -0.2676
 4532SOL    HW125229   2.075   1.078  15.423 -0.0323  1.5058 -1.5985
 4532SOL    HW225230   2.175   1.089  15.321 -0.2547  0.8518  1.4250
 4533SOL     OW25231   2.156   1.430  16.699  0.0182 -0.0545 -0.1651
 4533SOL    HW125232   2.163   1.335  16.700 -2.0837 -0.2061  1.1654
 4533SOL    HW225233   2.238   1.452  16.656 -2.3359  1.8942 -3.6383
 4534SOL     OW25234   0.835   0.490   6.480  1.1722 -0.0028  0.3327
 4534SOL    HW125235   0.849   0.479   6.573  0.2109 -0.1899  0.4591
 4534SOL    HW225236   0.759   0.547   6.492  0.3002 -0.4647 -2.8132
 4535SOL     OW25237   0.594   0.843  17.001  0.4629 -0.2824  0.1351
 4535SOL    HW125238   0.553   0.761  16.974  0.4341  0.0756 -0.9208
 4535SOL    HW225239   0.555   0.863  17.087  0.3481  0.6491 -0.1293
 4536SOL     OW25240   2.326   3.541   6.041  0.1451  0.3763 -0.4670
 4536SOL    HW125241   2.385   3.547   6.116 -1.6928 -0.7235  1.0474
 4536SOL    HW225242   2.245   3.524   6.090  1.0022 -0.4468  0.6559
 4537SOL     OW25243   2.061   0.996   6.751  0.1029  0.2009 -0.1177
 4537SOL    HW125244   2.146   0.952   6.761  0.6746  1.3098 -0.1454
 4537SOL    HW225245   2.012   0.963   6.826 -1.8144 -1.6160 -2.1470
 4538SOL     OW25246   3.303   2.914  17.343  0.3791  0.2264  0.0462
 4538SOL    HW125247   3.351   2.915  17.260  1.5204 -4.8485  0.6916
 4538SOL    HW225248   3.216   2.891  17.312  1.7289 -1.9251 -2.0725
 4539SOL     OW25249   2.635   0.875  14.272 -0.5524 -0.8142  0.5207
 4539SOL    HW125250   2.702   0.810  14.293  1.2035  0.3790 -1.4117
 4539SOL    HW225251   2.692   0.951  14.263 -2.6405  1.0167  2.6545
 4540SOL     OW25252   2.367   3.533   5.369  0.3190 -0.3901 -0.1614
 4540SOL    HW125253   2.296   3.581   5.413 -0.3627 -0.2521 -1.4223
 4540SOL    HW225254   2.412   3.612   5.340  0.3815  0.1967  1.5175
 4541SOL     OW25255   0.000   0.121   8.238 -0.0565  0.0120 -0.3821
 4541SOL    HW125256   4.729   0.193   8.301 -0.3025 -0.4206  0.1034
 4541SOL    HW225257   4.681   0.154   8.165 -0.3316 -0.2596 -0.3125
 4542SOL     OW25258   1.564   4.095  10.041  0.2160  0.6516  0.2350
 4542SOL    HW125259   1.532   4.061  10.125 -0.9437 -0.6334 -0.7228
 4542SOL    HW225260   1.531   4.021   9.990 -1.0892  0.4419  1.3674
 4543SOL     OW25261   2.716   1.153   5.473 -0.2942 -0.2678 -0.4202
 4543SOL    HW125262   2.693   1.212   5.401  1.1875  1.2380  0.3694
 4543SOL    HW225263   2.648   1.090   5.448  0.3205 -1.1643  0.1846
 4544SOL     OW25264   0.473   3.852  13.808  0.0336  0.0141 -0.5045
 4544SOL    HW125265   0.380   3.830  13.813 -0.2673  1.6375  0.9980
 4544SOL    HW225266   0.518   3.767  13.807 -0.2834 -0.1480 -1.2274
 4545SOL     OW25267   0.043   3.164   2.729 -0.5597 -0.4405 -0.1590
 4545SOL    HW125268   4.680   3.177   2.723 -0.1682  2.6819  0.5344
 4545SOL    HW225269   0.042   3.105   2.805  0.0244 -0.4548 -0.1666
 4546SOL     OW25270   1.999   0.720   2.896 -0.4931  0.6289 -0.4278
 4546SOL    HW125271   2.077   0.703   2.950 -0.1327 -1.5900 -1.6356
 4546SOL    HW225272   1.933   0.674   2.948 -1.1684  0.3104 -1.5846
 4547SOL     OW25273   1.180   2.873  10.347  0.1214  0.4822  0.3360
 4547SOL    HW125274   1.216   2.862  10.435  0.3163 -1.6680 -0.0047
 4547SOL    HW225275   1.107   2.810  10.352 -1.1942  1.7799 -2.7958
 4548SOL     OW25276   0.135   1.566   3.809 -0.1717  0.4345 -0.1341
 4548SOL    HW125277   0.196   1.517   3.754  0.8833  0.7964  0.7212
 4548SOL    HW225278   0.057   1.511   3.813  0.2302 -0.0301  1.1789
 4549SOL     OW25279   1.135   0.926   6.101  0.0568  0.3808 -0.2153
 4549SOL    HW125280   1.209   0.985   6.111 -1.6593  2.6086 -0.5904
 4549SOL    HW225281   1.088   0.970   6.030  2.3409  1.6144 -0.9464
 4550SOL     OW25282   4.643   4.646   1.680 -0.1545  0.4951 -0.1472
 4550SOL    HW125283   4.566   4.592   1.661  0.1405 -0.2020  0.6269
 4550SOL    HW225284   4.622   4.663   1.772  0.3317 -2.3959  0.5066
 4551SOL     OW25285   3.042   3.050   5.550 -0.2293 -0.2535  0.9149
 4551SOL    HW125286   3.110   2.985   5.534 -1.8018 -1.5643 -0.4492
 4551SOL    HW225287   3.037   3.084   5.461  0.9238 -0.3835  0.8008
 4552SOL     OW25288   1.202   2.568   4.018  0.2378 -0.2714 -0.5438
 4552SOL    HW125289   1.289   2.583   3.982 -0.3939  0.3274 -1.8178
 4552SOL    HW225290   1.208   2.623   4.097 -1.1946  0.3927 -0.9051
 4553SOL     OW25291   0.050   0.845   8.718  0.1234 -0.6515 -0.1803
 4553SOL    HW125292   0.061   0.835   8.813 -2.2664  1.2083  0.2884
 4553SOL    HW225293   4.724   0.772   8.696 -0.6751 -0.1658  0.3324
 4554SOL     OW25294   3.056   1.812   8.671 -0.6858 -0.4927  0.2305
 4554SOL    HW125295   3.025   1.886   8.725 -0.2106 -0.1482  0.0281
 4554SOL    HW225296   3.141   1.849   8.646 -0.4451 -0.1929  1.4830
 4555SOL     OW25297   0.063   4.564   4.155  0.0311 -0.2229 -0.7751
 4555SOL    HW125298   0.143   4.587   4.107  2.1006 -0.2009  2.7107
 4555SOL    HW225299   0.003   4.596   4.087  0.7503 -1.9689 -2.2509
 4556SOL     OW25300   1.600   1.484   7.747 -0.3594 -0.5781  0.4487
 4556SOL    HW125301   1.671   1.469   7.685 -1.7927 -0.7126 -1.1619
 4556SOL    HW225302   1.565   1.395   7.755  0.0152 -0.8979 -1.4009
 4557SOL     OW25303   1.460   3.410   0.899 -0.4375 -0.2011 -0.0848
 4557SOL    HW125304   1.455   3.347   0.827  1.1201 -0.4856  0.0411
 4557SOL    HW225305   1.380   3.386   0.945 -1.2502 -0.6374 -1.7270
 4558SOL     OW25306   2.268   2.964   7.113  0.3163 -0.1689  0.1647
 4558SOL    HW125307   2.282   2.878   7.074 -0.9848 -1.8766  3.3929
 4558SOL    HW225308   2.210   2.949   7.188  0.2945  1.7086  0.5430
 4559SOL     OW25309   0.796   2.445   2.704 -0.2419 -0.5234  0.1046
 4559SOL    HW125310   0.723   2.445   2.642 -0.2853  1.2598  0.1530
 4559SOL    HW225311   0.842   2.368   2.671 -0.6084 -1.0607  0.8469
 4560SOL     OW25312   2.860   2.081  17.529 -0.4714  0.0751 -0.8555
 4560SOL    HW125313   2.874   2.041  17.615  0.5615  1.3903 -0.4179
 4560SOL    HW225314   2.912   2.161  17.526  1.5566 -1.2848 -2.0409
 4561SOL     OW25315   2.576   0.018   4.931  0.3808 -0.4772 -0.0585
 4561SOL    HW125316   2.648   0.022   4.869  0.4674  0.1393  0.0867
 4561SOL    HW225317   2.499   0.010   4.876 -2.7432  0.0308  4.2665
 4562SOL     OW25318   1.151   2.997   3.429  0.4787 -0.3470  0.2427
 4562SOL    HW125319   1.205   2.925   3.461  0.9413 -0.7258 -1.3530
 4562SOL    HW225320   1.209   3.072   3.415 -0.0729  0.3335  1.5863
 4563SOL     OW25321   3.414   1.817   1.576  0.3117 -0.5054  0.1407
 4563SOL    HW125322   3.355   1.885   1.609  0.4632  0.0770 -0.7921
 4563SOL    HW225323   3.354   1.761   1.528 -0.9259  1.0068 -0.0953
 4564SOL     OW25324   1.048   3.493  16.199  0.3180 -0.2354 -0.1709
 4564SOL    HW125325   1.110   3.561  16.173  0.0668 -0.5260 -1.5414
 4564SOL    HW225326   1.042   3.445  16.116 -0.0021 -1.6799  0.6846
 4565SOL     OW25327   2.864   2.224   5.770  0.4145 -0.7884 -0.2291
 4565SOL    HW125328   2.789   2.281   5.787 -0.0717 -0.4364 -3.5179
 4565SOL    HW225329   2.941   2.266   5.806  0.9120  0.4545 -2.7572
 4566SOL     OW25330   0.898   1.842  13.999 -0.1277 -0.2079 -0.4892
 4566SOL    HW125331   0.854   1.798  14.072 -1.8795  1.6665 -0.4104
 4566SOL    HW225332   0.976   1.866  14.048 -0.5216 -1.9245  0.9948
 4567SOL     OW25333   3.296   3.339   9.853 -0.4204 -0.0946 -0.0843
 4567SOL    HW125334   3.286   3.429   9.882  0.7793  0.7177 -2.1489
 4567SOL    HW225335   3.382   3.349   9.811 -1.6028  2.2371 -1.9566
 4568SOL     OW25336   3.760   0.193   6.215  0.1958  0.7528  0.1133
 4568SOL    HW125337   3.851   0.224   6.213  0.4257  0.1410  1.1876
 4568SOL    HW225338   3.699   0.265   6.198 -1.8347 -0.4990  2.0313
 4569SOL     OW25339   0.001   1.230   8.451 -0.1300  0.6802 -0.6100
 4569SOL    HW125340   4.717   1.138   8.468  0.1842  0.9602  1.1694
 4569SOL    HW225341   4.724   1.275   8.535  1.5070 -1.3899  0.6566
 4570SOL     OW25342   2.380   4.522  13.295  0.5507 -0.8996  0.1767
 4570SOL    HW125343   2.374   4.564  13.210  1.0790 -0.7088  0.2300
 4570SOL    HW225344   2.426   4.441  13.274  0.2814 -0.4843 -1.9458
 4571SOL     OW25345   1.167   3.620   7.958 -0.3411 -0.2752  0.0281
 4571SOL    HW125346   1.207   3.702   7.930 -0.3254  0.7648  3.0712
 4571SOL    HW225347   1.082   3.629   7.913 -0.3117 -0.6456 -0.1011
 4572SOL     OW25348   1.652   1.431  17.271 -0.0187  0.1641  0.7913
 4572SOL    HW125349   1.710   1.398  17.202 -1.3599 -1.1506  0.2866
 4572SOL    HW225350   1.569   1.453  17.227  0.4851  1.4616  0.4848
 4573SOL     OW25351   1.104   1.355  15.143 -0.5286  0.2636 -0.2874
 4573SOL    HW125352   1.195   1.336  15.122  0.2518  0.8839  2.4543
 4573SOL    HW225353   1.082   1.399  15.061 -2.2430  0.3180  0.1976
 4574SOL     OW25354   2.572   2.265   7.649 -0.0072  0.1305  0.0381
 4574SOL    HW125355   2.596   2.240   7.738 -1.6886  1.4978  0.8773
 4574SOL    HW225356   2.526   2.187   7.618 -1.5798  1.4447 -0.9425
 4575SOL     OW25357   2.346   2.131   1.489 -0.8057 -0.3817 -0.1781
 4575SOL    HW125358   2.319   2.041   1.504  1.1371 -1.2380 -1.9508
 4575SOL    HW225359   2.299   2.165   1.566  0.2083 -0.0106  0.2794
 4576SOL     OW25360   3.365   4.250  17.173 -0.2261  0.5547 -0.4137
 4576SOL    HW125361   3.287   4.279  17.126 -0.0678  1.4159 -0.1521
 4576SOL    HW225362   3.404   4.188  17.111  0.4805  2.4670 -1.8991
 4577SOL     OW25363   4.621   3.863   7.891 -0.4006 -0.4694  0.1271
 4577SOL    HW125364   4.669   3.907   7.822  1.5283  1.8336  2.9180
 4577SOL    HW225365   4.529   3.876   7.868 -0.5569 -1.4631  0.2094
 4578SOL     OW25366   1.757   2.953   2.762 -0.0342  0.1242  0.2167
 4578SOL    HW125367   1.849   2.925   2.762 -0.1494 -0.2595  2.0281
 4578SOL    HW225368   1.716   2.898   2.830  1.2611  0.6815  1.4478
 4579SOL     OW25369   0.100   2.791   0.844  0.1764 -0.0258 -0.0922
 4579SOL    HW125370   0.050   2.835   0.775 -0.1180  0.9122  0.7117
 4579SOL    HW225371   0.059   2.824   0.924  0.1412  0.2067 -0.2063
 4580SOL     OW25372   2.596   4.149   2.390  0.2827  0.1477 -0.6535
 4580SOL    HW125373   2.605   4.072   2.334  1.4487 -1.8723  2.3297
 4580SOL    HW225374   2.524   4.189   2.340 -0.3202 -0.6300 -0.3986
 4581SOL     OW25375   4.157   4.271   5.107  0.1167  0.4812  0.4131
 4581SOL    HW125376   4.138   4.348   5.161 -1.3998  0.0542  0.4923
 4581SOL    HW225377   4.067   4.242   5.092  0.4197 -0.3808  0.2935
 4582SOL     OW25378   0.113   1.314   5.760 -0.0749  0.0974 -0.1740
 4582SOL    HW125379   0.061   1.289   5.683  0.9504 -1.2848 -0.4163
 4582SOL    HW225380   0.168   1.238   5.778  1.2233  0.8997 -0.8042
 4583SOL     OW25381   0.047   0.887   5.179 -0.1650 -0.0055 -0.3076
 4583SOL    HW125382   4.712   0.873   5.112  1.4429 -1.7835 -1.5768
 4583SOL    HW225383   0.075   0.978   5.169  0.7459 -0.2713 -0.1537
 4584SOL     OW25384   3.135   0.069  11.836  0.0578  0.3068  0.2774
 4584SOL    HW125385   3.168   4.723  11.880  2.2647  2.2700  2.1585
 4584SOL    HW225386   3.199   0.061  11.766 -1.2841 -1.8461 -0.7060
 4585SOL     OW25387   0.423   2.913  10.824 -0.1700 -0.3784  0.0829
 4585SOL    HW125388   0.457   2.828  10.799  1.6208  0.5534 -0.6580
 4585SOL    HW225389   0.471   2.919  10.906  2.4115 -0.8182 -1.4102
 4586SOL     OW25390   1.359   3.908   4.824 -0.8852 -0.3381 -0.4900
 4586SOL    HW125391   1.316   3.845   4.765 -0.2551  0.1866 -1.5040
 4586SOL    HW225392   1.387   3.973   4.759 -0.3204  0.9555  1.0565
 4587SOL     OW25393   3.094   4.413   8.782  0.0240  0.1368 -0.6101
 4587SOL    HW125394   3.178   4.395   8.738  0.7767  0.1552  0.8340
 4587SOL    HW225395   3.119   4.500   8.813 -0.1557  0.0091 -0.1103
 4588SOL     OW25396   1.025   1.176   7.531 -0.0244 -0.0279 -0.3330
 4588SOL    HW125397   1.004   1.259   7.488 -2.4782  0.1602  1.2397
 4588SOL    HW225398   1.084   1.130   7.472 -0.1657  0.6631 -1.0193
 4589SOL     OW25399   1.684   3.352   7.227  0.3824  0.5105 -0.5720
 4589SOL    HW125400   1.747   3.418   7.196  0.1429 -0.1585 -2.5183
 4589SOL    HW225401   1.674   3.304   7.145 -2.4546 -1.3875  0.8592
 4590SOL     OW25402   3.041   0.374   2.612 -0.4669 -0.3706  0.5020
 4590SOL    HW125403   2.999   0.333   2.687 -2.0131  1.3716  0.5977
 4590SOL    HW225404   3.116   0.418   2.652 -0.6577  1.4998 -1.1465
 4591SOL     OW25405   3.977   0.670  10.403  0.2751 -0.3508  0.2568
 4591SOL    HW125406   3.956   0.699  10.492 -0.6816  0.2026 -0.1522
 4591SOL    HW225407   4.073   0.667  10.408  0.3086 -0.2928 -0.3365
 4592SOL     OW25408   3.076   3.555   7.315 -0.0243  0.1370  0.0541
 4592SOL    HW125409   3.039   3.481   7.363  0.7243 -0.4372 -0.2548
 4592SOL    HW225410   3.148   3.565   7.376 -1.4312  0.9264  1.5846
 4593SOL     OW25411   1.592   0.615   7.146 -0.1080 -0.3409 -0.1849
 4593SOL    HW125412   1.631   0.536   7.109  0.3515 -0.8579  1.4368
 4593SOL    HW225413   1.628   0.687   7.093  1.6608 -0.8993  0.2823
 4594SOL     OW25414   2.004   4.302   7.812 -0.4488 -0.1920  0.0501
 4594SOL    HW125415   1.956   4.308   7.729 -1.4109  0.2939  0.6379
 4594SOL    HW225416   1.954   4.365   7.864 -1.2368  0.5190 -1.5822
 4595SOL     OW25417   1.644   0.751   6.140 -0.3021 -0.3327 -0.2536
 4595SOL    HW125418   1.708   0.685   6.112  0.1427 -0.7645  1.8057
 4595SOL    HW225419   1.583   0.696   6.189  0.5220 -1.1661 -0.1666
 4596SOL     OW25420   2.023   4.439   4.408  0.3327  0.5607  0.1934
 4596SOL    HW125421   2.005   4.347   4.392  0.5811  0.7502 -1.1698
 4596SOL    HW225422   2.087   4.452   4.339 -0.4023 -0.2577 -0.6341
 4597SOL     OW25423   3.473   0.736   1.965  0.5527  0.1081 -0.0589
 4597SOL    HW125424   3.533   0.806   1.989  2.8378 -1.7968 -0.2941
 4597SOL    HW225425   3.530   0.660   1.968 -0.1015 -0.3511  0.7019
 4598SOL     OW25426   1.829   0.839   3.843 -0.0514  0.2006 -0.5902
 4598SOL    HW125427   1.866   0.813   3.759 -1.0780  0.0631 -0.9925
 4598SOL    HW225428   1.760   0.904   3.832 -0.8384 -0.8498 -1.8263
 4599SOL     OW25429   4.555   0.932   3.309  0.4700  0.0399  0.7400
 4599SOL    HW125430   4.517   0.977   3.234 -0.5588 -0.5017  0.9320
 4599SOL    HW225431   4.646   0.959   3.301  0.4261 -0.4105 -1.1191
 4600SOL     OW25432   2.140   0.924  14.360 -0.0017  0.5378  0.3782
 4600SOL    HW125433   2.162   0.985  14.289  1.9303  0.2974  0.7763
 4600SOL    HW225434   2.066   0.969  14.402  0.0824  1.6495 -0.6675
 4601SOL     OW25435   1.237   1.483  13.716 -0.3688 -0.7689 -0.4977
 4601SOL    HW125436   1.205   1.403  13.674  3.1852 -1.9642 -0.9957
 4601SOL    HW225437   1.163   1.542  13.731  0.4736  0.7948 -2.5858
 4602SOL     OW25438   0.130   4.340   6.301  0.6331  0.4428 -0.2975
 4602SOL    HW125439   0.178   4.321   6.382 -1.1020  0.8075  0.8305
 4602SOL    HW225440   0.200   4.336   6.236  1.2636 -0.8313  0.4425
 4603SOL     OW25441   3.908   3.008   3.703  0.0051 -0.5685  0.4077
 4603SOL    HW125442   3.934   3.043   3.788 -1.7687  0.5257  0.4978
 4603SOL    HW225443   3.887   3.081   3.644 -1.7117 -0.1649  1.5216
 4604SOL     OW25444   2.418   0.439   6.811  0.1010  0.3344 -0.4346
 4604SOL    HW125445   2.412   0.476   6.723 -2.1095 -1.5531 -1.0838
 4604SOL    HW225446   2.423   0.526   6.850 -0.6030  1.4565 -2.8301
 4605SOL     OW25447   3.632   2.339   2.538 -0.1685  0.2089 -0.2233
 4605SOL    HW125448   3.692   2.356   2.610 -1.2800  0.3304  0.6678
 4605SOL    HW225449   3.684   2.270   2.495  0.1032 -1.1145  2.2255
 4606SOL     OW25450   0.995   1.639  14.390  0.0979  0.4741  0.6046
 4606SOL    HW125451   1.085   1.662  14.412  0.1707  1.3281 -0.5736
 4606SOL    HW225452   0.963   1.584  14.461  0.3302  1.9222  1.8373
 4607SOL     OW25453   3.941   3.443   7.460 -0.1786  0.1743 -0.0541
 4607SOL    HW125454   3.978   3.355   7.460 -0.9868 -0.1666  0.1664
 4607SOL    HW225455   3.847   3.426   7.458  0.0665 -1.1155 -0.1758
 4608SOL     OW25456   1.443   2.733   8.297  0.2859 -0.0425 -0.8335
 4608SOL    HW125457   1.363   2.682   8.286  0.4700 -0.6588  0.7729
 4608SOL    HW225458   1.498   2.679   8.240  0.4007  1.2565 -1.9539
 4609SOL     OW25459   3.992   4.364   7.313 -0.2416 -0.8373  0.0426
 4609SOL    HW125460   3.971   4.284   7.361  0.0965 -0.1948  1.2641
 4609SOL    HW225461   3.908   4.412   7.310  0.3732  0.2533  0.1973
 4610SOL     OW25462   1.958   2.111   4.336  0.1131  0.2930 -0.0530
 4610SOL    HW125463   2.053   2.124   4.348  0.4273  0.4975 -2.7075
 4610SOL    HW225464   1.950   2.016   4.340 -0.4737  0.2697 -2.0849
 4611SOL     OW25465   4.211   2.463   2.534 -0.6117  0.1946 -0.1762
 4611SOL    HW125466   4.278   2.528   2.513 -1.7834  0.7634 -2.1306
 4611SOL    HW225467   4.144   2.505   2.589  0.7185  1.9714  0.0884
 4612SOL     OW25468   2.090   1.042   6.210 -0.2005  0.2214  0.1658
 4612SOL    HW125469   2.004   1.002   6.201 -1.0502  2.1298 -0.2271
 4612SOL    HW225470   2.104   1.028   6.304 -2.6624 -2.4751  0.1170
 4613SOL     OW25471   3.690   3.619   8.072  0.0962  0.3793  0.6818
 4613SOL    HW125472   3.601   3.641   8.045 -0.1874  2.2266  3.0897
 4613SOL    HW225473   3.686   3.600   8.166  0.5483  0.5428  0.7362
 4614SOL     OW25474   1.472   1.238   4.604  0.7809 -0.4607  0.0043
 4614SOL    HW125475   1.393   1.215   4.654 -0.8546 -1.5808 -3.0337
 4614SOL    HW225476   1.533   1.252   4.675  1.1713 -0.2260 -0.3787
 4615SOL     OW25477   2.409   4.083   1.575  0.1928 -0.4764  0.0588
 4615SOL    HW125478   2.321   4.115   1.590  0.8691  0.1098  2.6923
 4615SOL    HW225479   2.439   4.029   1.647  0.7862 -1.0429 -0.6101
 4616SOL     OW25480   1.238   3.240  11.424 -0.4315 -0.7072  0.1196
 4616SOL    HW125481   1.252   3.304  11.494  0.5751 -0.3254 -0.4317
 4616SOL    HW225482   1.296   3.280  11.359  0.6181 -0.8166  0.9846
 4617SOL     OW25483   3.970   1.705  10.460  0.1762 -0.2933 -0.0643
 4617SOL    HW125484   4.057   1.667  10.453  0.3227 -0.0368  0.4152
 4617SOL    HW225485   3.989   1.778  10.400  2.8699 -0.3682  0.7229
 4618SOL     OW25486   2.924   1.961   7.112  0.1897 -0.4237  0.5393
 4618SOL    HW125487   2.922   1.979   7.206  0.4189 -1.3837  0.7383
 4618SOL    HW225488   2.976   1.880   7.104  0.2729 -0.1697 -1.4259
 4619SOL     OW25489   0.029   3.286   4.332  0.0363 -0.4931 -0.2602
 4619SOL    HW125490   0.003   3.279   4.424  0.2213  1.3045 -0.0740
 4619SOL    HW225491   4.722   3.204   4.301  0.8747 -0.5704 -1.0994
 4620SOL     OW25492   1.707   3.645   7.434  0.1961 -0.0681  0.0145
 4620SOL    HW125493   1.659   3.653   7.516  0.5362 -0.0625  0.2071
 4620SOL    HW225494   1.780   3.591   7.462  0.3378  0.2946  0.3437
 4621SOL     OW25495   2.912   0.571   2.877  0.4808  0.4626  0.2843
 4621SOL    HW125496   2.970   0.498   2.896 -0.3660 -0.0146  0.9958
 4621SOL    HW225497   2.823   0.536   2.886  0.5459  0.3670  0.5693
 4622SOL     OW25498   2.842   3.420   4.327  0.3976 -0.2850  0.0516
 4622SOL    HW125499   2.773   3.394   4.388 -0.4420  1.1251 -0.2774
 4622SOL    HW225500   2.906   3.448   4.393  1.8424 -0.2103 -1.3816
 4623SOL     OW25501   1.343   1.281   3.232  0.3205  0.5974 -0.2900
 4623SOL    HW125502   1.349   1.298   3.325 -2.0979 -0.3914  0.0652
 4623SOL    HW225503   1.323   1.187   3.231 -0.4605  0.7631 -1.4229
 4624SOL     OW25504   4.323   4.556   9.497 -0.3068 -0.1665  0.1651
 4624SOL    HW125505   4.405   4.596   9.467 -0.2441  0.5791  1.3665
 4624SOL    HW225506   4.333   4.471   9.453  0.0214  0.2591 -0.5930
 4625SOL     OW25507   3.313   4.202   5.148  0.1071 -0.1102 -0.2813
 4625SOL    HW125508   3.220   4.183   5.156  0.5990 -0.8387  3.6679
 4625SOL    HW225509   3.347   4.116   5.122  1.5376  0.3331  0.1359
 4626SOL     OW25510   1.790   3.354   6.763 -0.0733  0.1437  0.8094
 4626SOL    HW125511   1.863   3.392   6.811  0.5616  1.6279 -1.3308
 4626SOL    HW225512   1.748   3.289   6.820 -1.2241  2.1313  2.2296
 4627SOL     OW25513   2.815   2.775  14.592 -0.2429 -0.2321  0.2830
 4627SOL    HW125514   2.762   2.743  14.520 -0.1017  2.3930 -0.9945
 4627SOL    HW225515   2.893   2.801  14.543 -1.2796  2.7044  0.2103
 4628SOL     OW25516   3.044   3.922   6.812 -0.3750  0.1789  0.1654
 4628SOL    HW125517   2.983   3.870   6.761 -0.0639 -2.1171  2.1170
 4628SOL    HW225518   3.129   3.900   6.773 -0.1668 -1.0476  1.2940
 4629SOL     OW25519   0.667   0.378   8.754  0.7124  0.0767 -0.0473
 4629SOL    HW125520   0.652   0.285   8.770  0.3404 -0.0876 -1.3579
 4629SOL    HW225521   0.701   0.366   8.666  0.6279  2.7015 -0.4527
 4630SOL     OW25522   4.717   1.175  17.377  0.1024  0.3307 -0.8788
 4630SOL    HW125523   0.024   1.252  17.418 -2.7282  1.5040 -0.3708
 4630SOL    HW225524   4.692   1.215  17.294  0.5055  2.7116  0.1356
 4631SOL     OW25525   3.256   4.680   8.823 -0.5855  0.3919  0.3306
 4631SOL    HW125526   3.340   4.635   8.823 -0.6659  0.2329  1.7680
 4631SOL    HW225527   3.243   4.691   8.917 -2.2481 -1.9409  0.3834
 4632SOL     OW25528   0.210   1.625   4.353  0.1579 -0.1007  0.0670
 4632SOL    HW125529   0.115   1.625   4.353  0.1580  0.8470 -0.6114
 4632SOL    HW225530   0.223   1.546   4.301  2.3497 -1.0840  2.0901
 4633SOL     OW25531   0.561   1.615   6.996 -0.1073  0.3102  0.5767
 4633SOL    HW125532   0.487   1.556   7.006  0.4321 -1.1357 -4.1167
 4633SOL    HW225533   0.516   1.699   6.981  0.1510  0.4812  0.7569
 4634SOL     OW25534   2.897   1.003  17.245  0.2239  0.0686 -0.1596
 4634SOL    HW125535   2.837   1.066  17.204 -2.8500 -1.0265  2.6437
 4634SOL    HW225536   2.854   1.002  17.331 -1.6456  0.8160 -1.0746
 4635SOL     OW25537   2.800   1.428  13.759 -0.2401  0.2718 -0.4549
 4635SOL    HW125538   2.881   1.452  13.714 -0.4160 -0.7115 -1.3195
 4635SOL    HW225539   2.736   1.430  13.688  0.6489 -1.9441 -1.3565
 4636SOL     OW25540   0.797   0.856  17.206 -0.3773 -0.1436  0.1829
 4636SOL    HW125541   0.772   0.925  17.268 -0.1665 -0.6364  0.8128
 4636SOL    HW225542   0.721   0.855  17.147  0.5466  3.2158 -1.0842
 4637SOL     OW25543   1.287   4.156  13.078 -0.4242 -0.1129  0.9023
 4637SOL    HW125544   1.347   4.230  13.090 -1.8520  1.1687  0.1555
 4637SOL    HW225545   1.336   4.092  13.026  0.6542  1.7853 -0.4355
 4638SOL     OW25546   0.737   2.434   8.832  0.4930 -0.0227  0.0077
 4638SOL    HW125547   0.736   2.355   8.886 -2.3248 -0.7220 -1.0296
 4638SOL    HW225548   0.797   2.417   8.760 -3.4116 -0.4492 -3.1425
 4639SOL     OW25549   4.030   0.790   2.689 -0.1723  0.7514 -0.4248
 4639SOL    HW125550   4.047   0.868   2.636  0.1499 -0.0718 -1.5374
 4639SOL    HW225551   3.939   0.804   2.713  0.0741  0.0562  0.9333
 4640SOL     OW25552   4.041   3.890  13.872 -0.7515  0.0043  0.5072
 4640SOL    HW125553   4.044   3.892  13.967 -0.7158 -0.7585  0.5193
 4640SOL    HW225554   3.995   3.809  13.851 -0.8710 -0.3133  1.9953
 4641SOL     OW25555   0.300   0.758   9.139 -0.0184  0.0506  0.0990
 4641SOL    HW125556   0.362   0.690   9.113  0.0976  0.6726 -1.2310
 4641SOL    HW225557   0.264   0.734   9.225 -0.5129  1.0837  0.1843
 4642SOL     OW25558   2.177   2.559   3.645 -0.2900  0.1867 -0.4183
 4642SOL    HW125559   2.133   2.530   3.565  2.0438 -2.2841 -0.8150
 4642SOL    HW225560   2.121   2.519   3.712 -0.4221 -0.4429 -0.9026
 4643SOL     OW25561   1.768   2.050   3.481 -0.5550 -0.2272 -0.2643
 4643SOL    HW125562   1.710   1.989   3.526  0.6779  0.5644  2.3907
 4643SOL    HW225563   1.719   2.131   3.494 -1.3606 -0.8572  0.6146
 4644SOL     OW25564   0.523   2.556   0.403 -0.3157  0.3483 -0.6477
 4644SOL    HW125565   0.524   2.617   0.329 -0.2209  0.6815 -0.3684
 4644SOL    HW225566   0.501   2.608   0.480  1.2472 -0.8642  0.6314
 4645SOL     OW25567   4.573   4.142  17.154  0.2451 -0.5893 -0.3763
 4645SOL    HW125568   4.600   4.068  17.209 -0.4902 -0.2933  0.3812
 4645SOL    HW225569   4.492   4.101  17.122 -1.6258  2.1900  0.8395
 4646SOL     OW25570   3.579   1.417   3.337 -0.5879  0.2832 -0.1754
 4646SOL    HW125571   3.499   1.464   3.363 -1.0804 -0.4744 -0.3412
 4646SOL    HW225572   3.600   1.459   3.253  1.7675 -0.5613 -0.0085
 4647SOL     OW25573   2.592   3.360  17.022  0.3383 -0.5223  0.1323
 4647SOL    HW125574   2.675   3.326  16.988 -0.5718 -1.0421 -1.5914
 4647SOL    HW225575   2.556   3.275  17.047 -0.6049 -0.7492 -1.9906
 4648SOL     OW25576   0.264   2.955   5.832 -0.0409  0.6595 -0.3489
 4648SOL    HW125577   0.209   2.937   5.757  0.3136 -0.8927 -0.2260
 4648SOL    HW225578   0.345   2.912   5.804 -1.0311 -1.8624  0.7020
 4649SOL     OW25579   3.684   3.351   7.453  0.5767  0.0369  0.0028
 4649SOL    HW125580   3.640   3.364   7.369 -1.5029 -2.1559  0.7701
 4649SOL    HW225581   3.612   3.305   7.496  1.6348 -3.0330 -1.4731
 4650SOL     OW25582   4.007   2.549   7.558 -0.4020 -0.8011 -0.2126
 4650SOL    HW125583   4.077   2.536   7.622  0.0932 -1.6880 -0.9354
 4650SOL    HW225584   3.988   2.456   7.551  0.1521 -1.0509  1.7787
 4651SOL     OW25585   3.836   3.322  13.801 -0.3291  0.1535  0.0293
 4651SOL    HW125586   3.877   3.373  13.871  0.4496  0.4962 -0.6794
 4651SOL    HW225587   3.802   3.398  13.754 -2.5569 -1.9251 -1.6734
 4652SOL     OW25588   1.703   4.286  14.323  0.1842  0.3684 -0.2949
 4652SOL    HW125589   1.762   4.332  14.264  1.6385  1.1352  1.7291
 4652SOL    HW225590   1.711   4.196  14.291 -0.0378 -0.0607  0.8302
 4653SOL     OW25591   4.153   0.804   6.187 -0.0981 -0.0670 -0.1549
 4653SOL    HW125592   4.162   0.883   6.240 -1.1142 -0.0295 -0.0437
 4653SOL    HW225593   4.076   0.823   6.133  0.6109 -0.1723 -1.2224
 4654SOL     OW25594   3.823   1.868   6.632 -0.2222 -0.1857  0.1938
 4654SOL    HW125595   3.750   1.908   6.679  0.6262  0.5228  0.9081
 4654SOL    HW225596   3.868   1.941   6.589 -0.3045  0.6519  1.5512
 4655SOL     OW25597   2.745   1.927   4.679 -0.5995 -0.0286  0.1160
 4655SOL    HW125598   2.696   2.000   4.716 -0.7437  0.1750 -0.4704
 4655SOL    HW225599   2.806   1.979   4.626  0.3104 -0.1768  1.0194
 4656SOL     OW25600   3.249   2.509   3.586 -0.5617 -0.0278 -0.2215
 4656SOL    HW125601   3.241   2.602   3.606 -0.2260 -0.0716  0.1090
 4656SOL    HW225602   3.320   2.501   3.522  0.0664 -2.1765  0.7330
 4657SOL     OW25603   1.896   2.782   9.746 -0.1091  0.1132 -0.6473
 4657SOL    HW125604   1.897   2.687   9.755 -1.9944  0.2130  0.8089
 4657SOL    HW225605   1.879   2.813   9.836  1.9291 -0.7102  0.0056
 4658SOL     OW25606   1.928   1.379   5.533 -0.1874 -0.0763  0.1155
 4658SOL    HW125607   1.934   1.358   5.440  0.9135 -0.0998  0.1995
 4658SOL    HW225608   2.005   1.433   5.545 -0.5265  0.5818 -0.6744
 4659SOL     OW25609   3.019   4.227   5.143 -0.3830  0.1605 -0.2961
 4659SOL    HW125610   2.973   4.219   5.227 -1.0993 -0.0075 -0.7037
 4659SOL    HW225611   2.979   4.307   5.111 -0.0872  0.8548  1.0550
 4660SOL     OW25612   1.419   1.816   8.480  0.0401 -0.1981 -0.2310
 4660SOL    HW125613   1.373   1.734   8.500  0.0688  0.3510  2.0771
 4660SOL    HW225614   1.465   1.785   8.402  0.5974  0.4317 -0.1489
 4661SOL     OW25615   3.989   1.808   2.340  0.4772  0.2927 -0.1350
 4661SOL    HW125616   3.918   1.745   2.326  0.8720 -0.0770 -0.4705
 4661SOL    HW225617   4.040   1.795   2.260  0.5995 -2.5975  0.3969
 4662SOL     OW25618   3.025   2.013   7.853  0.1642 -0.0920  0.4812
 4662SOL    HW125619   3.072   2.062   7.786 -1.2969  0.7478  0.0798
 4662SOL    HW225620   3.036   1.921   7.829 -0.0040 -0.0130  0.0960
 4663SOL     OW25621   3.630   1.737   6.261 -0.5011  0.6883  0.0916
 4663SOL    HW125622   3.651   1.819   6.304  1.8105  0.7665 -1.2176
 4663SOL    HW225623   3.714   1.698   6.239 -0.7509  0.5453 -0.6178
 4664SOL     OW25624   0.206   2.604   5.729 -0.1636 -0.1865 -0.1320
 4664SOL    HW125625   0.172   2.514   5.731 -0.3166 -0.0866  1.6357
 4664SOL    HW225626   0.193   2.620   5.635 -0.0264  0.7559  0.0127
 4665SOL     OW25627   2.098   2.664   8.022 -1.1373 -0.0153 -0.5633
 4665SOL    HW125628   2.177   2.673   7.968 -1.8740  2.7218 -1.1686
 4665SOL    HW225629   2.145   2.639   8.102 -1.5546 -1.0959 -0.6458
 4666SOL     OW25630   2.715   4.411   5.391 -0.1145  0.0348 -0.0366
 4666SOL    HW125631   2.630   4.446   5.366  1.3530  2.9081 -1.0252
 4666SOL    HW225632   2.749   4.485   5.442  0.4288  0.8812 -1.6487
 4667SOL     OW25633   1.308   3.497  15.239 -0.3485  0.0159 -0.3061
 4667SOL    HW125634   1.373   3.560  15.207 -3.0481  2.0234 -1.7577
 4667SOL    HW225635   1.222   3.535  15.221  0.7551  1.2350 -2.9981
 4668SOL     OW25636   2.901   1.397  10.297 -0.5496 -0.2163  0.5248
 4668SOL    HW125637   2.915   1.354  10.213  1.9107  2.7321 -0.5881
 4668SOL    HW225638   2.819   1.361  10.331 -0.9138 -0.3880 -0.5218
 4669SOL     OW25639   1.445   2.081   0.389 -0.0995 -0.5460 -0.1278
 4669SOL    HW125640   1.363   2.115   0.425 -0.8608 -2.7383  0.2041
 4669SOL    HW225641   1.436   2.106   0.297 -1.4796 -1.3912 -0.2152
 4670SOL     OW25642   0.418   2.068   1.352 -0.4873  0.0744  0.0640
 4670SOL    HW125643   0.488   2.064   1.417  1.4584 -1.4456 -2.1818
 4670SOL    HW225644   0.421   2.160   1.325 -1.9451 -0.3927 -1.7322
 4671SOL     OW25645   3.774   3.440  17.662  0.5150  0.1338  0.3112
 4671SOL    HW125646   3.708   3.387  17.707  0.6139 -1.6691 -1.6220
 4671SOL    HW225647   3.794   3.380  17.590  2.4003 -1.2047  1.9574
 4672SOL     OW25648   3.357   4.402   1.329 -0.4218  0.1023 -0.3041
 4672SOL    HW125649   3.302   4.469   1.288 -0.3348  0.8476  0.7990
 4672SOL    HW225650   3.381   4.357   1.249  3.2180  0.3915  0.6420
 4673SOL     OW25651   2.472   1.203  16.241  0.1571  0.1848  0.1419
 4673SOL    HW125652   2.535   1.134  16.218 -0.3718 -1.4470  3.4892
 4673SOL    HW225653   2.501   1.272  16.181 -1.6239  0.0099 -0.9253
 4674SOL     OW25654   0.174   4.284   7.049  0.3156  0.0083  0.1216
 4674SOL    HW125655   0.173   4.347   7.120  0.6752 -0.2568  0.3586
 4674SOL    HW225656   0.096   4.300   6.996  1.5114 -2.8303 -2.5009
 4675SOL     OW25657   1.725   0.241   5.882 -0.1981 -0.2857 -0.1256
 4675SOL    HW125658   1.699   0.200   5.965 -2.7789 -1.0252 -1.2910
 4675SOL    HW225659   1.764   0.166   5.839 -0.2039 -0.1285 -0.4053
 4676SOL     OW25660   1.002   4.671  17.013 -0.2784 -0.3209  0.2109
 4676SOL    HW125661   1.064   4.731  16.972 -0.9328 -0.5468 -1.0881
 4676SOL    HW225662   0.923   4.723  17.033  1.3386  2.5359 -0.8838
 4677SOL     OW25663   4.628   3.614   8.017  0.1406 -0.1584 -0.2935
 4677SOL    HW125664   4.602   3.684   7.957 -0.6031 -1.9001 -1.9716
 4677SOL    HW225665   4.576   3.540   7.987 -0.8754  0.3641  0.1855
 4678SOL     OW25666   2.441   3.457   9.904  0.2876  0.4170 -0.0747
 4678SOL    HW125667   2.400   3.535   9.867  1.0470  0.4188 -0.9030
 4678SOL    HW225668   2.499   3.430   9.833  1.6290  1.3671  0.6601
 4679SOL     OW25669   1.361   1.505  13.995 -0.4976  0.3373 -0.0967
 4679SOL    HW125670   1.301   1.495  13.921  1.4205  0.2159 -1.6358
 4679SOL    HW225671   1.443   1.521  13.948  0.1554  0.2694  1.0220
 4680SOL     OW25672   4.436   3.901   2.509 -0.1821 -0.3741  0.2660
 4680SOL    HW125673   4.499   3.859   2.451 -1.0490  0.3198 -1.1806
 4680SOL    HW225674   4.479   3.892   2.594  2.4648  1.1412 -0.9115
 4681SOL     OW25675   4.021   4.076   3.650 -0.8159  0.0324  0.0363
 4681SOL    HW125676   4.081   4.100   3.578  0.0083  1.0807  1.0683
 4681SOL    HW225677   4.031   4.156   3.702 -0.1003 -1.1053  1.6467
 4682SOL     OW25678   1.053   0.326   2.003 -0.5128  0.7113  0.2333
 4682SOL    HW125679   1.088   0.302   2.089  3.2807  1.7963 -0.9987
 4682SOL    HW225680   1.064   0.421   1.998  1.1426  0.4482 -1.2348
 4683SOL     OW25681   0.481   4.460  14.322 -0.4816  0.0206 -0.0939
 4683SOL    HW125682   0.484   4.364  14.314  0.7107 -0.2021  2.7846
 4683SOL    HW225683   0.561   4.485  14.275  1.3972 -1.2035  2.4286
 4684SOL     OW25684   3.068   0.269   4.936 -0.0264 -0.5699 -0.5678
 4684SOL    HW125685   3.122   0.293   5.011  0.0038 -1.1331 -0.4106
 4684SOL    HW225686   3.074   0.347   4.881 -0.0145 -1.3559 -1.6871
 4685SOL     OW25687   4.489   4.420   3.921  0.9157  0.1803 -0.2385
 4685SOL    HW125688   4.571   4.385   3.956  0.7416  0.6511  0.6316
 4685SOL    HW225689   4.510   4.511   3.942  0.2535 -0.0330  1.3452
 4686SOL     OW25690   0.488   2.748   0.608 -0.1805 -0.1553  0.2386
 4686SOL    HW125691   0.462   2.832   0.570  0.0820 -0.3684 -0.4087
 4686SOL    HW225692   0.576   2.764   0.642  0.2672 -0.7263 -0.6424
 4687SOL     OW25693   3.471   1.548   9.417 -0.2660 -0.7483 -0.4931
 4687SOL    HW125694   3.435   1.466   9.450 -1.3442 -0.0860 -0.0310
 4687SOL    HW225695   3.554   1.548   9.465 -0.9258 -0.8410  0.6199
 4688SOL     OW25696   0.043   4.070   9.752  0.5826  0.0310  0.1308
 4688SOL    HW125697   4.680   4.069   9.742  0.4526  0.7086  1.2244
 4688SOL    HW225698   0.068   4.034   9.668  0.6921  0.0224  0.1672
 4689SOL     OW25699   4.157   0.710   1.075  0.2842  0.1749  0.9076
 4689SOL    HW125700   4.248   0.706   1.104  0.2356 -0.4480  0.9856
 4689SOL    HW225701   4.176   0.702   0.981 -0.9566  1.4144  0.5543
 4690SOL     OW25702   4.013   3.240  14.168  0.6578  0.3509  0.6073
 4690SOL    HW125703   3.972   3.182  14.103  0.9468  1.2373 -0.3701
 4690SOL    HW225704   4.022   3.316  14.110 -2.2536 -0.6386 -1.1603
 4691SOL     OW25705   4.319   3.574  12.475 -0.4321 -0.0276 -0.0410
 4691SOL    HW125706   4.367   3.491  12.481  0.1340  0.3108  0.1148
 4691SOL    HW225707   4.361   3.639  12.532 -1.2871  0.1087  0.4289
 4692SOL     OW25708   0.350   2.366   1.281 -0.7465  0.4572  0.0330
 4692SOL    HW125709   0.332   2.456   1.309  0.2387  0.5215  0.4458
 4692SOL    HW225710   0.275   2.311   1.305  1.1434 -2.4340 -0.7691
 4693SOL     OW25711   1.485   2.783   6.095  0.0648  0.8332 -0.3650
 4693SOL    HW125712   1.484   2.837   6.174  0.2777  0.7261 -0.2894
 4693SOL    HW225713   1.410   2.824   6.053  0.9306  2.7767 -0.0287
 4694SOL     OW25714   2.501   2.056   7.165 -0.5489 -0.2433  0.2417
 4694SOL    HW125715   2.561   2.131   7.167 -0.5304 -0.2267 -1.3022
 4694SOL    HW225716   2.514   2.023   7.254 -0.1536  2.2030  1.1006
 4695SOL     OW25717   0.864   2.310   2.107 -0.2218 -0.3770 -0.1541
 4695SOL    HW125718   0.771   2.293   2.126 -0.3968 -0.7372 -1.2859
 4695SOL    HW225719   0.882   2.249   2.036  2.6099  1.9757 -1.4631
 4696SOL     OW25720   3.503   3.056   0.191  0.0228 -0.1975 -0.5442
 4696SOL    HW125721   3.469   2.991   0.252 -0.0993  0.4066  0.0422
 4696SOL    HW225722   3.527   3.004   0.115  0.9597 -1.6521  0.7503
 4697SOL     OW25723   1.213   2.162   6.130 -0.0724 -0.3869  0.9473
 4697SOL    HW125724   1.138   2.189   6.077  0.1470 -1.7579 -0.0844
 4697SOL    HW225725   1.208   2.066   6.125 -0.3167 -0.2223 -1.9304
 4698SOL     OW25726   4.500   4.214  10.727  0.3432 -0.3198  0.2350
 4698SOL    HW125727   4.457   4.128  10.732 -0.6445 -0.0186 -3.0146
 4698SOL    HW225728   4.523   4.214  10.634 -2.6703  0.9921 -0.5098
 4699SOL     OW25729   2.949   0.960   8.746 -0.0199 -0.1821 -0.1960
 4699SOL    HW125730   2.862   0.922   8.733  0.1505  0.6260 -3.6569
 4699SOL    HW225731   2.924   1.051   8.764 -0.1343 -0.7198  2.4675
 4700SOL     OW25732   4.562   2.803  10.189 -0.9959 -0.4178  0.5605
 4700SOL    HW125733   4.582   2.712  10.212 -2.0696 -0.8138 -0.0517
 4700SOL    HW225734   4.641   2.851  10.215 -1.4948  0.7052 -0.0063
 4701SOL     OW25735   3.414   3.943   1.437  0.4457 -0.1793 -0.6435
 4701SOL    HW125736   3.472   3.875   1.473  1.6865  0.6857 -1.0037
 4701SOL    HW225737   3.338   3.904   1.395 -1.6236  2.4772  0.6808
 4702SOL     OW25738   4.712   3.735   5.160 -0.1134 -0.3720 -0.5901
 4702SOL    HW125739   4.631   3.693   5.188 -0.8055  1.3677 -0.0393
 4702SOL    HW225740   0.054   3.682   5.191 -0.0894 -0.3668 -0.6384
 4703SOL     OW25741   1.149   1.828   0.469  0.0437 -0.4943  0.4281
 4703SOL    HW125742   1.084   1.866   0.409  0.4151 -0.3058  0.1393
 4703SOL    HW225743   1.162   1.740   0.434  1.4593 -0.0675 -0.1422
 4704SOL     OW25744   2.079   3.928  17.645 -0.1383  0.2534 -0.1784
 4704SOL    HW125745   2.104   3.836  17.639  0.5351  0.3020  2.0113
 4704SOL    HW225746   2.013   3.927  17.576  0.0149 -1.4659 -0.3169
 4705SOL     OW25747   4.215   3.052   0.104  0.2816 -0.1089 -0.0402
 4705SOL    HW125748   4.159   2.983   0.139  1.8898 -1.1156  0.5764
 4705SOL    HW225749   4.173   3.130   0.139 -0.0618 -0.4308  0.2676
 4706SOL     OW25750   1.868   0.534   5.286  0.0053 -0.6636 -0.2356
 4706SOL    HW125751   1.775   0.514   5.291 -0.4874  2.1828  2.0656
 4706SOL    HW225752   1.901   0.470   5.223  1.3516 -1.2529  1.0464
 4707SOL     OW25753   3.618   4.452   3.039 -0.7646  0.2311 -0.3674
 4707SOL    HW125754   3.550   4.484   2.980 -0.9398  2.7042  1.2042
 4707SOL    HW225755   3.697   4.457   2.984  0.6257 -0.5681  1.5576
 4708SOL     OW25756   2.705   2.877   3.285  1.1055 -0.2062 -0.0836
 4708SOL    HW125757   2.667   2.952   3.331  2.9688 -0.2543  1.5765
 4708SOL    HW225758   2.796   2.873   3.314  1.7357  0.0338 -2.0319
 4709SOL     OW25759   3.591   0.398   1.246  0.3080  0.0751  0.6757
 4709SOL    HW125760   3.646   0.474   1.227  2.8001 -1.9617 -0.2532
 4709SOL    HW225761   3.517   0.413   1.187  0.6087 -1.5470 -0.0922
 4710SOL     OW25762   3.090   4.293  13.479 -0.3481 -0.4233 -0.0653
 4710SOL    HW125763   3.053   4.212  13.513  0.5248 -0.3444  1.0666
 4710SOL    HW225764   3.033   4.363  13.509  0.3965  0.0801  0.1864
 4711SOL     OW25765   3.232   1.602   3.835 -0.1402 -0.1525 -0.7217
 4711SOL    HW125766   3.234   1.534   3.768 -1.2489 -0.6074 -0.2890
 4711SOL    HW225767   3.143   1.595   3.869 -0.0510 -0.0757 -0.4786
 4712SOL     OW25768   1.850   0.935  15.040 -0.0479  0.7840  0.2712
 4712SOL    HW125769   1.913   0.962  14.972  0.0627  0.9307  0.4325
 4712SOL    HW225770   1.788   0.897  14.978 -1.1033  0.6551  1.4274
 4713SOL     OW25771   1.580   1.046   3.317  0.2029 -0.0778 -0.3863
 4713SOL    HW125772   1.508   1.008   3.368 -0.6537  1.9045 -0.1276
 4713SOL    HW225773   1.659   1.018   3.364 -0.3278  0.8290  1.0505
 4714SOL     OW25774   0.606   1.519   6.412  0.0124 -0.2745  0.1839
 4714SOL    HW125775   0.650   1.538   6.329 -0.9427  1.0753 -0.0086
 4714SOL    HW225776   0.550   1.596   6.405 -0.7024 -0.8107 -0.0563
 4715SOL     OW25777   3.544   1.844   0.858  0.2361  0.0947  0.4868
 4715SOL    HW125778   3.588   1.805   0.783  1.2371 -1.8306  2.0590
 4715SOL    HW225779   3.498   1.922   0.827  0.6036 -1.3405 -3.6244
 4716SOL     OW25780   3.132   1.838   2.383  0.0006 -0.5988  0.4712
 4716SOL    HW125781   3.132   1.864   2.290 -1.1534  1.6261  1.0828
 4716SOL    HW225782   3.091   1.912   2.427  1.0380 -0.6675  1.5238
 4717SOL     OW25783   2.404   4.225   8.365 -0.0601  0.3535  0.4419
 4717SOL    HW125784   2.476   4.238   8.302 -1.2301 -0.3243 -1.0309
 4717SOL    HW225785   2.332   4.237   8.303 -0.1740  0.9093  0.6805
 4718SOL     OW25786   2.331   1.525  14.555  0.0902 -0.1926  0.6376
 4718SOL    HW125787   2.339   1.431  14.538  0.5169 -0.3125  1.5287
 4718SOL    HW225788   2.402   1.555  14.498 -0.8244  0.3118 -0.2405
 4719SOL     OW25789   4.003   4.230  10.379 -0.3972 -0.5138 -0.0368
 4719SOL    HW125790   4.010   4.238  10.284 -2.8434 -1.4007 -0.3072
 4719SOL    HW225791   3.950   4.150  10.386 -2.4987  0.7126 -1.8868
 4720SOL     OW25792   1.757   0.275   3.548 -0.4202  0.1221 -0.3432
 4720SOL    HW125793   1.795   0.193   3.516 -1.1724 -0.0044 -0.9068
 4720SOL    HW225794   1.782   0.292   3.638 -1.0105 -0.8639  0.0060
 4721SOL     OW25795   1.094   4.192   2.885 -0.5601 -0.3464  0.2517
 4721SOL    HW125796   1.038   4.262   2.853 -0.3202 -0.2475  0.0471
 4721SOL    HW225797   1.164   4.182   2.820  1.5734 -1.4764  2.7180
 4722SOL     OW25798   1.450   4.008   2.499  0.8055  0.5002 -0.5266
 4722SOL    HW125799   1.369   3.956   2.501  1.9583 -1.4021 -2.7662
 4722SOL    HW225800   1.465   4.025   2.592  2.0742  0.3324 -0.7041
 4723SOL     OW25801   2.802   0.617  13.580 -0.2552 -0.3597 -0.0217
 4723SOL    HW125802   2.860   0.687  13.611  0.5234 -1.9412  2.1003
 4723SOL    HW225803   2.840   0.542  13.625 -0.2001 -2.6859 -3.9210
 4724SOL     OW25804   2.942   0.222  10.324 -0.5188  0.4219  0.3516
 4724SOL    HW125805   2.937   0.130  10.353 -1.0556  0.7689  1.3593
 4724SOL    HW225806   2.851   0.247  10.340 -0.7793 -0.7476  0.7040
 4725SOL     OW25807   1.666   4.613   6.077  0.0833  0.4109 -0.0078
 4725SOL    HW125808   1.586   4.587   6.123 -1.3467 -2.2985 -4.0384
 4725SOL    HW225809   1.652   4.708   6.077  1.5078  0.6309  1.9330
 4726SOL     OW25810   3.706   2.889   2.333  0.1435 -0.5347  0.3345
 4726SOL    HW125811   3.759   2.816   2.301 -1.3964 -2.1535  1.5013
 4726SOL    HW225812   3.636   2.888   2.268  0.3879 -1.2415  0.0761
 4727SOL     OW25813   0.126   3.643   3.571 -0.2832 -0.0579  0.2234
 4727SOL    HW125814   0.208   3.645   3.621  0.4442  0.4999 -0.9959
 4727SOL    HW225815   0.142   3.560   3.527  0.8800  0.0781  0.3863
 4728SOL     OW25816   2.677   0.279   4.104 -0.0212  0.8543  0.4000
 4728SOL    HW125817   2.701   0.321   4.021 -0.6537  2.2213  0.9137
 4728SOL    HW225818   2.643   0.198   4.066  1.3174  0.5536 -0.1601
 4729SOL     OW25819   4.045   3.425  13.220 -0.2969  0.1841 -0.2205
 4729SOL    HW125820   4.001   3.423  13.305  1.3271  1.3853  0.6546
 4729SOL    HW225821   4.010   3.345  13.182 -0.9745 -0.2832  1.3873
 4730SOL     OW25822   0.710   3.110  15.871 -0.1255  0.1394  0.4008
 4730SOL    HW125823   0.793   3.158  15.867 -0.4385  0.7482  1.3544
 4730SOL    HW225824   0.674   3.142  15.788 -0.7080 -1.0127  0.2038
 4731SOL     OW25825   0.301   0.796   7.985  0.3913 -0.1946 -0.1102
 4731SOL    HW125826   0.307   0.701   7.974 -1.0711 -0.2758 -0.1412
 4731SOL    HW225827   0.284   0.833   7.899 -0.3590 -0.8592 -0.2501
 4732SOL     OW25828   3.738   4.128   4.417 -0.0617  0.4922  0.0736
 4732SOL    HW125829   3.754   4.187   4.491 -2.3235  1.0138  0.1447
 4732SOL    HW225830   3.824   4.086   4.421 -0.8018 -0.9652  0.8165
 4733SOL     OW25831   0.738   1.999   1.004 -0.1705 -0.2871  0.1233
 4733SOL    HW125832   0.762   2.074   0.950 -0.3616  0.2182  0.7355
 4733SOL    HW225833   0.822   1.969   1.037  1.5095  3.1939 -0.9893
 4734SOL     OW25834   0.898   0.694   5.267 -0.3410  0.0097 -0.7510
 4734SOL    HW125835   0.821   0.641   5.245 -1.4332  1.4225 -0.3191
 4734SOL    HW225836   0.863   0.782   5.284 -0.7849 -0.4600  0.7364
 4735SOL     OW25837   1.124   4.060   3.961  0.2724  0.5165 -0.0218
 4735SOL    HW125838   1.107   4.040   3.869 -0.3524 -2.0704  0.6447
 4735SOL    HW225839   1.194   4.124   3.949  0.1582  0.2701 -1.9823
 4736SOL     OW25840   2.866   0.899   0.104  0.1092 -0.0209 -0.3296
 4736SOL    HW125841   2.935   0.928   0.044  1.3101 -0.5302  0.7844
 4736SOL    HW225842   2.901   0.905   0.193 -0.6227 -1.7476  0.0648
 4737SOL     OW25843   2.580   2.187   4.672  0.1573  0.2044 -0.6302
 4737SOL    HW125844   2.507   2.202   4.612 -0.4094  0.4821  0.1271
 4737SOL    HW225845   2.556   2.254   4.736 -0.1272 -0.5621  0.0560
 4738SOL     OW25846   1.553   2.355   9.029 -0.5568 -0.2368  0.2121
 4738SOL    HW125847   1.559   2.330   9.121  2.1172 -0.5525 -0.0343
 4738SOL    HW225848   1.559   2.266   8.995  3.0629 -0.2229  0.7791
 4739SOL     OW25849   2.743   1.675   8.283  0.3064  0.2925 -0.2750
 4739SOL    HW125850   2.760   1.654   8.375  1.1366  0.3419 -0.4178
 4739SOL    HW225851   2.813   1.738   8.269 -0.8155  1.2801 -1.3896
 4740SOL     OW25852   0.856   1.459  16.925 -0.0940 -0.0736 -0.3484
 4740SOL    HW125853   0.870   1.553  16.936  0.4178 -0.0890 -0.9072
 4740SOL    HW225854   0.831   1.434  17.015  0.8619 -3.1770 -0.9239
 4741SOL     OW25855   0.840   2.712  14.835 -0.2283 -0.5415  0.1002
 4741SOL    HW125856   0.761   2.749  14.794 -0.3504  0.7650  1.4859
 4741SOL    HW225857   0.800   2.667  14.909  1.0845  0.1314  1.2153
 4742SOL     OW25858   1.462   2.203   2.459  0.4818  0.1183  0.7833
 4742SOL    HW125859   1.367   2.215   2.468  0.5228  1.6276 -0.7047
 4742SOL    HW225860   1.475   2.195   2.553  0.0592  0.2253  0.8501
 4743SOL     OW25861   3.333   2.083   4.545  0.4113 -0.2387  0.0460
 4743SOL    HW125862   3.369   2.034   4.471  0.6879  0.8032 -0.4964
 4743SOL    HW225863   3.320   2.008   4.603  1.2378  0.1759  0.7721
 4744SOL     OW25864   0.146   3.471   9.746  0.6300  0.1393  0.1587
 4744SOL    HW125865   0.183   3.447   9.662 -0.7386 -2.1517  0.2015
 4744SOL    HW225866   0.206   3.428   9.808  1.1513 -1.0440 -1.1739
 4745SOL     OW25867   1.154   1.343   8.135  0.3746 -0.2471 -0.2792
 4745SOL    HW125868   1.158   1.432   8.099  0.0797 -0.4500 -0.8130
 4745SOL    HW225869   1.087   1.349   8.203 -1.1273 -1.4809 -1.6769
 4746SOL     OW25870   4.557   1.870  14.451 -0.0746  0.0107  0.7176
 4746SOL    HW125871   4.594   1.917  14.525  1.0271  0.2390  0.0217
 4746SOL    HW225872   4.600   1.786  14.465  1.2830  0.2845 -1.8822
 4747SOL     OW25873   4.606   2.655   4.370  0.0037 -0.2139  0.1257
 4747SOL    HW125874   4.552   2.668   4.292  3.0800  1.5810 -1.6908
 4747SOL    HW225875   4.593   2.563   4.390 -1.6363  0.4272  2.0165
 4748SOL     OW25876   3.585   3.114   6.726  0.0961 -0.1417 -0.1369
 4748SOL    HW125877   3.502   3.073   6.750  0.4636 -1.4318 -1.0517
 4748SOL    HW225878   3.561   3.133   6.635 -0.6158  0.0930  0.1013
 4749SOL     OW25879   3.688   1.275   0.824  0.0600 -0.3073 -0.4884
 4749SOL    HW125880   3.736   1.198   0.853 -0.3409 -0.4847 -0.2973
 4749SOL    HW225881   3.669   1.324   0.904 -0.9909 -2.1979  0.3965
 4750SOL     OW25882   3.640   1.188  15.304  0.4569  0.3846  0.2794
 4750SOL    HW125883   3.657   1.100  15.339 -1.2952  0.8042  2.1566
 4750SOL    HW225884   3.721   1.201  15.255  0.2275 -0.7723 -0.4033
 4751SOL     OW25885   2.301   2.912   8.167  0.1861 -0.0507 -0.2487
 4751SOL    HW125886   2.372   2.878   8.222  2.0175  2.8183 -0.8416
 4751SOL    HW225887   2.276   2.987   8.221  0.0275 -1.9667  2.3555
 4752SOL     OW25888   4.646   1.219   3.111  0.0791 -0.0466 -0.1120
 4752SOL    HW125889   4.719   1.197   3.169  0.0503  1.7832  0.6346
 4752SOL    HW225890   4.681   1.216   3.022 -2.3915  0.4716 -1.0994
 4753SOL     OW25891   0.687   4.167   4.402  0.2086 -0.4356 -0.1930
 4753SOL    HW125892   0.706   4.148   4.493 -0.1973 -0.4150 -0.1010
 4753SOL    HW225893   0.592   4.178   4.396  0.3277  0.5970 -0.1476
 4754SOL     OW25894   2.650   1.044   3.008 -0.0359  0.4378 -0.1388
 4754SOL    HW125895   2.574   1.030   3.065 -1.3633  1.1742 -1.7305
 4754SOL    HW225896   2.723   1.033   3.069 -0.0973  1.9758  0.2112
 4755SOL     OW25897   2.273   4.540  12.090  0.1255  0.2854  0.5604
 4755SOL    HW125898   2.192   4.522  12.138  0.3398 -0.4946  0.6366
 4755SOL    HW225899   2.328   4.518  12.165 -2.2297 -0.9881  1.8915
 4756SOL     OW25900   2.628   3.398   9.693 -0.4980  0.1707  0.4231
 4756SOL    HW125901   2.700   3.406   9.756  2.0581 -2.0033 -2.1655
 4756SOL    HW225902   2.660   3.320   9.647 -1.0304  0.7757 -0.9771
 4757SOL     OW25903   1.521   1.068   6.264  0.6029 -0.0578 -0.1943
 4757SOL    HW125904   1.561   1.017   6.334  0.9366  1.4790  0.7581
 4757SOL    HW225905   1.476   1.002   6.213  0.6372 -0.4513  0.2882
 4758SOL     OW25906   3.028   3.044   2.406  0.3000 -0.0488  0.3854
 4758SOL    HW125907   3.097   2.988   2.443  1.0148  0.2952 -0.4225
 4758SOL    HW225908   3.000   2.993   2.331  1.4218  0.7927 -0.6181
 4759SOL     OW25909   1.026   2.914   4.429 -0.8413  0.5080 -0.1185
 4759SOL    HW125910   1.014   2.884   4.339 -0.6502  1.7934 -0.5660
 4759SOL    HW225911   1.021   3.009   4.422 -0.3217  0.4737 -0.8910
 4760SOL     OW25912   4.183   2.257   1.924  0.3270  0.4299  0.4526
 4760SOL    HW125913   4.212   2.220   2.007 -3.1432 -1.5412  0.7763
 4760SOL    HW225914   4.241   2.332   1.913  1.0141 -0.5008 -2.3091
 4761SOL     OW25915   3.371   4.403   5.319 -0.2323 -0.3775  0.1651
 4761SOL    HW125916   3.359   4.334   5.254 -1.7328 -0.3402  0.4069
 4761SOL    HW225917   3.315   4.367   5.388 -0.5865  2.4031  1.3493
 4762SOL     OW25918   0.305   3.672   8.690 -0.8881 -0.0057  0.5297
 4762SOL    HW125919   0.323   3.764   8.673 -1.2683  0.1643  1.0354
 4762SOL    HW225920   0.211   3.676   8.672 -0.3522 -0.4273 -2.2236
 4763SOL     OW25921   2.122   4.331   2.656 -0.1236 -0.1590 -0.1941
 4763SOL    HW125922   2.138   4.245   2.616 -0.8545 -0.5364  0.3388
 4763SOL    HW225923   2.066   4.377   2.594  1.0698 -0.7856 -1.7369
 4764SOL     OW25924   1.241   4.237   3.773  0.3900  0.4665 -0.2375
 4764SOL    HW125925   1.319   4.230   3.716  1.2365  2.7616  0.6325
 4764SOL    HW225926   1.237   4.326   3.808 -1.4843 -0.1891  1.1547
 4765SOL     OW25927   0.316   3.631   2.467 -0.0377 -0.4314 -0.3229
 4765SOL    HW125928   0.390   3.574   2.449 -0.3540 -1.2016  0.7863
 4765SOL    HW225929   0.306   3.616   2.561 -3.5821  2.1519 -0.2715
 4766SOL     OW25930   2.487   1.323  15.426  0.2344 -1.1628  0.2520
 4766SOL    HW125931   2.563   1.353  15.375 -1.1900 -0.0692 -1.2416
 4766SOL    HW225932   2.502   1.229  15.439 -2.8722 -1.5652  0.9224
 4767SOL     OW25933   0.478   2.490   5.531  0.7826  0.3228  0.0283
 4767SOL    HW125934   0.434   2.514   5.450 -0.9486 -1.8306  0.3518
 4767SOL    HW225935   0.523   2.571   5.558  0.0808  1.2871 -1.7341
 4768SOL     OW25936   2.337   4.200  13.484  0.3072 -0.2049  0.5870
 4768SOL    HW125937   2.411   4.214  13.425  0.2984 -1.0497  0.3724
 4768SOL    HW225938   2.344   4.271  13.548  1.3862 -0.2213  0.4874
 4769SOL     OW25939   1.242   4.549  17.716 -0.5450  0.6285 -0.0587
 4769SOL    HW125940   1.184   4.621  17.690 -0.3131  0.4993 -0.9214
 4769SOL    HW225941   1.211   4.484  17.653  0.3435 -0.6803  0.8643
 4770SOL     OW25942   0.643   2.327   6.219  0.2502  0.0596 -0.2880
 4770SOL    HW125943   0.611   2.367   6.138  1.2367 -2.3947 -1.8948
 4770SOL    HW225944   0.569   2.272   6.247  0.5120 -0.3016 -0.2962
 4771SOL     OW25945   1.695   1.218   7.038 -0.4218 -0.2229  0.2292
 4771SOL    HW125946   1.776   1.181   7.075  0.8227 -0.5331 -2.7621
 4771SOL    HW225947   1.719   1.233   6.947  0.6414 -0.1580  0.5194
 4772SOL     OW25948   1.226   4.469  15.989  0.3440 -0.0116 -0.6294
 4772SOL    HW125949   1.144   4.454  16.036 -0.1139  1.0000 -1.1251
 4772SOL    HW225950   1.287   4.395  15.996  0.1260 -0.1247  0.0693
 4773SOL     OW25951   2.846   4.058   5.930 -0.0251 -0.1701  0.1902
 4773SOL    HW125952   2.895   4.121   5.982 -1.2308  0.9610 -0.0412
 4773SOL    HW225953   2.900   4.053   5.850  2.3264  1.0592  1.7088
 4774SOL     OW25954   0.691   1.100   4.935  0.0428  0.3760 -0.4946
 4774SOL    HW125955   0.723   1.175   4.987 -1.4305  0.2545  0.5742
 4774SOL    HW225956   0.604   1.080   4.969  1.1940 -0.4165  2.0042
 4775SOL     OW25957   2.036   4.095   6.974 -0.2870 -0.3409 -0.2862
 4775SOL    HW125958   2.001   4.100   7.063  2.2622  1.1141  0.6533
 4775SOL    HW225959   2.067   4.183   6.953  2.1242 -1.2838 -0.7845
 4776SOL     OW25960   4.099   1.880   4.448 -0.0358 -0.1951  0.1597
 4776SOL    HW125961   4.114   1.819   4.376  0.2151 -1.3833  1.2217
 4776SOL    HW225962   4.091   1.831   4.530 -1.4105 -0.2536 -0.0106
 4777SOL     OW25963   4.348   1.422   8.368 -0.0331 -0.4078  0.5153
 4777SOL    HW125964   4.419   1.366   8.338 -0.6222  0.0513 -1.7727
 4777SOL    HW225965   4.306   1.448   8.286  1.7305  1.9246  0.3535
 4778SOL     OW25966   3.716   0.948   8.202 -0.2561  0.2531  0.2364
 4778SOL    HW125967   3.733   1.014   8.136 -0.9945  0.8156  0.6066
 4778SOL    HW225968   3.682   0.875   8.151  0.8743  0.7951 -1.2702
 4779SOL     OW25969   1.922   1.205   4.088  0.4117  0.6495  0.0447
 4779SOL    HW125970   1.998   1.201   4.031  0.7566 -2.1440  0.7426
 4779SOL    HW225971   1.910   1.300   4.100 -0.2745  0.4822  0.7059
 4780SOL     OW25972   0.611   4.013   4.197 -0.0624 -0.6698  0.2537
 4780SOL    HW125973   0.637   4.075   4.266 -1.0464  0.1050 -0.0670
 4780SOL    HW225974   0.674   4.036   4.129 -0.4849 -1.7457 -0.5023
 4781SOL     OW25975   4.143   4.648   6.743  0.0001  0.0763  0.3043
 4781SOL    HW125976   4.114   4.560   6.723 -0.6289  0.0828  1.1995
 4781SOL    HW225977   4.191   4.645   6.825  1.7341 -2.3469 -0.7892
 4782SOL     OW25978   3.881   2.915   5.979 -0.5005  0.4568 -0.8246
 4782SOL    HW125979   3.855   3.006   5.996 -2.0371  0.2623 -2.1026
 4782SOL    HW225980   3.967   2.932   5.941  0.6529  0.9478  2.0331
 4783SOL     OW25981   0.853   2.754  14.283  0.1958  0.2283  0.1892
 4783SOL    HW125982   0.895   2.741  14.198  0.5018 -1.8887  0.6758
 4783SOL    HW225983   0.927   2.794  14.329  0.3353  2.4833 -1.9832
 4784SOL     OW25984   4.330   4.308   3.686 -0.0234 -0.4677  0.6843
 4784SOL    HW125985   4.381   4.348   3.756 -0.9763  2.8366 -0.5412
 4784SOL    HW225986   4.346   4.379   3.624  0.8588  0.0140  1.4712
 4785SOL     OW25987   1.119   2.622   7.056 -0.4873 -0.0916  0.9681
 4785SOL    HW125988   1.027   2.598   7.067 -1.0313  1.1473 -0.9268
 4785SOL    HW225989   1.167   2.560   7.001 -0.4977  1.6873 -1.0797
 4786SOL     OW25990   1.092   2.321  13.972  0.2398 -0.2094 -0.0350
 4786SOL    HW125991   1.163   2.367  13.929  1.7315 -2.7848 -0.3288
 4786SOL    HW225992   1.090   2.237  13.926  0.9827  0.4058 -1.1674
 4787SOL     OW25993   1.435   0.324   0.362 -0.1573 -0.3594 -0.3566
 4787SOL    HW125994   1.342   0.309   0.377 -0.3390  0.8452 -0.2263
 4787SOL    HW225995   1.443   0.298   0.271  0.2922 -1.3075 -0.0499
 4788SOL     OW25996   1.413   2.059  15.044  0.0257 -0.2206  0.1403
 4788SOL    HW125997   1.416   2.150  15.017 -1.3058 -0.3632 -0.4647
 4788SOL    HW225998   1.403   2.070  15.139 -0.5676 -0.1374  0.0670
 4789SOL     OW25999   2.520   3.446   5.676 -0.3547  0.5297  0.1190
 4789SOL    HW126000   2.537   3.437   5.583  0.0564 -0.5879  0.2976
 4789SOL    HW226001   2.606   3.472   5.707 -0.0803  2.3963 -2.2246
 4790SOL     OW26002   0.655   2.429   0.920  0.4384 -0.0264 -0.0131
 4790SOL    HW126003   0.587   2.370   0.951 -0.1360 -0.1500 -1.5233
 4790SOL    HW226004   0.726   2.370   0.896 -0.0892 -0.3866 -0.6739
 4791SOL     OW26005   1.019   1.926   9.139 -0.1810 -0.1969  0.3548
 4791SOL    HW126006   1.015   2.012   9.098  1.5476 -0.0500  0.4942
 4791SOL    HW226007   0.987   1.868   9.071 -0.5732  1.1284 -0.5795
 4792SOL     OW26008   0.193   0.408   2.495 -0.0351 -0.4516  0.8448
 4792SOL    HW126009   0.225   0.367   2.414  0.9307 -3.0776  2.5588
 4792SOL    HW226010   0.127   0.348   2.529 -0.8763  0.3207  0.5920
 4793SOL     OW26011   1.186   1.975  14.444 -0.6105  0.0505  0.8173
 4793SOL    HW126012   1.172   1.926  14.364  0.9941  0.9162 -0.0021
 4793SOL    HW226013   1.160   2.062  14.413  0.3033 -0.9642 -2.7899
 4794SOL     OW26014   3.924   0.022   1.280  0.1608  1.0185 -0.4748
 4794SOL    HW126015   3.854   0.085   1.263  2.0376  3.4260  0.8858
 4794SOL    HW226016   3.895   4.683   1.223 -0.8369  0.7201  0.4095
 4795SOL     OW26017   4.578   3.336   2.937 -0.2735 -0.0526  0.1947
 4795SOL    HW126018   4.518   3.286   2.882  0.7667 -2.1539  1.0044
 4795SOL    HW226019   4.576   3.297   3.024 -1.9818 -1.8202 -0.6443
 4796SOL     OW26020   1.272   2.652   4.251 -0.0504 -0.1356  0.1504
 4796SOL    HW126021   1.344   2.612   4.301  0.0561  0.1881  0.2629
 4796SOL    HW226022   1.215   2.688   4.318 -0.1494 -0.1693  0.0833
 4797SOL     OW26023   1.904   2.192  17.427 -0.2748  0.1607  0.2943
 4797SOL    HW126024   1.851   2.200  17.505 -0.5392  0.0671  0.1229
 4797SOL    HW226025   1.981   2.162  17.475  0.4459  2.3999  0.5468
 4798SOL     OW26026   1.453   1.540  10.034  0.4738 -0.2884 -1.0344
 4798SOL    HW126027   1.396   1.584  10.096  3.4171  1.0339  0.7072
 4798SOL    HW226028   1.400   1.462  10.020  1.0064 -0.8939  0.3485
 4799SOL     OW26029   2.590   1.947   4.960 -0.1260  0.3978 -0.0698
 4799SOL    HW126030   2.601   1.882   5.029  0.4682 -0.8715 -1.3518
 4799SOL    HW226031   2.510   1.913   4.919 -0.6252  0.8814  0.5076
 4800SOL     OW26032   4.324   2.733   3.619  0.2338 -0.4547 -0.1083
 4800SOL    HW126033   4.367   2.767   3.697 -1.4488  0.2944  0.4786
 4800SOL    HW226034   4.263   2.803   3.596 -0.9285 -0.8792  1.7042
 4801SOL     OW26035   1.453   2.770   2.456  0.0322 -0.3078  0.5080
 4801SOL    HW126036   1.371   2.769   2.506 -1.0379  0.1547 -1.2157
 4801SOL    HW226037   1.413   2.775   2.369  0.6343  1.6039  0.3456
 4802SOL     OW26038   2.434   0.141   5.653 -0.1026 -0.3595 -0.6591
 4802SOL    HW126039   2.343   0.113   5.641 -0.0524 -1.1231  0.8127
 4802SOL    HW226040   2.456   0.175   5.566  2.5034 -0.0447  0.1259
 4803SOL     OW26041   2.906   3.079   8.230  0.1160 -0.0065  0.3146
 4803SOL    HW126042   2.983   3.078   8.287  1.4775  0.5858 -1.5359
 4803SOL    HW226043   2.923   3.165   8.191 -0.6382 -0.7150 -1.5769
 4804SOL     OW26044   1.846   2.286  14.023 -0.7481  0.2118 -0.7037
 4804SOL    HW126045   1.809   2.200  14.004 -1.2624  0.4883 -0.9497
 4804SOL    HW226046   1.782   2.304  14.092  1.2110 -1.0035  1.4248
 4805SOL     OW26047   0.422   3.871  12.584 -0.1869 -0.2505  0.2490
 4805SOL    HW126048   0.483   3.798  12.592  0.3909  0.3492  1.2732
 4805SOL    HW226049   0.340   3.822  12.596  1.3768 -1.8943  4.0293
 4806SOL     OW26050   3.563   2.069   3.079 -0.2561 -0.0373 -0.0254
 4806SOL    HW126051   3.575   1.987   3.127 -0.7662  1.5121  2.7624
 4806SOL    HW226052   3.634   2.063   3.015  0.2166 -2.5489  0.7454
 4807SOL     OW26053   1.232   0.227   4.831  0.0771 -0.0922 -0.4179
 4807SOL    HW126054   1.308   0.214   4.774 -0.4367 -1.4933 -0.7707
 4807SOL    HW226055   1.290   0.245   4.905 -0.6474  1.4177 -0.2225
 4808SOL     OW26056   2.086   1.112   1.758 -0.1749 -0.3552 -0.5147
 4808SOL    HW126057   1.994   1.089   1.768 -0.0196 -1.2779 -1.2365
 4808SOL    HW226058   2.119   1.047   1.820 -0.6610 -0.4652 -0.3748
 4809SOL     OW26059   1.939   3.404   7.783  0.0388 -0.1807  0.1192
 4809SOL    HW126060   1.931   3.499   7.794  2.0473 -0.0125 -0.0210
 4809SOL    HW226061   2.028   3.389   7.752  0.3982  1.3376  0.4363
 4810SOL     OW26062   4.679   1.789   3.597  0.2852 -0.6837  0.1564
 4810SOL    HW126063   4.637   1.875   3.590 -0.2894 -0.8487  1.6612
 4810SOL    HW226064   0.023   1.813   3.649  0.9431 -2.8394  0.1879
 4811SOL     OW26065   1.051   1.197  17.662  0.2360  0.2346 -0.6436
 4811SOL    HW126066   1.133   1.184  17.614  1.6403  0.4048  1.7318
 4811SOL    HW226067   1.069   1.162   0.021  1.3663  0.3633 -0.8252
 4812SOL     OW26068   3.823   0.627   7.822  0.4717 -0.1959  0.4155
 4812SOL    HW126069   3.748   0.641   7.880 -0.2785 -1.5397 -0.2339
 4812SOL    HW226070   3.797   0.542   7.786  1.1396  0.2528 -1.1235
 4813SOL     OW26071   1.578   1.881   6.870 -0.4798  0.6038 -0.3472
 4813SOL    HW126072   1.566   1.807   6.812  1.2153  0.5244 -0.5808
 4813SOL    HW226073   1.526   1.840   6.940  0.6205  1.8420  1.2105
 4814SOL     OW26074   2.536   0.161   2.811  0.4499 -0.0312 -0.1598
 4814SOL    HW126075   2.608   0.219   2.787  1.7941 -1.8134 -0.4266
 4814SOL    HW226076   2.461   0.217   2.832  0.6030  0.0826  0.0766
 4815SOL     OW26077   2.137   1.803   8.671 -0.5941 -0.3010  0.2794
 4815SOL    HW126078   2.145   1.889   8.629 -1.6670 -0.4761 -0.2740
 4815SOL    HW226079   2.182   1.814   8.756  1.0913  0.5530 -0.7185
 4816SOL     OW26080   3.998   3.335  14.639  0.1674 -0.1281  0.2738
 4816SOL    HW126081   3.947   3.287  14.573  0.8649 -0.6564  0.1186
 4816SOL    HW226082   4.087   3.304  14.621  0.3083 -0.2529  1.1887
 4817SOL     OW26083   1.488   1.386   1.491  0.5519  0.6460 -0.3099
 4817SOL    HW126084   1.565   1.372   1.436  0.1383  2.9469 -1.4655
 4817SOL    HW226085   1.461   1.296   1.510 -1.3845  0.4738 -3.7276
 4818SOL     OW26086   0.071   1.949   4.490  0.5273 -0.7973  0.0128
 4818SOL    HW126087   0.010   1.963   4.418 -0.2795 -1.1268  0.6388
 4818SOL    HW226088   0.145   2.003   4.462 -0.4898  0.5822  0.0309
 4819SOL     OW26089   1.362   2.043  12.397 -0.0893 -0.4694  0.5345
 4819SOL    HW126090   1.387   2.065  12.307  0.6247  0.6246  0.9950
 4819SOL    HW226091   1.272   2.075  12.392 -0.0726 -0.5058  0.0296
 4820SOL     OW26092   0.070   0.333  12.333 -0.3148 -0.4478 -1.1295
 4820SOL    HW126093   0.061   0.427  12.317  0.2691 -0.0761  0.7799
 4820SOL    HW226094   4.718   0.298  12.301 -0.9203 -0.9961  1.0860
 4821SOL     OW26095   2.277   2.532  13.268 -0.1593  0.1286  0.3142
 4821SOL    HW126096   2.269   2.466  13.199 -2.7884 -0.8127  1.5420
 4821SOL    HW226097   2.220   2.600  13.231  2.6174  2.1170 -0.3090
 4822SOL     OW26098   2.544   2.733   2.202 -0.4729  0.0417 -0.1429
 4822SOL    HW126099   2.548   2.664   2.269 -0.4326 -0.4529 -0.6536
 4822SOL    HW226100   2.452   2.743   2.180  0.0156  1.6934 -1.4369
 4823SOL     OW26101   0.218   1.853  17.417  0.6609 -0.0105  0.3153
 4823SOL    HW126102   0.137   1.878  17.463  1.4586  1.0210  1.1652
 4823SOL    HW226103   0.279   1.879  17.486  0.7051  0.9006 -0.0764
 4824SOL     OW26104   0.246   1.350  10.594  0.1417  0.0574  0.2605
 4824SOL    HW126105   0.207   1.434  10.617 -1.2405 -0.2709 -0.8432
 4824SOL    HW226106   0.176   1.332  10.530  2.3510  2.9214 -2.9486
 4825SOL     OW26107   0.472   3.747   7.977 -0.1151  0.8788 -0.1684
 4825SOL    HW126108   0.381   3.723   7.990  0.7398 -0.8544  2.6261
 4825SOL    HW226109   0.468   3.810   7.905 -2.3806  0.1935 -0.6348
 4826SOL     OW26110   1.444   3.348   5.350 -0.5415  0.3106 -0.1704
 4826SOL    HW126111   1.501   3.292   5.296 -1.7607 -1.5463  0.4475
 4826SOL    HW226112   1.391   3.378   5.277 -3.1605 -0.7570  1.2876
 4827SOL     OW26113   3.936   1.127   8.662  0.1318  0.2525 -0.0039
 4827SOL    HW126114   3.941   1.037   8.695  0.8447  1.4502  3.1788
 4827SOL    HW226115   3.894   1.098   8.581 -2.3124  2.7601  0.3530
 4828SOL     OW26116   3.021   3.221   4.231  0.1243  0.2332 -0.0611
 4828SOL    HW126117   3.065   3.208   4.314 -1.8945 -1.6722  0.7271
 4828SOL    HW226118   2.937   3.250   4.268 -0.1450 -0.1345 -0.3840
 4829SOL     OW26119   3.244   0.724   2.127 -0.1810  0.0208  0.0067
 4829SOL    HW126120   3.194   0.804   2.113  0.0466  0.3606  1.1687
 4829SOL    HW226121   3.318   0.732   2.066  0.3675  3.2518  1.1153
 4830SOL     OW26122   3.084   0.154   3.557  0.3292 -0.0699  0.2020
 4830SOL    HW126123   3.093   0.099   3.479  0.7704  0.1163  0.1226
 4830SOL    HW226124   3.011   0.106   3.598  0.8823  0.0055  1.2705
 4831SOL     OW26125   2.089   1.604  11.724 -0.1787 -0.2366  0.4340
 4831SOL    HW126126   2.132   1.656  11.656  1.2245 -0.2481  1.2956
 4831SOL    HW226127   2.144   1.527  11.709 -0.8399 -0.8418  1.1281
 4832SOL     OW26128   1.939   0.799   2.598  0.5182 -0.7662 -0.0537
 4832SOL    HW126129   1.977   0.842   2.675 -1.8319 -1.5153  1.5237
 4832SOL    HW226130   1.983   0.715   2.613 -2.5104 -2.1377  1.3153
 4833SOL     OW26131   2.680   0.138   2.213  0.3604 -0.0387  0.6994
 4833SOL    HW126132   2.660   0.048   2.189 -2.1240  1.4608 -2.8159
 4833SOL    HW226133   2.776   0.144   2.206  0.4354 -1.5733  0.5762
 4834SOL     OW26134   2.444   0.377   8.619  0.5205 -0.4461  0.6564
 4834SOL    HW126135   2.503   0.302   8.618  0.4871 -0.4600 -3.1595
 4834SOL    HW226136   2.384   0.361   8.545  1.7588 -1.8974 -0.0311
 4835SOL     OW26137   1.223   1.906   5.644  0.7608  0.3041 -0.8698
 4835SOL    HW126138   1.199   1.996   5.666 -0.2643  0.0764 -1.0214
 4835SOL    HW226139   1.291   1.895   5.710 -0.2440 -0.5811  0.0191
 4836SOL     OW26140   4.024   2.672  17.041 -0.2869 -0.1074  0.2597
 4836SOL    HW126141   4.019   2.656  16.947  0.9859  3.7046 -0.4582
 4836SOL    HW226142   4.110   2.635  17.060 -0.3910 -0.3240  0.3103
 4837SOL     OW26143   0.625   0.631   5.245 -0.6810 -0.1813  0.2916
 4837SOL    HW126144   0.591   0.545   5.220 -0.4626  0.1168 -1.0461
 4837SOL    HW226145   0.558   0.675   5.296  1.1583  4.1862 -1.1038
 4838SOL     OW26146   1.034   1.111   6.852 -0.0997 -0.3190 -0.3363
 4838SOL    HW126147   1.073   1.166   6.785  1.9903  0.0413  1.1621
 4838SOL    HW226148   1.063   1.158   6.930 -2.7281 -0.0100  0.4574
 4839SOL     OW26149   2.894   3.833   2.365  0.4676 -0.4432  0.1473
 4839SOL    HW126150   2.931   3.747   2.347  1.1630  0.6318 -3.5191
 4839SOL    HW226151   2.873   3.826   2.459  0.5741 -0.3637  0.1768
 4840SOL     OW26152   1.122   1.341   0.890 -0.2197  0.1177 -0.2432
 4840SOL    HW126153   1.163   1.272   0.837  1.0288  1.3178 -0.8336
 4840SOL    HW226154   1.032   1.334   0.857 -0.2621 -1.0019  0.1139
 4841SOL     OW26155   0.544   3.038  12.726 -0.5634  0.4339 -0.7951
 4841SOL    HW126156   0.449   3.035  12.716 -0.4576  0.0365 -1.7219
 4841SOL    HW226157   0.575   2.949  12.709  0.0657  0.3855  0.5885
 4842SOL     OW26158   0.829   2.623   1.078  0.0264 -0.0446 -0.4195
 4842SOL    HW126159   0.880   2.545   1.100 -2.6507 -0.9064  2.6885
 4842SOL    HW226160   0.787   2.592   0.998 -0.3049  0.6246 -0.5051
 4843SOL     OW26161   1.189   3.984   7.710 -0.0020 -0.2917 -0.6924
 4843SOL    HW126162   1.280   3.957   7.702  0.5275  1.0238  0.9713
 4843SOL    HW226163   1.163   3.976   7.619 -0.4256 -0.0091 -0.6006
 4844SOL     OW26164   0.830   0.712   8.832 -0.2612  0.2318  0.9479
 4844SOL    HW126165   0.882   0.778   8.877 -0.8105  1.3687 -0.0905
 4844SOL    HW226166   0.853   0.714   8.739  2.3126 -1.3768  1.5268
 4845SOL     OW26167   0.202   4.365  16.571 -0.1720 -0.3227  0.2938
 4845SOL    HW126168   0.189   4.460  16.577  1.0229 -0.0551 -1.1904
 4845SOL    HW226169   0.124   4.347  16.623 -0.3608 -1.1866 -0.2821
 4846SOL     OW26170   4.550   1.270   6.087  0.3319  0.3904  0.5307
 4846SOL    HW126171   4.633   1.238   6.123  0.7640 -1.5623 -2.2016
 4846SOL    HW226172   4.491   1.196   6.100  0.7603  0.0572  0.5784
 4847SOL     OW26173   2.608   2.311  10.262  0.4666 -0.0332  0.0148
 4847SOL    HW126174   2.537   2.358  10.217 -0.0723 -0.9584 -0.1140
 4847SOL    HW226175   2.598   2.225  10.222  0.2141 -1.1211  2.3611
 4848SOL     OW26176   0.210   1.197   1.143 -0.4434  0.6716 -0.1181
 4848SOL    HW126177   0.174   1.253   1.074 -0.4187 -0.9517 -1.4359
 4848SOL    HW226178   0.127   1.175   1.186 -0.5102 -2.7232 -2.0167
 4849SOL     OW26179   1.309   4.409   8.571  0.1159 -0.4238  0.5280
 4849SOL    HW126180   1.363   4.482   8.542 -2.0044  0.0609 -2.1868
 4849SOL    HW226181   1.244   4.406   8.501 -0.1944  0.1582  0.7917
 4850SOL     OW26182   4.102   2.698   5.311 -0.4293  0.5478  0.3834
 4850SOL    HW126183   4.114   2.641   5.387  1.3707  1.8594  1.0978
 4850SOL    HW226184   4.128   2.641   5.238 -3.2481  1.4197 -1.2649
 4851SOL     OW26185   2.849   1.886   5.333 -0.0814 -0.9873  0.1155
 4851SOL    HW126186   2.929   1.846   5.366  1.1940 -0.6258 -2.5410
 4851SOL    HW226187   2.839   1.965   5.386 -0.3665  0.9460 -2.8238
 4852SOL     OW26188   2.009   1.626   3.754  0.7060 -0.1828  0.2429
 4852SOL    HW126189   1.971   1.539   3.741 -1.2443  0.8323 -0.9090
 4852SOL    HW226190   1.936   1.662   3.804  1.5907 -0.0858  1.4466
 4853SOL     OW26191   0.833   2.280   0.538  0.2882 -0.1859  0.2113
 4853SOL    HW126192   0.837   2.370   0.507 -0.2324 -0.2159  0.0623
 4853SOL    HW226193   0.741   2.254   0.530  0.6853 -1.5744  0.1927
 4854SOL     OW26194   3.592   1.778   5.269 -0.0144 -0.4493  0.3062
 4854SOL    HW126195   3.653   1.794   5.341  0.0053 -0.8465  0.3781
 4854SOL    HW226196   3.580   1.683   5.274  1.0996 -0.6993 -1.5959
 4855SOL     OW26197   3.376   4.680  17.569 -0.3478  0.4647 -0.3527
 4855SOL    HW126198   3.453   4.625  17.556  0.1082  0.4120  2.6327
 4855SOL    HW226199   3.412   0.017  17.624  1.3557 -0.3507 -0.4278
 4856SOL     OW26200   3.139   2.910   7.614  0.1040 -0.0514 -0.3890
 4856SOL    HW126201   3.058   2.887   7.661  0.2961  0.3010  0.1092
 4856SOL    HW226202   3.182   2.981   7.660  1.0200 -0.8138 -0.0618
 4857SOL     OW26203   3.237   4.538   6.333  0.2836  0.9143 -0.3534
 4857SOL    HW126204   3.208   4.450   6.309 -1.4458  1.3465  0.1253
 4857SOL    HW226205   3.304   4.562   6.269 -0.9393  0.6895 -1.7160
 4858SOL     OW26206   0.529   2.268  13.332  0.1937  0.1512  0.2738
 4858SOL    HW126207   0.582   2.188  13.336 -0.1016 -0.0213  0.7539
 4858SOL    HW226208   0.545   2.290  13.240  4.1363  1.2667  1.2162
 4859SOL     OW26209   2.215   0.943   0.544  0.1965  0.6596  0.0489
 4859SOL    HW126210   2.207   0.992   0.462  3.3326 -0.4470 -0.9326
 4859SOL    HW226211   2.309   0.947   0.562  0.5507 -0.4131 -1.4984
 4860SOL     OW26212   3.920   0.572   9.454  0.5231  0.2380  0.0728
 4860SOL    HW126213   4.014   0.563   9.473  0.3864 -0.8406  0.2466
 4860SOL    HW226214   3.897   0.647   9.509 -0.6684  0.0780 -0.2021
 4861SOL     OW26215   0.257   4.128  12.113  0.4452 -0.0201 -0.7409
 4861SOL    HW126216   0.194   4.089  12.174  1.0249 -0.4630 -0.4270
 4861SOL    HW226217   0.336   4.106  12.162  0.1096  2.2149  0.8161
 4862SOL     OW26218   1.120   2.685  12.202  0.0452  0.5670 -0.1945
 4862SOL    HW126219   1.059   2.749  12.240  0.5231  2.2886 -2.3766
 4862SOL    HW226220   1.165   2.646  12.277  1.9560  2.0382 -0.5652
 4863SOL     OW26221   2.944   2.336  17.638  0.3897  0.6221 -0.2930
 4863SOL    HW126222   2.924   2.344   0.003 -0.4485  2.3035 -0.6074
 4863SOL    HW226223   2.865   2.377  17.603 -0.5203 -1.1292 -0.2948
 4864SOL     OW26224   4.038   1.830   6.176 -0.2042 -0.0120  0.2313
 4864SOL    HW126225   4.052   1.889   6.251 -1.2138  0.0861  0.3333
 4864SOL    HW226226   4.051   1.891   6.104  0.8549 -2.7494 -1.8669
 4865SOL     OW26227   0.984   1.082   0.624  0.4226 -0.1555  0.1158
 4865SOL    HW126228   1.075   1.061   0.601  0.8573  0.3114  1.3826
 4865SOL    HW226229   1.000   1.176   0.630 -1.6398  0.1682  0.5008
 4866SOL     OW26230   2.687   1.028  14.734 -0.4481 -0.2213 -0.4013
 4866SOL    HW126231   2.617   0.995  14.789 -0.1804  0.5375  0.3947
 4866SOL    HW226232   2.748   0.955  14.749 -0.3472 -0.0364  0.0694
 4867SOL     OW26233   1.571   1.856  13.954  0.1494 -0.1576 -0.0429
 4867SOL    HW126234   1.541   1.858  13.864  0.4535  1.1500 -0.1155
 4867SOL    HW226235   1.637   1.786  13.953  0.7736  0.4123  0.5241
 4868SOL     OW26236   3.372   2.115  11.818  0.3089  0.0366 -0.3106
 4868SOL    HW126237   3.301   2.143  11.876 -0.1184 -1.2840 -0.2108
 4868SOL    HW226238   3.357   2.180  11.750  0.9569  0.4995 -0.0108
 4869SOL     OW26239   4.309   2.548   4.455  0.4774  0.1669 -0.2348
 4869SOL    HW126240   4.290   2.637   4.427 -0.4746 -0.1460 -0.6132
 4869SOL    HW226241   4.223   2.506   4.445  0.1877  0.4263  1.2138
 4870SOL     OW26242   3.797   2.739   3.222 -0.0751 -0.2629 -0.2131
 4870SOL    HW126243   3.809   2.654   3.178  1.3782  0.9411 -2.1378
 4870SOL    HW226244   3.776   2.798   3.150  3.1941  2.1958  0.8766
 4871SOL     OW26245   0.074   0.892   1.451  0.0958 -0.1910 -0.0368
 4871SOL    HW126246   0.029   0.904   1.535  2.0105  0.9243  0.8107
 4871SOL    HW226247   0.151   0.841   1.473  1.6828  1.6186 -1.3574
 4872SOL     OW26248   1.506   4.415   1.198  0.3593  0.1903 -0.1866
 4872SOL    HW126249   1.540   4.393   1.111 -0.6224 -2.0731  0.0005
 4872SOL    HW226250   1.566   4.363   1.251  1.7552  2.6699  0.6226
 4873SOL     OW26251   2.922   1.457   7.955  0.1088  0.0414  0.3604
 4873SOL    HW126252   2.974   1.427   7.880 -1.9269  0.3485 -1.1813
 4873SOL    HW226253   2.849   1.508   7.919 -1.2536 -1.2395  1.2839
 4874SOL     OW26254   3.374   0.961   3.015  0.2046  0.2004  0.1470
 4874SOL    HW126255   3.356   1.035   3.074  3.2682  1.1422 -0.0861
 4874SOL    HW226256   3.288   0.928   2.990  0.3871  0.3520 -0.6815
 4875SOL     OW26257   2.148   1.598   9.298  0.1142  0.6522 -0.4462
 4875SOL    HW126258   2.061   1.616   9.334  0.3440 -1.8727  1.4120
 4875SOL    HW226259   2.144   1.531   9.229  1.5662 -0.8919  0.9952
 4876SOL     OW26260   0.331   4.376   6.516  0.3309 -0.1119 -0.1181
 4876SOL    HW126261   0.393   4.303   6.520  1.0726  0.4642 -1.1803
 4876SOL    HW226262   0.376   4.435   6.576  0.8965  0.7245 -1.3473
 4877SOL     OW26263   4.305   2.012  10.400  0.5295  0.3425 -0.4524
 4877SOL    HW126264   4.319   2.068  10.477  2.4148 -1.2718  0.3914
 4877SOL    HW226265   4.390   1.968  10.394  1.0950  1.1189  1.7706
 4878SOL     OW26266   4.516   1.143  13.251  0.4454  0.1411  0.1449
 4878SOL    HW126267   4.426   1.161  13.278  0.7014  1.1573  0.3103
 4878SOL    HW226268   4.514   1.167  13.158  0.5707  0.7775  0.3080
 4879SOL     OW26269   3.011   3.453   2.645 -0.1338 -0.0493  0.0432
 4879SOL    HW126270   3.097   3.436   2.683 -1.0333 -0.6506  1.7824
 4879SOL    HW226271   3.019   3.545   2.619  1.9681  0.1057  1.2770
 4880SOL     OW26272   4.487   0.733   0.228 -0.5194 -0.4021 -0.0521
 4880SOL    HW126273   4.551   0.749   0.159  0.0715 -2.4577  0.0033
 4880SOL    HW226274   4.439   0.660   0.190  0.7588 -0.5488 -1.3924
 4881SOL     OW26275   2.911   1.273   3.377 -0.8783 -0.0383 -0.5825
 4881SOL    HW126276   2.866   1.229   3.305 -0.4395 -0.1647 -0.7830
 4881SOL    HW226277   2.975   1.328   3.332 -0.5032  0.6662  0.8113
 4882SOL     OW26278   0.585   2.847   6.010  0.7997  0.0616 -0.3649
 4882SOL    HW126279   0.544   2.840   6.097 -2.5283 -0.0973 -1.9558
 4882SOL    HW226280   0.549   2.764   5.980 -0.8643  1.1034 -1.2683
 4883SOL     OW26281   1.541   4.448   2.754  0.1349 -0.2247 -0.1995
 4883SOL    HW126282   1.598   4.504   2.700  1.5137 -1.6325 -0.1762
 4883SOL    HW226283   1.607   4.398   2.801  0.3746 -0.9549 -1.3127
 4884SOL     OW26284   0.782   4.566   7.709  0.4069  0.2651 -0.8563
 4884SOL    HW126285   0.752   4.612   7.787  0.9712 -3.1873  1.3772
 4884SOL    HW226286   0.765   4.475   7.732  0.1918 -0.2948 -3.1545
 4885SOL     OW26287   1.672   3.203  13.878 -0.1631 -0.3466 -0.6716
 4885SOL    HW126288   1.636   3.116  13.898 -0.0120 -0.0436  0.8970
 4885SOL    HW226289   1.590   3.251  13.869  0.7857  1.9770  2.9993
 4886SOL     OW26290   3.404   0.838   8.735 -0.3097 -0.3959  0.3964
 4886SOL    HW126291   3.349   0.886   8.796  0.6527 -0.5917  1.4096
 4886SOL    HW226292   3.475   0.901   8.724  0.2417 -0.9466  0.8238
 4887SOL     OW26293   1.298   4.621   1.062  0.0503  0.1212  0.5344
 4887SOL    HW126294   1.334   4.705   1.035 -1.2535 -0.3427 -2.6714
 4887SOL    HW226295   1.356   4.590   1.132 -0.1737  0.5561  0.9147
 4888SOL     OW26296   2.257   1.849   3.308 -0.5244  0.0903  0.3958
 4888SOL    HW126297   2.212   1.791   3.369  0.4988 -1.0573  0.0574
 4888SOL    HW226298   2.269   1.923   3.367  0.0230  0.6512 -0.4186
 4889SOL     OW26299   4.124   1.918   3.830 -0.6337 -0.0663 -0.1784
 4889SOL    HW126300   4.203   1.954   3.790  0.4997 -1.6191  0.6622
 4889SOL    HW226301   4.116   1.986   3.897  1.6080 -0.5886  0.6102
 4890SOL     OW26302   1.441   4.526   5.296 -0.2607  0.1693 -0.4542
 4890SOL    HW126303   1.458   4.438   5.329  4.6683  1.1493 -0.4940
 4890SOL    HW226304   1.405   4.561   5.378 -0.1377  1.4976 -0.9825
 4891SOL     OW26305   0.361   4.575   2.076 -0.1717 -0.4890  0.0376
 4891SOL    HW126306   0.322   4.532   2.152 -1.9137 -0.8743 -1.0567
 4891SOL    HW226307   0.337   4.666   2.093  0.6230 -0.6819  2.1037
 4892SOL     OW26308   3.660   3.088   8.536  0.2940 -0.5629  0.0989
 4892SOL    HW126309   3.661   3.003   8.580 -3.4247  0.6828  2.5244
 4892SOL    HW226310   3.735   3.137   8.570 -0.6129  1.8251 -1.3318
 4893SOL     OW26311   1.498   2.294  12.482 -0.3842  0.3545 -0.2987
 4893SOL    HW126312   1.415   2.246  12.475  0.1917 -0.8312  1.2618
 4893SOL    HW226313   1.489   2.341  12.399  2.1957 -3.7045 -2.8756
 4894SOL     OW26314   4.379   3.463   1.340 -0.2142  0.3081 -0.3608
 4894SOL    HW126315   4.467   3.500   1.327  0.4155 -1.7942 -2.0818
 4894SOL    HW226316   4.397   3.369   1.342  1.4563  0.5700 -2.3662
 4895SOL     OW26317   0.412   3.179  16.478 -0.0026  0.0169  0.3855
 4895SOL    HW126318   0.441   3.235  16.551  1.5605 -1.8296  1.1875
 4895SOL    HW226319   0.500   3.155  16.447  0.4521 -0.6815  2.1650
 4896SOL     OW26320   2.462   1.489  11.801 -0.3096 -0.2244 -0.5696
 4896SOL    HW126321   2.386   1.511  11.854  1.2742  0.9949  1.1952
 4896SOL    HW226322   2.462   1.393  11.798  2.1771 -0.2528  0.4213
 4897SOL     OW26323   0.158   0.726   9.671 -0.0695  0.3795  0.0067
 4897SOL    HW126324   0.127   0.718   9.762  0.8610  2.3177  0.5126
 4897SOL    HW226325   0.230   0.788   9.686  0.5987 -0.6934  1.1975
 4898SOL     OW26326   0.198   3.522   6.619  0.1754 -0.2087  0.1199
 4898SOL    HW126327   0.268   3.514   6.683 -0.3118 -1.1979  0.5200
 4898SOL    HW226328   0.148   3.443   6.639 -2.0205  1.2650  0.4850
 4899SOL     OW26329   4.475   1.626   5.953  0.3979 -0.4271 -0.3202
 4899SOL    HW126330   4.492   1.619   6.047  1.2456 -1.7109 -0.5633
 4899SOL    HW226331   4.528   1.558   5.912 -0.8162 -1.4859 -0.1391
 4900SOL     OW26332   2.404   1.955   4.222  0.0053 -0.5893  0.3684
 4900SOL    HW126333   2.460   1.977   4.148  0.3448  1.5869  1.2683
 4900SOL    HW226334   2.338   1.898   4.182 -2.2314  2.4843 -0.3443
 4901SOL     OW26335   4.596   0.215   8.001  0.2744 -0.3821 -0.0272
 4901SOL    HW126336   4.639   0.191   7.919 -2.4648 -1.4620 -1.1551
 4901SOL    HW226337   4.622   0.307   8.005  2.3622 -1.0953  2.5671
 4902SOL     OW26338   4.526   0.156  14.696 -0.1218 -0.2267  0.0635
 4902SOL    HW126339   4.576   0.089  14.742  1.3082  0.8913  0.1624
 4902SOL    HW226340   4.514   0.119  14.609  1.0195 -1.6179  0.5071
 4903SOL     OW26341   1.101   2.332   9.270  0.2389 -0.9187  0.0324
 4903SOL    HW126342   1.113   2.281   9.190 -2.5752  0.4257 -1.2617
 4903SOL    HW226343   1.128   2.280   9.345  0.1800 -1.3276 -0.2264
 4904SOL     OW26344   2.758   0.260   8.424 -0.0277 -0.2367  0.0041
 4904SOL    HW126345   2.775   0.171   8.395  2.6873  0.4903 -0.6235
 4904SOL    HW226346   2.727   0.240   8.513  1.9834  0.0819  0.7687
 4905SOL     OW26347   2.662   4.634   5.648 -0.5354 -0.2135  0.3287
 4905SOL    HW126348   2.731   4.665   5.707  0.5819 -0.6251 -0.7347
 4905SOL    HW226349   2.694   4.685   5.573 -0.8782 -0.4323  0.0331
 4906SOL     OW26350   2.956   3.876   8.831 -0.5210  0.0775 -0.2523
 4906SOL    HW126351   2.870   3.915   8.820 -0.4253  0.7870  1.5504
 4906SOL    HW226352   3.014   3.946   8.800  0.8929 -1.1625 -0.4222
 4907SOL     OW26353   1.506   1.672   6.067 -0.2213  0.1992 -0.4858
 4907SOL    HW126354   1.426   1.658   6.015 -1.4900 -2.0922  2.0669
 4907SOL    HW226355   1.543   1.743   6.015 -0.1370 -2.0748 -3.5522
 4908SOL     OW26356   2.030   2.931  15.662  0.4131 -0.1588  0.2626
 4908SOL    HW126357   1.994   2.860  15.609  1.7198  0.3887 -1.3511
 4908SOL    HW226358   1.998   2.901  15.747 -0.1883 -0.9303 -0.2339
 4909SOL     OW26359   1.357   3.510   6.176 -0.2973 -0.1951  1.0929
 4909SOL    HW126360   1.352   3.554   6.091  0.6947  1.0256  1.6521
 4909SOL    HW226361   1.403   3.576   6.229  0.2353  0.5318 -0.2848
 4910SOL     OW26362   0.264   0.601   7.726  0.3411 -0.2898 -0.0938
 4910SOL    HW126363   0.313   0.588   7.645 -0.6791 -0.1602 -0.7375
 4910SOL    HW226364   0.284   0.694   7.722 -0.7687  0.1492  4.8070
 4911SOL     OW26365   1.739   1.805  14.851  0.3275 -1.0165 -0.6130
 4911SOL    HW126366   1.764   1.886  14.807 -0.7948 -0.6285 -0.5386
 4911SOL    HW226367   1.785   1.740  14.798  0.7840  0.0042 -1.4641
 4912SOL     OW26368   2.559   3.163   6.422 -0.0255  0.3637 -0.1278
 4912SOL    HW126369   2.514   3.231   6.472 -2.5111 -0.8798 -0.7032
 4912SOL    HW226370   2.632   3.209   6.381  0.3878 -0.8103 -0.7159
 4913SOL     OW26371   0.775   0.967   1.371 -0.7415  0.2401  0.3167
 4913SOL    HW126372   0.777   0.883   1.416  1.1614 -0.1604 -0.5117
 4913SOL    HW226373   0.700   0.950   1.312  0.3481 -1.4004 -0.6198
 4914SOL     OW26374   2.834   3.788   5.391 -0.4149 -0.2296 -0.0971
 4914SOL    HW126375   2.848   3.815   5.301 -2.2847 -2.4951 -1.0721
 4914SOL    HW226376   2.908   3.731   5.412 -0.6706 -1.3412 -2.2174
 4915SOL     OW26377   2.421   3.171  12.733 -0.3119  1.0888  0.6644
 4915SOL    HW126378   2.347   3.113  12.753  1.6153 -1.1181  1.4932
 4915SOL    HW226379   2.470   3.118  12.669  0.9110  1.6769  1.1130
 4916SOL     OW26380   0.508   0.149   2.626  0.0805 -0.1116  0.0450
 4916SOL    HW126381   0.594   0.147   2.668  0.4656 -1.2374 -0.7659
 4916SOL    HW226382   0.460   0.219   2.670 -0.5878  0.0830 -0.9773
 4917SOL     OW26383   0.212   3.959   2.148  0.1687 -0.8846 -0.2788
 4917SOL    HW126384   0.155   3.976   2.073  1.4627 -0.9109 -1.2878
 4917SOL    HW226385   0.290   4.004   2.114 -0.5898  1.4235  1.0762
 4918SOL     OW26386   3.859   0.105   2.392  0.5265 -0.6687 -0.4882
 4918SOL    HW126387   3.875   0.100   2.486 -1.5703 -0.8646 -0.1553
 4918SOL    HW226388   3.781   0.050   2.385 -0.3366  0.3167  1.5281
 4919SOL     OW26389   2.784   4.087   2.600 -0.2485  0.3495 -0.1757
 4919SOL    HW126390   2.756   4.116   2.513 -0.8355 -2.0735 -0.7996
 4919SOL    HW226391   2.702   4.055   2.637  0.0914 -2.4365 -1.8576
 4920SOL     OW26392   3.323   3.644   5.512  0.1500  0.1311  0.2471
 4920SOL    HW126393   3.298   3.723   5.463 -0.3463 -1.0283 -1.3744
 4920SOL    HW226394   3.417   3.644   5.494 -0.0695 -1.7885 -0.8386
 4921SOL     OW26395   1.935   2.812  12.789  0.0424  0.3718  0.2174
 4921SOL    HW126396   1.936   2.800  12.884  1.5536 -0.7325  0.0566
 4921SOL    HW226397   1.954   2.723  12.759 -0.1272  0.1861  0.6611
 4922SOL     OW26398   0.438   2.729   3.143  0.5574  0.1746 -0.0873
 4922SOL    HW126399   0.451   2.793   3.213  0.8254  0.5337 -0.4617
 4922SOL    HW226400   0.402   2.650   3.183 -0.2637  0.3316 -0.5053
 4923SOL     OW26401   2.643   1.222  11.342  0.1068 -0.0741 -0.8228
 4923SOL    HW126402   2.622   1.303  11.390  2.0011  0.2691 -0.5385
 4923SOL    HW226403   2.649   1.252  11.251 -0.3672  2.7178  0.0387
 4924SOL     OW26404   1.381   2.136   0.140 -0.4476  0.3248 -0.3419
 4924SOL    HW126405   1.388   2.169   0.051 -1.1763  0.2821 -0.4211
 4924SOL    HW226406   1.309   2.074   0.130  1.3439 -1.6451 -0.9595
 4925SOL     OW26407   1.288   0.749   3.610  0.0533 -0.2679  0.6441
 4925SOL    HW126408   1.316   0.728   3.699  0.2416  3.6936  1.5067
 4925SOL    HW226409   1.375   0.767   3.573 -0.2958 -0.5545 -0.3223
 4926SOL     OW26410   1.255   3.210   6.144  0.7354 -0.4733  0.0652
 4926SOL    HW126411   1.255   3.263   6.224 -1.5687  0.0772 -0.2726
 4926SOL    HW226412   1.240   3.280   6.080 -2.0109  0.6400  1.9391
 4927SOL     OW26413   2.624   2.652   8.542 -0.0929 -0.1852 -0.1769
 4927SOL    HW126414   2.536   2.623   8.564 -0.0663 -0.7147 -0.7502
 4927SOL    HW226415   2.668   2.621   8.621  0.6588  1.1702 -0.0584
 4928SOL     OW26416   1.219   3.310   3.642  0.5029  0.0923 -0.6301
 4928SOL    HW126417   1.163   3.250   3.691  1.7836 -1.1682 -0.7045
 4928SOL    HW226418   1.279   3.247   3.601 -0.7233 -0.1544 -2.0569
 4929SOL     OW26419   1.124   1.877   3.218 -0.0680 -0.3846  0.1060
 4929SOL    HW126420   1.139   1.931   3.140 -1.2811  1.0702  0.8674
 4929SOL    HW226421   1.215   1.859   3.239 -0.3782  0.0267  1.7647
 4930SOL     OW26422   3.123   1.012  11.607  0.2320 -0.2645  0.7835
 4930SOL    HW126423   3.183   0.951  11.563  0.1212 -0.4087  0.8348
 4930SOL    HW226424   3.177   1.059  11.670  0.9844  0.3443 -0.2956
 4931SOL     OW26425   2.138   3.971  10.510 -0.3910  0.5717 -0.0904
 4931SOL    HW126426   2.107   4.020  10.585 -1.0801  0.5792 -0.3777
 4931SOL    HW226427   2.229   3.997  10.523 -0.1597 -0.2211 -0.0992
 4932SOL     OW26428   4.416   1.738   4.324  0.2572  0.2084  0.0463
 4932SOL    HW126429   4.477   1.774   4.260  1.5645 -0.1972  1.0546
 4932SOL    HW226430   4.479   1.719   4.393 -1.0600 -1.9804  0.6382
 4933SOL     OW26431   0.045   0.003   0.199  0.5201 -0.1806 -0.3585
 4933SOL    HW126432   0.136   4.730   0.228  0.7454 -0.0713 -1.0453
 4933SOL    HW226433   0.001   0.002   0.284 -0.1808  0.6429 -0.7138
 4934SOL     OW26434   2.810   1.324   2.192  0.6245  0.1212  0.3572
 4934SOL    HW126435   2.848   1.305   2.106 -0.3976 -0.4079  0.0261
 4934SOL    HW226436   2.859   1.263   2.247 -0.1584 -1.4178 -0.6649
 4935SOL     OW26437   0.635   1.128   0.148 -0.2986 -0.2279  0.0085
 4935SOL    HW126438   0.708   1.188   0.135 -1.1341  0.1723 -2.7842
 4935SOL    HW226439   0.665   1.098   0.234 -1.4086  0.6047  0.6894
 4936SOL     OW26440   3.889   0.778  10.677  0.3462  0.3768 -0.8393
 4936SOL    HW126441   3.912   0.832  10.753  0.2095  0.8083 -1.1070
 4936SOL    HW226442   3.824   0.826  10.626 -1.3273  0.7939  1.6674
 4937SOL     OW26443   0.615   2.124  10.630 -0.0366  0.0145  0.1754
 4937SOL    HW126444   0.551   2.067  10.673 -2.4289  1.0443 -2.0856
 4937SOL    HW226445   0.688   2.105  10.690 -0.0191 -2.7959 -0.7482
 4938SOL     OW26446   2.613   0.993   3.304 -0.1851 -0.1605  0.2175
 4938SOL    HW126447   2.708   1.000   3.317 -0.2651 -0.0737  0.7228
 4938SOL    HW226448   2.596   1.086   3.289  2.7996  0.0365 -2.0512
 4939SOL     OW26449   4.503   2.306   5.923 -0.7442  0.4797  0.1380
 4939SOL    HW126450   4.578   2.358   5.954 -1.7072  2.8595 -1.5397
 4939SOL    HW226451   4.492   2.239   5.990 -0.0761  0.6377  0.4112
 4940SOL     OW26452   3.310   0.152   2.689  0.0053  0.0572 -0.0743
 4940SOL    HW126453   3.266   0.123   2.609 -1.9569 -0.2148  1.0958
 4940SOL    HW226454   3.241   0.132   2.752  0.2146  0.5835  0.3175
 4941SOL     OW26455   1.675   0.528   2.808 -0.3689 -0.0500  0.0467
 4941SOL    HW126456   1.712   0.598   2.754  1.0214 -0.3835  0.5723
 4941SOL    HW226457   1.704   0.566   2.891  1.2286  1.8869 -1.3686
 4942SOL     OW26458   3.772   4.399   8.381  0.3936  0.0031  0.0842
 4942SOL    HW126459   3.832   4.461   8.339 -0.0883 -0.3144 -1.0700
 4942SOL    HW226460   3.699   4.405   8.319  0.5751 -1.6770 -0.2883
 4943SOL     OW26461   0.535   3.826   2.034  0.6777 -0.8756  0.0229
 4943SOL    HW126462   0.492   3.908   2.055  0.1437 -1.3830  0.8893
 4943SOL    HW226463   0.534   3.833   1.938 -2.9184 -1.1240  0.0601
 4944SOL     OW26464   4.574   2.125   3.009 -0.6138  0.3364 -0.1015
 4944SOL    HW126465   4.564   2.077   3.091 -1.2724 -0.0409 -0.3956
 4944SOL    HW226466   4.586   2.215   3.039 -0.1015  0.3420 -0.3306
 4945SOL     OW26467   3.755   2.763   9.748 -0.3296 -0.4444 -0.3213
 4945SOL    HW126468   3.689   2.817   9.791  0.7568  0.0151  0.7734
 4945SOL    HW226469   3.704   2.701   9.695 -2.0087 -0.0399  0.8179
 4946SOL     OW26470   1.809   1.226   5.703 -0.9338  0.3958  0.0670
 4946SOL    HW126471   1.749   1.168   5.656 -1.7802  0.0797  1.5386
 4946SOL    HW226472   1.853   1.268   5.629  1.9394 -2.3716  0.2274
 4947SOL     OW26473   2.143   0.549  16.690  0.4885  0.0571  0.2355
 4947SOL    HW126474   2.230   0.516  16.670  0.9733  1.3595  0.1810
 4947SOL    HW226475   2.156   0.644  16.686  1.9273 -0.1841 -1.0263
 4948SOL     OW26476   1.623   4.692   3.425  0.0766  0.0397 -0.1745
 4948SOL    HW126477   1.670   4.693   3.341  1.8872  0.4945  0.8377
 4948SOL    HW226478   1.543   4.646   3.400  0.1257 -1.4648  2.3867
 4949SOL     OW26479   2.338   4.239  12.740 -0.3075  0.2257  0.0150
 4949SOL    HW126480   2.368   4.251  12.830 -0.5091 -2.6626  0.4865
 4949SOL    HW226481   2.304   4.149  12.739  0.0555  0.0721  1.7243
 4950SOL     OW26482   4.714   3.361   6.999 -0.2377  0.2796  0.5145
 4950SOL    HW126483   4.627   3.384   7.032 -0.4524  0.7236 -0.3679
 4950SOL    HW226484   4.713   3.385   6.907  0.1185 -0.8063  0.2307
 4951SOL     OW26485   0.616   4.656   5.713 -0.2764 -0.5775  0.4329
 4951SOL    HW126486   0.569   0.008   5.715  0.8934  0.0771  0.7303
 4951SOL    HW226487   0.573   4.611   5.640 -1.2005  1.4389 -0.2697
 4952SOL     OW26488   1.628   2.724   2.855  0.6075  0.2016 -0.1283
 4952SOL    HW126489   1.651   2.660   2.787  0.6492 -0.3618  0.4126
 4952SOL    HW226490   1.539   2.742   2.825  1.4439  1.2354 -2.0402
 4953SOL     OW26491   2.418   3.244   8.894  0.1223 -0.2064 -0.4118
 4953SOL    HW126492   2.412   3.218   8.802 -0.8022 -0.0253 -0.3994
 4953SOL    HW226493   2.449   3.334   8.890  1.2052 -0.4530  2.4006
 4954SOL     OW26494   3.879   2.412  10.444 -0.0075 -0.0374  0.0559
 4954SOL    HW126495   3.955   2.354  10.451  0.2574 -0.1275 -3.7626
 4954SOL    HW226496   3.809   2.347  10.432  1.0443 -0.9059 -1.3093
 4955SOL     OW26497   1.121   3.350   9.864  0.1821  0.0960 -0.2635
 4955SOL    HW126498   1.135   3.378   9.954 -1.7106 -0.0905  0.0951
 4955SOL    HW226499   1.210   3.344   9.830  0.8383 -0.3184  1.5147
 4956SOL     OW26500   0.803   4.097   2.756  0.0729 -0.7025  0.2678
 4956SOL    HW126501   0.828   4.013   2.793  2.3688  0.0107  0.3165
 4956SOL    HW226502   0.761   4.137   2.832 -0.0145 -1.0130  0.3810
 4957SOL     OW26503   1.967   1.347   4.552 -0.4314  0.0436 -0.2569
 4957SOL    HW126504   1.961   1.432   4.595 -0.2819  0.8014 -1.7687
 4957SOL    HW226505   2.029   1.301   4.610 -0.0930 -0.5059 -1.0502
 4958SOL     OW26506   3.135   4.174   7.566  0.4915 -0.3640  0.5591
 4958SOL    HW126507   3.142   4.136   7.654  0.0349  0.3329  0.8891
 4958SOL    HW226508   3.073   4.118   7.518 -1.6572  1.4840  1.1637
 4959SOL     OW26509   2.413   0.189   3.420  0.3550  1.1478  0.0479
 4959SOL    HW126510   2.354   0.256   3.456 -4.1652 -1.8676 -1.7258
 4959SOL    HW226511   2.447   0.221   3.336  1.0438 -1.2853 -0.5942
 4960SOL     OW26512   4.390   1.823   2.232 -0.3526 -0.0645  0.2176
 4960SOL    HW126513   4.391   1.871   2.315 -2.2187  1.0235 -0.3938
 4960SOL    HW226514   4.471   1.846   2.186  0.7457 -1.8086  1.2900
 4961SOL     OW26515   4.569   4.037   4.467 -0.3261  0.3874 -0.2488
 4961SOL    HW126516   4.646   4.001   4.511  0.1083  1.4789 -0.1298
 4961SOL    HW226517   4.512   3.964   4.493  0.0438  0.4758  0.7997
 4962SOL     OW26518   2.294   2.603  17.646  0.0768 -0.0444 -0.1294
 4962SOL    HW126519   2.311   2.514  17.677 -1.2768  0.9114  3.4181
 4962SOL    HW226520   2.377   2.641  17.620 -1.0458  2.3674 -0.2244
 4963SOL     OW26521   2.068   0.895  17.249  0.0283  0.6284  0.5781
 4963SOL    HW126522   2.011   0.856  17.315 -0.6532  2.3422  1.0207
 4963SOL    HW226523   2.082   0.821  17.191 -0.7906  0.1537  0.9964
 4964SOL     OW26524   1.823   2.640   6.508 -0.3959  0.2268 -0.0120
 4964SOL    HW126525   1.860   2.699   6.572  0.9920 -0.2730 -0.3598
 4964SOL    HW226526   1.770   2.702   6.457 -2.9658 -0.6412  1.5742
 4965SOL     OW26527   2.267   2.164   0.314 -0.2826  0.2175  0.3308
 4965SOL    HW126528   2.261   2.240   0.373  2.1982 -2.0831  3.5495
 4965SOL    HW226529   2.193   2.183   0.257  1.2010  0.3119 -1.5440
 4966SOL     OW26530   2.711   0.495   2.198 -0.5573 -0.2268 -0.3490
 4966SOL    HW126531   2.792   0.520   2.154 -0.7812  0.6773 -0.2554
 4966SOL    HW226532   2.742   0.466   2.284  1.1614 -1.4055 -1.3776
 4967SOL     OW26533   0.732   4.127   3.057  1.2035  0.1753 -0.7734
 4967SOL    HW126534   0.756   4.219   3.070  0.8670  0.4709 -2.1729
 4967SOL    HW226535   0.804   4.076   3.093  1.2641 -0.0533 -1.2155
 4968SOL     OW26536   2.301   1.770  11.899  0.0340  0.1182  0.0494
 4968SOL    HW126537   2.231   1.737  11.843 -0.5359 -0.1161  0.9055
 4968SOL    HW226538   2.329   1.690  11.942  1.4983  0.1061 -0.8925
 4969SOL     OW26539   1.751   4.360   7.252  0.0595 -0.4153 -0.6723
 4969SOL    HW126540   1.844   4.381   7.244  0.8722 -3.8931 -0.5874
 4969SOL    HW226541   1.722   4.383   7.163 -0.7344  1.9139  0.1835
 4970SOL     OW26542   1.032   3.620   5.157 -0.1313 -0.2991  0.0396
 4970SOL    HW126543   1.108   3.665   5.121 -2.6290  4.1987  0.5193
 4970SOL    HW226544   0.990   3.585   5.078 -0.0669  0.3014 -0.2564
 4971SOL     OW26545   1.193   2.254   3.121  0.5469 -0.0493  0.0645
 4971SOL    HW126546   1.114   2.206   3.094  0.9482 -0.0718 -1.0570
 4971SOL    HW226547   1.153   2.339   3.107  0.4659  0.0348  0.7780
 4972SOL     OW26548   1.295   4.082   2.247 -0.1622 -0.0185 -0.4672
 4972SOL    HW126549   1.212   4.107   2.289  0.7579  0.4790  1.0433
 4972SOL    HW226550   1.352   4.080   2.323 -0.4087  1.1505 -0.2473
 4973SOL     OW26551   4.088   3.055   0.437  0.2449  0.2966  0.4426
 4973SOL    HW126552   4.102   3.062   0.532  0.7619  1.9289  0.2509
 4973SOL    HW226553   4.160   3.110   0.405  0.4243 -0.0855  0.1837
 4974SOL     OW26554   1.779   2.745   8.627 -0.0873 -0.0766 -0.1419
 4974SOL    HW126555   1.844   2.716   8.563  0.3068 -2.5100  1.3543
 4974SOL    HW226556   1.695   2.718   8.591  1.4318 -2.5199 -1.8571
 4975SOL     OW26557   2.715   3.287   3.604  0.1443  0.3124  0.0608
 4975SOL    HW126558   2.724   3.375   3.566 -0.4071 -0.6837 -2.3629
 4975SOL    HW226559   2.778   3.301   3.675  1.4131 -0.4881 -0.9102
 4976SOL     OW26560   3.752   3.357   8.011 -0.7392  0.4230 -0.2772
 4976SOL    HW126561   3.778   3.446   8.036  0.2808  0.0635 -0.0382
 4976SOL    HW226562   3.789   3.305   8.082 -1.3924 -0.0181 -0.2569
 4977SOL     OW26563   4.203   2.602   1.786  0.0830 -0.0546 -0.4763
 4977SOL    HW126564   4.268   2.544   1.825 -0.2482  0.8472  1.3715
 4977SOL    HW226565   4.218   2.681   1.837 -1.4265 -1.1281  1.6312
 4978SOL     OW26566   4.313   0.402   4.808 -0.1992 -0.1251 -0.1728
 4978SOL    HW126567   4.353   0.484   4.778 -0.0348 -1.1668 -2.8738
 4978SOL    HW226568   4.366   0.388   4.886  0.5421  4.8812  0.1939
 4979SOL     OW26569   3.581   2.802   0.898  0.6879 -0.6651  0.1565
 4979SOL    HW126570   3.629   2.801   0.815 -2.4056 -0.1651 -1.6408
 4979SOL    HW226571   3.656   2.816   0.955 -1.0420  2.0675  1.7230
 4980SOL     OW26572   1.972   3.355  11.941 -0.0936  0.0689 -0.6228
 4980SOL    HW126573   1.911   3.303  11.889  0.6617 -0.0994 -1.3461
 4980SOL    HW226574   1.915   3.364  12.017  0.0257 -0.3573 -0.4842
 4981SOL     OW26575   3.689   3.018   5.699 -0.7543 -0.1277  0.3696
 4981SOL    HW126576   3.715   3.079   5.630  1.4176 -1.0633  0.3579
 4981SOL    HW226577   3.759   3.033   5.763 -0.6207  1.7871 -0.2094
 4982SOL     OW26578   1.130   2.192   0.909 -0.2329 -0.3823  0.0201
 4982SOL    HW126579   1.146   2.173   0.817 -0.3277  0.1579 -0.1099
 4982SOL    HW226580   1.166   2.109   0.942 -1.4772 -1.3520 -1.0804
 4983SOL     OW26581   3.058   2.520  12.165 -0.0686  0.1963  0.1708
 4983SOL    HW126582   3.041   2.457  12.235  0.8262  1.3036  1.3707
 4983SOL    HW226583   2.998   2.485  12.099 -0.6626  0.7191  0.4359
 4984SOL     OW26584   1.596   4.410   6.656 -0.5375 -0.1777 -0.2664
 4984SOL    HW126585   1.568   4.495   6.623  0.3088 -0.8651 -2.7552
 4984SOL    HW226586   1.571   4.421   6.747 -2.3385  0.2156 -0.8110
 4985SOL     OW26587   1.392   2.275   1.874 -0.1634  0.2410 -0.3522
 4985SOL    HW126588   1.415   2.224   1.796 -0.3928 -0.0627 -0.2193
 4985SOL    HW226589   1.313   2.229   1.901 -1.5499  2.3271 -0.8395
 4986SOL     OW26590   2.195   3.124  13.057 -0.3250 -0.3217 -0.0255
 4986SOL    HW126591   2.252   3.158  13.126 -0.7802  1.2869 -0.4420
 4986SOL    HW226592   2.110   3.149  13.095 -1.1310 -2.0401 -0.6696
 4987SOL     OW26593   0.152   2.863   1.468  0.0394  0.1667 -0.3999
 4987SOL    HW126594   0.146   2.954   1.497  2.8927 -0.6422  2.7098
 4987SOL    HW226595   0.104   2.809   1.531  1.4882 -0.2897  0.3165
 4988SOL     OW26596   3.952   3.539  12.385  0.0672 -0.1023  0.1436
 4988SOL    HW126597   3.981   3.482  12.315  0.6931  0.9095 -0.4235
 4988SOL    HW226598   3.868   3.502  12.412 -0.9685 -0.2331 -3.2465
 4989SOL     OW26599   0.675   1.171   4.257  0.1126  0.0038  0.0040
 4989SOL    HW126600   0.725   1.103   4.301 -0.9258 -1.0281 -0.3976
 4989SOL    HW226601   0.748   1.231   4.242 -0.0869  0.8110  2.2800
 4990SOL     OW26602   2.414   2.195   8.108 -0.1193  0.1260  0.2774
 4990SOL    HW126603   2.330   2.222   8.145  0.8916  1.7183  1.4019
 4990SOL    HW226604   2.389   2.161   8.023 -0.8683 -3.4312  1.9202
 4991SOL     OW26605   0.100   1.816   4.725 -0.8806 -0.1749  0.6100
 4991SOL    HW126606   0.037   1.744   4.725 -1.2808  0.1748  1.8090
 4991SOL    HW226607   0.091   1.856   4.638  0.9009 -1.6790 -0.2786
 4992SOL     OW26608   2.288   1.888   7.188 -0.1434  0.1845 -0.0968
 4992SOL    HW126609   2.361   1.950   7.190  1.5614 -1.7879 -1.4254
 4992SOL    HW226610   2.212   1.943   7.169  1.1335  0.8510 -3.3539
 4993SOL     OW26611   1.152   3.890   6.500 -0.1594  0.2735  0.2712
 4993SOL    HW126612   1.099   3.874   6.422 -2.2077  0.9644  1.5002
 4993SOL    HW226613   1.161   3.985   6.494  1.4881  0.3096  3.0775
 4994SOL     OW26614   4.398   3.178  10.155  0.0186 -0.0169  0.5183
 4994SOL    HW126615   4.492   3.193  10.160 -0.0823  0.4503  1.0470
 4994SOL    HW226616   4.396   3.083  10.146  0.4433  0.1681 -1.4824
 4995SOL     OW26617   3.473   3.409   7.963  0.0626  0.1048 -0.5152
 4995SOL    HW126618   3.555   3.360   7.955  1.0682  1.8350 -0.7992
 4995SOL    HW226619   3.425   3.358   8.029 -0.2380  0.0485 -0.7778
 4996SOL     OW26620   4.548   1.916   0.698  0.2558  0.0089  0.1424
 4996SOL    HW126621   4.601   1.907   0.620  1.2822  3.1415  0.5051
 4996SOL    HW226622   4.517   1.827   0.720  0.5895  0.1181  1.0540
 4997SOL     OW26623   2.099   2.544  12.589  0.0255 -0.2838  0.5006
 4997SOL    HW126624   2.048   2.473  12.551  0.2412  0.7429 -1.7037
 4997SOL    HW226625   2.133   2.491  12.661  1.6914  0.6763  0.4357
 4998SOL     OW26626   1.140   1.578   2.353  0.4479  0.5189 -0.2384
 4998SOL    HW126627   1.064   1.534   2.314  1.1609 -0.9811  0.0441
 4998SOL    HW226628   1.209   1.512   2.341 -0.9439 -0.9235 -0.2802
 4999SOL     OW26629   3.058   2.082  13.334 -0.3338  0.1015 -0.3838
 4999SOL    HW126630   2.990   2.095  13.400 -0.9913  0.0384 -1.0569
 4999SOL    HW226631   3.072   2.175  13.314  0.3071 -0.0748 -0.7544
 5000SOL     OW26632   1.839   1.296  17.133  0.0961  0.0147  0.1030
 5000SOL    HW126633   1.836   1.226  17.068 -0.5296 -0.2072  0.3626
 5000SOL    HW226634   1.905   1.258  17.191  0.0037  2.6593  1.9349
 5001SOL     OW26635   2.359   4.545   5.578 -0.4232  0.2529 -0.0878
 5001SOL    HW126636   2.334   4.527   5.669 -0.8749 -0.1790 -0.2917
 5001SOL    HW226637   2.436   4.601   5.584 -0.3628  0.0098  1.4456
 5002SOL     OW26638   0.238   2.855   4.341 -0.0641  0.1715 -0.5885
 5002SOL    HW126639   0.203   2.922   4.400  1.4425 -0.0894  0.6035
 5002SOL    HW226640   0.333   2.865   4.350  0.0419 -0.3188 -1.1695
 5003SOL     OW26641   2.317   0.139   8.957 -0.6463 -0.2925  0.5699
 5003SOL    HW126642   2.306   0.073   8.889  0.3561  2.3290 -2.1505
 5003SOL    HW226643   2.251   0.205   8.933 -0.6375 -0.0748  1.1322
 5004SOL     OW26644   3.333   2.105   6.131  0.4302 -0.4715  0.5405
 5004SOL    HW126645   3.305   2.133   6.218 -0.6275 -1.1116  0.4056
 5004SOL    HW226646   3.427   2.103   6.148  0.1526 -1.1068  2.0244
 5005SOL     OW26647   4.177   3.419   2.780 -0.3292 -0.8673 -0.1000
 5005SOL    HW126648   4.253   3.477   2.773  0.6240 -1.9569  1.2169
 5005SOL    HW226649   4.112   3.474   2.736  1.4349  1.5735  0.3329
 5006SOL     OW26650   2.287   0.356  10.932 -0.4470  0.2017 -0.1083
 5006SOL    HW126651   2.297   0.358  11.027  1.5216  2.5735 -0.3739
 5006SOL    HW226652   2.330   0.435  10.901 -0.7069  0.2945 -0.2348
 5007SOL     OW26653   1.087   2.757  17.512  0.3938  0.3177 -0.4450
 5007SOL    HW126654   1.080   2.760  17.607 -1.6413  0.4216 -0.6004
 5007SOL    HW226655   1.113   2.665  17.521 -1.1279 -0.1370 -0.7124
 5008SOL     OW26656   2.421   0.213  17.550  0.5129 -0.2442 -0.0718
 5008SOL    HW126657   2.473   0.133  17.535  1.8643  0.4968  0.6818
 5008SOL    HW226658   2.478   0.256  17.613  0.3198 -0.4617  0.2530
 5009SOL     OW26659   2.598   1.849   3.225  0.0892 -0.0890 -0.5176
 5009SOL    HW126660   2.606   1.789   3.150  3.5459  1.1089 -1.1383
 5009SOL    HW226661   2.548   1.923   3.191 -1.5780 -0.6429  0.7640
 5010SOL     OW26662   2.139   4.080  13.326 -0.1978  0.5561 -0.0456
 5010SOL    HW126663   2.065   4.136  13.350 -0.8918  0.1092 -1.1549
 5010SOL    HW226664   2.202   4.106  13.393  0.1062  0.3631 -0.2579
 5011SOL     OW26665   3.713   1.219   6.865  0.2707  0.1449  0.3793
 5011SOL    HW126666   3.699   1.127   6.888  1.5180  0.2105  1.4088
 5011SOL    HW226667   3.808   1.214   6.855  0.1778  0.8001 -0.8718
 5012SOL     OW26668   2.873   1.317   4.775 -0.1330  0.6032  0.1105
 5012SOL    HW126669   2.844   1.340   4.863 -0.1193 -0.8708  0.4928
 5012SOL    HW226670   2.906   1.228   4.785 -0.2425  0.7149  1.4183
 5013SOL     OW26671   4.645   1.387  13.348  0.8202 -0.0190 -0.1296
 5013SOL    HW126672   4.637   1.336  13.429  0.7411  1.2697  0.6685
 5013SOL    HW226673   4.611   1.323  13.285  0.6635 -0.8386  0.7887
 5014SOL     OW26674   1.120   1.655  15.186 -0.0036  0.4417 -0.8149
 5014SOL    HW126675   1.068   1.691  15.114 -0.0386  0.1829 -0.9200
 5014SOL    HW226676   1.206   1.651  15.145  1.7447  0.7000  2.7970
 5015SOL     OW26677   0.346   3.871   2.753  0.1302 -0.2734 -0.2728
 5015SOL    HW126678   0.267   3.925   2.749 -0.9350 -1.8828 -0.8157
 5015SOL    HW226679   0.403   3.913   2.817 -0.6460  3.6134 -2.1206
 5016SOL     OW26680   1.351   0.245   1.087  0.1420 -0.5759  0.1281
 5016SOL    HW126681   1.328   0.176   1.149 -0.1537 -0.6490 -0.0664
 5016SOL    HW226682   1.391   0.201   1.012  0.7186  0.7147 -0.3310
 5017SOL     OW26683   0.150   1.567   1.088  0.5184  0.1197  0.1098
 5017SOL    HW126684   0.081   1.503   1.075 -0.9184  1.4120  1.3002
 5017SOL    HW226685   0.163   1.550   1.181 -1.5740 -0.0739  0.3495
 5018SOL     OW26686   1.986   2.592   2.382 -0.1696  0.0872  0.8462
 5018SOL    HW126687   2.058   2.538   2.349 -0.2342  0.3417  0.2855
 5018SOL    HW226688   1.987   2.573   2.475 -2.6170 -0.1983  0.8094
 5019SOL     OW26689   4.158   3.105  13.130 -0.6763  0.4018  0.1439
 5019SOL    HW126690   4.085   3.129  13.073 -0.9246 -0.2094  0.2084
 5019SOL    HW226691   4.237   3.137  13.086 -2.0025  4.1373  0.4185
 5020SOL     OW26692   2.279   4.220   6.457 -0.3201  0.3507  0.1385
 5020SOL    HW126693   2.185   4.223   6.475 -0.2149  0.1946  0.7059
 5020SOL    HW226694   2.308   4.270   6.533  1.9651  1.7010 -1.6444
 5021SOL     OW26695   1.302   1.327   6.980 -0.1455  0.1431 -0.3475
 5021SOL    HW126696   1.220   1.375   6.984 -0.3725 -0.4459  2.1450
 5021SOL    HW226697   1.352   1.382   6.920  0.8874 -2.1970 -1.6587
 5022SOL     OW26698   3.617   1.272   9.766  0.2040 -0.0599  0.2789
 5022SOL    HW126699   3.522   1.261   9.765  0.3702 -1.5033  0.5171
 5022SOL    HW226700   3.630   1.314   9.851 -1.4904 -1.9726  1.4861
 5023SOL     OW26701   2.814   2.131   4.999  0.0562  0.2277 -0.3666
 5023SOL    HW126702   2.734   2.093   4.963 -0.8913 -0.1115  2.0890
 5023SOL    HW226703   2.783   2.157   5.086 -1.0761  0.6348 -0.8945
 5024SOL     OW26704   3.676   3.595  15.905  0.1944  0.2972  0.3648
 5024SOL    HW126705   3.628   3.512  15.900 -3.9335  2.9724 -3.8974
 5024SOL    HW226706   3.658   3.614  15.813  0.7353  2.0968  0.6323
 5025SOL     OW26707   2.031   3.728   4.132  0.2748 -0.0599 -0.6472
 5025SOL    HW126708   1.997   3.680   4.208 -2.7523 -1.9479 -3.1870
 5025SOL    HW226709   2.120   3.745   4.162 -1.4600  1.6762  3.5002
 5026SOL     OW26710   1.988   4.248  12.804 -0.3472  0.0485 -0.0672
 5026SOL    HW126711   1.899   4.213  12.795  0.0120 -0.5690 -1.1097
 5026SOL    HW226712   2.030   4.204  12.878 -1.3274 -0.2183  0.3407
 5027SOL     OW26713   0.596   3.539   4.173 -0.2155  0.4643  0.2159
 5027SOL    HW126714   0.685   3.514   4.146  0.7611  0.2089  3.6911
 5027SOL    HW226715   0.566   3.611   4.118 -0.2130 -0.0457 -0.4557
 5028SOL     OW26716   3.164   3.238   4.985  0.5807 -0.0816 -0.2065
 5028SOL    HW126717   3.103   3.182   5.033  0.1063 -0.3041 -1.0845
 5028SOL    HW226718   3.173   3.305   5.053 -1.8406 -1.0021  0.9964
 5029SOL     OW26719   1.940   3.225  17.588 -0.3241 -0.0945  0.2069
 5029SOL    HW126720   1.860   3.230  17.536 -0.4624 -0.5651  0.3817
 5029SOL    HW226721   1.907   3.183  17.667 -1.1028  1.7385  0.8447
 5030SOL     OW26722   2.166   0.299   1.732 -0.6881 -0.1636  0.0896
 5030SOL    HW126723   2.204   0.359   1.668 -0.2736  0.7259  1.1478
 5030SOL    HW226724   2.189   0.218   1.687 -0.1082  0.8319 -1.3935
 5031SOL     OW26725   2.841   1.361   9.352 -0.5626 -0.2974  0.1896
 5031SOL    HW126726   2.825   1.417   9.429  0.6014  0.9379 -0.4608
 5031SOL    HW226727   2.911   1.407   9.305  1.1215 -2.0401  0.9969
 5032SOL     OW26728   1.906   2.939  15.036 -0.4212  0.1211 -0.3891
 5032SOL    HW126729   1.932   2.936  15.129 -0.4536 -3.2200 -0.4820
 5032SOL    HW226730   1.837   3.005  15.048 -1.8808 -0.9119 -3.1319
 5033SOL     OW26731   2.310   3.314   5.834  0.1768  0.3178 -0.0797
 5033SOL    HW126732   2.368   3.340   5.762 -1.3887 -0.6897 -1.7002
 5033SOL    HW226733   2.324   3.376   5.906  1.9723 -1.2821  0.9940
 5034SOL     OW26734   1.903   0.000   7.997  0.3288  0.5314  0.2097
 5034SOL    HW126735   1.832   0.041   8.046  0.2125  0.1070  0.3958
 5034SOL    HW226736   1.972   0.023   8.060 -0.2935 -0.7466  1.3355
 5035SOL     OW26737   3.832   4.073   4.755  0.0890 -0.8068  0.6095
 5035SOL    HW126738   3.901   4.133   4.784 -0.4988 -0.8053  1.9852
 5035SOL    HW226739   3.841   4.003   4.820 -3.3920 -1.6484  0.1448
 5036SOL     OW26740   3.703   1.355  12.230  0.0445  0.1774  0.8407
 5036SOL    HW126741   3.700   1.298  12.153 -1.6365  1.2405  0.1261
 5036SOL    HW226742   3.793   1.334  12.257 -0.3264 -0.7628  1.3622
 5037SOL     OW26743   2.897   0.570   7.341 -0.7233 -0.1746  0.0266
 5037SOL    HW126744   2.816   0.546   7.386  0.6685 -3.8392  0.5651
 5037SOL    HW226745   2.881   0.548   7.249 -1.1561  1.3655 -0.2624
 5038SOL     OW26746   1.196   3.587   6.592  0.2742  0.2139  0.5461
 5038SOL    HW126747   1.124   3.621   6.539 -0.2255  0.5159  1.4200
 5038SOL    HW226748   1.168   3.627   6.675  0.7493 -1.0198  1.2991
 5039SOL     OW26749   3.290   0.326   7.615  0.3700  0.2648 -0.4589
 5039SOL    HW126750   3.209   0.346   7.569  1.2774  1.7884 -1.3992
 5039SOL    HW226751   3.256   0.318   7.704  0.7628  0.3752 -0.2991
 5040SOL     OW26752   3.779   1.655   3.595 -0.4001  0.1129 -0.2046
 5040SOL    HW126753   3.745   1.567   3.609  0.8095 -0.0119  1.9612
 5040SOL    HW226754   3.701   1.704   3.566 -0.2883 -0.0095 -0.7131
 5041SOL     OW26755   4.663   3.198  10.136  0.0052 -0.2533 -0.0276
 5041SOL    HW126756   4.702   3.159  10.058  1.3956 -0.0231  0.5423
 5041SOL    HW226757   4.700   3.139  10.202 -1.3441 -1.3337 -0.2331
 5042SOL     OW26758   4.269   2.593  17.114  0.3228 -0.3675 -0.0377
 5042SOL    HW126759   4.360   2.597  17.084  0.1803  1.0198 -0.3246
 5042SOL    HW226760   4.269   2.666  17.176 -0.9960  1.8382 -2.6139
 5043SOL     OW26761   1.953   4.550   2.772  0.2823  0.1400  0.4294
 5043SOL    HW126762   1.865   4.576   2.799 -0.2469  0.9894 -2.0120
 5043SOL    HW226763   1.957   4.584   2.682 -0.0858 -0.4122  0.2069
 5044SOL     OW26764   4.154   0.600   2.497 -0.1462  0.5958  0.2604
 5044SOL    HW126765   4.217   0.665   2.463  1.1491  0.9032  3.2519
 5044SOL    HW226766   4.104   0.662   2.550  0.7308  1.5243  0.0144
 5045SOL     OW26767   1.559   2.657   4.027  0.1398  0.2690  0.0667
 5045SOL    HW126768   1.557   2.608   4.110 -1.4698  2.8777  1.5368
 5045SOL    HW226769   1.501   2.733   4.030 -0.0550  0.1191  0.0939
 5046SOL     OW26770   3.335   4.108   5.520 -0.0389 -0.2511  0.3907
 5046SOL    HW126771   3.319   4.142   5.609 -0.8532  0.0292  0.1319
 5046SOL    HW226772   3.431   4.113   5.512 -0.0909  1.9283  0.9932
 5047SOL     OW26773   2.798   2.798   2.013  0.3910  0.4155 -0.4653
 5047SOL    HW126774   2.737   2.858   1.971  0.2617  0.7709  0.2323
 5047SOL    HW226775   2.750   2.716   2.003  0.1361  0.5009  0.1083
 5048SOL     OW26776   4.380   1.204  17.362  0.5904  0.3269  0.5621
 5048SOL    HW126777   4.420   1.117  17.361  0.8146  0.4269  1.1457
 5048SOL    HW226778   4.310   1.184  17.300  1.6531 -0.8706 -0.2469
 5049SOL     OW26779   3.326   1.650   5.085  0.0027 -0.3138  0.0083
 5049SOL    HW126780   3.277   1.668   5.165 -1.1057  0.7394 -0.9035
 5049SOL    HW226781   3.329   1.738   5.047  0.2687  0.9166  2.9274
 5050SOL     OW26782   0.149   0.287  10.941  0.1653 -0.2961 -0.5544
 5050SOL    HW126783   0.229   0.262  10.895 -0.2428 -1.8624 -0.4322
 5050SOL    HW226784   0.174   0.240  11.021  2.3742 -1.1870 -1.7773
 5051SOL     OW26785   3.794   0.832  15.111  0.0675  0.0944 -0.0156
 5051SOL    HW126786   3.875   0.811  15.158 -0.4961 -2.2493 -0.0648
 5051SOL    HW226787   3.779   0.926  15.108 -1.3057 -0.1043  0.2291
 5052SOL     OW26788   1.953   1.943   9.065 -0.6379  0.6619  0.1313
 5052SOL    HW126789   1.868   1.960   9.025 -1.1839 -1.5257  0.3743
 5052SOL    HW226790   1.935   1.880   9.134  2.2296  0.7674  0.9906
 5053SOL     OW26791   1.621   3.844   6.127  0.2978 -0.3810  0.0069
 5053SOL    HW126792   1.620   3.885   6.213  1.3228 -1.2259  0.4242
 5053SOL    HW226793   1.714   3.858   6.109 -0.0793  3.5231  1.0832
 5054SOL     OW26794   3.058   4.258   3.894  0.0205  0.4373 -0.4416
 5054SOL    HW126795   3.119   4.184   3.896 -0.4776  0.0814  1.4835
 5054SOL    HW226796   3.108   4.329   3.932  0.0976 -1.5027  3.0286
 5055SOL     OW26797   0.464   3.307   3.485  0.0664 -0.7875  0.5092
 5055SOL    HW126798   0.468   3.220   3.525  4.3047 -0.8651 -0.0514
 5055SOL    HW226799   0.497   3.347   3.566  0.4072 -0.0553  0.0089
 5056SOL     OW26800   1.237   1.998   1.067 -0.3829 -0.5384  0.1757
 5056SOL    HW126801   1.324   2.013   1.032 -0.5443 -2.5782 -1.0801
 5056SOL    HW226802   1.260   1.964   1.153 -1.4242 -0.0701  0.6531
 5057SOL     OW26803   2.332   0.941   6.917  0.1821  0.2160 -0.1689
 5057SOL    HW126804   2.364   0.852   6.912 -1.1151 -0.3910  2.2507
 5057SOL    HW226805   2.409   0.992   6.890  0.8228 -0.3847  0.5722
 5058SOL     OW26806   4.705   4.043   6.601  0.7398  0.3855  0.0494
 5058SOL    HW126807   4.715   4.001   6.516  0.3428  2.6036 -1.0961
 5058SOL    HW226808   4.674   4.127   6.569 -0.8509  0.8834  2.8669
 5059SOL     OW26809   4.390   4.264   8.220 -0.4712 -0.3794  0.1536
 5059SOL    HW126810   4.335   4.212   8.278 -0.5132 -0.0876  0.3762
 5059SOL    HW226811   4.472   4.246   8.265  0.5123  1.5097 -0.8658
 5060SOL     OW26812   2.784   2.363   7.510  0.1652 -0.0163  0.1049
 5060SOL    HW126813   2.728   2.318   7.573  0.1714 -0.7267 -0.3929
 5060SOL    HW226814   2.800   2.441   7.563  1.2492 -0.9608  1.1877
 5061SOL     OW26815   3.974   1.391   8.712  0.2034  0.3010 -0.0347
 5061SOL    HW126816   3.982   1.296   8.700  1.3709  0.2510  1.1700
 5061SOL    HW226817   3.881   1.408   8.695 -0.2878 -2.7522 -0.4440
 5062SOL     OW26818   0.830   2.108   5.452  0.3797 -0.3776  0.5396
 5062SOL    HW126819   0.798   2.143   5.536  0.4970  0.1270  0.3778
 5062SOL    HW226820   0.877   2.028   5.471 -0.2393 -1.0020 -0.5923
 5063SOL     OW26821   1.161   1.689  17.579 -0.6531 -0.5235 -0.7832
 5063SOL    HW126822   1.147   1.679  17.673  0.8838  0.8928 -0.3915
 5063SOL    HW226823   1.073   1.707  17.545 -1.1648  0.5588  1.1211
 5064SOL     OW26824   0.350   1.844   7.554  0.5765  0.3141 -0.5333
 5064SOL    HW126825   0.334   1.777   7.621  1.1981 -1.0680 -1.7778
 5064SOL    HW226826   0.411   1.801   7.494 -0.1827  0.1356 -1.1664
 5065SOL     OW26827   0.766   1.938  10.776 -0.1924  0.3032 -0.1439
 5065SOL    HW126828   0.729   1.954  10.863 -1.2257 -1.2450 -0.2896
 5065SOL    HW226829   0.859   1.959  10.780  0.3401 -1.8112 -1.3005
 5066SOL     OW26830   2.921   1.158   6.297 -0.1191  0.0289 -0.0993
 5066SOL    HW126831   2.841   1.120   6.261  0.4164  0.7191 -1.9639
 5066SOL    HW226832   2.966   1.190   6.219  2.8919  0.3776  1.7740
 5067SOL     OW26833   1.265   3.454  11.609  0.3141  0.2447  0.5888
 5067SOL    HW126834   1.183   3.438  11.655 -0.5419 -2.7106 -1.9885
 5067SOL    HW226835   1.328   3.433  11.678  0.5877 -1.8725 -0.3130
 5068SOL     OW26836   3.672   0.955  14.477  0.5874 -0.1024  0.1219
 5068SOL    HW126837   3.736   1.017  14.513  1.9267 -2.1967  1.3723
 5068SOL    HW226838   3.735   0.913  14.419 -1.1073 -1.7465 -0.4916
 5069SOL     OW26839   3.569   3.016  10.409  0.7029  0.0385 -0.1006
 5069SOL    HW126840   3.650   3.056  10.376  0.4131 -0.2166 -1.0899
 5069SOL    HW226841   3.518   3.034  10.331 -0.4199 -0.5673  0.5026
 5070SOL     OW26842   2.133   1.322  13.754 -0.1229 -0.3136  0.3107
 5070SOL    HW126843   2.039   1.324  13.733  0.0120  1.4191 -0.0657
 5070SOL    HW226844   2.129   1.369  13.838 -0.4127  0.0833  0.0698
 5071SOL     OW26845   3.748   0.354   5.317  0.1729 -0.5643 -0.2973
 5071SOL    HW126846   3.673   0.400   5.280  0.3748  1.1475  1.4706
 5071SOL    HW226847   3.724   0.263   5.298 -0.5188  0.0877 -2.5576
 5072SOL     OW26848   4.257   4.684  11.982  0.3739  0.3672 -0.3503
 5072SOL    HW126849   4.305   4.691  11.900  0.7070  1.5284 -0.0613
 5072SOL    HW226850   4.246   4.591  12.000  0.0793  1.0283  2.9311
 5073SOL     OW26851   1.947   0.854  15.711 -0.5045  0.0310 -0.4663
 5073SOL    HW126852   1.994   0.933  15.739 -0.0551  0.0238 -1.2055
 5073SOL    HW226853   2.021   0.794  15.724 -0.0800  0.4637 -0.8618
 5074SOL     OW26854   3.170   4.727   6.527  0.5763  0.3449  0.5841
 5074SOL    HW126855   3.142   4.679   6.605  0.6633  0.0684  0.4449
 5074SOL    HW226856   3.210   4.653   6.481  1.5644  0.0203  1.9464
 5075SOL     OW26857   2.811   3.824   2.023  0.3680 -0.5068 -0.2492
 5075SOL    HW126858   2.833   3.753   2.084  0.5802 -0.1189  0.1236
 5075SOL    HW226859   2.890   3.879   2.025 -1.1184  1.5667  1.6170
 5076SOL     OW26860   3.659   3.651   9.556 -0.1800  0.4666  0.0215
 5076SOL    HW126861   3.646   3.719   9.622  1.2269  1.2751 -0.5316
 5076SOL    HW226862   3.710   3.579   9.595  0.2534  0.4228 -0.6076
 5077SOL     OW26863   4.724   2.400  12.253 -0.0360  0.6934 -0.3082
 5077SOL    HW126864   0.062   2.412  12.188 -0.0835  3.1563  0.1210
 5077SOL    HW226865   4.697   2.490  12.270  1.6666  0.9776  0.9381
 5078SOL     OW26866   4.331   3.919   4.233  0.2132  0.2706 -0.3608
 5078SOL    HW126867   4.240   3.947   4.239  0.4925  0.9297  0.8195
 5078SOL    HW226868   4.336   3.848   4.297 -1.9802 -0.0234 -0.5190
 5079SOL     OW26869   4.056   4.478   5.287  0.1177 -0.0753  0.2428
 5079SOL    HW126870   4.019   4.523   5.211  0.7693 -1.7124 -1.0411
 5079SOL    HW226871   3.971   4.469   5.331  0.3340  3.1114  1.3210
 5080SOL     OW26872   4.047   0.963   7.212 -0.3712  0.6606  0.3690
 5080SOL    HW126873   4.128   0.925   7.178 -0.5662  0.0314  0.5859
 5080SOL    HW226874   4.077   1.046   7.248  2.5875 -0.7662  1.2233
 5081SOL     OW26875   1.564   1.988   7.287  0.0503 -0.3954  0.4607
 5081SOL    HW126876   1.541   1.911   7.235  1.1951 -1.8127  2.0912
 5081SOL    HW226877   1.592   2.043   7.214 -2.2570 -0.7171 -0.6745
 5082SOL     OW26878   2.571   0.230   6.468  0.5524  0.0918 -0.2852
 5082SOL    HW126879   2.648   0.186   6.430  1.5590  1.2352  0.4140
 5082SOL    HW226880   2.511   0.171   6.422  0.4737  0.2664 -0.4041
 5083SOL     OW26881   4.647   4.291  14.941  0.3512  0.5762  0.0959
 5083SOL    HW126882   4.581   4.272  14.875  0.2718  1.6116 -0.1289
 5083SOL    HW226883   4.598   4.361  14.984  2.1298  1.6407  0.3851
 5084SOL     OW26884   3.482   2.867   4.347 -0.2354  0.4964 -0.4438
 5084SOL    HW126885   3.458   2.900   4.434  0.1814  0.3509 -0.2759
 5084SOL    HW226886   3.398   2.867   4.302 -0.3221  0.2926 -0.2829
 5085SOL     OW26887   1.470   1.537  10.899  0.2703 -0.1154  0.2521
 5085SOL    HW126888   1.445   1.507  10.987  1.9921 -0.5388  0.5912
 5085SOL    HW226889   1.529   1.610  10.915  0.1366 -0.1675  0.9940
 5086SOL     OW26890   1.372   3.090   5.110  0.0314  0.0676 -0.0034
 5086SOL    HW126891   1.411   3.177   5.098 -3.3845  1.6735  0.5179
 5086SOL    HW226892   1.396   3.071   5.201  1.7271 -0.6472 -0.5918
 5087SOL     OW26893   3.724   3.296   2.704 -0.3431 -0.3619  0.4587
 5087SOL    HW126894   3.671   3.255   2.636  2.1397 -1.6864 -0.6577
 5087SOL    HW226895   3.676   3.379   2.710  0.3772  0.2332 -2.0600
 5088SOL     OW26896   1.639   2.887   0.107 -0.3036  0.5860 -0.4930
 5088SOL    HW126897   1.618   2.952   0.175 -1.0529  1.8948 -1.9744
 5088SOL    HW226898   1.717   2.904   0.054  1.7172 -1.0151  1.9769
 5089SOL     OW26899   2.020   4.222  11.230 -0.3333 -0.8122 -0.4183
 5089SOL    HW126900   2.100   4.189  11.270  0.6731 -0.3735 -2.0709
 5089SOL    HW226901   1.970   4.143  11.208 -0.8880 -0.4425 -0.4837
 5090SOL     OW26902   4.068   2.698   2.563 -0.4940 -0.4510  0.6145
 5090SOL    HW126903   4.105   2.784   2.583  3.8279 -2.1132 -0.3689
 5090SOL    HW226904   4.070   2.696   2.468  0.6742 -2.3424  0.6954
 5091SOL     OW26905   3.579   1.516   5.087 -0.0146  0.2400 -0.5037
 5091SOL    HW126906   3.639   1.570   5.036  0.6225 -0.7157 -0.7575
 5091SOL    HW226907   3.499   1.568   5.092 -1.5891 -2.2782  0.1059
 5092SOL     OW26908   0.956   2.918  14.511 -0.8377 -0.2224  0.2998
 5092SOL    HW126909   0.922   2.954  14.593  0.2944  0.3304  0.5255
 5092SOL    HW226910   0.992   2.834  14.542  1.3067 -0.2499 -2.2861
 5093SOL     OW26911   4.561   1.531   6.197  0.3330 -0.1803 -0.1211
 5093SOL    HW126912   4.564   1.448   6.149  1.1291 -0.2094 -0.0295
 5093SOL    HW226913   4.622   1.510   6.268 -2.4985 -2.0199  1.7565
 5094SOL     OW26914   1.171   0.270   0.396  0.3720 -0.3750  0.1039
 5094SOL    HW126915   1.103   0.281   0.462  1.3630  0.3847  1.0003
 5094SOL    HW226916   1.117   0.244   0.321 -0.2902 -0.0717  0.4800
 5095SOL     OW26917   2.881   2.081   7.473  0.0828 -0.3902 -0.1610
 5095SOL    HW126918   2.965   2.126   7.475 -0.2463  0.2836 -1.3884
 5095SOL    HW226919   2.818   2.152   7.481 -0.5138 -1.0149  0.7443
 5096SOL     OW26920   2.931   3.510   9.624  0.1330  0.0258  0.2298
 5096SOL    HW126921   2.996   3.459   9.576  0.0368 -2.3859  2.6600
 5096SOL    HW226922   2.902   3.448   9.690  1.0828 -2.2672 -1.5065
 5097SOL     OW26923   4.179   1.105  12.283 -0.2021  0.1565  0.6242
 5097SOL    HW126924   4.267   1.070  12.270 -0.8060 -1.4512  0.8794
 5097SOL    HW226925   4.136   1.026  12.316  0.8928 -1.1471 -1.0776
 5098SOL     OW26926   1.428   0.273  15.940  0.0124  0.0507 -0.0594
 5098SOL    HW126927   1.339   0.296  15.910  0.2723 -1.8494 -2.2676
 5098SOL    HW226928   1.433   0.303  16.031 -1.1446  0.2473 -0.0577
 5099SOL     OW26929   0.757   1.541  16.246  0.7060 -0.3318 -0.5535
 5099SOL    HW126930   0.667   1.526  16.272  0.8958 -0.1056  0.2355
 5099SOL    HW226931   0.808   1.527  16.325 -1.2090 -1.7685  0.4042
 5100SOL     OW26932   2.335   1.256   5.243 -0.1405 -0.4609 -0.3248
 5100SOL    HW126933   2.268   1.322   5.222 -0.6066 -1.2798 -1.3976
 5100SOL    HW226934   2.354   1.227   5.154 -1.4040 -0.4316 -0.6046
 5101SOL     OW26935   3.993   2.297   9.013  0.1146  0.9752  0.1226
 5101SOL    HW126936   4.076   2.343   9.028  0.7656 -0.8510  2.1069
 5101SOL    HW226937   3.954   2.349   8.943 -0.1501 -1.9825 -1.8888
 5102SOL     OW26938   1.013   4.161   4.766 -0.1241  0.2608  0.0923
 5102SOL    HW126939   1.055   4.241   4.797  0.9107 -0.0319 -0.5228
 5102SOL    HW226940   1.018   4.117   4.851  0.6685  0.6087  0.2285
 5103SOL     OW26941   1.794   0.893   9.980  0.2314 -0.0874  0.0923
 5103SOL    HW126942   1.705   0.861   9.994 -1.5503  4.1134 -1.6617
 5103SOL    HW226943   1.803   0.977  10.024 -1.0281 -1.5319  3.1082
 5104SOL     OW26944   0.175   4.327  11.953  0.6686  0.3543 -0.2875
 5104SOL    HW126945   0.108   4.289  11.897 -0.8159  1.0750  0.9978
 5104SOL    HW226946   0.201   4.255  12.010 -0.3480 -0.5366 -0.9468
 5105SOL     OW26947   3.343   0.592   6.308  0.2853  0.9417  0.3215
 5105SOL    HW126948   3.389   0.555   6.384  0.6702 -0.7570 -0.7222
 5105SOL    HW226949   3.264   0.634   6.340  0.6283  2.6090 -1.0099
 5106SOL     OW26950   2.101   1.601   5.469 -0.0877 -0.2326 -0.0454
 5106SOL    HW126951   2.101   1.641   5.383 -1.4977  0.2142  0.1599
 5106SOL    HW226952   2.174   1.542   5.452 -1.1664 -1.2748 -1.0517
 5107SOL     OW26953   1.200   1.590   0.386  0.0487 -0.2344 -0.3381
 5107SOL    HW126954   1.244   1.554   0.464  0.1331 -0.3792 -0.4529
 5107SOL    HW226955   1.177   1.507   0.345  0.4275 -0.5062 -0.0079
 5108SOL     OW26956   3.611   0.850   5.187  0.6939 -0.5683  0.4507
 5108SOL    HW126957   3.591   0.761   5.159 -3.4943  0.6477 -0.3392
 5108SOL    HW226958   3.643   0.888   5.105  2.0795  0.0589  1.2860
 5109SOL     OW26959   0.633   4.486   2.190  0.5318  0.6028  0.6016
 5109SOL    HW126960   0.554   4.486   2.135 -1.2168  0.4162  3.0975
 5109SOL    HW226961   0.593   4.490   2.278  3.1680 -0.6103  1.8437
 5110SOL     OW26962   4.218   0.998   6.639  0.0944 -0.7825  0.1273
 5110SOL    HW126963   4.233   0.941   6.715  2.3656 -2.9931 -1.9999
 5110SOL    HW226964   4.298   1.050   6.636 -0.4368  0.0592  0.5418
 5111SOL     OW26965   3.234   3.332   3.599  0.1900 -0.3585  0.4500
 5111SOL    HW126966   3.307   3.276   3.625  0.9194  0.8644  1.0725
 5111SOL    HW226967   3.168   3.266   3.579 -0.5132  0.3161  0.5509
 5112SOL     OW26968   2.040   1.905  15.009  0.3694 -0.3781  0.6593
 5112SOL    HW126969   2.019   1.927  15.100 -0.2313  0.3470  0.3434
 5112SOL    HW226970   1.980   1.958  14.957  2.1635  1.5421  0.5446
 5113SOL     OW26971   0.586   3.818   0.078 -0.1632  0.3427  0.4867
 5113SOL    HW126972   0.639   3.790   0.004  0.5439 -0.7551  1.4151
 5113SOL    HW226973   0.640   3.871   0.137  1.6541 -0.8469 -0.1298
 5114SOL     OW26974   1.657   4.159   4.266  0.0068  0.2349  0.0354
 5114SOL    HW126975   1.680   4.245   4.231  0.4305  0.5293  1.0696
 5114SOL    HW226976   1.717   4.102   4.218 -1.0454  0.9942 -2.2119
 5115SOL     OW26977   4.202   2.185   2.935  0.3323  0.4634 -0.3629
 5115SOL    HW126978   4.261   2.126   2.983  0.1666  0.1230 -0.5838
 5115SOL    HW226979   4.133   2.127   2.905  1.0585 -0.9590  0.6960
 5116SOL     OW26980   3.369   2.654   0.959 -0.1040  0.3824  0.2100
 5116SOL    HW126981   3.448   2.706   0.949 -0.7549  1.3307  0.0385
 5116SOL    HW226982   3.309   2.703   0.903  1.2141  0.1889 -1.3668
 5117SOL     OW26983   1.952   2.836   5.841  0.3594  0.4533 -0.3343
 5117SOL    HW126984   2.027   2.787   5.805 -0.9844 -0.7705 -1.4668
 5117SOL    HW226985   1.978   2.832   5.933 -1.4843 -1.9488  0.0716
 5118SOL     OW26986   3.787   0.920   2.854 -0.2909 -0.2072 -0.3658
 5118SOL    HW126987   3.846   0.947   2.924 -1.6760  0.8125  0.4174
 5118SOL    HW226988   3.715   0.884   2.906  2.4022 -3.9497  0.6993
 5119SOL     OW26989   0.787   0.975  12.418  0.0869  0.0064  0.6359
 5119SOL    HW126990   0.849   0.976  12.344 -2.0686  1.8630 -1.1310
 5119SOL    HW226991   0.717   0.927  12.374 -0.2544 -0.1308  1.3325
 5120SOL     OW26992   4.641   2.659   2.052  0.1338 -0.2841  0.0346
 5120SOL    HW126993   4.554   2.654   2.091 -0.5380  1.9697 -1.1989
 5120SOL    HW226994   4.640   2.748   2.017  0.5546  0.0632  0.9143
 5121SOL     OW26995   3.420   2.896  13.459  0.2778  0.1938  0.1955
 5121SOL    HW126996   3.391   2.892  13.550  0.8930 -0.9630  0.3416
 5121SOL    HW226997   3.512   2.923  13.468  0.1185  0.5191  0.8098
 5122SOL     OW26998   2.196   1.296   4.721 -0.2001  0.2363 -0.6182
 5122SOL    HW126999   2.246   1.216   4.733  1.9889  1.6517 -0.3662
 5122SOL    HW227000   2.258   1.358   4.684  1.6346 -0.0650  1.9630
 5123SOL     OW27001   2.540   0.198  15.180  0.1122  0.0119 -0.0961
 5123SOL    HW127002   2.462   0.234  15.223  0.5299 -0.3333  0.9245
 5123SOL    HW227003   2.508   0.119  15.137  1.1576  0.2731 -1.3402
 5124SOL     OW27004   3.837   3.462   5.829  0.1094  0.4789 -0.6948
 5124SOL    HW127005   3.890   3.533   5.793  1.6319  0.4266  1.4746
 5124SOL    HW227006   3.753   3.485   5.790 -0.7148  1.4767  1.6979
 5125SOL     OW27007   3.646   4.414   3.609 -0.3189  0.6904  0.6333
 5125SOL    HW127008   3.568   4.434   3.557  0.4548 -1.8943 -1.4868
 5125SOL    HW227009   3.684   4.350   3.549 -2.2693 -2.0627  2.3875
 5126SOL     OW27010   1.369   0.474  13.786 -0.5088 -0.5578  0.5185
 5126SOL    HW127011   1.442   0.436  13.834 -0.3518 -1.2042 -0.2210
 5126SOL    HW227012   1.318   0.397  13.760 -0.7584 -0.8747  1.9419
 5127SOL     OW27013   0.260   4.339   5.308  0.8206 -0.1638  0.0195
 5127SOL    HW127014   0.254   4.266   5.369 -3.0707  1.7196  1.9246
 5127SOL    HW227015   0.262   4.295   5.223 -0.1005  0.0617 -0.1173
 5128SOL     OW27016   2.197   0.836   5.002 -0.3638  0.1141  0.0980
 5128SOL    HW127017   2.218   0.758   4.949 -0.8994 -0.8132  1.2577
 5128SOL    HW227018   2.209   0.798   5.089 -2.7418  1.1138  0.8631
 5129SOL     OW27019   3.048   0.546   1.760  0.3136  0.0108 -0.5492
 5129SOL    HW127020   3.070   0.471   1.816  0.3571  0.8743  0.6049
 5129SOL    HW227021   3.088   0.620   1.806  0.2592  0.5036 -1.3011
 5130SOL     OW27022   2.667   2.065   2.402 -0.5255 -0.1778 -0.0339
 5130SOL    HW127023   2.592   2.119   2.379  0.1314  1.3071  1.3698
 5130SOL    HW227024   2.629   1.994   2.455 -0.5319 -0.4753 -0.4353
 5131SOL     OW27025   1.824   0.231   1.845  1.1345  0.7703 -0.7946
 5131SOL    HW127026   1.847   0.180   1.768  0.2627 -0.3562 -0.3206
 5131SOL    HW227027   1.863   0.182   1.917 -1.5985 -2.5094 -1.5613
 5132SOL     OW27028   4.664   3.610   0.942  0.3306  0.1205  0.0133
 5132SOL    HW127029   0.006   3.557   0.973 -0.4182 -1.3700 -0.7482
 5132SOL    HW227030   4.694   3.696   0.970 -2.1254  0.8192  0.5072
 5133SOL     OW27031   0.166   2.225   8.110 -0.3125 -0.3029  0.3337
 5133SOL    HW127032   0.189   2.134   8.092  2.1551  0.0320  1.7209
 5133SOL    HW227033   0.240   2.271   8.070 -1.4852  1.9915  0.7585
 5134SOL     OW27034   1.911   2.462   6.310  0.4403  0.1492  0.4942
 5134SOL    HW127035   1.849   2.391   6.295  0.4019  0.6289 -1.5095
 5134SOL    HW227036   1.875   2.523   6.375 -0.2369  0.8921 -0.5838
 5135SOL     OW27037   3.022   1.839   4.456 -0.5148 -0.9439  0.2447
 5135SOL    HW127038   2.936   1.803   4.432 -0.6884 -0.9645  0.8902
 5135SOL    HW227039   3.095   1.801   4.408 -1.7720 -0.3044 -2.2009
 5136SOL     OW27040   3.445   2.386   6.127 -0.2670 -0.1561  0.2157
 5136SOL    HW127041   3.516   2.349   6.075  0.1204  0.7406  0.1215
 5136SOL    HW227042   3.489   2.417   6.206 -1.2398  2.6808 -0.3595
 5137SOL     OW27043   0.375   3.234   6.309  0.6126 -0.4244 -1.1548
 5137SOL    HW127044   0.339   3.145   6.307  1.5816 -0.7697 -3.3870
 5137SOL    HW227045   0.420   3.250   6.392 -1.2972 -2.6529  0.2981
 5138SOL     OW27046   2.531   4.384   7.388 -0.1927  0.1824  0.2792
 5138SOL    HW127047   2.510   4.470   7.353  1.7064  0.9068  0.9192
 5138SOL    HW227048   2.626   4.382   7.375 -0.2573  0.4190 -0.2068
 5139SOL     OW27049   1.846   3.571  14.265 -0.2179 -0.3310  0.1336
 5139SOL    HW127050   1.932   3.549  14.228 -0.7841  1.3647 -2.1699
 5139SOL    HW227051   1.804   3.614  14.191 -2.0896 -0.0326  1.3840
 5140SOL     OW27052   1.862   4.443  16.851  0.0605 -0.4431  0.2506
 5140SOL    HW127053   1.859   4.366  16.794 -0.4014 -0.8391  0.8138
 5140SOL    HW227054   1.827   4.516  16.800 -0.7437 -1.1657 -0.2336
 5141SOL     OW27055   2.604   2.914   6.346  0.0688  0.0823 -0.2001
 5141SOL    HW127056   2.533   2.860   6.381 -0.7046  2.3185  1.6375
 5141SOL    HW227057   2.578   3.002   6.371 -1.4061 -0.5195  0.3775
 5142SOL     OW27058   4.106   2.694   4.084 -0.0318 -0.0531  0.2569
 5142SOL    HW127059   4.063   2.678   4.000 -2.4005  0.0545  1.4506
 5142SOL    HW227060   4.186   2.643   4.072 -0.6735 -1.2712  1.1441
 5143SOL     OW27061   4.706   1.582   2.012 -0.3873  0.2814  0.1883
 5143SOL    HW127062   4.650   1.560   2.086 -0.9906 -1.9822 -0.9327
 5143SOL    HW227063   4.726   1.666   2.052  1.9366  0.5674 -1.5556
 5144SOL     OW27064   3.690   0.280  13.958  0.1302  0.0627  0.0526
 5144SOL    HW127065   3.715   0.208  13.900 -1.2100 -0.8774  0.6475
 5144SOL    HW227066   3.775   0.321  13.974  0.2311 -0.0915 -0.0867
 5145SOL     OW27067   1.189   2.217  10.926 -0.0141  0.0587  0.0699
 5145SOL    HW127068   1.275   2.186  10.897  0.5989  2.8663 -1.1307
 5145SOL    HW227069   1.207   2.252  11.013 -0.3362 -1.3952  0.7187
 5146SOL     OW27070   2.309   2.642  14.197  0.2642 -0.4515 -0.1323
 5146SOL    HW127071   2.233   2.688  14.233  0.6767  0.1373 -0.0131
 5146SOL    HW227072   2.326   2.718  14.142  2.0605 -0.5193  0.3324
 5147SOL     OW27073   0.587   0.401  16.656  0.0946  0.2786 -0.0712
 5147SOL    HW127074   0.552   0.319  16.623  0.9172  0.4738 -1.4123
 5147SOL    HW227075   0.650   0.417  16.586  0.3128 -0.9899 -0.1540
 5148SOL     OW27076   3.594   4.036   1.008 -0.2278 -0.4297  0.1531
 5148SOL    HW127077   3.675   4.013   1.054  0.6462  2.0235 -0.1264
 5148SOL    HW227078   3.524   3.975   1.032  0.2172 -0.3378  1.7295
 5149SOL     OW27079   2.737   1.600   7.823  0.0067  0.2477 -0.5934
 5149SOL    HW127080   2.723   1.630   7.912 -0.3923  0.4187 -0.7159
 5149SOL    HW227081   2.735   1.683   7.775 -0.7160  0.2194 -0.6211
 5150SOL     OW27082   0.047   1.261   2.875 -0.0402  0.4750  0.1406
 5150SOL    HW127083   0.094   1.181   2.852  0.2647  0.5755  0.4085
 5150SOL    HW227084   0.084   1.321   2.811 -0.1030 -0.6442 -0.9595
 5151SOL     OW27085   2.066   1.199   9.072 -0.9396  0.1703 -0.6209
 5151SOL    HW127086   2.154   1.191   9.035 -0.9390  0.1912 -0.6241
 5151SOL    HW227087   2.063   1.295   9.070  0.9354  0.2337 -0.0223
 5152SOL     OW27088   2.379   2.951  15.433  0.4909 -0.3565 -0.6989
 5152SOL    HW127089   2.293   2.977  15.400 -0.0387  1.8453  2.4080
 5152SOL    HW227090   2.431   2.960  15.353 -0.0755 -3.1704 -1.3671
 5153SOL     OW27091   0.078   4.731  10.507  0.2985  0.8965 -0.2095
 5153SOL    HW127092   0.046   4.730  10.417  0.9445  2.9931 -0.4530
 5153SOL    HW227093   0.097   4.640  10.530 -1.9371  0.2366 -0.9899
 5154SOL     OW27094   2.887   3.293   5.622  0.1509 -0.1355 -0.1509
 5154SOL    HW127095   2.808   3.241   5.640  1.0602 -0.4073  3.0230
 5154SOL    HW227096   2.943   3.228   5.579  0.3017  0.4094 -0.7647
 5155SOL     OW27097   4.730   4.268   2.671 -0.3406 -0.5737 -0.2683
 5155SOL    HW127098   4.721   4.326   2.747 -1.1118 -0.7829 -0.2046
 5155SOL    HW227099   4.654   4.299   2.623  0.6180  0.4562 -1.1080
 5156SOL     OW27100   2.599   1.393   3.662  0.4682 -0.1189 -0.4630
 5156SOL    HW127101   2.531   1.428   3.605 -0.9870  1.2401  2.1598
 5156SOL    HW227102   2.570   1.433   3.743  1.2426 -0.9136  0.2077
 5157SOL     OW27103   0.915   3.658  11.567  0.3322 -0.4183  0.2805
 5157SOL    HW127104   1.001   3.627  11.595 -0.9186 -3.5015  0.7464
 5157SOL    HW227105   0.893   3.588  11.505 -0.1516  1.0442 -1.2065
 5158SOL     OW27106   0.763   2.903   4.589 -0.3666 -0.4996  0.6530
 5158SOL    HW127107   0.821   2.962   4.541  2.9769 -0.8307  4.3160
 5158SOL    HW227108   0.682   2.954   4.581 -0.1136 -0.6202 -2.7343
 5159SOL     OW27109   4.118   4.717  15.662  0.1418 -0.0357 -0.3427
 5159SOL    HW127110   4.070   4.721  15.580  0.9357 -0.6663 -0.8363
 5159SOL    HW227111   4.165   4.635  15.649  0.0205  0.1897 -2.1119
 5160SOL     OW27112   2.511   1.398   9.575 -0.2160 -0.5520 -0.2664
 5160SOL    HW127113   2.419   1.425   9.573 -0.4164 -1.4240 -2.1327
 5160SOL    HW227114   2.543   1.448   9.650 -0.7492 -1.6657  0.6990
 5161SOL     OW27115   3.616   4.731   1.839  0.1874 -0.2683 -0.4137
 5161SOL    HW127116   3.704   4.697   1.825  0.4584 -1.0645  3.0923
 5161SOL    HW227117   3.572   4.646   1.837 -2.8943  1.3244 -0.1185
 5162SOL     OW27118   3.258   3.895   3.208  0.0353  0.1569  0.2837
 5162SOL    HW127119   3.264   3.814   3.158 -1.3738 -0.5567  1.3001
 5162SOL    HW227120   3.308   3.873   3.286 -1.1850 -1.0677  0.7052
 5163SOL     OW27121   3.694   2.375  14.854 -0.1424  0.0115  0.2548
 5163SOL    HW127122   3.786   2.353  14.840 -0.0763 -0.6231  1.6357
 5163SOL    HW227123   3.696   2.467  14.880 -0.6031  0.1996 -0.3754
 5164SOL     OW27124   2.590   3.733   5.872 -0.2032  0.3944  0.3198
 5164SOL    HW127125   2.642   3.653   5.882  0.7343  0.9721  0.1210
 5164SOL    HW227126   2.544   3.711   5.792  1.4676 -1.2191 -0.2004
 5165SOL     OW27127   0.967   2.404   1.034 -0.1521  0.4623  0.5197
 5165SOL    HW127128   1.030   2.355   0.981 -0.2266  1.3215 -0.3626
 5165SOL    HW227129   0.931   2.333   1.086 -0.1078 -0.8034 -1.1740
 5166SOL     OW27130   4.588   0.492   4.662 -0.7011  0.0023 -0.7441
 5166SOL    HW127131   4.578   0.544   4.741 -1.2515 -1.0196 -0.1420
 5166SOL    HW227132   4.681   0.471   4.661 -0.9210 -1.0953  1.4086
 5167SOL     OW27133   2.673   3.744   3.072  0.6177  0.1762  0.2268
 5167SOL    HW127134   2.718   3.750   3.156 -1.7320  0.9408  1.4172
 5167SOL    HW227135   2.738   3.703   3.014 -0.8431 -2.3836  0.3882
 5168SOL     OW27136   4.290   0.130   8.938  0.1621  0.6448  0.1409
 5168SOL    HW127137   4.314   0.194   8.872 -0.4342 -0.2278 -0.9221
 5168SOL    HW227138   4.352   0.146   9.009 -0.2439  0.4458  0.5423
 5169SOL     OW27139   1.744   2.153  16.979  0.0620 -0.0611 -0.3695
 5169SOL    HW127140   1.732   2.196  17.064  1.5266 -2.0505  0.8331
 5169SOL    HW227141   1.658   2.115  16.963  0.2119 -1.0236  1.1301
 5170SOL     OW27142   3.169   2.353   1.572  0.1074  0.4706 -0.0297
 5170SOL    HW127143   3.146   2.274   1.622  3.4003  0.2971  1.1911
 5170SOL    HW227144   3.102   2.350   1.503 -1.3474 -0.3233  1.4118
 5171SOL     OW27145   4.661   0.227   4.073  0.6441 -0.4662  0.4210
 5171SOL    HW127146   4.660   0.150   4.016  1.3733 -0.9722  1.1047
 5171SOL    HW227147   4.616   0.189   4.149 -0.8771 -1.6467 -1.0640
 5172SOL     OW27148   2.883   3.999   5.541  0.3347 -0.5628 -0.3449
 5172SOL    HW127149   2.860   3.921   5.491  1.1795 -1.1911  0.2453
 5172SOL    HW227150   2.907   3.950   5.619 -2.3227 -1.8222 -0.3263
 5173SOL     OW27151   3.760   3.924  16.387 -0.0884 -0.1801  0.3586
 5173SOL    HW127152   3.737   3.856  16.323 -0.0856 -0.5030  0.6988
 5173SOL    HW227153   3.853   3.936  16.365  0.2774 -1.3116  1.2710
 5174SOL     OW27154   3.949   0.473   5.790  0.1876  0.5124 -0.2861
 5174SOL    HW127155   3.865   0.511   5.814 -1.1972 -2.2032 -0.7953
 5174SOL    HW227156   3.933   0.452   5.698  1.0399 -1.3692 -0.0080
 5175SOL     OW27157   4.447   2.741  17.701 -0.2972 -0.5402 -0.2589
 5175SOL    HW127158   4.435   2.653  17.664 -0.5218 -0.8903  0.6176
 5175SOL    HW227159   4.391   2.799  17.650 -0.1567  0.4474  0.7129
 5176SOL     OW27160   2.427   2.951   0.011  0.4427  0.4267  0.0026
 5176SOL    HW127161   2.495   2.984  17.681  0.5750  1.6477  0.8671
 5176SOL    HW227162   2.380   3.029   0.040 -1.4608  0.0833 -2.1089
 5177SOL     OW27163   3.863   2.431   5.392 -0.2179  0.2862 -0.1973
 5177SOL    HW127164   3.920   2.485   5.446 -1.2272  1.9834 -0.8043
 5177SOL    HW227165   3.866   2.348   5.438  1.7329  1.1736  1.2694
 5178SOL     OW27166   0.364   1.426  17.618  0.2083  0.0863 -0.1109
 5178SOL    HW127167   0.421   1.492  17.579  0.9798 -2.0827 -2.6115
 5178SOL    HW227168   0.314   1.400  17.541  0.7607 -4.0112  0.9302
 5179SOL     OW27169   3.624   1.811  12.040 -0.3990  0.6564  0.0963
 5179SOL    HW127170   3.655   1.735  12.090  1.3075  0.6258 -0.9797
 5179SOL    HW227171   3.670   1.884  12.081  0.6779  0.3433 -0.5452
 5180SOL     OW27172   0.946   3.967  10.803 -0.4182  0.0236  0.3224
 5180SOL    HW127173   0.954   3.901  10.735  1.3926 -0.8528  1.3945
 5180SOL    HW227174   0.860   3.945  10.840  0.5853 -0.4808  2.3782
 5181SOL     OW27175   2.912   1.792  14.141 -0.4803  0.1515 -0.0855
 5181SOL    HW127176   2.885   1.720  14.085 -0.5327  0.9655 -1.1037
 5181SOL    HW227177   2.981   1.748  14.189 -0.5016  1.2879  0.9933
 5182SOL     OW27178   2.544   1.770   8.018  0.1320  0.3505  0.1237
 5182SOL    HW127179   2.614   1.829   7.989  0.7978  0.9474  2.8820
 5182SOL    HW227180   2.479   1.786   7.950 -0.3524  1.1073  0.7618
 5183SOL     OW27181   0.377   3.319   5.620 -0.2878  0.1682 -0.5872
 5183SOL    HW127182   0.291   3.281   5.639  0.0022 -0.0838  0.2462
 5183SOL    HW227183   0.424   3.302   5.702  0.9481  2.7078 -0.7593
 5184SOL     OW27184   1.502   1.424   3.055  0.1554 -0.1518  0.1195
 5184SOL    HW127185   1.547   1.350   3.017 -0.9515 -1.1063  0.6568
 5184SOL    HW227186   1.447   1.388   3.125 -1.8481 -0.0940 -1.4058
 5185SOL     OW27187   0.636   1.253   6.751 -0.7350 -0.3634 -0.0505
 5185SOL    HW127188   0.694   1.326   6.730 -3.1114  1.1854 -1.1901
 5185SOL    HW227189   0.591   1.256   6.666 -0.9907 -0.4486  0.0819
 5186SOL     OW27190   2.807   4.714   8.459 -0.4328 -0.3611 -0.3094
 5186SOL    HW127191   2.791   4.621   8.442 -1.1094 -0.2650 -0.2081
 5186SOL    HW227192   2.831   4.718   8.551 -0.5532 -3.2535 -0.1502
 5187SOL     OW27193   3.981   0.615  12.144  0.0390  0.6886 -0.6919
 5187SOL    HW127194   3.919   0.580  12.081 -0.4444 -0.8742  0.6534
 5187SOL    HW227195   4.011   0.691  12.094 -0.5525  0.8746 -0.7565
 5188SOL     OW27196   1.642   1.213   8.194  0.4699  0.2332 -0.1869
 5188SOL    HW127197   1.549   1.219   8.216  0.5228  0.6024 -0.0651
 5188SOL    HW227198   1.663   1.137   8.248 -0.0553 -0.2220 -0.6251
 5189SOL     OW27199   4.285   4.662   8.489 -0.0492 -0.0984  0.7648
 5189SOL    HW127200   4.326   4.665   8.576  0.5417 -0.6765  0.5056
 5189SOL    HW227201   4.294   0.022   8.464 -2.7141 -0.6132 -2.1425
 5190SOL     OW27202   0.663   0.033   2.250 -0.0761 -0.1142  0.2696
 5190SOL    HW127203   0.660   4.692   2.311  2.9141  0.3029  0.9254
 5190SOL    HW227204   0.742   0.079   2.279 -0.0837  0.2401 -0.2560
 5191SOL     OW27205   4.495   4.447   5.500  0.0258 -0.2714  0.6432
 5191SOL    HW127206   4.439   4.377   5.468  0.2418 -0.0186 -0.2985
 5191SOL    HW227207   4.431   4.517   5.511 -1.4759 -1.7105  0.9517
 5192SOL     OW27208   0.263   2.181  10.734 -0.5082  0.4774  0.2743
 5192SOL    HW127209   0.333   2.117  10.748  0.1601  1.0342 -0.5027
 5192SOL    HW227210   0.221   2.196  10.818  0.1806  0.2996  0.6471
 5193SOL     OW27211   3.820   1.575  10.643  0.4642  0.0136 -0.1969
 5193SOL    HW127212   3.871   1.630  10.584 -1.3075  1.0150 -0.8214
 5193SOL    HW227213   3.728   1.587  10.616  0.3338  2.2085  1.1870
 5194SOL     OW27214   3.394   4.461   5.027  0.5362 -0.2635 -0.9317
 5194SOL    HW127215   3.419   4.380   5.071 -2.2509 -1.5536 -1.7616
 5194SOL    HW227216   3.300   4.447   5.028  0.7260 -1.6128 -2.2372
 5195SOL     OW27217   3.066   3.367   4.007 -0.0062  0.0988 -0.0594
 5195SOL    HW127218   3.048   3.335   4.095 -0.5567 -0.6170 -0.4216
 5195SOL    HW227219   3.147   3.416   4.021  0.2891 -0.1611 -0.8190
 5196SOL     OW27220   1.630   2.562   8.186 -0.5545  0.6050 -0.4468
 5196SOL    HW127221   1.592   2.502   8.122 -0.3316 -0.3330  0.2822
 5196SOL    HW227222   1.659   2.635   8.132  0.8929 -0.8808 -1.6859
 5197SOL     OW27223   1.703   3.973   2.262 -0.6148  0.1938  0.0783
 5197SOL    HW127224   1.781   3.989   2.314 -1.0495 -1.5345  1.2560
 5197SOL    HW227225   1.642   3.971   2.335  1.0589  0.7579  1.4845
 5198SOL     OW27226   3.415   2.647   6.728 -0.0395 -0.0503 -0.1641
 5198SOL    HW127227   3.488   2.599   6.767 -1.0452 -1.9788 -0.6396
 5198SOL    HW227228   3.343   2.584   6.730 -0.2994  0.2970  1.0157
 5199SOL     OW27229   1.184   0.635  13.885 -0.0953 -0.2167  0.2009
 5199SOL    HW127230   1.195   0.603  13.974 -0.0847  0.7888  0.5572
 5199SOL    HW227231   1.249   0.580  13.841  0.3445  0.1083  0.4518
 5200SOL     OW27232   1.334   2.269   6.772  0.4709  0.0385 -0.6363
 5200SOL    HW127233   1.278   2.299   6.700 -1.0291  2.2382  1.4503
 5200SOL    HW227234   1.388   2.209   6.721  1.8250  0.2025  0.6354
 5201SOL     OW27235   0.579   3.966   0.478 -0.4707 -0.1258 -0.1591
 5201SOL    HW127236   0.527   3.997   0.404  0.5903 -1.0575 -1.3054
 5201SOL    HW227237   0.619   4.050   0.499 -0.6586  0.1185 -0.8051
 5202SOL     OW27238   3.493   0.465   4.033  0.1904  0.0220 -0.0888
 5202SOL    HW127239   3.443   0.391   4.067  0.6600 -0.4649 -0.4679
 5202SOL    HW227240   3.440   0.498   3.961 -0.1843 -2.5275 -0.9572
 5203SOL     OW27241   1.708   1.565   1.852 -0.7158  0.4824  0.3039
 5203SOL    HW127242   1.648   1.555   1.926 -0.0366  1.4924  1.0052
 5203SOL    HW227243   1.653   1.517   1.790 -0.5584  1.8968 -0.9366
 5204SOL     OW27244   0.462   0.199   7.447 -0.2477 -0.2839 -0.3144
 5204SOL    HW127245   0.367   0.195   7.443 -0.3966 -1.2391  4.2423
 5204SOL    HW227246   0.488   0.218   7.357 -0.6544 -0.6545 -0.5083
 5205SOL     OW27247   4.331   3.686   7.994  0.2697 -0.1479 -0.2153
 5205SOL    HW127248   4.273   3.727   8.059  0.5299  0.7437 -0.5409
 5205SOL    HW227249   4.336   3.756   7.929  1.0608  0.6506  0.6931
 5206SOL     OW27250   0.749   0.938   5.246 -0.2205  0.1338 -0.2994
 5206SOL    HW127251   0.663   0.957   5.208 -0.4317 -0.3834 -0.0803
 5206SOL    HW227252   0.799   1.007   5.201 -1.5148  0.1470 -1.7032
 5207SOL     OW27253   3.695   0.093   3.691  0.0790  0.1345 -0.2786
 5207SOL    HW127254   3.746   0.151   3.747  0.4442  0.3201 -0.8053
 5207SOL    HW227255   3.606   0.126   3.693  1.0979  2.6694  2.9950
 5208SOL     OW27256   2.367   4.124   8.595  0.3600 -0.6470  0.0659
 5208SOL    HW127257   2.302   4.186   8.628 -1.5796 -1.5860 -1.9565
 5208SOL    HW227258   2.372   4.165   8.508  1.4281  0.6121  0.7140
 5209SOL     OW27259   1.309   2.488   2.010 -0.3224  0.3448 -0.0681
 5209SOL    HW127260   1.305   2.564   1.953 -0.3914 -1.2341 -2.1459
 5209SOL    HW227261   1.330   2.419   1.947 -2.6096 -0.5641  0.1703
 5210SOL     OW27262   1.785   4.682   9.035  0.5442 -0.0361  0.3164
 5210SOL    HW127263   1.716   4.669   8.970 -0.1938 -0.2752  1.1509
 5210SOL    HW227264   1.791   0.044   9.017 -1.1117 -0.0577 -0.3177
 5211SOL     OW27265   4.504   4.702   6.549  0.4928  0.0146 -0.0701
 5211SOL    HW127266   4.461   0.021   6.481  1.2230  1.0928  0.2609
 5211SOL    HW227267   4.581   4.692   6.492 -0.1854 -0.4247 -0.8952
 5212SOL     OW27268   3.081   4.144   9.685 -0.6321 -0.1449 -0.6933
 5212SOL    HW127269   3.076   4.180   9.596  1.0054 -2.6223 -1.7840
 5212SOL    HW227270   3.173   4.135   9.712 -0.6334 -0.7433 -0.8887
 5213SOL     OW27271   3.530   2.563   4.567 -0.7081  0.1058 -0.2820
 5213SOL    HW127272   3.474   2.488   4.585  1.2997 -1.3934 -0.2397
 5213SOL    HW227273   3.579   2.558   4.649 -0.0815  1.1388 -0.5924
 5214SOL     OW27274   3.034   2.894   6.178  0.5101 -0.2104  0.2081
 5214SOL    HW127275   2.973   2.915   6.107  1.5757  0.3763 -0.5361
 5214SOL    HW227276   3.111   2.884   6.122 -1.3692  2.5533 -2.8731
 5215SOL     OW27277   1.164   4.315   3.203  0.5692 -0.4587  0.5010
 5215SOL    HW127278   1.181   4.323   3.109  1.5512 -3.7884  0.3829
 5215SOL    HW227279   1.226   4.244   3.219  0.2077 -1.2919 -1.8142
 5216SOL     OW27280   3.391   3.119   0.600 -0.4533 -0.0650 -0.3908
 5216SOL    HW127281   3.352   3.185   0.658 -1.0817 -0.2668 -0.5789
 5216SOL    HW227282   3.343   3.037   0.611 -0.9733  0.1318 -1.2178
 5217SOL     OW27283   0.797   3.765  12.004  0.0926 -0.2644 -0.1389
 5217SOL    HW127284   0.844   3.837  12.046 -1.5933  0.5844  0.3006
 5217SOL    HW227285   0.705   3.781  12.024  0.4946  1.0299  0.7147
 5218SOL     OW27286   1.769   0.068   5.300 -0.3523  1.0737 -0.0406
 5218SOL    HW127287   1.841   0.085   5.238  0.1628  0.8712  0.5004
 5218SOL    HW227288   1.796   0.109   5.382 -0.3929  1.1618 -0.0720
 5219SOL     OW27289   1.357   0.834   3.053 -0.3638  0.2846 -0.2071
 5219SOL    HW127290   1.446   0.831   3.018 -1.0527  1.1790 -1.9808
 5219SOL    HW227291   1.333   0.741   3.054 -1.5007  0.5722 -1.6179
 5220SOL     OW27292   4.528   0.968   6.369  0.4525  0.1343 -0.4383
 5220SOL    HW127293   4.527   1.063   6.377  0.8570  0.0652  0.4390
 5220SOL    HW227294   4.599   0.945   6.429  1.1365 -0.6289 -1.5488
 5221SOL     OW27295   1.110   3.367   1.679 -0.0505  1.0040 -0.9859
 5221SOL    HW127296   1.057   3.427   1.731  0.0792 -1.0364  1.4991
 5221SOL    HW227297   1.133   3.441   1.621  3.6706  2.1600  1.9937
 5222SOL     OW27298   2.607   0.058   3.907  0.1100 -0.0172 -0.5471
 5222SOL    HW127299   2.581   0.072   3.817  0.4289  2.1314 -0.2876
 5222SOL    HW227300   2.636   4.698   3.907 -2.6894 -0.9108  1.4981
 5223SOL     OW27301   4.153   0.305  17.545 -0.3907 -0.9161  0.4184
 5223SOL    HW127302   4.229   0.363  17.547 -1.6533  0.7804 -0.6261
 5223SOL    HW227303   4.164   0.268  17.457  0.1429 -0.2876  0.2166
 5224SOL     OW27304   2.453   1.032   9.205 -0.5120 -0.1862  0.4048
 5224SOL    HW127305   2.523   1.049   9.268  1.8973  0.2795 -2.4069
 5224SOL    HW227306   2.405   1.115   9.208  1.5910  1.1030 -1.1192
 5225SOL     OW27307   3.412   1.181  17.695 -0.4313 -0.1197 -0.9814
 5225SOL    HW127308   3.390   1.157  17.605 -0.7019  1.6835 -1.3927
 5225SOL    HW227309   3.406   1.276  17.686  2.0442  0.3490  2.2916
 5226SOL     OW27310   3.600   1.600  15.074  0.2098 -0.1452 -0.0972
 5226SOL    HW127311   3.512   1.622  15.044 -1.2346 -3.0891  1.9790
 5226SOL    HW227312   3.620   1.668  15.138  0.6636 -0.2487 -0.1314
 5227SOL     OW27313   4.162   2.589   3.123  0.3519  0.6599 -0.1368
 5227SOL    HW127314   4.191   2.520   3.063  0.9710 -1.4925  2.6142
 5227SOL    HW227315   4.069   2.567   3.130  0.7168 -0.5362  0.9947
 5228SOL     OW27316   1.031   3.533  10.710  0.3433  0.1837 -0.3640
 5228SOL    HW127317   1.095   3.603  10.694  1.7105 -0.7305  1.2166
 5228SOL    HW227318   0.983   3.524  10.627  1.0492 -0.4005 -0.7006
 5229SOL     OW27319   4.066   0.332  12.541  0.5119 -0.1146 -0.3632
 5229SOL    HW127320   4.046   0.357  12.632 -1.0612  1.0472 -1.0281
 5229SOL    HW227321   4.159   0.312  12.530  0.6854  0.7447 -0.4424
 5230SOL     OW27322   4.550   4.289   8.902  0.2258  0.8626  0.4372
 5230SOL    HW127323   4.624   4.316   8.957  0.7816  2.2729 -1.0126
 5230SOL    HW227324   4.538   4.203   8.944  1.0401  0.5799  0.0995
 5231SOL     OW27325   0.133   3.992  13.618 -0.5966  0.1457 -0.4382
 5231SOL    HW127326   0.044   4.019  13.644 -0.2116 -0.5690  1.6771
 5231SOL    HW227327   0.154   3.915  13.671 -1.0512  0.9224  0.8850
 5232SOL     OW27328   3.734   4.534   3.278 -0.0634  0.4449 -0.0797
 5232SOL    HW127329   3.696   4.525   3.191 -1.0929 -2.3481  0.6644
 5232SOL    HW227330   3.661   4.535   3.339  1.4866 -1.8088  1.8037
 5233SOL     OW27331   2.895   2.101   2.276  0.0250 -0.3976 -0.2981
 5233SOL    HW127332   2.957   2.113   2.348  0.2341  0.6868 -0.6569
 5233SOL    HW227333   2.811   2.106   2.323 -0.1283 -0.7318 -0.5357
 5234SOL     OW27334   0.021   3.045   2.972  0.5058 -0.2928 -0.4754
 5234SOL    HW127335   0.046   3.103   3.044 -1.9032 -1.3216  1.1717
 5234SOL    HW227336   0.099   2.990   2.973  0.0856 -0.9495 -2.4451
 5235SOL     OW27337   0.287   1.046   6.354 -0.0587  0.3475 -0.3545
 5235SOL    HW127338   0.242   1.046   6.438 -0.4315  0.0946 -0.5559
 5235SOL    HW227339   0.314   1.137   6.340 -0.1699  0.1887 -1.6616
 5236SOL     OW27340   1.933   2.917  13.851  0.2690  0.3523 -0.6483
 5236SOL    HW127341   1.992   2.898  13.924  1.0314  0.1775 -1.3106
 5236SOL    HW227342   1.975   2.992  13.809 -1.4316  1.8852  0.4288
 5237SOL     OW27343   1.404   3.860   0.570 -0.7625 -0.1366  0.0490
 5237SOL    HW127344   1.404   3.898   0.657  0.4819  0.9531 -0.4142
 5237SOL    HW227345   1.476   3.797   0.574 -1.2578 -0.7538 -0.7644
 5238SOL     OW27346   4.194   1.731   6.843 -0.4284  0.1032  0.3711
 5238SOL    HW127347   4.186   1.766   6.754 -1.7713 -0.6705  0.1826
 5238SOL    HW227348   4.137   1.656   6.826 -2.2390  1.2797  1.2299
 5239SOL     OW27349   3.344   1.036   5.091  0.4075  0.0070 -0.3121
 5239SOL    HW127350   3.257   0.998   5.095  0.2832  0.0402 -3.2759
 5239SOL    HW227351   3.409   0.984   5.043  0.0820 -1.3565  0.7182
 5240SOL     OW27352   3.232   1.374   3.697  0.0481 -0.6701  0.0725
 5240SOL    HW127353   3.230   1.415   3.610  0.3171 -0.3633  0.2069
 5240SOL    HW227354   3.310   1.319   3.692  2.6571  2.8500  1.8313
 5241SOL     OW27355   3.031   3.476   3.116 -0.6512 -0.2575 -0.2653
 5241SOL    HW127356   3.027   3.500   3.209  1.0809  0.0693 -0.2824
 5241SOL    HW227357   3.016   3.381   3.115  0.3264 -0.3955 -1.3677
 5242SOL     OW27358   1.632   4.260   2.526 -0.4522 -0.3982  0.3813
 5242SOL    HW127359   1.592   4.298   2.604 -0.4746  0.1626  0.0973
 5242SOL    HW227360   1.556   4.265   2.469  0.6068  1.9679 -0.8640
 5243SOL     OW27361   1.637   1.840   1.036  0.1542 -0.1592  0.0433
 5243SOL    HW127362   1.619   1.880   0.951 -0.5884  1.2816  0.8630
 5243SOL    HW227363   1.551   1.805   1.057 -1.2494  3.3618  0.2499
 5244SOL     OW27364   3.699   2.748   4.291 -0.0416  0.5033  0.6804
 5244SOL    HW127365   3.625   2.788   4.337 -0.1562 -0.5684  1.4221
 5244SOL    HW227366   3.649   2.685   4.238 -0.9565  1.7020  0.1251
 5245SOL     OW27367   2.365   3.809   6.580  0.3973  0.0963 -0.1261
 5245SOL    HW127368   2.382   3.830   6.488 -0.4588 -2.5860 -0.8886
 5245SOL    HW227369   2.275   3.839   6.591  0.1895 -1.3599  2.0885
 5246SOL     OW27370   2.834   0.129  16.710  0.0944  0.1246  0.4365
 5246SOL    HW127371   2.874   0.140  16.797  1.2637  1.1273 -0.2320
 5246SOL    HW227372   2.810   0.219  16.691 -0.1830  0.2994  1.6222
 5247SOL     OW27373   4.239   0.150  10.816 -0.3311  1.1380  0.5732
 5247SOL    HW127374   4.275   0.177  10.732 -2.7307  0.2590 -0.7303
 5247SOL    HW227375   4.144   0.142  10.805 -0.2389  0.1539  0.4791
 5248SOL     OW27376   3.148   3.070   8.029 -0.0535 -0.5558 -0.4887
 5248SOL    HW127377   3.055   3.082   8.050  0.7510  2.2852  1.3779
 5248SOL    HW227378   3.151   3.083   7.935  1.6659 -2.0243 -0.6541
 5249SOL     OW27379   4.173   4.544   2.982 -0.7125  0.5556 -0.0352
 5249SOL    HW127380   4.259   4.563   2.944  1.0051 -2.4057  2.3445
 5249SOL    HW227381   4.122   4.515   2.906  1.7990  0.1513 -1.5506
 5250SOL     OW27382   0.561   0.656   7.372 -0.2528  0.3788  0.2108
 5250SOL    HW127383   0.654   0.677   7.371  0.0664 -1.0418 -0.3418
 5250SOL    HW227384   0.545   0.619   7.285 -1.4360 -0.1692  0.6664
 5251SOL     OW27385   1.937   1.860   4.836  0.1747  0.3755 -0.2925
 5251SOL    HW127386   1.934   1.888   4.745 -2.6766 -0.6361 -0.4961
 5251SOL    HW227387   2.009   1.797   4.838 -0.9357 -0.9537 -2.4968
 5252SOL     OW27388   2.536   0.994  17.202 -0.5784 -0.3226  0.2423
 5252SOL    HW127389   2.468   1.022  17.263 -1.2699  1.1796 -1.1910
 5252SOL    HW227390   2.585   1.075  17.186 -2.0184  0.2492 -1.3536
 5253SOL     OW27391   4.231   1.308   3.697  0.6951 -0.0481  0.5854
 5253SOL    HW127392   4.193   1.344   3.617 -2.5220 -1.4009  1.4953
 5253SOL    HW227393   4.202   1.217   3.694  1.8743 -0.3121 -2.9720
 5254SOL     OW27394   1.399   1.635   1.580 -0.8465  0.2699 -0.8092
 5254SOL    HW127395   1.473   1.694   1.589 -0.2443 -0.6144  0.1491
 5254SOL    HW227396   1.437   1.557   1.539 -4.1593 -1.1907 -1.1298
 5255SOL     OW27397   2.650   3.571  15.564 -0.7469 -0.0267  0.5968
 5255SOL    HW127398   2.739   3.552  15.537 -0.6379  0.6248  0.4789
 5255SOL    HW227399   2.623   3.633  15.496 -0.1243  1.1908  1.4554
 5256SOL     OW27400   2.460   1.228  15.901 -0.4744  0.2821 -0.8639
 5256SOL    HW127401   2.432   1.287  15.831  1.0113  1.2326 -0.6522
 5256SOL    HW227402   2.491   1.288  15.968  0.3728  0.9194 -1.8244
 5257SOL     OW27403   0.803   3.194   7.283 -0.3091  0.1397  0.0482
 5257SOL    HW127404   0.790   3.271   7.337 -0.6230 -0.5819  1.0077
 5257SOL    HW227405   0.825   3.132   7.353  1.3476  0.3686 -0.2605
 5258SOL     OW27406   0.513   2.890   8.505 -0.0840  0.1890 -0.4779
 5258SOL    HW127407   0.446   2.826   8.480  0.3057 -0.6904  0.7366
 5258SOL    HW227408   0.489   2.894   8.598 -2.1772 -1.9245 -0.9273
 5259SOL     OW27409   1.685   0.524  11.367  0.1867 -0.3907  0.4467
 5259SOL    HW127410   1.741   0.485  11.299  2.8189  2.4071  1.0054
 5259SOL    HW227411   1.747   0.557  11.432 -0.5501 -1.2278  1.5706
 5260SOL     OW27412   0.106   4.194   9.364 -0.0180 -0.1040 -0.0941
 5260SOL    HW127413   0.120   4.115   9.416  0.1566  0.4472  0.6992
 5260SOL    HW227414   0.121   4.154   9.279  0.9466 -0.0714  0.0542
 5261SOL     OW27415   1.593   2.843  15.203  0.1227 -0.0941  0.0014
 5261SOL    HW127416   1.577   2.814  15.113  1.6633  0.3860 -0.4292
 5261SOL    HW227417   1.554   2.930  15.210  1.5758  0.5180  0.4612
 5262SOL     OW27418   2.497   3.572   6.270  0.1783  0.3689  0.6674
 5262SOL    HW127419   2.490   3.554   6.364  0.1929  0.8562  0.7651
 5262SOL    HW227420   2.565   3.513   6.238  1.7605  3.4518 -1.6630
 5263SOL     OW27421   1.921   1.305   8.466 -0.0731 -0.7124 -0.2493
 5263SOL    HW127422   1.868   1.284   8.543  2.5516 -0.2545  1.6695
 5263SOL    HW227423   1.917   1.401   8.468  0.1428 -0.7213  0.6242
 5264SOL     OW27424   4.430   2.283   3.614  0.4117  0.2346 -0.1914
 5264SOL    HW127425   4.372   2.239   3.552  0.4881 -1.5742  1.0265
 5264SOL    HW227426   4.395   2.285   3.703  0.5054 -0.3718 -0.1410
 5265SOL     OW27427   0.905   4.435   2.174 -0.5596  0.1229  0.1846
 5265SOL    HW127428   0.886   4.501   2.107 -1.8482 -0.9197 -0.4888
 5265SOL    HW227429   0.817   4.442   2.211 -0.2720 -0.1152  0.8984
 5266SOL     OW27430   0.024   3.992   3.775  0.5771  0.8974 -0.3468
 5266SOL    HW127431   4.676   4.039   3.755  0.1469  0.2878 -0.0823
 5266SOL    HW227432   0.073   4.027   3.700  2.5492 -0.2913  0.3854
 5267SOL     OW27433   4.474   0.918   4.515  0.2443  0.3394  0.0269
 5267SOL    HW127434   4.470   1.013   4.525 -4.1276  0.2312 -0.6924
 5267SOL    HW227435   4.533   0.892   4.586 -1.0864  1.2190  1.4515
 5268SOL     OW27436   1.610   2.448   2.047  0.4899 -0.8893 -0.3345
 5268SOL    HW127437   1.536   2.386   2.040  0.9762 -1.2820 -2.0584
 5268SOL    HW227438   1.629   2.430   2.139  1.3593  0.3018 -0.2921
 5269SOL     OW27439   2.362   0.842  11.563 -0.4420  0.0829 -0.2642
 5269SOL    HW127440   2.371   0.889  11.646 -0.9726 -1.0888  0.4432
 5269SOL    HW227441   2.430   0.887  11.513 -0.6284 -1.1915 -1.6666
 5270SOL     OW27442   2.852   4.104   4.577  0.2018  0.0111  0.0538
 5270SOL    HW127443   2.766   4.132   4.608 -1.9601 -3.7811 -2.5345
 5270SOL    HW227444   2.866   4.180   4.519  0.4897 -0.1068 -0.0330
 5271SOL     OW27445   0.403   2.774   2.824 -0.2194  0.0494  0.7698
 5271SOL    HW127446   0.432   2.725   2.901 -0.2581 -0.4728  0.4559
 5271SOL    HW227447   0.440   2.716   2.758 -0.1910 -1.3558  2.0192
 5272SOL     OW27448   1.720   1.193  11.614 -0.3696 -0.5105  0.0307
 5272SOL    HW127449   1.712   1.280  11.653  1.8371 -0.1858 -0.2444
 5272SOL    HW227450   1.638   1.162  11.654  2.3183 -1.9466  4.4748
 5273SOL     OW27451   1.475   1.654  10.613 -0.2677  0.1720 -0.1151
 5273SOL    HW127452   1.392   1.695  10.587  0.1237  1.2768  0.3633
 5273SOL    HW227453   1.447   1.608  10.692 -0.8874 -3.1107 -2.2720
 5274SOL     OW27454   4.469   0.545   6.757 -0.6620  0.1479  0.5644
 5274SOL    HW127455   4.486   0.572   6.667 -0.0067 -0.3785  0.5300
 5274SOL    HW227456   4.487   0.451   6.750  2.3747  0.7991  0.0212
 5275SOL     OW27457   1.159   3.457   7.058 -0.1502  0.3958  0.2399
 5275SOL    HW127458   1.123   3.377   7.019  2.1924  0.1457 -1.4228
 5275SOL    HW227459   1.079   3.494   7.094 -1.3071 -0.3505 -1.5917
 5276SOL     OW27460   3.617   4.199   5.061 -0.7783 -0.5279 -0.1120
 5276SOL    HW127461   3.596   4.202   4.967 -2.4432 -1.8427  0.2084
 5276SOL    HW227462   3.528   4.196   5.097 -0.9297  0.8202 -0.3770
 5277SOL     OW27463   1.676   2.599   9.026 -0.3072 -0.1376  0.3532
 5277SOL    HW127464   1.627   2.618   9.106 -2.6568  3.3241 -1.9226
 5277SOL    HW227465   1.627   2.520   9.007 -0.9041 -0.5622  3.7122
 5278SOL     OW27466   2.246   1.309   9.903  0.3919  0.3082 -0.0749
 5278SOL    HW127467   2.151   1.320   9.908  0.4673  1.8331 -2.0954
 5278SOL    HW227468   2.270   1.314   9.996 -3.8665  3.6381  0.8133
 5279SOL     OW27469   2.021   3.953  13.917  0.4788 -0.3281 -0.3470
 5279SOL    HW127470   2.018   3.944  14.013  0.5445 -1.2670 -0.4422
 5279SOL    HW227471   2.071   4.034  13.907  0.3139 -0.4429 -2.0707
 5280SOL     OW27472   1.162   0.175  16.980 -0.9131 -0.6973  0.1120
 5280SOL    HW127473   1.100   0.246  16.999  0.3048  0.3174  0.3036
 5280SOL    HW227474   1.211   0.209  16.906  1.1705  1.0722  2.2770
 5281SOL     OW27475   1.131   4.669   3.401  0.0199  0.3287 -0.0002
 5281SOL    HW127476   1.044   4.655   3.364 -0.3014  0.2413  0.7756
 5281SOL    HW227477   1.117   4.712   3.485 -1.5562 -1.5431  0.7039
 5282SOL     OW27478   0.317   2.268   7.370  0.0811 -0.0761  0.2463
 5282SOL    HW127479   0.289   2.356   7.396 -2.9984 -1.0136  0.1143
 5282SOL    HW227480   0.397   2.256   7.420 -1.5681  0.1449  2.9594
 5283SOL     OW27481   4.535   4.490  15.090  0.3284  0.2824  0.1375
 5283SOL    HW127482   4.605   4.523  15.147  1.0020 -1.2142  0.1690
 5283SOL    HW227483   4.478   4.562  15.062  1.6955  1.3512  0.0686
 5284SOL     OW27484   2.976   0.376   6.425 -0.4365  0.7239 -0.7084
 5284SOL    HW127485   3.061   0.344   6.456 -0.1932  0.4247 -1.6787
 5284SOL    HW227486   2.961   0.448   6.487  1.3641 -0.4661  1.1033
 5285SOL     OW27487   2.478   2.005   5.304  0.8291 -0.1344 -0.4205
 5285SOL    HW127488   2.495   2.055   5.224  0.4088 -0.3750 -0.6620
 5285SOL    HW227489   2.430   1.929   5.270  0.6789 -0.3788  0.3199
 5286SOL     OW27490   4.394   4.102   5.554 -0.0248 -0.4637  0.5283
 5286SOL    HW127491   4.335   4.173   5.528  0.5130 -1.0006 -2.1552
 5286SOL    HW227492   4.367   4.023   5.506 -2.6786 -0.2113  1.6075
 5287SOL     OW27493   1.459   1.149   9.408 -0.4035  0.3495  0.3667
 5287SOL    HW127494   1.554   1.136   9.405 -0.7121 -1.7755  0.0669
 5287SOL    HW227495   1.428   1.059   9.412 -0.1116  0.2062 -0.5844
 5288SOL     OW27496   2.663   3.954   1.833  1.0992  0.4546 -0.3910
 5288SOL    HW127497   2.691   3.909   1.913  0.8910  1.0357  0.0099
 5288SOL    HW227498   2.736   3.938   1.773  2.4491  0.5904  1.2297
 5289SOL     OW27499   3.682   3.852  11.561 -0.5162  0.0553  0.1313
 5289SOL    HW127500   3.775   3.873  11.562 -1.0654  2.5555 -0.9015
 5289SOL    HW227501   3.675   3.869  11.655  1.1148 -2.8388  0.7541
 5290SOL     OW27502   1.559   3.986   7.407 -0.2491  0.7065 -0.0553
 5290SOL    HW127503   1.480   4.020   7.365 -0.7881 -0.1434  0.2660
 5290SOL    HW227504   1.532   3.970   7.497  1.3335  0.1145  0.3028
 5291SOL     OW27505   4.397   0.320   5.650  0.2075  0.4018 -0.4788
 5291SOL    HW127506   4.304   0.299   5.640  0.0535  0.2097  1.3883
 5291SOL    HW227507   4.408   0.380   5.576  1.1724  0.8134  0.0034
 5292SOL     OW27508   0.769   3.354   3.564  0.5334  0.1829 -0.4768
 5292SOL    HW127509   0.797   3.317   3.480  0.1589 -1.5061  0.1517
 5292SOL    HW227510   0.830   3.322   3.630 -1.6887 -0.4783  1.2343
 5293SOL     OW27511   1.294   0.110   3.258  0.5990 -0.2101  0.0626
 5293SOL    HW127512   1.224   0.059   3.300 -0.0165  0.1175 -0.5670
 5293SOL    HW227513   1.341   0.048   3.202 -1.6533 -1.9147  0.0548
 5294SOL     OW27514   4.271   3.387  10.012  0.0658 -0.0729  0.0571
 5294SOL    HW127515   4.207   3.409  10.079  0.2227 -1.6503  0.7188
 5294SOL    HW227516   4.316   3.313  10.053  1.8373  0.4003 -1.0170
 5295SOL     OW27517   0.424   4.672   7.543 -0.0658  0.1442 -0.8197
 5295SOL    HW127518   0.455   0.014   7.491  0.5310 -1.3678 -2.6595
 5295SOL    HW227519   0.458   4.612   7.477  2.3631  2.0559 -1.3109
 5296SOL     OW27520   1.661   2.858  17.415  0.1961 -0.0418 -0.0305
 5296SOL    HW127521   1.712   2.882  17.338 -0.4019 -2.2315 -1.1097
 5296SOL    HW227522   1.727   2.831  17.479 -2.1214  0.0369  2.3975
 5297SOL     OW27523   3.069   3.764   7.564 -0.1729 -0.4075 -0.5575
 5297SOL    HW127524   3.134   3.811   7.512  0.4298 -0.4222  0.1842
 5297SOL    HW227525   3.109   3.678   7.568  0.6256 -0.0077  0.0711
 5298SOL     OW27526   0.200   2.762   4.755  0.4833  0.8538 -0.2250
 5298SOL    HW127527   0.264   2.753   4.684 -0.7657 -0.0992 -1.2120
 5298SOL    HW227528   0.137   2.825   4.721 -0.9327 -0.1953  0.4829
 5299SOL     OW27529   4.175   0.362   1.005  0.1375 -0.3183  0.2319
 5299SOL    HW127530   4.120   0.370   1.082  0.1205  0.4545  0.1417
 5299SOL    HW227531   4.236   0.299   1.043  1.6790  0.2048 -1.3606
 5300SOL     OW27532   1.791   1.884   6.280 -0.4168 -0.3441  1.0233
 5300SOL    HW127533   1.774   1.818   6.348 -0.6358 -1.1885  0.1481
 5300SOL    HW227534   1.821   1.823   6.213  0.4448 -0.0541  1.1395
 5301SOL     OW27535   1.437   4.014   5.529 -0.1988  0.2817 -1.1134
 5301SOL    HW127536   1.517   3.967   5.553 -0.3591  0.6245  0.0884
 5301SOL    HW227537   1.377   3.942   5.510  2.0877 -2.3012  1.4879
 5302SOL     OW27538   3.708   4.186   8.188 -0.2253  0.5908 -0.0629
 5302SOL    HW127539   3.648   4.118   8.155  1.4815  0.5651 -3.1030
 5302SOL    HW227540   3.731   4.235   8.109  0.0315  1.5375  0.6036
 5303SOL     OW27541   0.848   2.299   7.379  0.4362  0.6834 -0.1364
 5303SOL    HW127542   0.875   2.225   7.326  0.3123  0.9504 -0.5734
 5303SOL    HW227543   0.924   2.354   7.357  0.4369  0.3665 -0.9184
 5304SOL     OW27544   1.592   0.928   4.172  0.6113  0.0322  0.0937
 5304SOL    HW127545   1.509   0.883   4.188  1.2684 -1.1247  0.2071
 5304SOL    HW227546   1.658   0.861   4.187  2.8643  2.3290  0.4434
 5305SOL     OW27547   2.665   1.356   4.558  0.2947 -0.4186 -0.2839
 5305SOL    HW127548   2.679   1.304   4.479  0.0098  0.7192 -1.0846
 5305SOL    HW227549   2.739   1.342   4.616 -0.1859 -1.4832  0.0770
 5306SOL     OW27550   4.217   3.305   6.395  0.3493 -0.1236  0.5002
 5306SOL    HW127551   4.162   3.381   6.377  1.4520  0.4648 -0.3598
 5306SOL    HW227552   4.268   3.305   6.314  0.2186  2.4421  0.4386
 5307SOL     OW27553   1.323   2.219   5.420  0.4873  0.1124 -0.5684
 5307SOL    HW127554   1.318   2.254   5.509  3.0850  2.5781 -1.4177
 5307SOL    HW227555   1.229   2.213   5.401 -0.2388  3.0658  2.0626
 5308SOL     OW27556   4.444   3.862  12.337 -0.1333  0.4487  0.5377
 5308SOL    HW127557   4.365   3.871  12.283 -0.0718  3.4085  0.9338
 5308SOL    HW227558   4.502   3.857  12.261  0.5000  1.1864  0.9780
 5309SOL     OW27559   1.251   0.378   6.400  0.3626 -0.5709  0.1027
 5309SOL    HW127560   1.206   0.329   6.469 -0.5360  0.2789  0.1244
 5309SOL    HW227561   1.278   0.455   6.450 -0.5710  0.0043 -0.2896
 5310SOL     OW27562   3.925   1.916   9.816  0.2859 -0.0498  0.0506
 5310SOL    HW127563   3.883   1.877   9.740 -0.2090 -1.3961  1.0045
 5310SOL    HW227564   3.912   1.849   9.884 -1.7719  1.5721  1.2375
 5311SOL     OW27565   3.273   4.642   9.158 -0.0796 -0.5163 -0.3081
 5311SOL    HW127566   3.203   4.577   9.154  1.9485 -2.6143 -1.4132
 5311SOL    HW227567   3.228   4.709   9.210 -0.8402 -2.2418  1.2710
 5312SOL     OW27568   2.607   2.270  16.808  0.3929 -0.0630  0.1964
 5312SOL    HW127569   2.558   2.307  16.735  0.2867 -0.8904 -0.1489
 5312SOL    HW227570   2.534   2.235  16.860 -1.1389  4.0016  0.7916
 5313SOL     OW27571   0.419   0.879   0.128 -0.5604  0.7432 -0.0957
 5313SOL    HW127572   0.399   0.785   0.122  1.5137  0.3142 -0.2221
 5313SOL    HW227573   0.510   0.872   0.158  0.2346 -2.0522 -3.0502
 5314SOL     OW27574   3.570   3.568   2.214  0.0988 -0.1985 -0.3098
 5314SOL    HW127575   3.588   3.641   2.155  1.4420 -2.5921 -2.8858
 5314SOL    HW227576   3.658   3.554   2.250 -0.1876  1.5381  1.0737
 5315SOL     OW27577   0.050   2.242   0.440 -0.4865 -0.0718 -0.5466
 5315SOL    HW127578   0.021   2.285   0.520 -0.6427  0.1198 -0.7067
 5315SOL    HW227579   0.143   2.258   0.454 -0.6092 -0.3330  0.5865
 5316SOL     OW27580   2.558   4.663   7.349  0.3592 -0.0940  0.5037
 5316SOL    HW127581   2.607   4.676   7.268  1.3467 -0.1501  1.0844
 5316SOL    HW227582   2.621   4.675   7.421 -0.1589  1.3643  0.7013
 5317SOL     OW27583   2.745   1.971  14.024 -0.6021  0.1295  0.2198
 5317SOL    HW127584   2.821   1.931  14.067  0.6341  2.9477  0.6625
 5317SOL    HW227585   2.772   1.958  13.933  0.5861  0.2045  0.5570
 5318SOL     OW27586   0.619   1.684   4.229 -0.1268  1.3001  0.4028
 5318SOL    HW127587   0.658   1.711   4.312  0.9413 -1.9386  0.9771
 5318SOL    HW227588   0.581   1.601   4.260  0.9468  0.7116  0.1646
 5319SOL     OW27589   1.988   0.372   2.751 -0.5355  0.3901 -0.5993
 5319SOL    HW127590   1.908   0.323   2.769  0.1264 -0.7726 -0.8536
 5319SOL    HW227591   2.030   0.303   2.701 -2.8295 -0.7889 -0.9061
 5320SOL     OW27592   0.533   2.259   7.532  0.4486 -0.5986 -0.1042
 5320SOL    HW127593   0.490   2.187   7.578 -1.0473  1.2252  1.3498
 5320SOL    HW227594   0.616   2.228   7.567  1.1174  1.1485 -0.1675
 5321SOL     OW27595   0.182   2.053   4.792 -0.4012  0.3165  0.2603
 5321SOL    HW127596   0.142   2.080   4.875 -0.6595  1.1432 -0.1367
 5321SOL    HW227597   0.160   1.960   4.798 -0.2044  0.3846  2.1009
 5322SOL     OW27598   3.375   1.128   0.934  0.0645  0.7628  0.2982
 5322SOL    HW127599   3.289   1.151   0.969 -0.1651 -0.8632  0.8158
 5322SOL    HW227600   3.378   1.169   0.848  0.1337 -1.2509 -0.6597
 5323SOL     OW27601   3.951   0.154  15.843  0.5339 -0.2705  0.0389
 5323SOL    HW127602   4.031   0.122  15.802 -0.6552  0.9250 -3.1978
 5323SOL    HW227603   3.961   0.249  15.850 -2.3697  0.1477 -1.1789
 5324SOL     OW27604   2.296   3.817   6.006 -0.4758 -0.2650  0.3646
 5324SOL    HW127605   2.231   3.784   6.068  1.7947 -0.3280  2.6955
 5324SOL    HW227606   2.337   3.733   5.984 -1.8554 -1.1876  1.3552
 5325SOL     OW27607   2.256   1.638   4.411  0.3298 -0.2440 -0.4543
 5325SOL    HW127608   2.263   1.657   4.504  0.9725  3.3789 -1.2423
 5325SOL    HW227609   2.230   1.546   4.417 -0.2004 -0.1647 -1.4267
 5326SOL     OW27610   2.017   1.991   7.994  0.2495 -0.0932 -0.3020
 5326SOL    HW127611   2.103   1.979   8.034 -0.6077  0.7298  1.7449
 5326SOL    HW227612   2.045   2.000   7.902 -0.5295 -0.9119 -0.6149
 5327SOL     OW27613   3.979   2.706   5.667  0.1342 -1.0397  0.2341
 5327SOL    HW127614   4.011   2.796   5.668  1.3978 -1.4672 -1.9295
 5327SOL    HW227615   3.886   2.711   5.647  0.1860 -0.2629  0.1888
 5328SOL     OW27616   4.366   3.011   4.307 -0.0944  0.2497 -0.3922
 5328SOL    HW127617   4.457   3.011   4.338 -1.1753 -1.1647  2.8187
 5328SOL    HW227618   4.357   3.103   4.284 -0.8694  0.0230 -0.9630
 5329SOL     OW27619   1.607   0.691   2.396  0.5594  0.3601 -0.3349
 5329SOL    HW127620   1.544   0.733   2.337 -0.5221 -0.3379  0.3179
 5329SOL    HW227621   1.682   0.696   2.336  1.0352 -1.9070  0.0778
 5330SOL     OW27622   2.593   2.271  13.933  0.2754 -0.0348  0.0813
 5330SOL    HW127623   2.513   2.323  13.939  0.9424  0.7305  2.4692
 5330SOL    HW227624   2.635   2.280  14.019 -0.4647  1.4503  0.2897
 5331SOL     OW27625   3.812   1.141   4.460  0.9499  0.3316  0.4455
 5331SOL    HW127626   3.757   1.159   4.536 -0.1460  1.9508 -0.7388
 5331SOL    HW227627   3.779   1.056   4.433 -0.6779  0.8259  0.8907
 5332SOL     OW27628   3.916   2.555   6.268 -0.6305 -0.0260 -0.3949
 5332SOL    HW127629   3.869   2.636   6.286  0.4219  0.3346  0.7118
 5332SOL    HW227630   3.963   2.588   6.191  2.9742  1.3561  2.4048
 5333SOL     OW27631   1.961   3.989   3.568 -1.0577  0.0447  0.1754
 5333SOL    HW127632   1.987   3.952   3.652 -1.4806  0.4260  0.4764
 5333SOL    HW227633   2.006   4.073   3.577  0.5886 -0.6512 -1.5475
 5334SOL     OW27634   1.237   0.199   2.641  0.5222  0.1849  0.5426
 5334SOL    HW127635   1.266   0.173   2.554  1.3027  0.8033  0.6258
 5334SOL    HW227636   1.288   0.280   2.643 -2.8717  2.2929  1.7883
 5335SOL     OW27637   0.916   0.624   4.187 -0.6109  0.1372  0.1101
 5335SOL    HW127638   1.009   0.603   4.195 -0.4357 -0.3969 -3.4655
 5335SOL    HW227639   0.895   0.633   4.280  1.3274  2.3748  0.3424
 5336SOL     OW27640   1.946   1.656   8.075 -0.0006  0.3310 -0.1971
 5336SOL    HW127641   1.935   1.664   8.170 -0.7361 -0.5514 -0.2067
 5336SOL    HW227642   1.990   1.572   8.065  0.0500  0.2195  1.0065
 5337SOL     OW27643   3.360   0.295   3.021  0.0456  0.6391  0.3962
 5337SOL    HW127644   3.424   0.365   3.033 -0.7931  1.2461  1.2723
 5337SOL    HW227645   3.405   0.211   3.011  0.5204  1.0376 -0.8803
 5338SOL     OW27646   3.085   2.084   2.489 -0.2765 -0.3424  0.1188
 5338SOL    HW127647   3.088   2.163   2.436  0.7089 -0.0641  0.5899
 5338SOL    HW227648   3.126   2.115   2.570 -0.1529 -1.0642  0.3342
 5339SOL     OW27649   1.469   3.099  15.155  0.0837 -0.0240 -0.0450
 5339SOL    HW127650   1.528   3.174  15.161 -0.5473  0.5694 -1.3161
 5339SOL    HW227651   1.384   3.137  15.133  0.5204  0.9245 -0.0873
 5340SOL     OW27652   3.646   3.860   9.728  0.2356 -0.1729 -0.6108
 5340SOL    HW127653   3.613   3.893   9.812  2.0805  1.6903 -0.6338
 5340SOL    HW227654   3.557   3.829   9.710  0.3709 -0.1823 -1.2383
 5341SOL     OW27655   3.938   2.190   8.110 -0.3576  0.1527 -0.0925
 5341SOL    HW127656   3.954   2.097   8.124 -0.8962 -0.2245 -2.1136
 5341SOL    HW227657   4.009   2.236   8.155 -1.1117  1.0894  0.1376
 5342SOL     OW27658   0.923   3.983   2.352 -0.0620 -0.1894  0.0370
 5342SOL    HW127659   0.855   4.009   2.415 -0.1709  0.2134 -0.2459
 5342SOL    HW227660   0.954   4.072   2.332  1.2502 -0.8675 -0.8653
 5343SOL     OW27661   4.207   0.474   6.823  0.1721 -0.0524  0.0790
 5343SOL    HW127662   4.273   0.539   6.796  0.7119 -0.5463  0.2237
 5343SOL    HW227663   4.138   0.531   6.857 -0.6775 -1.5204  0.7685
 5344SOL     OW27664   0.836   2.105   6.189  0.4732  0.2072 -0.4629
 5344SOL    HW127665   0.799   2.193   6.198 -0.2334 -0.1317 -0.0382
 5344SOL    HW227666   0.873   2.102   6.101 -0.4213 -1.1985 -0.7863
 5345SOL     OW27667   1.120   3.176  15.786  0.3091 -0.0028 -0.0158
 5345SOL    HW127668   1.055   3.223  15.735 -1.2199 -3.0606 -0.9188
 5345SOL    HW227669   1.143   3.114  15.717 -2.0025 -0.8114 -0.0512
 5346SOL     OW27670   3.702   2.715   5.912  0.1196  0.5118  0.1345
 5346SOL    HW127671   3.781   2.765   5.932  0.2777 -0.0994  1.0473
 5346SOL    HW227672   3.641   2.746   5.979 -1.2042  1.0359 -1.3085
 5347SOL     OW27673   0.098   3.194   3.178 -0.2152  0.1902  0.1688
 5347SOL    HW127674   0.109   3.180   3.272  0.0241  0.2497  0.1481
 5347SOL    HW227675   0.183   3.231   3.157 -0.2591 -1.4439 -2.9150
 5348SOL     OW27676   2.638   2.940   9.104  0.0775  0.0591  0.1362
 5348SOL    HW127677   2.548   2.932   9.070  0.1907  1.2343 -0.4496
 5348SOL    HW227678   2.667   3.026   9.073  2.7817 -0.9635 -0.1806
 5349SOL     OW27679   3.292   1.763   7.917  0.3187  0.2822  0.1043
 5349SOL    HW127680   3.273   1.716   7.835 -1.1050  0.4354  0.3552
 5349SOL    HW227681   3.370   1.814   7.896  0.5249 -0.6830 -1.5328
 5350SOL     OW27682   3.190   1.457   6.013 -0.0182  0.2808 -0.2009
 5350SOL    HW127683   3.115   1.474   6.070 -0.4653 -1.3147 -0.3318
 5350SOL    HW227684   3.225   1.541   5.984  0.3256  0.0770 -0.3748
 5351SOL     OW27685   4.643   4.182   0.308  0.3974  0.3969  0.1654
 5351SOL    HW127686   4.589   4.103   0.304 -1.6339  1.7402  0.9619
 5351SOL    HW227687   4.579   4.243   0.345 -0.4128 -0.2591 -0.1651
 5352SOL     OW27688   1.828   1.855   2.465  0.1778  0.5848  0.4224
 5352SOL    HW127689   1.883   1.806   2.404 -0.1536  0.3277  0.3306
 5352SOL    HW227690   1.778   1.905   2.400 -0.2245 -1.3344 -0.7419
 5353SOL     OW27691   1.197   3.894   5.923 -0.0234  0.0196  0.4938
 5353SOL    HW127692   1.178   3.861   5.835 -2.3279  0.4117  0.8404
 5353SOL    HW227693   1.292   3.901   5.918 -0.1957  0.9887 -1.4268
 5354SOL     OW27694   0.139   2.322   5.389 -0.1052  0.1488  0.4134
 5354SOL    HW127695   0.095   2.241   5.413 -0.1851  1.1195  3.5327
 5354SOL    HW227696   0.200   2.290   5.322 -1.7659 -1.2248 -0.4556
 5355SOL     OW27697   0.112   4.453   5.955  0.2725  0.4425  0.1105
 5355SOL    HW127698   0.024   4.418   5.970  0.6264 -1.1116 -1.4403
 5355SOL    HW227699   0.105   4.543   5.985  0.4863  0.3419  0.4766
 5356SOL     OW27700   3.449   3.154   7.521  0.0535  0.1610 -0.3589
 5356SOL    HW127701   3.459   3.117   7.609 -3.2767 -2.2681 -0.9714
 5356SOL    HW227702   3.477   3.078   7.469 -0.4524 -0.0573 -0.3148
 5357SOL     OW27703   0.172   3.278  11.053 -0.0841 -0.0367 -0.2098
 5357SOL    HW127704   0.101   3.286  11.117  0.1043  2.1014 -0.2727
 5357SOL    HW227705   0.152   3.349  10.991 -3.8715 -1.1713 -0.2669
 5358SOL     OW27706   3.669   4.284  17.585  0.3566  0.4562 -0.4174
 5358SOL    HW127707   3.667   4.379  17.580 -0.6650  0.4621  0.1989
 5358SOL    HW227708   3.734   4.272  17.516 -0.1908 -2.1747 -0.4724
 5359SOL     OW27709   3.686   0.077   5.261  0.2208 -0.8251 -0.4479
 5359SOL    HW127710   3.620   0.008   5.264 -1.0196  0.3855 -0.1738
 5359SOL    HW227711   3.753   0.050   5.324  1.1294  2.9534  0.1980
 5360SOL     OW27712   4.381   0.057  11.735  0.0559  0.4211  0.3118
 5360SOL    HW127713   4.456   0.005  11.765  1.0403  1.5332 -0.2096
 5360SOL    HW227714   4.421   0.136  11.699  0.8554 -0.9397 -1.7883
 5361SOL     OW27715   0.482   1.136  12.261 -0.4268 -0.1252  0.0522
 5361SOL    HW127716   0.509   1.182  12.340 -2.7770 -0.4709  1.0244
 5361SOL    HW227717   0.472   1.212  12.202 -0.5263  0.8368  1.3101
 5362SOL     OW27718   1.676   1.365   7.274 -0.4494  0.1349  0.1597
 5362SOL    HW127719   1.714   1.286   7.312 -0.5901 -0.8170 -1.7042
 5362SOL    HW227720   1.646   1.343   7.186  1.0441 -0.0518 -0.3040
 5363SOL     OW27721   0.185   1.027   2.802 -0.3941  0.1184 -0.5247
 5363SOL    HW127722   0.190   0.951   2.744 -1.9862 -1.8380  1.8894
 5363SOL    HW227723   0.278   1.047   2.816 -0.4497  0.2054 -0.2835
 5364SOL     OW27724   4.277   4.287   0.265 -0.2187 -0.5255  0.3666
 5364SOL    HW127725   4.325   4.358   0.223 -2.4787 -0.5388 -2.2445
 5364SOL    HW227726   4.192   4.300   0.221  0.7316 -1.2186 -1.7018
 5365SOL     OW27727   3.935   4.641   7.955 -0.2353  0.2687  0.8459
 5365SOL    HW127728   3.949   4.604   7.868 -2.5117 -0.3451  0.7527
 5365SOL    HW227729   3.904   4.575   8.017  0.1021 -0.1339  0.5823
 5366SOL     OW27730   2.734   0.333   5.470 -0.4590  0.1598  0.1410
 5366SOL    HW127731   2.650   0.287   5.460 -1.0573  1.9647 -3.0591
 5366SOL    HW227732   2.752   0.320   5.563  1.9250  0.9803 -0.2154
 5367SOL     OW27733   1.241   3.609  12.380  0.2564  0.0490 -0.1784
 5367SOL    HW127734   1.165   3.619  12.323 -1.1087 -0.2881  1.6120
 5367SOL    HW227735   1.308   3.653  12.326 -0.1059 -1.0632 -1.5415
 5368SOL     OW27736   4.270   3.036   4.917  0.0153 -0.4425  0.3524
 5368SOL    HW127737   4.285   3.123   4.955 -0.4040 -0.0178 -0.4481
 5368SOL    HW227738   4.304   3.048   4.829 -1.1930  2.1394  0.2208
 5369SOL     OW27739   2.902   2.363  13.992  0.0911  0.1711 -0.4710
 5369SOL    HW127740   2.887   2.416  13.913  1.9858  0.8685 -0.3688
 5369SOL    HW227741   2.998   2.360  13.995  0.1044  0.3217 -0.6700
 5370SOL     OW27742   0.539   4.378   7.945  0.3845 -0.4648  0.1649
 5370SOL    HW127743   0.509   4.459   7.987  1.6021 -0.6573  1.3932
 5370SOL    HW227744   0.634   4.381   7.940  0.3794 -0.6927 -0.0798
 5371SOL     OW27745   4.284   0.245   3.648 -0.1850 -0.0784  0.2343
 5371SOL    HW127746   4.274   0.152   3.627 -1.4150 -0.0154  0.5392
 5371SOL    HW227747   4.354   0.243   3.714  1.3546 -2.2424 -1.4543
 5372SOL     OW27748   1.752   0.526   9.427  0.1537 -0.7402 -0.1221
 5372SOL    HW127749   1.845   0.539   9.448  0.0094 -1.2134  0.7829
 5372SOL    HW227750   1.759   0.440   9.384 -0.2355 -1.0023  0.3400
 5373SOL     OW27751   3.088   3.942   4.687 -0.0261 -0.3321 -0.7735
 5373SOL    HW127752   3.001   3.941   4.647 -1.8778 -2.7807  3.1991
 5373SOL    HW227753   3.082   3.874   4.754 -0.1860 -0.5770 -1.0358
 5374SOL     OW27754   1.070   1.735   2.007 -0.3702 -0.7203  0.4156
 5374SOL    HW127755   1.029   1.650   2.018 -0.2825 -0.6757  1.0852
 5374SOL    HW227756   1.162   1.708   2.014 -0.4170 -1.1209 -0.5730
 5375SOL     OW27757   2.325   0.805  14.055  0.0396 -0.5092 -0.2073
 5375SOL    HW127758   2.282   0.848  13.981  0.0314 -1.2999 -0.6567
 5375SOL    HW227759   2.400   0.764  14.013  1.2799 -0.9865  2.4853
 5376SOL     OW27760   0.651   1.113   9.293 -0.0304 -0.5190  0.7781
 5376SOL    HW127761   0.558   1.121   9.273  0.1310 -2.4174 -0.6685
 5376SOL    HW227762   0.673   1.032   9.247  1.0884  1.4116 -2.0944
 5377SOL     OW27763   2.992   3.804   5.690  0.2531 -0.0154 -0.4819
 5377SOL    HW127764   3.076   3.848   5.700 -0.6210  0.7777  3.2356
 5377SOL    HW227765   3.006   3.760   5.606 -0.3376  0.3122 -0.7539
 5378SOL     OW27766   2.827   0.629   0.118 -0.3490  0.4174  0.4203
 5378SOL    HW127767   2.757   0.615   0.055  0.7125  1.3463 -0.9474
 5378SOL    HW227768   2.837   0.724   0.112 -0.5833  0.2343 -2.7114
 5379SOL     OW27769   3.981   1.547  14.577 -0.2066 -0.0968  0.5269
 5379SOL    HW127770   3.948   1.468  14.618  4.0568 -0.1980  3.7724
 5379SOL    HW227771   3.912   1.569  14.515  2.3701 -0.2694 -2.3784
 5380SOL     OW27772   3.400   3.953   7.061 -0.4747 -0.4327 -0.2287
 5380SOL    HW127773   3.479   4.007   7.067  0.7667 -2.5481  2.9150
 5380SOL    HW227774   3.394   3.922   7.152 -2.5335  0.8575  0.0616
 5381SOL     OW27775   4.120   3.758   1.812 -0.1213 -0.2663  0.2228
 5381SOL    HW127776   4.078   3.796   1.735 -1.6571 -1.0228  0.6902
 5381SOL    HW227777   4.073   3.674   1.818  0.8893 -0.8799 -0.3642
 5382SOL     OW27778   3.101   3.212   7.479 -0.0039 -0.4364 -0.4603
 5382SOL    HW127779   3.101   3.118   7.497  0.0639 -0.2104  0.7626
 5382SOL    HW227780   3.011   3.218   7.447  1.2700  0.8589 -3.7825
 5383SOL     OW27781   0.556   3.437   3.723  0.1452  0.1102  0.0900
 5383SOL    HW127782   0.561   3.376   3.796  1.6819 -0.0083 -0.1101
 5383SOL    HW227783   0.639   3.412   3.681 -0.3996 -1.4489 -0.0736
 5384SOL     OW27784   0.770   4.413   4.950 -0.0763 -0.2945 -0.1574
 5384SOL    HW127785   0.699   4.391   5.010  2.2512 -0.5844  2.4761
 5384SOL    HW227786   0.731   4.380   4.869  0.5661 -2.3473  0.3744
 5385SOL     OW27787   4.022   4.587   7.665  0.1362  0.4831  0.0079
 5385SOL    HW127788   4.098   4.639   7.694 -0.8158 -0.1282  3.5781
 5385SOL    HW227789   4.065   4.510   7.628 -1.6192 -0.2934 -0.4028
 5386SOL     OW27790   2.770   3.270  15.854 -0.0165  0.1786 -0.2043
 5386SOL    HW127791   2.743   3.357  15.883 -1.6465 -0.6279  0.6647
 5386SOL    HW227792   2.840   3.294  15.793 -0.1263  1.5260  0.1989
 5387SOL     OW27793   4.133   3.720   8.195 -0.1636 -0.3400  0.6665
 5387SOL    HW127794   4.062   3.714   8.260  0.4592  1.2590  1.4901
 5387SOL    HW227795   4.146   3.625   8.189  2.3787  0.0184  0.5436
 5388SOL     OW27796   4.040   3.018   8.594 -0.2354  0.3080 -0.5212
 5388SOL    HW127797   4.080   3.031   8.680 -1.6439 -0.6908  0.2762
 5388SOL    HW227798   4.027   2.923   8.596  2.5881 -0.0599 -0.1045
 5389SOL     OW27799   2.832   0.461   4.491  0.9164  0.4468  0.5661
 5389SOL    HW127800   2.780   0.507   4.557 -0.4599 -0.2286 -0.0376
 5389SOL    HW227801   2.921   0.494   4.502  0.4403  1.7967  0.3213
 5390SOL     OW27802   4.027   1.776   5.133 -0.6401  0.2023  0.0460
 5390SOL    HW127803   3.980   1.856   5.155  0.7012  1.0534 -0.1794
 5390SOL    HW227804   4.043   1.783   5.039  0.8933  0.2878  0.3090
 5391SOL     OW27805   4.644   2.855   5.448 -0.1750  0.1028 -0.3042
 5391SOL    HW127806   4.650   2.951   5.446 -0.8386  0.1300 -0.7526
 5391SOL    HW227807   0.002   2.831   5.472 -0.1179  2.0075  1.4355
 5392SOL     OW27808   3.510   2.322   6.642 -0.3042  0.0906  0.1236
 5392SOL    HW127809   3.433   2.338   6.697 -0.1095  0.3785  0.3118
 5392SOL    HW227810   3.473   2.262   6.577  0.2920  1.0947 -1.1533
 5393SOL     OW27811   0.373   3.351   2.414 -0.4456  0.1459 -0.2215
 5393SOL    HW127812   0.307   3.286   2.438 -0.1437  0.1455  0.6294
 5393SOL    HW227813   0.343   3.362   2.324  0.7500 -0.9583 -0.7611
 5394SOL     OW27814   2.840   0.665  14.326 -0.4484  0.4039 -1.2179
 5394SOL    HW127815   2.871   0.664  14.236  0.4209  0.3583 -0.9267
 5394SOL    HW227816   2.905   0.721  14.368 -0.5640 -1.9399  2.1201
 5395SOL     OW27817   4.017   3.122   6.961  0.1987 -0.0087  0.1314
 5395SOL    HW127818   3.958   3.092   6.892 -0.6226  1.2083  0.3133
 5395SOL    HW227819   4.014   3.037   7.006  1.1691 -1.1119 -1.8662
 5396SOL     OW27820   2.463   2.899   9.438  0.2819  0.6094 -0.4089
 5396SOL    HW127821   2.528   2.872   9.503 -2.1171 -2.2953  0.7754
 5396SOL    HW227822   2.479   2.993   9.437 -1.2725  0.9049  1.2095
 5397SOL     OW27823   3.483   3.777   7.873 -0.7942  0.5022  0.5964
 5397SOL    HW127824   3.520   3.721   7.804 -0.5148  1.0948  0.2608
 5397SOL    HW227825   3.394   3.780   7.838 -0.4330 -2.1724 -0.6227
 5398SOL     OW27826   3.077   0.765  14.482 -0.2759 -0.7134 -0.0172
 5398SOL    HW127827   3.156   0.815  14.501  0.7807 -1.5329 -2.2877
 5398SOL    HW227828   3.074   0.691  14.543 -0.7736  0.7471  1.7347
 5399SOL     OW27829   2.081   3.789  14.828 -0.2100 -0.2280 -0.0098
 5399SOL    HW127830   2.094   3.722  14.760 -0.0149 -0.5469  0.3377
 5399SOL    HW227831   2.133   3.741  14.893 -0.0790 -0.1794 -0.0789
 5400SOL     OW27832   1.812   1.506   2.457 -0.0629 -0.3028 -0.0765
 5400SOL    HW127833   1.821   1.474   2.367 -0.7092  0.1575 -0.3066
 5400SOL    HW227834   1.905   1.512   2.476 -0.5406 -0.0391  2.1287
 5401SOL     OW27835   0.135   0.355   4.584  0.4858  0.1784 -0.0048
 5401SOL    HW127836   0.140   0.276   4.529  0.8686 -0.7922  1.4194
 5401SOL    HW227837   0.204   0.337   4.647  0.1922  0.7168  0.4622
 5402SOL     OW27838   1.076   0.970   4.626  0.3856  0.2263  0.3690
 5402SOL    HW127839   0.996   0.919   4.638 -0.1807  1.1039  0.4001
 5402SOL    HW227840   1.137   0.931   4.564  0.0963 -0.7607  0.7067
 5403SOL     OW27841   0.340   1.733   1.655  0.0856 -0.4245 -0.3269
 5403SOL    HW127842   0.255   1.693   1.638 -0.5048  0.3850  0.7418
 5403SOL    HW227843   0.325   1.796   1.584  1.4635  1.0786  0.7108
 5404SOL     OW27844   0.837   0.087   8.212  0.0456 -0.2404 -0.2263
 5404SOL    HW127845   0.847   0.100   8.306  0.8131 -2.4529  0.0093
 5404SOL    HW227846   0.780   0.010   8.206  2.4042 -2.0103 -0.0059
 5405SOL     OW27847   0.910   0.556   4.943  0.1163  0.4631  0.3694
 5405SOL    HW127848   0.987   0.548   4.999  1.6010 -1.8088 -2.0373
 5405SOL    HW227849   0.919   0.490   4.875 -4.5070  1.7658 -1.5378
 5406SOL     OW27850   3.970   4.506  13.183  0.3190  0.2328 -0.1350
 5406SOL    HW127851   3.888   4.530  13.139 -0.1438  0.5808  0.9147
 5406SOL    HW227852   3.952   4.525  13.275  0.2635 -0.0763 -0.0818
 5407SOL     OW27853   4.705   0.591   9.057  0.2848  0.0353 -0.6659
 5407SOL    HW127854   4.613   0.574   9.036  0.6602 -0.4938 -1.8737
 5407SOL    HW227855   4.691   0.621   9.147 -3.6773  0.6871 -1.5012
 5408SOL     OW27856   1.178   0.110   8.369  0.1141  0.3290 -0.0239
 5408SOL    HW127857   1.112   0.043   8.381 -0.0180  0.2324 -1.2087
 5408SOL    HW227858   1.131   0.191   8.390  0.2302  0.6811 -1.0840
 5409SOL     OW27859   0.240   0.634   9.371 -0.0001  0.1625 -0.1633
 5409SOL    HW127860   0.228   0.544   9.402  1.2205  0.7851  2.1736
 5409SOL    HW227861   0.245   0.670   9.460  0.6684  0.4971 -0.3363
 5410SOL     OW27862   2.070   1.250   2.305  0.2489  0.0356  0.5158
 5410SOL    HW127863   2.093   1.317   2.369  1.1395  0.5805 -0.3826
 5410SOL    HW227864   2.154   1.249   2.260 -2.5516 -2.2159 -4.7275
 5411SOL     OW27865   3.035   1.809   9.150  0.0110 -0.6006  0.1536
 5411SOL    HW127866   3.042   1.762   9.067  0.0237 -0.4043  0.0425
 5411SOL    HW227867   3.106   1.788   9.211 -0.5545 -0.0256  1.0176
 5412SOL     OW27868   0.802   2.955   4.856  0.1065 -0.5466  0.1606
 5412SOL    HW127869   0.718   2.929   4.894 -0.5970 -0.6717 -1.4390
 5412SOL    HW227870   0.792   2.938   4.762  0.6123 -1.7616  0.3241
 5413SOL     OW27871   0.458   2.065   4.743  0.0610  0.4899 -0.3701
 5413SOL    HW127872   0.366   2.060   4.767  1.0318 -0.2717  3.2787
 5413SOL    HW227873   0.495   2.070   4.832 -0.7680  1.0775 -0.0557
 5414SOL     OW27874   4.030   3.478   6.306  0.4652 -0.0306 -0.0132
 5414SOL    HW127875   4.044   3.554   6.249  0.2190  1.0111  1.3067
 5414SOL    HW227876   3.984   3.428   6.239 -0.0056 -1.0683  1.0849
 5415SOL     OW27877   4.321   3.724  16.887 -0.3093  0.6401 -0.2103
 5415SOL    HW127878   4.379   3.800  16.893  0.6797 -0.1525  0.3167
 5415SOL    HW227879   4.303   3.718  16.981  1.7059 -0.1019  0.1308
 5416SOL     OW27880   0.344   2.943   1.792  0.0995 -0.8118  0.2203
 5416SOL    HW127881   0.365   2.873   1.730  0.9752 -0.7297  0.4247
 5416SOL    HW227882   0.248   2.943   1.797  0.1177  0.4116  0.5123
 5417SOL     OW27883   0.731   1.886  13.701 -0.1315  0.0476  0.1907
 5417SOL    HW127884   0.768   1.945  13.768 -1.9807 -0.3178  1.5142
 5417SOL    HW227885   0.656   1.942  13.680  0.4459  1.4040  1.7124
 5418SOL     OW27886   3.332   4.499   6.939  0.0424 -0.0640  0.3869
 5418SOL    HW127887   3.359   4.548   7.016  2.0303  1.0375 -1.0276
 5418SOL    HW227888   3.279   4.429   6.978 -0.0450  0.2486  0.8361
 5419SOL     OW27889   0.870   0.604   9.296 -0.2340  0.1122 -0.1393
 5419SOL    HW127890   0.907   0.579   9.380 -0.4763 -1.7314 -0.5788
 5419SOL    HW227891   0.781   0.577   9.316 -0.0659 -1.3309 -1.3131
 5420SOL     OW27892   4.371   3.504  15.914  0.3883  0.3263 -0.4726
 5420SOL    HW127893   4.420   3.431  15.877 -0.7411 -0.4275 -0.4874
 5420SOL    HW227894   4.336   3.545  15.836 -2.2676 -0.3802  0.3486
 5421SOL     OW27895   4.304   3.014  12.847  0.2848  0.2687 -0.4755
 5421SOL    HW127896   4.297   3.103  12.813 -0.4567 -0.7652 -3.0566
 5421SOL    HW227897   4.369   2.976  12.787  1.0896  1.5449 -0.3998
 5422SOL     OW27898   4.479   1.300   6.900  0.3678  0.1611 -0.2058
 5422SOL    HW127899   4.564   1.277   6.937  0.9902  2.1309 -0.4224
 5422SOL    HW227900   4.492   1.308   6.805  0.5431 -0.3196 -0.2213
 5423SOL     OW27901   2.811   2.683   3.716 -0.3694  0.5920  0.6162
 5423SOL    HW127902   2.884   2.696   3.776  0.5805 -2.4809  0.0746
 5423SOL    HW227903   2.744   2.692   3.785 -0.8333  1.0077  0.1165
 5424SOL     OW27904   1.169   2.918   4.697 -0.3224 -0.1158  0.4848
 5424SOL    HW127905   1.118   2.941   4.620  0.5844 -0.6194 -0.2640
 5424SOL    HW227906   1.252   2.889   4.659  0.3402  2.7065 -0.2295
 5425SOL     OW27907   2.558   3.247   5.038 -1.0697 -0.0075 -0.8024
 5425SOL    HW127908   2.559   3.283   4.950  1.7033  0.3082 -0.6198
 5425SOL    HW227909   2.479   3.286   5.075 -0.1976  0.8097  0.1822
 5426SOL     OW27910   4.597   2.776   7.180  0.4167 -0.9335  0.1262
 5426SOL    HW127911   4.629   2.809   7.096 -1.0833  3.0836  1.1476
 5426SOL    HW227912   4.515   2.736   7.149 -0.1819  1.0367 -0.8303
 5427SOL     OW27913   3.200   1.741   5.982  0.7102 -0.0837 -0.4781
 5427SOL    HW127914   3.143   1.750   6.059 -0.1720  4.5200 -1.6730
 5427SOL    HW227915   3.260   1.815   5.994  2.4346 -1.8355  1.6671
 5428SOL     OW27916   0.741   1.947  11.060 -0.2787  0.0812  0.4725
 5428SOL    HW127917   0.670   2.011  11.067 -1.4504 -1.1527 -0.0257
 5428SOL    HW227918   0.773   1.941  11.150 -1.7899 -0.1027  0.9976
 5429SOL     OW27919   4.359   4.607   8.801 -0.5470  0.1829  0.3415
 5429SOL    HW127920   4.305   4.679   8.834  1.0823  0.7646  1.7319
 5429SOL    HW227921   4.419   4.603   8.876 -0.2293 -2.4144 -0.0686
 5430SOL     OW27922   0.415   1.979   8.269 -0.4288  0.1071  0.1850
 5430SOL    HW127923   0.435   2.039   8.341 -3.6074 -1.2627  2.1979
 5430SOL    HW227924   0.499   1.978   8.223 -0.8483  3.8384 -0.5797
 5431SOL     OW27925   2.440   3.818   1.733 -0.1039  0.3885 -0.3508
 5431SOL    HW127926   2.511   3.869   1.772 -1.8460  0.7278  2.3617
 5431SOL    HW227927   2.481   3.738   1.701 -1.6098 -0.2888 -0.5979
 5432SOL     OW27928   0.008   2.537   0.899  0.1030 -0.1916 -0.0266
 5432SOL    HW127929   0.060   2.614   0.875  0.4033 -0.1811  0.6398
 5432SOL    HW227930   4.652   2.569   0.879 -0.4235 -2.0935 -0.6584
 5433SOL     OW27931   2.983   0.453  10.472 -0.0831  0.1499  0.7692
 5433SOL    HW127932   3.000   0.377  10.417 -1.7636 -0.8555  1.6315
 5433SOL    HW227933   3.048   0.513  10.435 -1.2929  1.3883  0.6591
 5434SOL     OW27934   0.119   1.948   3.058 -0.4190 -0.1902 -0.1039
 5434SOL    HW127935   0.205   1.960   3.097 -0.6525  1.1268  0.0157
 5434SOL    HW227936   0.136   1.978   2.969  3.1604  0.1698  0.7195
 5435SOL     OW27937   3.011   1.848   3.662  0.4188 -0.7005  0.1391
 5435SOL    HW127938   3.084   1.854   3.724  0.2734  3.3059 -0.0622
 5435SOL    HW227939   3.044   1.873   3.576  0.5525 -0.1167  0.3605
 5436SOL     OW27940   1.893   3.442   7.483  0.1608  0.9258 -0.2995
 5436SOL    HW127941   1.875   3.420   7.574  1.2242  2.2512  0.2364
 5436SOL    HW227942   1.874   3.359   7.438  2.1007  0.4834 -0.2860
 5437SOL     OW27943   4.214   4.540  11.301  0.0060  0.0679  0.8314
 5437SOL    HW127944   4.302   4.535  11.264 -1.2709  1.2018 -2.3452
 5437SOL    HW227945   4.186   4.449  11.290 -1.0013  0.2699  1.7286
 5438SOL     OW27946   2.057   1.236   2.717 -0.4741 -0.0666  0.0812
 5438SOL    HW127947   1.975   1.229   2.667 -1.2637  2.4048  1.0377
 5438SOL    HW227948   2.033   1.182   2.793  0.6064 -0.7850 -0.1006
 5439SOL     OW27949   3.774   4.218   8.821 -0.5893  0.0333 -0.2918
 5439SOL    HW127950   3.753   4.261   8.903 -0.8642  0.6184 -0.6728
 5439SOL    HW227951   3.730   4.277   8.760  0.2588 -0.0532 -1.0024
 5440SOL     OW27952   0.710   3.913   7.558 -0.0526 -0.5913 -0.0582
 5440SOL    HW127953   0.684   3.821   7.549  2.4949 -1.2558 -0.6474
 5440SOL    HW227954   0.740   3.916   7.467 -0.1399 -1.7321 -0.1175
 5441SOL     OW27955   1.023   0.911   3.128  0.2182 -0.1164 -0.2577
 5441SOL    HW127956   0.937   0.902   3.168  0.4470  0.7499  0.4374
 5441SOL    HW227957   1.003   0.917   3.035  2.4737 -0.1813 -0.7516
 5442SOL     OW27958   1.558   1.258  10.486  0.2383 -0.2175 -0.5991
 5442SOL    HW127959   1.467   1.286  10.478  0.6312  0.8481 -1.3727
 5442SOL    HW227960   1.545   1.169  10.516 -0.1381  0.4500  1.2347
 5443SOL     OW27961   3.277   2.338  11.663  0.1678  0.0392  0.1653
 5443SOL    HW127962   3.227   2.340  11.744 -2.2622 -1.1406 -1.2735
 5443SOL    HW227963   3.233   2.414  11.624 -1.5485 -1.8331 -1.5914
 5444SOL     OW27964   0.882   2.733   7.554  0.0094 -0.4698 -0.4490
 5444SOL    HW127965   0.911   2.643   7.565 -0.4023 -0.6430 -0.7907
 5444SOL    HW227966   0.825   2.739   7.631 -0.3122  0.0914 -0.7279
 5445SOL     OW27967   3.837   4.493   2.142  0.2153  0.0971 -0.0663
 5445SOL    HW127968   3.813   4.579   2.107  0.8387  0.6549  0.8827
 5445SOL    HW227969   3.756   4.451   2.113  1.8298 -3.0007 -0.0844
 5446SOL     OW27970   4.017   3.959   8.148 -0.0063 -0.6916 -0.4287
 5446SOL    HW127971   4.073   3.882   8.151  1.0108  0.1221  1.4963
 5446SOL    HW227972   4.077   4.027   8.179 -1.1408  0.0550  0.1349
 5447SOL     OW27973   0.189   3.740   0.854 -0.2473 -0.1534 -0.5262
 5447SOL    HW127974   0.281   3.763   0.841 -0.6613  2.0727  0.4219
 5447SOL    HW227975   0.159   3.825   0.886 -0.2298 -1.1931  2.2585
 5448SOL     OW27976   0.631   0.451   3.516 -0.0038 -0.1759  0.2405
 5448SOL    HW127977   0.666   0.370   3.553  0.9654  0.2132  0.1651
 5448SOL    HW227978   0.568   0.410   3.456  1.1822 -0.9235 -0.4738
 5449SOL     OW27979   0.884   0.714   1.481  0.3400 -0.2966 -0.0770
 5449SOL    HW127980   0.880   0.624   1.448  2.5003 -0.3887 -0.0585
 5449SOL    HW227981   0.903   0.698   1.573 -3.3323 -1.7189  0.4340
 5450SOL     OW27982   2.296   0.079   5.353  0.1906  0.0232  0.1965
 5450SOL    HW127983   2.350   0.153   5.380  0.7916  0.1522 -1.3685
 5450SOL    HW227984   2.265   0.097   5.264 -2.1679 -2.8069  0.4433
 5451SOL     OW27985   1.905   2.146   3.794 -0.1575  0.2084 -0.1565
 5451SOL    HW127986   1.910   2.074   3.857  1.1587  1.2928  0.9696
 5451SOL    HW227987   1.819   2.131   3.753  0.0297 -1.0830 -0.0571
 5452SOL     OW27988   3.587   0.125   3.313 -0.0020 -0.1914 -0.4232
 5452SOL    HW127989   3.520   0.094   3.373 -0.2867 -2.0422 -1.6962
 5452SOL    HW227990   3.549   0.095   3.231 -0.4824  1.1922 -0.7143
 5453SOL     OW27991   4.330   0.257   2.150  0.3331 -0.0094  0.1089
 5453SOL    HW127992   4.302   0.345   2.173 -0.7856 -0.5668  0.8728
 5453SOL    HW227993   4.341   0.215   2.235 -1.1893 -2.8186 -1.0610
 5454SOL     OW27994   1.018   2.378   6.655  0.2072 -0.0305  0.5871
 5454SOL    HW127995   1.011   2.421   6.740 -1.6559 -1.9422  1.4019
 5454SOL    HW227996   0.995   2.292   6.690  0.9687 -0.1716  0.7443
 5455SOL     OW27997   2.090   4.513  16.560 -0.3845  0.0840 -0.5271
 5455SOL    HW127998   2.077   4.436  16.616 -0.7696  0.0129 -0.7070
 5455SOL    HW227999   2.126   4.469  16.483 -1.4644  0.4038 -1.2144
 5456SOL     OW28000   0.056   1.149   6.838 -0.3546 -0.6038  0.4222
 5456SOL    HW128001   0.044   1.193   6.922  0.2493 -0.8888  0.6640
 5456SOL    HW228002   4.724   1.079   6.841 -1.7065  0.5858 -1.1753
 5457SOL     OW28003   2.882   3.376   2.411  0.1705  0.1519  0.4882
 5457SOL    HW128004   2.923   3.409   2.491  0.3356  0.1177  0.4194
 5457SOL    HW228005   2.853   3.292   2.446  1.1186  0.3479  1.7606
 5458SOL     OW28006   3.112   3.969   2.786 -0.2372 -0.4910 -0.0643
 5458SOL    HW128007   3.057   4.024   2.843 -0.6609  0.8924 -1.7868
 5458SOL    HW228008   3.160   3.911   2.845  0.1107 -0.9916 -0.8481
 5459SOL     OW28009   4.468   2.134   7.680 -0.2323  0.6199  0.2188
 5459SOL    HW128010   4.545   2.177   7.719  0.6927  0.1243 -1.0776
 5459SOL    HW228011   4.503   2.048   7.655 -0.1764  0.6709  0.1233
 5460SOL     OW28012   0.504   2.923   3.332  0.2432 -0.1978  0.2465
 5460SOL    HW128013   0.491   2.995   3.394  0.5370  0.5074 -0.5121
 5460SOL    HW228014   0.600   2.928   3.325  0.3072  0.5063  1.5976
 5461SOL     OW28015   1.043   4.385   4.162 -0.1837 -0.1021 -0.0268
 5461SOL    HW128016   1.008   4.357   4.078 -0.4042  0.0224  0.0229
 5461SOL    HW228017   0.969   4.392   4.222 -0.5053 -0.5866 -0.3724
 5462SOL     OW28018   2.665   1.088   9.679 -0.6409  0.1041  0.2586
 5462SOL    HW128019   2.595   1.133   9.727 -1.2707  0.3419 -0.9067
 5462SOL    HW228020   2.732   1.154   9.662  1.9113 -2.5873 -0.1645
 5463SOL     OW28021   3.724   1.654   8.271  0.3063  0.3616 -0.1260
 5463SOL    HW128022   3.781   1.693   8.205  0.6880 -1.9536 -1.1461
 5463SOL    HW228023   3.764   1.567   8.270 -0.8562 -0.1344 -2.9786
 5464SOL     OW28024   4.496   0.315  11.049  0.6089  0.3782  0.5709
 5464SOL    HW128025   4.529   0.230  11.078  4.6275  1.2116 -1.4247
 5464SOL    HW228026   4.532   0.379  11.111 -0.6479  0.9077  0.7474
 5465SOL     OW28027   4.372   1.383   5.182 -0.6213 -0.5360  0.3414
 5465SOL    HW128028   4.322   1.446   5.232 -0.4429  3.1704 -4.1625
 5465SOL    HW228029   4.361   1.302   5.232  1.0907 -1.5762 -0.9324
 5466SOL     OW28030   4.663   0.194   7.311  0.2753  0.2086  0.0545
 5466SOL    HW128031   4.608   0.262   7.272 -0.6121 -0.3538  0.3279
 5466SOL    HW228032   4.656   0.121   7.250 -0.3486  0.3019  0.0109
 5467SOL     OW28033   2.418   2.802   6.724 -0.2218  0.2758  0.1046
 5467SOL    HW128034   2.504   2.840   6.744 -0.1986  0.7251 -0.8616
 5467SOL    HW228035   2.419   2.725   6.781 -1.6594  0.5902  0.5599
 5468SOL     OW28036   0.100   0.274   0.748  0.2321 -0.0637 -0.1172
 5468SOL    HW128037   0.018   0.323   0.750  0.4580  0.4396 -3.1856
 5468SOL    HW228038   0.111   0.271   0.653  0.5037 -1.1119 -0.0469
 5469SOL     OW28039   2.549   0.979  11.405  0.1225 -0.5012  0.3712
 5469SOL    HW128040   2.584   1.060  11.369  0.5118 -0.9881 -0.3550
 5469SOL    HW228041   2.565   0.928  11.325 -0.9333  0.2249 -0.3069
 5470SOL     OW28042   0.375   2.753   4.055  0.1119 -0.1179  0.1224
 5470SOL    HW128043   0.303   2.745   3.992 -1.0019  0.9700  1.2455
 5470SOL    HW228044   0.355   2.842   4.082  1.4055 -0.1795  1.2774
 5471SOL     OW28045   2.241   4.729  16.435  0.0966 -0.0878 -0.1607
 5471SOL    HW128046   2.321   4.678  16.449  0.7764  0.7550 -1.0193
 5471SOL    HW228047   2.183   4.678  16.492  1.5489 -0.7653  0.7168
 5472SOL     OW28048   4.005   1.761   5.451 -0.0683  0.0980 -0.2893
 5472SOL    HW128049   3.951   1.825   5.404 -0.4255 -0.5872 -0.8098
 5472SOL    HW228050   3.945   1.703   5.500  1.4604  0.1076  1.5818
 5473SOL     OW28051   2.568   1.203   0.373 -0.1311  0.0049  0.3741
 5473SOL    HW128052   2.513   1.259   0.318  1.8279  2.3636  0.8655
 5473SOL    HW228053   2.567   1.130   0.312 -0.4669  1.6412 -1.5775
 5474SOL     OW28054   3.660   2.707   7.260 -0.2460  0.7290  0.2189
 5474SOL    HW128055   3.745   2.734   7.293 -0.3904 -1.3000  2.2902
 5474SOL    HW228056   3.646   2.622   7.303 -0.4645  1.1943  1.0493
 5475SOL     OW28057   0.945   3.098   6.086  0.3761  0.6311 -0.0788
 5475SOL    HW128058   1.030   3.143   6.085  0.9263 -0.4136  0.7727
 5475SOL    HW228059   0.970   3.010   6.112 -0.1691  0.3935 -0.3580
 5476SOL     OW28060   0.092   0.098  11.601 -0.4296 -0.2156 -0.8605
 5476SOL    HW128061   0.011   0.149  11.589  0.2480  1.4560  1.7506
 5476SOL    HW228062   0.054   0.011  11.590 -1.9357  0.1394  1.6329
 5477SOL     OW28063   1.616   0.390  10.940 -0.2568  0.5513  0.0533
 5477SOL    HW128064   1.673   0.438  10.880 -0.7143  1.1273  0.0737
 5477SOL    HW228065   1.581   0.464  10.990 -2.3897 -0.2255 -0.3065
 5478SOL     OW28066   3.260   4.416   1.802 -1.2028  0.5107  0.0049
 5478SOL    HW128067   3.174   4.456   1.800 -1.4765 -0.0772  0.2246
 5478SOL    HW228068   3.266   4.375   1.715  1.1282 -2.8893  1.7466
 5479SOL     OW28069   0.829   0.140  17.049 -0.5015 -0.1048 -0.2265
 5479SOL    HW128070   0.820   0.212  16.986  1.4675  0.1487 -0.2357
 5479SOL    HW228071   0.745   0.144  17.095 -0.7797 -3.1766 -0.4797
 5480SOL     OW28072   4.412   2.386   6.300 -0.7827  0.2314  0.3393
 5480SOL    HW128073   4.451   2.467   6.267  0.3586  0.0008  1.1233
 5480SOL    HW228074   4.351   2.418   6.366  1.0727 -2.2364  3.2352
 5481SOL     OW28075   4.155   0.283  17.203  0.8515 -0.4527 -0.5329
 5481SOL    HW128076   4.086   0.269  17.139  0.9247 -1.1719 -0.4578
 5481SOL    HW228077   4.129   0.372  17.228 -0.4845 -0.8450 -0.4938
 5482SOL     OW28078   1.597   4.731   8.847  0.2341 -0.0416  0.2000
 5482SOL    HW128079   1.531   4.662   8.842  0.1984 -0.0937  1.5685
 5482SOL    HW228080   1.575   0.046   8.766  0.5265  0.2586  0.2978
 5483SOL     OW28081   1.542   0.409  17.459  0.2006 -0.3944  0.1592
 5483SOL    HW128082   1.497   0.350  17.519 -0.5335  2.7280  2.6688
 5483SOL    HW228083   1.570   0.475  17.523  4.2847 -2.5461  0.6176
 5484SOL     OW28084   0.692   3.483   1.580  0.4276  0.5403 -0.0897
 5484SOL    HW128085   0.674   3.432   1.659 -0.3504  0.9570  0.0014
 5484SOL    HW228086   0.753   3.420   1.542  0.2926  0.3472  0.0120
 5485SOL     OW28087   2.938   4.670   1.394  0.1060 -0.5135  0.2759
 5485SOL    HW128088   2.951   0.032   1.388 -3.9547  0.0653  1.0894
 5485SOL    HW228089   3.017   4.649   1.445 -0.8666  0.1901  2.0676
 5486SOL     OW28090   4.560   3.802   3.537 -0.3389 -0.2270 -0.5634
 5486SOL    HW128091   4.604   3.788   3.621  0.7277  1.4331 -0.8391
 5486SOL    HW228092   4.641   3.801   3.485  0.9756 -3.4911  1.6084
 5487SOL     OW28093   4.129   4.332  15.497 -0.2861 -0.3313  0.7631
 5487SOL    HW128094   4.164   4.274  15.430 -1.5166  0.5951 -0.6978
 5487SOL    HW228095   4.109   4.414  15.450  0.6259 -0.6714 -0.2158
 5488SOL     OW28096   3.109   3.135   9.840 -1.2687 -0.2273  0.0742
 5488SOL    HW128097   3.158   3.217   9.849  1.0724 -1.5236 -0.9929
 5488SOL    HW228098   3.020   3.167   9.822 -1.7552  0.7257  4.1966
 5489SOL     OW28099   1.811   0.372   6.842  0.4483  0.4294  0.3790
 5489SOL    HW128100   1.885   0.352   6.785  0.1336  4.3065 -1.4296
 5489SOL    HW228101   1.827   0.304   6.906  0.3871 -0.5363 -0.6224
 5490SOL     OW28102   0.570   1.405  10.044  0.1426  0.3011 -0.8162
 5490SOL    HW128103   0.482   1.389  10.076 -0.4231  1.8922 -1.6027
 5490SOL    HW228104   0.630   1.411  10.118 -0.1131  1.9174 -0.7461
 5491SOL     OW28105   2.094   4.053   1.883 -0.2875 -0.3708 -0.1835
 5491SOL    HW128106   2.174   4.032   1.930 -0.7462 -0.8582  0.3741
 5491SOL    HW228107   2.132   4.102   1.810  1.0904 -0.7469  0.2935
 5492SOL     OW28108   2.245   3.524   4.228  0.5645  0.4985 -0.1689
 5492SOL    HW128109   2.238   3.453   4.291  0.3281 -0.3221 -1.1338
 5492SOL    HW228110   2.278   3.481   4.150  2.7044 -0.1827  1.1036
 5493SOL     OW28111   4.726   3.461   1.879  0.8980 -0.1336 -0.0325
 5493SOL    HW128112   0.018   3.551   1.901 -1.8709  0.8634 -1.1484
 5493SOL    HW228113   4.704   3.465   1.786  0.8616  0.0407 -0.0160
 5494SOL     OW28114   3.729   0.692   8.914  0.5307  0.0022  0.4409
 5494SOL    HW128115   3.642   0.653   8.902 -0.7483  2.8818  0.3806
 5494SOL    HW228116   3.724   0.690   9.010  3.0618  1.6203  0.5975
 5495SOL     OW28117   1.135   1.281   5.132 -0.2130 -0.1487 -0.1178
 5495SOL    HW128118   1.216   1.320   5.099  0.1338 -1.5662 -0.9200
 5495SOL    HW228119   1.140   1.276   5.228  0.1930  0.0449 -0.1271
 5496SOL     OW28120   3.290   0.939   9.742  0.0252  0.2993 -0.4423
 5496SOL    HW128121   3.231   0.894   9.802  0.7106  1.3660  1.0485
 5496SOL    HW228122   3.288   0.874   9.672 -1.5145 -0.8102  0.6585
 5497SOL     OW28123   1.993   4.543   4.686 -0.2625 -0.1369  0.8642
 5497SOL    HW128124   2.037   4.507   4.609 -0.5707  1.4899 -0.0847
 5497SOL    HW228125   1.904   4.511   4.674 -1.1077  2.4376  0.1691
 5498SOL     OW28126   3.506   1.568  15.621 -0.5650  0.2663  0.0387
 5498SOL    HW128127   3.465   1.627  15.558 -2.3149 -1.6453 -0.6441
 5498SOL    HW228128   3.531   1.502  15.556  0.0901 -0.6974  1.2823
 5499SOL     OW28129   1.169   4.668   1.604 -0.2462  0.4087  0.2640
 5499SOL    HW128130   1.147   0.028   1.619 -1.0527  0.3230 -0.3687
 5499SOL    HW228131   1.232   4.666   1.676 -1.1523  2.9509  1.1365
 5500SOL     OW28132   2.189   0.702   7.716 -0.1506 -0.6114 -0.1810
 5500SOL    HW128133   2.249   0.650   7.663  0.4473 -1.3511  1.2184
 5500SOL    HW228134   2.240   0.771   7.759 -1.5586  0.9834 -1.0650
 5501SOL     OW28135   2.265   0.818   5.272 -0.0770  0.2433  0.5544
 5501SOL    HW128136   2.358   0.800   5.261  0.0812  0.4817  1.5269
 5501SOL    HW228137   2.269   0.778   5.359 -3.2647 -0.0076  0.5877
 5502SOL     OW28138   0.067   3.249   6.628 -0.0466 -0.0389  0.1642
 5502SOL    HW128139   0.100   3.210   6.547 -0.8759  1.6927 -1.0245
 5502SOL    HW228140   0.141   3.223   6.682 -1.6391 -1.5755  1.5925
 5503SOL     OW28141   3.341   2.155   5.011  0.0018  0.3571 -0.2177
 5503SOL    HW128142   3.260   2.170   4.962 -0.2512  1.5751  0.5767
 5503SOL    HW228143   3.311   2.146   5.101  2.8653  0.1071  0.7327
 5504SOL     OW28144   2.921   2.241   8.518 -0.0605  0.0098  0.0265
 5504SOL    HW128145   2.929   2.254   8.424  1.9933  1.0962  0.3377
 5504SOL    HW228146   2.827   2.240   8.536 -0.1788 -1.3603 -0.7335
 5505SOL     OW28147   4.538   2.024   1.092 -0.9037  0.0174  0.5577
 5505SOL    HW128148   4.574   2.058   1.010  0.6920 -0.7491  0.9532
 5505SOL    HW228149   4.598   1.949   1.098  1.2349  1.7065  0.0954
 5506SOL     OW28150   0.951   2.977   9.268  0.2522 -0.1150 -0.0737
 5506SOL    HW128151   0.997   3.007   9.190 -2.5170  2.3696 -0.7297
 5506SOL    HW228152   0.884   3.041   9.290  0.8436  0.0795  1.1403
 5507SOL     OW28153   1.984   0.808   8.069 -0.2919 -0.2937 -0.0782
 5507SOL    HW128154   1.949   0.723   8.043  0.1631 -1.0041  1.6657
 5507SOL    HW228155   1.922   0.820   8.140 -1.1776  0.1268 -0.9211
 5508SOL     OW28156   4.594   0.064   5.194 -0.1572  0.0135 -0.1872
 5508SOL    HW128157   4.549   0.097   5.117 -0.1258  1.7836  0.5573
 5508SOL    HW228158   4.530   0.085   5.262 -0.2951  1.0071 -0.6336
 5509SOL     OW28159   1.482   3.021   4.840 -0.1017 -0.0514  0.2858
 5509SOL    HW128160   1.474   3.105   4.795 -2.6044 -0.0540  0.7107
 5509SOL    HW228161   1.450   3.058   4.923 -0.6461  1.9555 -0.8102
 5510SOL     OW28162   3.500   0.530   8.820  0.2127  0.7023 -0.2201
 5510SOL    HW128163   3.439   0.533   8.893 -0.9252 -0.2544 -1.1125
 5510SOL    HW228164   3.452   0.570   8.747 -1.5785  3.3291  2.4290
 5511SOL     OW28165   3.099   4.641  16.764 -0.0185 -0.0521 -0.5102
 5511SOL    HW128166   3.152   4.561  16.764  2.2023  1.4105 -0.9472
 5511SOL    HW228167   3.028   4.624  16.703  1.8079  0.6648 -2.8116
 5512SOL     OW28168   2.634   2.552   7.034 -0.0603  0.0422  0.5896
 5512SOL    HW128169   2.649   2.643   7.060  1.6593  0.0937 -0.5663
 5512SOL    HW228170   2.568   2.556   6.965 -0.5900 -2.6970  0.9322
 5513SOL     OW28171   3.888   1.861   7.830  0.0372  0.3597 -0.0359
 5513SOL    HW128172   3.977   1.840   7.799 -0.4927 -3.7055  1.2158
 5513SOL    HW228173   3.847   1.848   7.745 -1.2072  1.6270  0.3745
 5514SOL     OW28174   2.951   1.156   2.400  0.6544  0.4775  0.6607
 5514SOL    HW128175   3.018   1.210   2.443 -2.3197  2.6173  2.5674
 5514SOL    HW228176   2.976   1.064   2.407  1.3181  0.8422  2.9990
 5515SOL     OW28177   1.768   2.226   0.955  0.0892 -0.0484 -0.3274
 5515SOL    HW128178   1.726   2.276   0.885  1.4275 -0.0463 -1.1402
 5515SOL    HW228179   1.739   2.280   1.028 -0.2575 -0.4360 -0.1774
 5516SOL     OW28180   3.399   2.073   8.865  0.1104 -0.3332  0.3931
 5516SOL    HW128181   3.370   2.141   8.925  0.5628 -0.2216  0.4816
 5516SOL    HW228182   3.493   2.071   8.885 -0.0898 -0.9926  1.2667
 5517SOL     OW28183   4.308   3.938  13.816  0.1443 -0.0459 -0.9092
 5517SOL    HW128184   4.218   3.906  13.822  0.1669 -0.1539 -1.1537
 5517SOL    HW228185   4.278   4.026  13.840  0.2865 -0.6269  1.4106
 5518SOL     OW28186   4.342   2.255  17.714 -0.3194  0.1253 -0.0295
 5518SOL    HW128187   4.406   2.186  17.694  0.0574  0.6402 -0.5780
 5518SOL    HW228188   4.328   2.236   0.079  1.1292 -1.2488 -0.0836
 5519SOL     OW28189   2.758   4.050   8.736  0.7467  0.6005 -0.3576
 5519SOL    HW128190   2.673   4.006   8.731  1.4361 -0.7112 -0.5936
 5519SOL    HW228191   2.758   4.093   8.650 -0.5413 -1.8865 -1.6245
 5520SOL     OW28192   3.131   0.887  17.152  0.1822  0.1330 -0.1221
 5520SOL    HW128193   3.042   0.916  17.175  0.2060  0.6270 -0.6720
 5520SOL    HW228194   3.169   0.970  17.126 -0.5298  0.2061 -0.9443
 5521SOL     OW28195   3.909   0.209   1.749  0.0791 -0.6910 -0.4547
 5521SOL    HW128196   3.946   0.242   1.667  0.9056  1.7321  0.8980
 5521SOL    HW228197   3.877   0.124   1.718 -0.6611 -0.8145  0.6450
 5522SOL     OW28198   1.419   1.874   0.551  0.4588  0.6499  0.3443
 5522SOL    HW128199   1.329   1.844   0.540  0.2215  0.9249  1.5133
 5522SOL    HW228200   1.427   1.939   0.481 -1.5565 -1.2962 -1.7157
 5523SOL     OW28201   2.110   1.952   9.463 -0.6410  0.2681  0.2310
 5523SOL    HW128202   2.017   1.933   9.447 -0.3280 -2.1942  1.2753
 5523SOL    HW228203   2.155   1.907   9.392  0.9672 -1.3370  2.2363
 5524SOL     OW28204   4.024   3.564  17.560  0.1100 -0.3021 -0.1383
 5524SOL    HW128205   3.956   3.546  17.624 -0.3808 -1.3567 -0.9390
 5524SOL    HW228206   4.104   3.555  17.611 -0.0418  0.5538  0.2360
 5525SOL     OW28207   1.714   0.952   4.945 -0.3956  0.8956 -0.4849
 5525SOL    HW128208   1.649   0.895   4.986  0.6118 -1.6828 -2.4751
 5525SOL    HW228209   1.780   0.951   5.014 -0.2004  0.5426 -0.6837
 5526SOL     OW28210   3.025   3.390   6.420 -0.1078 -0.1504  0.2879
 5526SOL    HW128211   2.934   3.396   6.450 -0.2488  0.3240 -0.2168
 5526SOL    HW228212   3.012   3.382   6.325  1.9497 -0.4301  0.0421
 5527SOL     OW28213   1.728   1.947   5.655 -0.2886 -0.2191  0.6303
 5527SOL    HW128214   1.757   1.872   5.603 -1.0114  0.6382 -1.0065
 5527SOL    HW228215   1.744   1.914   5.744 -0.4778 -2.3264 -0.1190
 5528SOL     OW28216   2.618   2.219  13.673 -0.0027 -0.2661 -0.4425
 5528SOL    HW128217   2.607   2.217  13.768  2.9527  4.9368 -0.0094
 5528SOL    HW228218   2.644   2.309  13.656 -2.1727  0.4454 -0.0431
 5529SOL     OW28219   3.664   1.780   2.047 -0.5169  0.4657  0.6196
 5529SOL    HW128220   3.597   1.842   2.018 -1.7513 -1.2294 -0.0749
 5529SOL    HW228221   3.738   1.815   1.997  0.2618 -0.7761  0.9156
 5530SOL     OW28222   1.036   2.549  11.226 -0.0219  0.5115 -0.5079
 5530SOL    HW128223   1.025   2.618  11.160 -1.0813  2.8536  2.0728
 5530SOL    HW228224   0.956   2.573  11.274 -0.2879 -1.4974  0.0383
 5531SOL     OW28225   2.133   0.484  15.046  0.3861 -0.3905  0.9643
 5531SOL    HW128226   2.112   0.459  15.136 -0.3930 -2.7164  0.1562
 5531SOL    HW228227   2.067   0.553  15.038  0.4196 -0.4349  0.3215
 5532SOL     OW28228   4.276   3.013   7.380  0.5917  0.3793 -0.5083
 5532SOL    HW128229   4.289   3.020   7.285  0.6241 -2.2926 -0.6875
 5532SOL    HW228230   4.312   2.925   7.394 -0.5858 -0.0134 -0.0286
 5533SOL     OW28231   3.704   3.066   0.416 -0.1165  0.2604  0.3058
 5533SOL    HW128232   3.633   3.062   0.352  0.1466  2.5648 -0.1126
 5533SOL    HW228233   3.765   3.012   0.365  0.2598  0.2851  0.7338
 5534SOL     OW28234   0.657   0.242   3.152 -0.1715 -0.1023 -0.1944
 5534SOL    HW128235   0.578   0.207   3.110  0.5586 -0.0902 -1.5675
 5534SOL    HW228236   0.698   0.165   3.193 -0.8591 -0.7624 -0.7440
 5535SOL     OW28237   0.556   1.461   0.114 -0.8220  0.2234  0.1875
 5535SOL    HW128238   0.587   1.425   0.031  2.5630  1.8750  0.7641
 5535SOL    HW228239   0.582   1.553   0.119 -1.7578  0.4383  1.0510
 5536SOL     OW28240   0.410   1.424  15.021  0.2251  0.3299 -0.3639
 5536SOL    HW128241   0.369   1.507  14.998  0.5105  0.0550 -1.8588
 5536SOL    HW228242   0.460   1.443  15.100  1.7746 -0.4416 -1.1474
 5537SOL     OW28243   0.349   3.376   1.419  0.1691  0.8243 -0.2162
 5537SOL    HW128244   0.259   3.361   1.389 -0.6352  0.2496  2.4867
 5537SOL    HW228245   0.389   3.291   1.438  1.0509  0.9980 -1.2876
 5538SOL     OW28246   2.585   2.792   0.151 -0.0253  0.0555  0.3292
 5538SOL    HW128247   2.510   2.839   0.114 -0.5211  0.0550  1.3342
 5538SOL    HW228248   2.572   2.707   0.108  1.7285  0.1103 -0.2924
 5539SOL     OW28249   3.270   1.475   4.392 -0.2230  0.0851  1.0327
 5539SOL    HW128250   3.304   1.395   4.352  1.0950  1.5183 -0.7142
 5539SOL    HW228251   3.200   1.437   4.445 -0.4488 -1.0743 -0.1165
 5540SOL     OW28252   0.853   4.168   7.186  0.5933  0.3216 -0.5151
 5540SOL    HW128253   0.865   4.215   7.269 -0.6684  2.2119 -1.3908
 5540SOL    HW228254   0.759   4.153   7.178  0.1909  1.1649  2.2856
 5541SOL     OW28255   4.378   0.542   1.965 -0.6400  0.6492  0.2602
 5541SOL    HW128256   4.383   0.552   2.060  0.4331 -0.2100  0.2890
 5541SOL    HW228257   4.288   0.518   1.944 -0.5918 -0.3188  1.1853
 5542SOL     OW28258   1.446   3.441   8.616 -0.7361  0.0849  0.1369
 5542SOL    HW128259   1.393   3.362   8.626  1.3666 -1.2837  0.5323
 5542SOL    HW228260   1.434   3.474   8.705 -1.3296 -1.3703  0.6058
 5543SOL     OW28261   1.924   2.688   1.593 -0.5303  0.4203 -0.3004
 5543SOL    HW128262   1.914   2.653   1.504  0.8141 -0.7260  0.0103
 5543SOL    HW228263   1.906   2.778   1.564 -1.4268  0.4538  0.3395
 5544SOL     OW28264   0.718   1.061  16.880 -0.2068 -0.1678 -0.0123
 5544SOL    HW128265   0.768   0.983  16.854  0.4946  0.1751  0.3157
 5544SOL    HW228266   0.659   1.018  16.942  3.1306 -1.9151  1.9432
 5545SOL     OW28267   4.615   1.417   3.929  0.1273  0.9383  0.1820
 5545SOL    HW128268   4.575   1.351   3.872 -0.8254  1.9168 -0.2950
 5545SOL    HW228269   4.571   1.412   4.014  0.3106  2.1721  0.3392
 5546SOL     OW28270   0.908   3.813   6.724 -0.4624 -0.0881 -0.3725
 5546SOL    HW128271   0.998   3.822   6.692  0.3198 -0.7854  1.6444
 5546SOL    HW228272   0.926   3.791   6.815 -0.3041  0.3981 -0.2868
 5547SOL     OW28273   2.102   3.489   6.211 -0.3073  0.2509 -0.5407
 5547SOL    HW128274   2.054   3.446   6.281  0.1991 -1.2080 -1.0864
 5547SOL    HW228275   2.097   3.430   6.135  1.2279 -0.5648 -0.0209
 5548SOL     OW28276   1.402   1.972   5.937 -0.1764  0.1134  0.4548
 5548SOL    HW128277   1.406   2.017   6.021 -0.1171 -1.2854  1.2103
 5548SOL    HW228278   1.357   2.047   5.899 -3.4414 -1.0919  1.9325
 5549SOL     OW28279   4.164   3.619   2.255 -0.2534  0.6548  0.1367
 5549SOL    HW128280   4.163   3.696   2.197 -2.5195  1.3199  1.0674
 5549SOL    HW228281   4.130   3.668   2.329 -2.0373  0.1728 -0.3473
 5550SOL     OW28282   3.571   2.224   5.933 -0.6621 -0.3627  0.2121
 5550SOL    HW128283   3.583   2.165   5.858 -1.3654 -1.9210  1.3348
 5550SOL    HW228284   3.581   2.157   6.001  1.9929  0.4199  0.5762
 5551SOL     OW28285   2.203   2.906   5.455  0.3651  0.0495  0.2245
 5551SOL    HW128286   2.140   2.843   5.488  0.4520 -1.1967 -1.9268
 5551SOL    HW228287   2.217   2.946   5.540  1.2015  2.8851 -1.2603
 5552SOL     OW28288   3.833   0.867  13.239  0.4137 -0.2344 -0.3855
 5552SOL    HW128289   3.881   0.884  13.158 -1.1359 -1.6006 -1.5870
 5552SOL    HW228290   3.743   0.896  13.227  0.6306  0.6328  0.0658
 5553SOL     OW28291   0.290   3.020   4.075 -0.4200  0.4480  0.0692
 5553SOL    HW128292   0.202   3.055   4.063 -1.4386 -2.0065  0.3717
 5553SOL    HW228293   0.317   3.050   4.161  0.6581  1.4693 -0.6206
 5554SOL     OW28294   1.361   0.314   8.444 -0.4709 -0.0934 -0.1878
 5554SOL    HW128295   1.333   0.233   8.400  0.7872 -1.0122  0.6775
 5554SOL    HW228296   1.418   0.280   8.513  1.5741  2.0705 -0.7912
 5555SOL     OW28297   4.126   3.215   7.464 -0.0064 -0.4471  0.5104
 5555SOL    HW128298   4.184   3.143   7.438 -0.8803 -0.0626 -2.4986
 5555SOL    HW228299   4.182   3.268   7.520 -1.4991  1.4779  0.1720
 5556SOL     OW28300   1.801   0.608   8.870 -0.4830  0.5608  0.3849
 5556SOL    HW128301   1.793   0.688   8.923 -1.8368  0.4390  0.3714
 5556SOL    HW228302   1.817   0.547   8.942  1.2953  0.3086 -0.2344
 5557SOL     OW28303   3.731   1.342  16.325  0.3531  0.8538  0.4653
 5557SOL    HW128304   3.687   1.420  16.289  1.1498  0.5072 -1.2612
 5557SOL    HW228305   3.819   1.359  16.292  0.4541 -0.2328  0.1784
 5558SOL     OW28306   1.837   4.574   2.026  0.3461 -0.0265  0.4074
 5558SOL    HW128307   1.743   4.595   2.025  0.6935  1.5612  0.8776
 5558SOL    HW228308   1.829   4.495   1.973  0.1852 -0.3934  0.9752
 5559SOL     OW28309   4.074   1.292   5.300 -0.1789  0.1946  0.3469
 5559SOL    HW128310   4.017   1.365   5.276 -0.9511 -0.3071  0.6674
 5559SOL    HW228311   4.058   1.292   5.394  0.7486  2.4327  0.5045
 5560SOL     OW28312   4.046   4.392   6.595 -0.5663  0.2332 -0.2999
 5560SOL    HW128313   4.089   4.377   6.510  1.5089  1.7879  0.4787
 5560SOL    HW228314   3.977   4.326   6.601 -0.0056 -0.2350  1.0202
 5561SOL     OW28315   0.368   1.307   6.280  0.2873  0.3024 -0.0818
 5561SOL    HW128316   0.355   1.265   6.194 -0.7177 -0.2443  0.3376
 5561SOL    HW228317   0.460   1.330   6.264 -0.7568  3.1742 -2.0682
 5562SOL     OW28318   4.259   4.485  10.173 -0.6231 -0.2259 -0.5436
 5562SOL    HW128319   4.283   4.411  10.229 -1.6321 -0.8530 -0.9525
 5562SOL    HW228320   4.167   4.477  10.148 -1.2524  1.8545  1.0484
 5563SOL     OW28321   0.991   2.687  10.383 -0.3293  0.2813  0.1976
 5563SOL    HW128322   1.050   2.614  10.402 -1.3314 -0.3224  1.0140
 5563SOL    HW228323   0.931   2.694  10.458 -1.7854 -0.4468 -0.8944
 5564SOL     OW28324   4.101   3.129  10.227  0.3242 -0.3438 -0.3311
 5564SOL    HW128325   4.191   3.132  10.195  1.2620 -2.5538  2.0780
 5564SOL    HW228326   4.127   3.164  10.312  0.1795 -1.5457  0.1966
 5565SOL     OW28327   4.710   0.688   5.344  0.5213  0.1080 -0.2195
 5565SOL    HW128328   4.640   0.721   5.400  0.7128  0.9084 -0.4650
 5565SOL    HW228329   0.014   0.762   5.296  1.4854  0.4443  1.0337
 5566SOL     OW28330   1.898   3.057   5.403 -0.0674 -0.1345  0.0546
 5566SOL    HW128331   1.846   2.988   5.443  1.4106 -1.1164  0.2392
 5566SOL    HW228332   1.984   3.032   5.435  0.3397  0.3514 -0.6500
 5567SOL     OW28333   3.785   1.596   7.409  0.8373  0.2028 -0.0016
 5567SOL    HW128334   3.867   1.558   7.376 -0.0857 -0.3377 -1.7049
 5567SOL    HW228335   3.731   1.570   7.334 -2.2050  1.6962  1.7210
 5568SOL     OW28336   1.798   4.016   5.160 -0.0379  0.3083 -0.4800
 5568SOL    HW128337   1.808   4.048   5.250 -0.6640  2.0245 -1.0231
 5568SOL    HW228338   1.892   3.997   5.152  0.0372 -0.0455  1.1111
 5569SOL     OW28339   3.532   3.688   7.548 -0.0683 -0.2519 -0.4903
 5569SOL    HW128340   3.583   3.764   7.519 -0.5871 -0.3845 -1.7435
 5569SOL    HW228341   3.594   3.646   7.607  0.3070 -0.3743 -0.9751
 5570SOL     OW28342   3.049   2.808   1.944  0.1262  0.6282  0.0722
 5570SOL    HW128343   2.953   2.803   1.948  0.3481 -2.8737  1.1379
 5570SOL    HW228344   3.083   2.722   1.968  1.0881  1.5316  1.9917
 5571SOL     OW28345   1.841   0.355   7.812 -0.4393 -0.8167  0.1227
 5571SOL    HW128346   1.772   0.303   7.851 -0.1500  0.1890  1.9910
 5571SOL    HW228347   1.926   0.312   7.821 -0.3746 -0.3482  1.7922
 5572SOL     OW28348   3.624   3.374   6.764  0.0865  0.3276  0.0902
 5572SOL    HW128349   3.623   3.281   6.745  0.2817  0.3151  0.1384
 5572SOL    HW228350   3.652   3.404   6.677 -0.3682  0.1015 -0.1392
 5573SOL     OW28351   0.090   1.584   5.023 -0.0432  0.1550  0.4467
 5573SOL    HW128352   0.052   1.663   5.060 -2.7490  0.1849 -2.3725
 5573SOL    HW228353   0.052   1.597   4.936  1.9283 -0.3687 -0.4974
 5574SOL     OW28354   4.026   1.911  10.280  0.2394  0.4815  0.2469
 5574SOL    HW128355   4.040   1.999  10.315 -0.1585  0.7517 -0.2757
 5574SOL    HW228356   4.095   1.913  10.213 -0.1855 -0.2480 -0.2047
 5575SOL     OW28357   0.531   0.683   6.048 -0.8103  0.4823 -0.1094
 5575SOL    HW128358   0.575   0.601   6.026  0.3006  0.3370  2.6158
 5575SOL    HW228359   0.443   0.668   6.013 -0.4895 -0.2144 -0.6031
 5576SOL     OW28360   3.123   4.721   8.546 -0.4937  0.0404  0.4883
 5576SOL    HW128361   3.041   0.029   8.575 -1.3844 -0.9689 -0.5992
 5576SOL    HW228362   3.167   4.703   8.629  0.5607  1.0267  0.1392
 5577SOL     OW28363   1.526   0.762   8.297 -0.0205 -0.1742  0.4095
 5577SOL    HW128364   1.473   0.710   8.357 -2.3793 -1.2799 -2.5997
 5577SOL    HW228365   1.461   0.829   8.274  0.0589 -0.2073  0.0906
 5578SOL     OW28366   0.171   3.509   7.473  0.1674  0.1026 -0.4815
 5578SOL    HW128367   0.266   3.508   7.482  0.0504 -1.9696  0.6084
 5578SOL    HW228368   0.158   3.471   7.386 -0.1523  0.1237 -0.4421
 5579SOL     OW28369   1.014   3.118   1.726 -0.3374  0.1575 -0.3864
 5579SOL    HW128370   0.971   3.106   1.641  0.1002  1.3402 -0.7721
 5579SOL    HW228371   1.070   3.194   1.714  1.3103 -0.8768  0.8055
 5580SOL     OW28372   2.680   2.402   2.294  0.1966 -0.1644 -0.0877
 5580SOL    HW128373   2.652   2.325   2.244  0.0266 -0.0550 -0.1608
 5580SOL    HW228374   2.598   2.429   2.335 -0.0733  3.1181 -2.7945
 5581SOL     OW28375   1.119   1.421   4.234 -0.2099  0.0766  0.2827
 5581SOL    HW128376   1.165   1.339   4.219  1.5131  1.9867 -4.7446
 5581SOL    HW228377   1.173   1.474   4.176  0.8267 -0.4186  0.8031
 5582SOL     OW28378   3.572   0.251   6.945 -0.0402 -0.0376 -0.4347
 5582SOL    HW128379   3.517   0.179   6.976  0.6440 -0.6923 -0.7418
 5582SOL    HW228380   3.514   0.323   6.970  1.4449  1.3170 -0.9585
 5583SOL     OW28381   4.143   0.681   3.673  0.2268  0.3986  0.1681
 5583SOL    HW128382   4.160   0.687   3.579 -1.0039 -0.5937 -0.1117
 5583SOL    HW228383   4.120   0.589   3.688  0.3061 -0.3553 -4.4230
 5584SOL     OW28384   3.337   1.811  17.409 -0.7167  0.1531 -0.2381
 5584SOL    HW128385   3.248   1.781  17.391  0.2521 -2.6061 -0.5132
 5584SOL    HW228386   3.356   1.764  17.491  1.5809  0.8512 -0.3811
 5585SOL     OW28387   3.038   0.703   9.189  0.1582 -0.1735 -0.3253
 5585SOL    HW128388   3.097   0.739   9.123 -0.7002  0.9147 -0.5076
 5585SOL    HW228389   2.994   0.630   9.143 -1.5376  0.7215 -0.1348
 5586SOL     OW28390   3.792   3.980   8.683  0.0314  0.3869  0.1053
 5586SOL    HW128391   3.790   4.012   8.593  0.7507 -0.3548 -0.1629
 5586SOL    HW228392   3.787   4.063   8.732 -0.0060 -1.5026  3.3169
 5587SOL     OW28393   1.734   1.532   5.200  0.0285 -0.4720 -0.3196
 5587SOL    HW128394   1.722   1.529   5.105  1.4361 -0.6339 -0.4867
 5587SOL    HW228395   1.785   1.613   5.199  0.8461 -0.9750  0.5582
 5588SOL     OW28396   1.982   1.323   9.924  0.1029 -0.1929  0.5098
 5588SOL    HW128397   1.958   1.378   9.999 -0.5279  0.6404 -0.3038
 5588SOL    HW228398   1.927   1.248   9.946  0.5863 -0.6749  0.0785
 5589SOL     OW28399   2.389   2.455  14.010 -0.0454 -0.0202 -0.0085
 5589SOL    HW128400   2.294   2.451  14.015 -0.1612  1.6614 -0.8788
 5589SOL    HW228401   2.404   2.474  14.102  0.0869  1.9357 -0.4286
 5590SOL     OW28402   0.293   0.781   4.081 -0.1598 -0.5801  0.2856
 5590SOL    HW128403   0.324   0.693   4.061  0.0198 -0.2727 -0.7740
 5590SOL    HW228404   0.208   0.767   4.124 -0.1063 -1.6169  0.0538
 5591SOL     OW28405   3.357   3.778  16.002 -0.1981  0.0823  0.3492
 5591SOL    HW128406   3.284   3.762  15.943 -0.3193  0.5348  0.3752
 5591SOL    HW228407   3.422   3.829  15.954  1.6021 -0.6824  1.9804
 5592SOL     OW28408   1.655   3.608  10.357  0.3681 -0.8475  0.2343
 5592SOL    HW128409   1.568   3.568  10.359 -0.3354  0.5272 -3.7857
 5592SOL    HW228410   1.638   3.696  10.391  0.1869 -1.1097  0.8097
 5593SOL     OW28411   1.219   1.408   1.299  0.0641 -0.3197  0.4223
 5593SOL    HW128412   1.289   1.424   1.237 -0.5058 -2.3825 -0.7574
 5593SOL    HW228413   1.204   1.314   1.284 -1.4176  0.1241 -0.8466
 5594SOL     OW28414   4.201   0.422   4.405  0.7231 -0.0153  0.2143
 5594SOL    HW128415   4.272   0.484   4.388  0.1470  0.7726  0.6410
 5594SOL    HW228416   4.186   0.426   4.500 -0.6255  0.5739 -0.0128
 5595SOL     OW28417   4.584   4.408   5.834  0.0948 -0.0508 -0.0687
 5595SOL    HW128418   4.611   4.316   5.843 -0.8569 -0.1645  1.6509
 5595SOL    HW228419   4.492   4.392   5.816  0.0890  2.5228 -2.3144
 5596SOL     OW28420   0.754   3.290  14.782  0.0854  0.3451 -0.0306
 5596SOL    HW128421   0.755   3.207  14.831 -0.1251 -0.5541 -1.5500
 5596SOL    HW228422   0.847   3.311  14.783  0.0343  0.5967 -1.1884
 5597SOL     OW28423   0.109   4.615  16.558 -0.9451 -0.1520  0.0636
 5597SOL    HW128424   0.066   4.629  16.474  2.4332  0.5294 -1.5769
 5597SOL    HW228425   0.033   4.631  16.614 -1.7618 -2.0279 -0.5133
 5598SOL     OW28426   2.307   1.888   4.832  0.8482 -0.4598 -0.1889
 5598SOL    HW128427   2.338   1.895   4.742  0.5500  2.1383 -0.0965
 5598SOL    HW228428   2.249   1.813   4.833 -1.4526  1.3250  0.3423
 5599SOL     OW28429   0.489   4.263   8.933  0.2778  0.0974 -0.4350
 5599SOL    HW128430   0.430   4.214   8.876  0.7308  0.7108 -1.4313
 5599SOL    HW228431   0.490   4.351   8.895  0.4465 -0.0613 -0.8047
 5600SOL     OW28432   4.257   3.130   1.975  0.0365  0.3537 -0.2972
 5600SOL    HW128433   4.241   3.218   1.941 -0.6715  0.6840  0.8870
 5600SOL    HW228434   4.312   3.152   2.051  2.2487  2.4167 -2.4801
 5601SOL     OW28435   2.242   1.238  16.405  0.1777  0.0780 -0.0152
 5601SOL    HW128436   2.311   1.214  16.343  0.3721 -0.4717  0.4106
 5601SOL    HW228437   2.287   1.310  16.449 -0.7352 -1.3845  3.3211
 5602SOL     OW28438   4.257   4.561   0.132  0.3386  0.3679  0.0258
 5602SOL    HW128439   4.218   4.479   0.100 -1.5010  0.8347  1.0892
 5602SOL    HW228440   4.207   4.634   0.095 -1.1459  0.8516  3.0106
 5603SOL     OW28441   0.183   1.958   0.682  0.0564 -0.5202 -0.1496
 5603SOL    HW128442   0.228   1.874   0.672 -0.0298 -0.8336  2.3032
 5603SOL    HW228443   0.120   1.951   0.610  0.0612  0.3938 -0.2409
 5604SOL     OW28444   2.323   3.037   7.814 -0.3850 -0.3717 -0.0068
 5604SOL    HW128445   2.412   3.038   7.780 -0.7109 -2.6121 -0.9538
 5604SOL    HW228446   2.323   2.946   7.844 -2.3280 -0.6156 -0.7354
 5605SOL     OW28447   4.456   3.489   3.212  0.4446  0.1964 -0.4221
 5605SOL    HW128448   4.368   3.480   3.246  0.1962  0.4764 -0.9890
 5605SOL    HW228449   4.486   3.399   3.196 -0.0719 -0.2592  1.1530
 5606SOL     OW28450   2.268   0.831   8.854 -0.1778 -0.6177  0.6315
 5606SOL    HW128451   2.186   0.781   8.856  0.1529 -1.1900 -0.2840
 5606SOL    HW228452   2.284   0.835   8.759  1.9273  0.8708  1.0676
 5607SOL     OW28453   3.347   0.209   1.500  0.0881 -0.0550 -0.3059
 5607SOL    HW128454   3.382   0.159   1.426  0.8637  1.4194 -0.9422
 5607SOL    HW228455   3.419   0.200   1.561 -2.5780 -0.4632  2.7586
 5608SOL     OW28456   0.373   1.272   7.810  0.7879 -0.3228 -0.0837
 5608SOL    HW128457   0.315   1.338   7.849 -0.0432 -0.9584 -0.2403
 5608SOL    HW228458   0.325   1.234   7.737 -0.7156 -0.2139  0.8533
 5609SOL     OW28459   0.014   4.732  10.007 -0.1001  0.3009 -0.0692
 5609SOL    HW128460   4.706   0.057   9.942 -0.7920  1.6631  1.5504
 5609SOL    HW228461   0.099   4.713   9.968 -0.1392 -2.1864  0.9953
 5610SOL     OW28462   3.653   3.290  11.207 -0.1172  0.2018 -0.5135
 5610SOL    HW128463   3.728   3.241  11.241  0.5909  2.6478  1.4480
 5610SOL    HW228464   3.655   3.281  11.112 -2.5180 -2.6973 -0.3030
 5611SOL     OW28465   0.445   1.414   4.588  0.9498  0.2897  0.2727
 5611SOL    HW128466   0.523   1.467   4.571  1.4100 -0.1920  0.8993
 5611SOL    HW228467   0.440   1.365   4.506  1.7619  0.0304  0.3811
 5612SOL     OW28468   2.875   1.502   6.597  0.1786 -0.0098  0.2033
 5612SOL    HW128469   2.960   1.459   6.589  1.8983  3.1994  1.1981
 5612SOL    HW228470   2.901   1.592   6.574  2.1319 -0.6241 -0.0261
 5613SOL     OW28471   1.867   2.190   5.364  0.4367 -0.4174  0.2065
 5613SOL    HW128472   1.781   2.205   5.325 -0.1015 -0.3960  1.3936
 5613SOL    HW228473   1.852   2.096   5.376 -2.0843 -0.0620 -0.2581
 5614SOL     OW28474   4.617   2.891   1.926 -0.0894  0.2928  0.2304
 5614SOL    HW128475   4.647   2.981   1.912  1.2991 -0.4956 -1.9493
 5614SOL    HW228476   4.522   2.901   1.932  0.0387  0.4403  1.8626
 5615SOL     OW28477   1.597   1.691   4.061  0.1683  0.2985  0.2439
 5615SOL    HW128478   1.558   1.655   4.141  1.1339 -0.3503  0.4181
 5615SOL    HW228479   1.516   1.716   4.017 -0.2484  0.2692  0.9783
 5616SOL     OW28480   0.361   0.249   1.797  0.4484  0.3509 -0.2050
 5616SOL    HW128481   0.410   0.238   1.879 -1.2020 -1.8373  0.5148
 5616SOL    HW228482   0.293   0.309   1.829  0.1098 -1.0726  1.7869
 5617SOL     OW28483   3.379   4.104   1.655 -0.3452  0.2565  0.6169
 5617SOL    HW128484   3.356   4.023   1.610 -0.4365 -0.1814  1.4418
 5617SOL    HW228485   3.308   4.163   1.631  0.3515  1.4027  1.3357
 5618SOL     OW28486   3.420   3.014   0.928 -0.2986 -0.0442  0.3135
 5618SOL    HW128487   3.466   2.932   0.910 -1.5897 -0.5089 -0.8692
 5618SOL    HW228488   3.495   3.072   0.935 -0.0116 -0.3308 -0.4417
 5619SOL     OW28489   0.721   4.421   3.599 -0.3342  0.3589  0.3867
 5619SOL    HW128490   0.728   4.351   3.534 -0.3081  0.6970  0.0252
 5619SOL    HW228491   0.671   4.374   3.665 -0.4519 -0.3302 -0.1981
 5620SOL     OW28492   0.177   2.519   2.600  0.0058  0.2713  0.4373
 5620SOL    HW128493   0.271   2.538   2.606 -0.0306  0.7709 -0.7271
 5620SOL    HW228494   0.149   2.574   2.673 -0.6696 -1.4351  1.4735
 5621SOL     OW28495   4.348   1.896   5.463 -0.1687 -0.8719 -0.3763
 5621SOL    HW128496   4.396   1.970   5.500  0.7098 -0.2074 -2.8716
 5621SOL    HW228497   4.284   1.939   5.407 -1.1395  1.6262  2.6386
 5622SOL     OW28498   1.206   0.625  12.651 -0.1795  0.9087  0.4816
 5622SOL    HW128499   1.287   0.575  12.654 -0.8546 -0.2388 -0.4114
 5622SOL    HW228500   1.196   0.659  12.740  1.6299 -0.7137  1.2991
 5623SOL     OW28501   2.310   2.336   8.985  0.0208  0.7060  0.0867
 5623SOL    HW128502   2.262   2.297   9.058 -0.5360  1.5620  0.1865
 5623SOL    HW228503   2.322   2.424   9.021 -0.3618  1.4371 -1.5911
 5624SOL     OW28504   0.228   3.810   6.465 -0.1815 -0.1434 -0.0214
 5624SOL    HW128505   0.176   3.733   6.487  0.0224 -0.3536 -0.2743
 5624SOL    HW228506   0.166   3.857   6.411  0.6024 -0.4897 -1.2121
 5625SOL     OW28507   4.606   0.124   0.006  0.2348  0.3241  0.5411
 5625SOL    HW128508   4.678   0.092   0.061  0.6412 -0.1795 -0.2863
 5625SOL    HW228509   4.535   0.103   0.067  0.2187  1.2102  0.8328
 5626SOL     OW28510   0.266   3.383   9.535  0.6398 -0.2943 -0.5225
 5626SOL    HW128511   0.294   3.296   9.508 -1.3097 -1.3609  0.8742
 5626SOL    HW228512   0.311   3.439   9.471 -0.8662  0.7084 -0.7051
 5627SOL     OW28513   4.419   0.507  12.921 -0.3543 -0.6321  0.1838
 5627SOL    HW128514   4.477   0.559  12.977 -1.3515  0.2192  0.4282
 5627SOL    HW228515   4.363   0.464  12.985 -1.5665  0.2570 -0.2855
 5628SOL     OW28516   3.637   1.938   6.795 -0.2601 -0.1600  0.1230
 5628SOL    HW128517   3.633   2.033   6.806  2.3272 -0.1918  1.1982
 5628SOL    HW228518   3.624   1.903   6.883 -1.4683 -1.0430 -0.4084
 5629SOL     OW28519   1.607   0.354  12.967  0.0846 -0.4190  0.2336
 5629SOL    HW128520   1.637   0.441  12.995  0.2657 -0.6273  0.6823
 5629SOL    HW228521   1.693   0.326  12.936  0.0937  1.2519 -1.2942
 5630SOL     OW28522   3.787   2.298   3.151 -0.3573 -0.0331  0.2271
 5630SOL    HW128523   3.717   2.243   3.187  2.5116 -4.2034 -0.5829
 5630SOL    HW228524   3.860   2.257   3.197 -1.3834 -2.9120 -0.6959
 5631SOL     OW28525   3.909   2.777  17.466 -0.1822  0.0058  0.5391
 5631SOL    HW128526   3.961   2.702  17.493  1.0305  0.1565 -1.3485
 5631SOL    HW228527   3.943   2.846  17.522  0.3511 -0.8188  1.2302
 5632SOL     OW28528   1.583   0.382   6.433 -0.1298  0.1041  0.1156
 5632SOL    HW128529   1.544   0.299   6.405 -1.6523  1.3611 -1.4893
 5632SOL    HW228530   1.617   0.358   6.519  0.7704  1.3152  0.1014
 5633SOL     OW28531   4.552   2.541   6.526  0.2493 -0.0100  0.1770
 5633SOL    HW128532   4.540   2.535   6.431  1.4408  1.6024 -0.0589
 5633SOL    HW228533   4.616   2.472   6.543  0.6120  0.0196 -1.0366
 5634SOL     OW28534   4.572   1.259  13.001 -0.0436  0.3954 -0.0133
 5634SOL    HW128535   4.482   1.249  12.970 -0.3494  0.3595  0.8925
 5634SOL    HW228536   4.622   1.277  12.921  0.1174 -0.2337 -0.0580
 5635SOL     OW28537   0.068   4.585   7.354 -0.3301 -0.0463  0.0112
 5635SOL    HW128538   0.045   4.569   7.445 -1.5154 -0.0988 -0.3013
 5635SOL    HW228539   0.011   4.524   7.307 -2.1531  1.5890  0.1222
 5636SOL     OW28540   4.355   4.446   7.217 -0.1771  0.0480  0.0655
 5636SOL    HW128541   4.287   4.507   7.244  0.0879  0.6685 -0.6742
 5636SOL    HW228542   4.323   4.426   7.129  0.2861 -0.6596  0.0532
 5637SOL     OW28543   3.602   2.336   3.836 -0.5932 -0.1975 -0.2092
 5637SOL    HW128544   3.512   2.365   3.852  0.2487  1.2803  1.8028
 5637SOL    HW228545   3.628   2.410   3.782 -0.2594  0.9654  1.5302
 5638SOL     OW28546   3.482   3.684  11.552 -0.2730 -0.1014 -0.0264
 5638SOL    HW128547   3.555   3.741  11.572 -0.8849  1.0501 -1.0800
 5638SOL    HW228548   3.508   3.644  11.469 -1.4614  1.0415 -0.9475
 5639SOL     OW28549   0.966   1.907  16.418  0.1587  0.5110  0.2240
 5639SOL    HW128550   1.018   1.833  16.387 -1.0742  0.0954 -0.8407
 5639SOL    HW228551   0.928   1.948  16.341  1.1257  2.7131  0.9336
 5640SOL     OW28552   1.090   0.201   9.782  0.5244 -0.8535  0.1803
 5640SOL    HW128553   1.172   0.156   9.765  0.9060 -0.3339  0.6416
 5640SOL    HW228554   1.125   0.256   9.852 -3.1078 -0.5057  1.7562
 5641SOL     OW28555   1.737   3.249  15.028 -0.1604 -0.2394  0.3995
 5641SOL    HW128556   1.761   3.247  14.935  0.3263  0.6444  0.5024
 5641SOL    HW228557   1.653   3.294  15.024 -0.2890 -0.2250  3.1936
 5642SOL     OW28558   4.677   3.028  13.986  0.1790 -0.8513 -0.3211
 5642SOL    HW128559   0.029   3.028  13.941  0.1837  0.9330 -0.2941
 5642SOL    HW228560   4.619   2.998  13.916  1.3450 -1.5487 -0.9909
 5643SOL     OW28561   1.297   3.256   0.641  0.5607 -0.2931 -0.2146
 5643SOL    HW128562   1.240   3.328   0.615  1.1668 -0.0252 -0.7843
 5643SOL    HW228563   1.242   3.229   0.715 -0.6388 -2.0813 -1.7725
 5644SOL     OW28564   3.833   1.293   1.827  0.3510  0.9210  0.9249
 5644SOL    HW128565   3.898   1.361   1.808 -0.9305  1.8999  0.0422
 5644SOL    HW228566   3.804   1.278   1.737 -2.6294 -0.5152  2.1423
 5645SOL     OW28567   3.429   4.078  16.971  0.1565  0.5951  0.3375
 5645SOL    HW128568   3.523   4.084  16.988  0.4295  2.7464 -2.0616
 5645SOL    HW228569   3.428   4.028  16.889  1.0664 -0.0498  0.7250
 5646SOL     OW28570   2.026   0.704   6.340  0.3383  0.3793  0.1722
 5646SOL    HW128571   2.070   0.781   6.375 -0.3799  0.3593  1.1120
 5646SOL    HW228572   2.013   0.728   6.248  1.6926  0.2406 -0.0568
 5647SOL     OW28573   4.369   2.332   8.036 -0.2003 -0.3817  0.1054
 5647SOL    HW128574   4.315   2.404   8.002 -1.2106 -1.0545  0.2950
 5647SOL    HW228575   4.459   2.352   8.009 -0.1788  0.3202  0.7008
 5648SOL     OW28576   3.107   2.773   5.899 -0.2731  0.6394  0.0980
 5648SOL    HW128577   3.180   2.720   5.931 -1.2870  0.3337  1.9006
 5648SOL    HW228578   3.044   2.702   5.890  0.2992  0.1673 -0.1726
 5649SOL     OW28579   3.664   4.055   7.047  0.1757  0.4597 -0.0726
 5649SOL    HW128580   3.718   4.123   7.007 -1.1319  1.8240  0.4675
 5649SOL    HW228581   3.730   4.001   7.089 -3.7384 -2.9859  1.6793
 5650SOL     OW28582   1.845   4.318  15.353  0.2600  0.2924 -0.0015
 5650SOL    HW128583   1.925   4.275  15.383  0.1942  1.3526  1.7236
 5650SOL    HW228584   1.836   4.265  15.274 -4.2565  0.3061  0.4897
 5651SOL     OW28585   1.400   0.891   9.399  0.5822 -0.4479 -0.4005
 5651SOL    HW128586   1.325   0.882   9.341 -0.3211  0.0743  0.6748
 5651SOL    HW228587   1.384   0.820   9.461  3.2201  0.1314  0.9505
 5652SOL     OW28588   3.008   0.676  17.598 -0.0987  0.2695 -0.3484
 5652SOL    HW128589   2.994   0.714  17.511 -2.8510  0.4728  0.1878
 5652SOL    HW228590   3.010   0.747  17.662 -0.6824 -1.5731  1.6885
 5653SOL     OW28591   0.205   0.444   8.727 -0.4412 -0.2882 -0.5438
 5653SOL    HW128592   0.242   0.377   8.670  0.2155  0.0436 -0.5129
 5653SOL    HW228593   0.264   0.516   8.705  0.8477 -0.9873  0.6512
 5654SOL     OW28594   1.812   1.797   5.080 -0.0724 -0.3797  0.2427
 5654SOL    HW128595   1.722   1.828   5.078  0.4609  1.0059 -1.8143
 5654SOL    HW228596   1.839   1.821   4.992 -1.7495 -0.2172 -0.2244
 5655SOL     OW28597   2.897   0.127   7.227  0.6872  0.3504  0.4403
 5655SOL    HW128598   2.859   0.132   7.314  1.2742  1.4437  0.6282
 5655SOL    HW228599   2.833   0.092   7.165 -0.5363  0.8321  1.4623
 5656SOL     OW28600   2.178   1.644  14.952  0.0185  0.3867  0.6744
 5656SOL    HW128601   2.167   1.739  14.960  0.8437  0.6011 -0.6668
 5656SOL    HW228602   2.159   1.614  15.041 -1.3654  0.1491  0.2906
 5657SOL     OW28603   1.102   2.328  10.677  0.2515 -0.1540 -0.2434
 5657SOL    HW128604   1.149   2.256  10.636  1.4314  0.5567 -0.1413
 5657SOL    HW228605   1.118   2.318  10.770 -3.4329 -0.1276  0.4043
 5658SOL     OW28606   1.315   4.503   2.863  0.1249  0.0573  0.2536
 5658SOL    HW128607   1.404   4.505   2.827 -0.7208  2.9073 -1.7193
 5658SOL    HW228608   1.309   4.408   2.864  0.9709  0.0269  1.5408
 5659SOL     OW28609   4.191   4.178   2.719  0.3845 -0.1860 -0.5023
 5659SOL    HW128610   4.258   4.237   2.754 -0.3797  1.8493 -2.4672
 5659SOL    HW228611   4.214   4.093   2.756  1.4232 -0.0150 -0.7526
 5660SOL     OW28612   2.988   1.597   8.472  0.2733 -0.2250  0.0850
 5660SOL    HW128613   3.012   1.659   8.403  0.4366 -2.2410 -1.6804
 5660SOL    HW228614   2.946   1.654   8.537  0.1075  1.4977 -1.5165
 5661SOL     OW28615   3.621   0.957   3.324  0.3170 -0.4571 -0.0316
 5661SOL    HW128616   3.540   0.905   3.323 -0.5972  1.0102 -2.0355
 5661SOL    HW228617   3.657   0.969   3.411  0.5775  2.1905 -0.5104
 5662SOL     OW28618   3.432   0.108  11.997  0.3316  0.1638 -0.4600
 5662SOL    HW128619   3.476   0.049  12.058 -0.4052  0.6752  0.5625
 5662SOL    HW228620   3.483   0.189  12.005  1.9175 -0.9842  1.0628
 5663SOL     OW28621   1.211   0.566   2.923  0.5725 -0.0488  0.2176
 5663SOL    HW128622   1.216   0.470   2.920  1.1394 -0.0306  0.5282
 5663SOL    HW228623   1.189   0.586   3.014 -1.0139 -0.8180  0.0008
 5664SOL     OW28624   2.175   3.823   1.624  0.2941 -0.0321 -0.0859
 5664SOL    HW128625   2.258   3.858   1.658  0.8543  0.3858 -1.8743
 5664SOL    HW228626   2.211   3.808   1.536 -0.1826  0.0563 -0.2924
 5665SOL     OW28627   2.664   0.765  13.421  0.1148  0.3533 -0.2133
 5665SOL    HW128628   2.714   0.713  13.359 -1.1874  1.3642 -2.0937
 5665SOL    HW228629   2.701   0.734  13.504  1.2507  0.5460 -0.6625
 5666SOL     OW28630   2.300   1.254   3.723 -0.0463 -0.4094 -0.0186
 5666SOL    HW128631   2.345   1.330   3.759  1.7679 -0.5020 -2.1005
 5666SOL    HW228632   2.269   1.288   3.639  2.0071 -0.0680 -0.6425
 5667SOL     OW28633   4.265   3.427  16.602 -0.3265 -0.0663  0.1428
 5667SOL    HW128634   4.283   3.476  16.522  0.1663 -0.3591  0.0711
 5667SOL    HW228635   4.349   3.408  16.645  0.0608  2.1343  0.3700
 5668SOL     OW28636   0.644   1.038  13.519  0.0875  0.0592  0.0201
 5668SOL    HW128637   0.726   1.056  13.564  1.0031 -0.3989 -1.4723
 5668SOL    HW228638   0.648   0.951  13.478  1.8666 -0.4503  1.2649
 5669SOL     OW28639   2.477   0.279   5.165  0.4435  0.2461 -0.7519
 5669SOL    HW128640   2.395   0.239   5.135 -1.0557  3.7861 -1.3917
 5669SOL    HW228641   2.495   0.337   5.092 -0.5588  0.5850 -0.7344
 5670SOL     OW28642   0.662   4.461   6.128  0.1261 -0.3259  0.2096
 5670SOL    HW128643   0.741   4.509   6.101  1.5648 -2.4705  0.6395
 5670SOL    HW228644   0.596   4.500   6.070 -0.7513  0.9293  2.0327
 5671SOL     OW28645   0.008   2.772   6.265 -0.4506  0.1173 -0.1110
 5671SOL    HW128646   0.080   2.748   6.324  2.1339  0.1844 -3.1970
 5671SOL    HW228647   0.059   2.796   6.187 -0.0588 -1.4146 -0.3357
 5672SOL     OW28648   1.088   0.230   1.370  0.2771  0.5696 -0.3200
 5672SOL    HW128649   1.055   0.230   1.280  1.3615  1.1979 -0.7349
 5672SOL    HW228650   1.168   0.179   1.360  1.9255  2.6141  2.1798
 5673SOL     OW28651   2.517   3.508   6.814  0.1445 -0.1348 -0.0928
 5673SOL    HW128652   2.566   3.436   6.854 -1.6326 -1.3766 -0.1748
 5673SOL    HW228653   2.431   3.468   6.802  0.9560 -1.9152 -0.0389
 5674SOL     OW28654   4.556   4.201   0.667 -0.3338  0.6627 -0.2325
 5674SOL    HW128655   4.475   4.149   0.676  1.3033 -1.8424  0.0303
 5674SOL    HW228656   4.534   4.259   0.594 -1.1371  0.1439 -0.4131
 5675SOL     OW28657   4.460   1.602   7.128 -0.0734 -0.2787  0.1006
 5675SOL    HW128658   4.525   1.532   7.119  0.2666 -0.0475  0.7552
 5675SOL    HW228659   4.384   1.554   7.096 -0.5740  0.4730  0.1646
 5676SOL     OW28660   4.354   3.193   2.235 -0.3436  0.7361  0.1119
 5676SOL    HW128661   4.404   3.274   2.229 -0.2568  0.7154  0.5393
 5676SOL    HW228662   4.305   3.215   2.315 -3.1734  0.5463 -1.5609
 5677SOL     OW28663   0.670   1.026  17.396 -0.6849  0.3624  0.1550
 5677SOL    HW128664   0.596   0.970  17.372 -0.4932  0.9204 -1.7858
 5677SOL    HW228665   0.636   1.073  17.472  0.7645  0.7381  0.5687
 5678SOL     OW28666   1.175   1.754   2.567  0.7893 -0.2400 -0.3234
 5678SOL    HW128667   1.253   1.719   2.609 -0.4672 -1.5273  0.9703
 5678SOL    HW228668   1.151   1.689   2.500 -0.0554  0.2784 -0.5328
 5679SOL     OW28669   0.981   2.460   4.927 -0.6117 -0.2408  0.5781
 5679SOL    HW128670   0.946   2.402   4.860 -0.4006  0.4542 -0.1373
 5679SOL    HW228671   0.899   2.484   4.970 -2.4643 -2.1561 -1.8902
 5680SOL     OW28672   2.721   3.887   7.788  0.6965 -0.5478 -0.1256
 5680SOL    HW128673   2.638   3.915   7.826  0.2936 -3.0484  0.7908
 5680SOL    HW228674   2.707   3.866   7.696  1.9323 -0.4642 -0.3395
 5681SOL     OW28675   0.100   4.468  10.614  0.5450  0.2038 -0.2857
 5681SOL    HW128676   0.033   4.481  10.681  0.0452  0.0532 -0.7519
 5681SOL    HW228677   0.085   4.374  10.600 -0.7564  0.1461  1.5364
 5682SOL     OW28678   0.412   3.231   5.136  0.1856  0.3050  0.5966
 5682SOL    HW128679   0.491   3.178   5.148 -0.3048 -1.1421 -2.7459
 5682SOL    HW228680   0.372   3.171   5.073 -0.9271  0.6996  0.9199
 5683SOL     OW28681   4.404   3.066   1.753  0.1840 -0.3475 -0.2028
 5683SOL    HW128682   4.335   3.035   1.812  1.0101 -0.2063  0.8523
 5683SOL    HW228683   4.392   3.160   1.769  1.4256 -0.1030 -0.7012
 5684SOL     OW28684   0.866   1.398   5.377 -0.0500  0.5575  0.0911
 5684SOL    HW128685   0.947   1.448   5.381 -1.1435  2.3766 -0.3137
 5684SOL    HW228686   0.804   1.463   5.410 -1.7341 -0.4786 -0.9555
 5685SOL     OW28687   0.652   3.046  13.857 -0.6349  0.0587 -0.1197
 5685SOL    HW128688   0.588   3.007  13.917 -1.4025 -2.4601 -2.5631
 5685SOL    HW228689   0.731   3.043  13.910  0.0642  1.0406 -1.1132
 5686SOL     OW28690   1.995   3.067   2.984  0.2986 -0.0276  0.1295
 5686SOL    HW128691   1.977   3.037   2.895 -1.9882  0.5925  0.3875
 5686SOL    HW228692   2.028   2.988   3.026 -2.5477 -0.8542  0.8194
 5687SOL     OW28693   1.245   3.834   5.472  0.5871 -0.1109  0.5106
 5687SOL    HW128694   1.170   3.775   5.472  0.1583  0.4312  0.6249
 5687SOL    HW228695   1.206   3.907   5.521 -1.5232 -1.4030  0.7540
 5688SOL     OW28696   2.563   0.023  11.229 -0.2298  0.2451  0.2572
 5688SOL    HW128697   2.591   4.676  11.183  0.6749  1.6225 -1.5365
 5688SOL    HW228698   2.502   0.066  11.170 -1.9875 -1.0189  1.1675
 5689SOL     OW28699   1.930   0.617   7.083 -0.1250 -0.0674  0.5856
 5689SOL    HW128700   1.889   0.536   7.114  1.8267  0.0756  3.5719
 5689SOL    HW228701   1.896   0.675   7.150  0.2177 -0.0802  0.7727
 5690SOL     OW28702   0.664   2.404   2.469 -0.2476 -0.4117 -0.2167
 5690SOL    HW128703   0.624   2.359   2.394  1.0781  1.0209 -1.7748
 5690SOL    HW228704   0.716   2.470   2.424  0.3178  0.5824  1.8936
 5691SOL     OW28705   3.771   3.091   4.972  0.0342 -0.3123 -0.3422
 5691SOL    HW128706   3.809   3.141   5.045 -3.0440  1.0728  0.3081
 5691SOL    HW228707   3.824   3.116   4.897 -0.0325 -1.2894 -0.7082
 5692SOL     OW28708   0.273   0.626   7.445  0.2518 -0.1028  0.0145
 5692SOL    HW128709   0.291   0.549   7.390 -2.6653 -2.3449  2.1523
 5692SOL    HW228710   0.334   0.693   7.416 -0.9021  0.7439 -0.4308
 5693SOL     OW28711   3.006   4.319   0.294  0.0907 -0.6603  0.0942
 5693SOL    HW128712   3.048   4.404   0.281 -2.8291  0.7720  0.0126
 5693SOL    HW228713   3.083   4.269   0.267  0.4247 -1.0739  1.8037
 5694SOL     OW28714   1.404   1.755   5.222 -0.6993 -0.3286  0.1375
 5694SOL    HW128715   1.364   1.834   5.257 -1.2620 -0.2691 -0.6217
 5694SOL    HW228716   1.473   1.745   5.287  1.3958 -1.1116 -2.2019
 5695SOL     OW28717   3.447   3.013   7.154 -0.0268 -0.1945 -0.0041
 5695SOL    HW128718   3.483   3.101   7.139 -0.7999  0.0433 -0.4512
 5695SOL    HW228719   3.467   3.004   7.247  0.2807  0.6062  0.0049
 5696SOL     OW28720   2.876   4.227   7.927 -0.4126  0.1964 -0.6655
 5696SOL    HW128721   2.881   4.146   7.979  1.0289  1.0061  0.4421
 5696SOL    HW228722   2.796   4.209   7.877 -1.9672  1.4172  1.3397
 5697SOL     OW28723   0.899   0.371   5.680 -0.0021  0.0519 -0.1258
 5697SOL    HW128724   0.899   0.328   5.594 -0.8947  1.4891 -0.8517
 5697SOL    HW228725   0.806   0.352   5.693  0.0223  0.2298  0.3022
 5698SOL     OW28726   3.856   3.959   3.245  0.3896  0.3583 -0.2989
 5698SOL    HW128727   3.768   3.936   3.214  0.1131  0.8389  0.1305
 5698SOL    HW228728   3.834   3.949   3.338  1.5138 -0.3361 -0.1099
 5699SOL     OW28729   1.630   3.391  12.312  0.3088 -0.1600 -0.2061
 5699SOL    HW128730   1.700   3.342  12.268 -1.1215 -1.3321 -1.1818
 5699SOL    HW228731   1.649   3.375  12.404 -0.1691  2.4065  0.3444
 5700SOL     OW28732   2.487   4.173   7.601 -0.5505  0.5423 -0.4296
 5700SOL    HW128733   2.490   4.267   7.583 -0.5020  1.4230  4.3660
 5700SOL    HW228734   2.511   4.129   7.519  2.1511 -1.4657  1.4413
 5701SOL     OW28735   4.163   0.730   9.036  0.0607 -0.5661  0.3777
 5701SOL    HW128736   4.159   0.636   9.054 -0.6517 -0.4189  0.9770
 5701SOL    HW228737   4.074   0.749   9.065 -0.4947 -0.0246 -1.6429
 5702SOL     OW28738   0.848   4.032   4.032  0.3557  1.1388 -0.1951
 5702SOL    HW128739   0.886   3.946   4.015  2.1308  1.5649  1.5422
 5702SOL    HW228740   0.907   4.087   3.981  0.0176  1.1499 -0.5760
 5703SOL     OW28741   1.033   1.107   4.249  0.3201  0.6572 -1.1442
 5703SOL    HW128742   0.994   1.034   4.296 -0.6444  2.0339  0.2227
 5703SOL    HW228743   1.125   1.107   4.275 -0.1256 -0.8020  0.4101
 5704SOL     OW28744   0.586   1.567   1.363  0.6784 -0.1214 -0.1272
 5704SOL    HW128745   0.664   1.606   1.403  0.6159  0.5504 -0.6564
 5704SOL    HW228746   0.628   1.530   1.286  0.6687  0.5364 -0.4489
 5705SOL     OW28747   1.150   3.912   3.324  0.1614  0.1638 -0.8453
 5705SOL    HW128748   1.229   3.864   3.300  1.5686  0.8284  2.5131
 5705SOL    HW228749   1.123   3.934   3.235  1.1850 -0.2397 -1.2495
 5706SOL     OW28750   4.575   0.230  11.605  0.0287 -0.4679  0.0421
 5706SOL    HW128751   4.553   0.313  11.648 -0.2425 -1.5363  1.9871
 5706SOL    HW228752   4.561   0.251  11.512 -1.8482 -0.0722  0.4061
 5707SOL     OW28753   3.640   2.535   6.839  0.2315 -0.1857 -0.5391
 5707SOL    HW128754   3.668   2.616   6.882  0.1728 -0.7300  0.5052
 5707SOL    HW228755   3.713   2.473   6.838  0.3820 -0.0150 -0.1288
 5708SOL     OW28756   0.493   1.026   5.120  0.1950 -0.1633  0.3158
 5708SOL    HW128757   0.447   0.943   5.126  0.7259 -0.3362  2.0836
 5708SOL    HW228758   0.426   1.087   5.150 -0.9625  0.5711 -3.7169
 5709SOL     OW28759   2.717   0.306   4.903 -0.2816  0.5964  0.4490
 5709SOL    HW128760   2.748   0.216   4.906 -0.1181  0.5800 -1.8680
 5709SOL    HW228761   2.685   0.314   4.813  0.1188 -1.5347  0.1366
 5710SOL     OW28762   4.469   1.201   3.784 -0.1256  0.0163  0.4881
 5710SOL    HW128763   4.399   1.253   3.746  1.5398  2.0016  0.1388
 5710SOL    HW228764   4.507   1.148   3.714  0.5306  1.7953 -0.4905
 5711SOL     OW28765   4.681   2.528   1.349  0.5649 -0.4652 -0.0535
 5711SOL    HW128766   4.694   2.550   1.441 -0.3119 -2.1447  0.4599
 5711SOL    HW228767   4.654   2.436   1.352 -1.9953  0.3075  0.9062
 5712SOL     OW28768   2.203   4.350  10.072  0.3619  0.0032  0.5990
 5712SOL    HW128769   2.115   4.384  10.081  0.9110  1.3445  0.8935
 5712SOL    HW228770   2.195   4.280  10.136 -1.9885  2.5812  3.0901
 5713SOL     OW28771   3.418   0.283  16.882 -0.0761 -0.1542  0.1623
 5713SOL    HW128772   3.372   0.331  16.813  0.8373  0.0860 -0.2734
 5713SOL    HW228773   3.414   0.348  16.953 -1.3010 -0.1261  0.0629
 5714SOL     OW28774   0.484   3.286   6.907  0.1140  0.2276 -0.2594
 5714SOL    HW128775   0.554   3.312   6.967  0.2186  1.1712 -0.7842
 5714SOL    HW228776   0.473   3.193   6.926 -0.5282  0.5199  0.8070
 5715SOL     OW28777   3.798   4.076   5.729  0.4204 -0.2246  0.3765
 5715SOL    HW128778   3.730   4.130   5.771 -0.6332  0.1071 -1.7260
 5715SOL    HW228779   3.750   4.064   5.647  0.5057  0.7220  0.1833
 5716SOL     OW28780   2.075   2.175  15.230  0.4321  0.6595  0.2361
 5716SOL    HW128781   2.020   2.097  15.231  1.2719  0.0859  1.3164
 5716SOL    HW228782   2.017   2.232  15.179 -0.5296 -1.0302 -0.5594
 5717SOL     OW28783   3.175   3.474  15.759  0.2208  0.3137  0.1448
 5717SOL    HW128784   3.201   3.421  15.834 -0.4342  0.4895  0.4959
 5717SOL    HW228785   3.094   3.438  15.724  0.0272  0.8303  0.0519
 5718SOL     OW28786   1.589   2.959  13.943 -0.0000  0.5193 -0.0917
 5718SOL    HW128787   1.531   2.898  13.897 -1.6911  1.5857  0.6136
 5718SOL    HW228788   1.669   2.906  13.946 -0.3734  0.0944  2.9241
 5719SOL     OW28789   3.075   1.371   1.822 -0.6397 -0.3403 -0.3616
 5719SOL    HW128790   3.111   1.447   1.868  0.4229 -0.4868 -0.9459
 5719SOL    HW228791   3.106   1.291   1.865  0.7072  2.4802  3.9062
 5720SOL     OW28792   0.172   3.394  13.923 -0.0549 -0.3837 -0.6673
 5720SOL    HW128793   0.212   3.307  13.914  1.2017 -0.0377  1.4570
 5720SOL    HW228794   0.098   3.374  13.866 -1.6295 -2.2752  2.0246
 5721SOL     OW28795   0.476   0.454  16.294  0.2289  0.3896  0.1269
 5721SOL    HW128796   0.549   0.393  16.298 -1.6391 -1.8788 -0.6389
 5721SOL    HW228797   0.493   0.484  16.204 -0.1977 -1.6807 -0.6412
 5722SOL     OW28798   1.780   4.148   4.882  0.0687  0.0278 -0.0004
 5722SOL    HW128799   1.716   4.157   4.953 -1.6332  2.5111 -1.8624
 5722SOL    HW228800   1.750   4.066   4.843 -2.5288  1.2521 -0.5542
 5723SOL     OW28801   1.609   1.067   5.639  0.0286 -0.7610 -1.0993
 5723SOL    HW128802   1.625   0.977   5.612 -2.1023 -1.7658  0.8773
 5723SOL    HW228803   1.574   1.057   5.728  0.9732 -1.3984 -0.8085
 5724SOL     OW28804   2.103   2.213   5.219  0.0711 -0.1856 -0.1972
 5724SOL    HW128805   2.100   2.171   5.133 -1.2837  0.4506 -0.4480
 5724SOL    HW228806   2.017   2.203   5.260  1.6113  0.4847  3.1993
 5725SOL     OW28807   1.460   4.191   2.983 -0.1875 -0.1278 -0.8600
 5725SOL    HW128808   1.551   4.163   2.968  0.7680  2.4978  0.1337
 5725SOL    HW228809   1.419   4.179   2.898 -1.6241  0.0751 -0.1865
 5726SOL     OW28810   1.156   1.691  10.636  0.3618 -0.1224 -0.4688
 5726SOL    HW128811   1.173   1.768  10.581  3.2152 -0.3620  0.0546
 5726SOL    HW228812   1.118   1.730  10.714 -0.6800 -2.1581  0.0249
 5727SOL     OW28813   2.168   2.413   2.750  0.0983 -0.2970 -0.0652
 5727SOL    HW128814   2.150   2.319   2.760 -2.1336 -0.2390 -3.1847
 5727SOL    HW228815   2.263   2.407   2.740 -0.0276 -0.7651 -1.0690
 5728SOL     OW28816   1.699   0.425   4.219 -0.3667  0.1835  0.0472
 5728SOL    HW128817   1.627   0.483   4.194 -0.8830 -0.4971 -0.0320
 5728SOL    HW228818   1.705   0.436   4.314  1.9271 -2.9066  0.2483
 5729SOL     OW28819   1.993   3.379  16.429  0.0887  0.1500 -0.1044
 5729SOL    HW128820   1.956   3.438  16.364 -0.7366  1.4992  1.5929
 5729SOL    HW228821   2.053   3.434  16.480  0.8622  0.7194 -1.6459
 5730SOL     OW28822   3.851   3.590  16.420 -0.0435 -0.3377 -0.1042
 5730SOL    HW128823   3.904   3.648  16.475  1.5104 -0.3125 -1.6524
 5730SOL    HW228824   3.777   3.569  16.478 -0.6903  2.5970  0.1368
 5731SOL     OW28825   1.404   3.575   4.356 -0.1343  1.0234 -0.2462
 5731SOL    HW128826   1.432   3.646   4.298  0.6661  0.2667 -0.7939
 5731SOL    HW228827   1.365   3.514   4.293  0.9720  1.4271 -1.3268
 5732SOL     OW28828   0.921   4.552   5.921  0.0563  0.1776 -0.3638
 5732SOL    HW128829   0.926   4.608   5.999 -1.2402 -1.2536  0.7571
 5732SOL    HW228830   0.860   4.589   5.858 -0.8372 -0.0787  0.3377
 5733SOL     OW28831   3.848   2.547  11.296 -0.2934 -0.3312 -0.6378
 5733SOL    HW128832   3.785   2.475  11.293  0.0853 -0.7436  1.0564
 5733SOL    HW228833   3.798   2.623  11.264  0.5899  0.3851 -0.3146
 5734SOL     OW28834   2.361   0.605   9.616  0.1565 -0.3866 -0.5824
 5734SOL    HW128835   2.362   0.561   9.531 -0.9487 -1.0731 -0.2510
 5734SOL    HW228836   2.290   0.665   9.591 -0.9877 -0.3444  2.6993
 5735SOL     OW28837   4.534   0.825   2.513 -0.6211 -0.0834  0.0814
 5735SOL    HW128838   4.593   0.897   2.492  1.7809 -1.9914  0.2910
 5735SOL    HW228839   4.549   0.834   2.607 -1.2213 -0.6385  0.2290
 5736SOL     OW28840   1.423   0.805   9.742 -0.2298 -0.2183 -0.1847
 5736SOL    HW128841   1.342   0.754   9.745 -1.0141  1.1748  2.4077
 5736SOL    HW228842   1.478   0.751   9.685 -0.5459 -1.6548  0.8622
 5737SOL     OW28843   1.277   4.291   1.016  0.9976 -0.0895  0.3178
 5737SOL    HW128844   1.370   4.271   1.030  0.8608  0.5003  1.9770
 5737SOL    HW228845   1.257   4.325   1.103 -2.5996 -0.4830 -0.3611
 5738SOL     OW28846   3.499   0.661   6.933  0.1438 -0.2884 -0.1062
 5738SOL    HW128847   3.456   0.721   6.872  0.7007 -0.3935 -0.6040
 5738SOL    HW228848   3.437   0.588   6.927  1.2766 -0.9482 -4.2407
 5739SOL     OW28849   0.580   1.831  12.916  0.3436  0.4784  0.2491
 5739SOL    HW128850   0.567   1.744  12.955  2.3154 -0.0642 -0.3507
 5739SOL    HW228851   0.510   1.823  12.851  0.6580 -2.0296  0.2446
 5740SOL     OW28852   3.860   3.664   4.429 -0.3174 -0.4470 -0.2516
 5740SOL    HW128853   3.883   3.700   4.515  0.9102 -0.6811 -0.4840
 5740SOL    HW228854   3.801   3.730   4.391  0.2578  0.6886  0.8323
 5741SOL     OW28855   0.301   3.994   6.189  0.3740  0.0840  0.0281
 5741SOL    HW128856   0.392   4.023   6.191  0.0536  1.1167 -0.1656
 5741SOL    HW228857   0.286   4.006   6.095 -1.1511  1.0544  0.3840
 5742SOL     OW28858   1.820   2.605  14.241  0.5802  0.0055 -0.3372
 5742SOL    HW128859   1.733   2.603  14.201 -0.1252 -3.2080  1.4185
 5742SOL    HW228860   1.798   2.667  14.310 -0.1126  0.0393 -0.5884
 5743SOL     OW28861   3.397   3.857  12.928 -0.1713 -0.1021 -0.1701
 5743SOL    HW128862   3.374   3.767  12.951 -0.1899 -0.3218 -1.0303
 5743SOL    HW228863   3.484   3.855  12.889  0.0924  0.4791  0.3754
 5744SOL     OW28864   4.476   2.959   2.561  0.7866 -0.1234 -0.2859
 5744SOL    HW128865   4.508   2.942   2.472 -0.1771 -0.5967 -0.5420
 5744SOL    HW228866   4.480   3.055   2.568  2.1822 -0.3033  1.4532
 5745SOL     OW28867   1.901   3.465   5.900  0.3403  0.3956  0.2924
 5745SOL    HW128868   1.918   3.511   5.817 -1.1967 -0.3139 -0.4107
 5745SOL    HW228869   1.829   3.517   5.936 -0.6523  0.2080 -1.4170
 5746SOL     OW28870   1.499   1.168   4.260 -0.1909  0.1095 -0.0985
 5746SOL    HW128871   1.577   1.187   4.312 -0.6301 -0.2645  0.7082
 5746SOL    HW228872   1.523   1.086   4.219 -2.9748 -1.6234  1.7730
 5747SOL     OW28873   0.748   3.164   6.674  0.2009  0.0987  0.0479
 5747SOL    HW128874   0.811   3.100   6.706  0.2774  0.5872  0.8538
 5747SOL    HW228875   0.780   3.166   6.583 -0.6970  2.0586 -0.2316
 5748SOL     OW28876   0.161   0.653  11.363  0.4044  0.3869  0.2057
 5748SOL    HW128877   0.114   0.735  11.350 -0.1375  0.2007  0.9498
 5748SOL    HW228878   0.213   0.650  11.283  1.8361  0.3057  1.1432
 5749SOL     OW28879   3.542   0.685   7.938 -0.0559 -0.3754 -0.1271
 5749SOL    HW128880   3.497   0.601   7.925 -0.3391 -0.0245 -1.4631
 5749SOL    HW228881   3.486   0.729   8.002 -0.6018 -0.1798 -0.7303
 5750SOL     OW28882   2.798   4.689  15.288 -0.4463 -0.7795  0.0563
 5750SOL    HW128883   2.863   4.638  15.240 -0.3108  0.6036 -1.2241
 5750SOL    HW228884   2.828   4.683  15.379  0.0974 -2.2077 -0.2179
 5751SOL     OW28885   3.595   0.425   6.176 -0.1042 -0.1895  0.1124
 5751SOL    HW128886   3.605   0.469   6.092 -0.2702  0.6945  0.5463
 5751SOL    HW228887   3.617   0.495   6.238 -0.9314 -1.1271  1.4829
 5752SOL     OW28888   1.810   3.939   8.322 -0.1333 -0.4293  0.0092
 5752SOL    HW128889   1.896   3.961   8.286  0.7506  0.2827  2.5115
 5752SOL    HW228890   1.758   4.002   8.272  3.5448  2.3680 -0.2966
 5753SOL     OW28891   1.827   0.706   7.332 -0.0063 -0.0004  0.3578
 5753SOL    HW128892   1.812   0.636   7.395 -3.2172  0.2346 -0.1462
 5753SOL    HW228893   1.754   0.765   7.351 -1.4219 -0.5324 -3.2646
 5754SOL     OW28894   2.468   2.155   5.084  0.5605  0.2650  0.2057
 5754SOL    HW128895   2.384   2.173   5.042 -0.0859 -0.4320  1.1861
 5754SOL    HW228896   2.507   2.090   5.025 -1.4034 -1.4078  0.7388
 5755SOL     OW28897   0.519   4.377   5.112 -0.3864  0.5550  0.2549
 5755SOL    HW128898   0.452   4.309   5.108  0.6412 -0.3293 -1.4714
 5755SOL    HW228899   0.561   4.350   5.194  0.3568 -2.5313 -1.1417
 5756SOL     OW28900   3.695   3.881  10.255  0.6501  0.6154 -0.1872
 5756SOL    HW128901   3.641   3.933  10.196 -2.6652 -1.9755  0.5823
 5756SOL    HW228902   3.760   3.845  10.194  0.0020 -0.6741 -0.0990
 5757SOL     OW28903   1.697   3.019   3.988  0.2487  0.5334  0.1825
 5757SOL    HW128904   1.613   2.991   4.025  2.2055 -0.9024  3.5868
 5757SOL    HW228905   1.725   3.080   4.057  0.7521  0.6820 -0.1524
 5758SOL     OW28906   1.712   0.925  17.539 -0.7983  0.0578  0.1941
 5758SOL    HW128907   1.661   0.861  17.590 -1.3930  0.0174 -0.4525
 5758SOL    HW228908   1.644   0.987  17.514  1.2717  1.9073 -0.7992
 5759SOL     OW28909   4.549   2.052   2.734 -0.2585  0.4754  1.0562
 5759SOL    HW128910   4.472   2.003   2.764  2.2455 -4.8423 -1.2280
 5759SOL    HW228911   4.570   2.096   2.816 -1.4994  2.0229  0.5543
 5760SOL     OW28912   3.404   0.240   5.155 -0.7721 -0.1825 -0.2705
 5760SOL    HW128913   3.363   0.178   5.095 -2.0752  0.5673 -0.1597
 5760SOL    HW228914   3.397   0.201   5.242 -2.0501  3.2546  1.1977
 5761SOL     OW28915   3.730   2.045   7.975  0.4393  0.0510 -0.1627
 5761SOL    HW128916   3.800   2.066   8.037  0.3388  1.6035 -0.5747
 5761SOL    HW228917   3.782   1.991   7.916  0.9191  1.7260 -1.2666
 5762SOL     OW28918   2.251   3.440  11.996  0.2691 -0.4325  0.3499
 5762SOL    HW128919   2.178   3.386  11.966 -0.9380  0.8756  0.9170
 5762SOL    HW228920   2.215   3.506  12.055 -0.3275 -0.6397  0.2146
 5763SOL     OW28921   0.719   0.496   0.712  0.2454 -0.0592  0.0097
 5763SOL    HW128922   0.741   0.545   0.791  2.0168  1.1165 -1.2339
 5763SOL    HW228923   0.727   0.403   0.736  0.7092  0.4418  1.7732
 5764SOL     OW28924   1.222   2.993   6.603 -0.6950  0.2276 -0.8716
 5764SOL    HW128925   1.224   2.901   6.579 -0.3136 -0.4001  1.5991
 5764SOL    HW228926   1.199   3.024   6.515  1.4309  0.1505 -1.4318
 5765SOL     OW28927   3.247   2.166   9.618  0.3234 -0.2418 -0.0033
 5765SOL    HW128928   3.275   2.184   9.528 -0.6460  0.2320 -0.2091
 5765SOL    HW228929   3.152   2.172   9.607  0.5046  2.0747 -0.4400
 5766SOL     OW28930   1.428   3.366   2.662 -1.0143  0.4920 -0.0308
 5766SOL    HW128931   1.475   3.448   2.679 -0.6426 -0.0320  1.4763
 5766SOL    HW228932   1.435   3.337   2.753 -1.8184  2.1150  0.5345
 5767SOL     OW28933   4.407   3.569   2.754  0.4014  0.5453  1.1451
 5767SOL    HW128934   4.486   3.560   2.808  0.3615  0.2514  1.1561
 5767SOL    HW228935   4.438   3.549   2.665 -1.8119 -1.1063  0.7392
 5768SOL     OW28936   0.424   4.601   9.393 -0.3455  0.1505  0.7995
 5768SOL    HW128937   0.346   4.545   9.399  1.1574 -2.1473 -1.1847
 5768SOL    HW228938   0.489   4.538   9.363 -1.0468 -0.4227  0.4662
 5769SOL     OW28939   1.257   1.814   4.053  0.0811 -0.3649 -0.1680
 5769SOL    HW128940   1.297   1.891   4.094  2.5091 -1.9165  0.3862
 5769SOL    HW228941   1.172   1.847   4.024  0.4494  1.3316  0.6827
 5770SOL     OW28942   4.562   0.066   7.066  0.2360  0.1037 -0.0010
 5770SOL    HW128943   4.482   0.019   7.042  1.6996 -2.7651  0.6876
 5770SOL    HW228944   4.605   0.064   6.981  2.7062  1.9688  1.2018
 5771SOL     OW28945   0.127   3.950   5.209  0.7094 -0.3198  0.4467
 5771SOL    HW128946   0.100   3.869   5.167 -0.2283  0.6108 -0.7435
 5771SOL    HW228947   0.137   3.933   5.303  0.4084 -1.7167  0.2166
 5772SOL     OW28948   2.528   1.619   6.185  0.6763 -0.4643  0.2943
 5772SOL    HW128949   2.566   1.576   6.261 -0.2709 -0.2459  0.8866
 5772SOL    HW228950   2.527   1.551   6.118 -1.2065 -0.1351 -0.0161
 5773SOL     OW28951   4.053   1.886   7.274 -0.5378 -0.0235 -0.3833
 5773SOL    HW128952   4.060   1.825   7.200  0.0877 -0.0783 -0.2726
 5773SOL    HW228953   3.960   1.909   7.277 -0.1512  1.4245  0.1170
 5774SOL     OW28954   3.083   1.121   3.667 -0.3008  0.0815  0.5724
 5774SOL    HW128955   3.156   1.060   3.660  0.7246  1.4399 -0.5935
 5774SOL    HW228956   3.047   1.115   3.578 -1.0211 -2.1405  1.0134
 5775SOL     OW28957   3.583   4.207   4.779  0.6318 -0.3364 -0.0770
 5775SOL    HW128958   3.576   4.298   4.749 -0.2827 -0.5315 -0.4638
 5775SOL    HW228959   3.668   4.179   4.746 -0.3803  0.0136 -2.9393
 5776SOL     OW28960   4.159   3.192   3.399  0.1813 -0.4309  0.4815
 5776SOL    HW128961   4.236   3.135   3.393  0.3636 -0.4825  3.1861
 5776SOL    HW228962   4.099   3.142   3.343  0.0006  2.2928 -1.7486
 5777SOL     OW28963   2.137   3.734  11.083  0.4569 -1.0521  0.0166
 5777SOL    HW128964   2.143   3.770  11.171  1.1922 -0.1630 -0.3896
 5777SOL    HW228965   2.207   3.669  11.083 -0.6364 -2.2131  1.4164
 5778SOL     OW28966   2.901   0.867  13.082  0.5857  0.1844 -0.1839
 5778SOL    HW128967   2.982   0.817  13.078 -0.1034 -0.7764 -2.1282
 5778SOL    HW228968   2.872   0.866  12.990  0.6181 -0.6381 -0.1816
 5779SOL     OW28969   2.367   3.191   8.632  0.3213  0.5807 -0.5335
 5779SOL    HW128970   2.447   3.228   8.595  1.1945 -1.9992 -1.2212
 5779SOL    HW228971   2.383   3.106   8.590  0.5938  0.4861 -0.2399
 5780SOL     OW28972   0.196   3.184   7.638 -0.1266  0.5984 -0.1193
 5780SOL    HW128973   0.142   3.258   7.609  1.1223  1.4148 -0.3934
 5780SOL    HW228974   0.197   3.185   7.734  1.2948 -1.8403 -0.1004
 5781SOL     OW28975   1.854   0.676   5.519 -0.4529 -0.1642  0.0522
 5781SOL    HW128976   1.939   0.706   5.550  0.2994 -0.1155 -2.0568
 5781SOL    HW228977   1.876   0.621   5.444 -0.3346 -0.1223  0.0566
 5782SOL     OW28978   4.101   1.972  14.270 -0.0211  0.1037 -0.2126
 5782SOL    HW128979   4.164   1.901  14.279  2.4211  2.1682 -0.8514
 5782SOL    HW228980   4.124   2.000  14.359  1.1327  0.9321 -0.7704
 5783SOL     OW28981   4.508   3.177   9.120 -0.0736  0.0982  0.5976
 5783SOL    HW128982   4.587   3.230   9.112 -0.7939  1.1704  0.4404
 5783SOL    HW228983   4.469   3.215   9.199  0.0631  2.6538 -0.5541
 5784SOL     OW28984   0.399   3.007  11.436  0.5934  0.1987 -0.5941
 5784SOL    HW128985   0.358   2.920  11.438  2.2297 -0.6128 -1.5589
 5784SOL    HW228986   0.396   3.026  11.342  0.4415  2.2579 -0.1554
 5785SOL     OW28987   2.698   4.165   6.942 -0.0827 -0.3851  0.3759
 5785SOL    HW128988   2.629   4.100   6.930 -1.0121  0.7092 -0.1782
 5785SOL    HW228989   2.772   4.106   6.958 -0.7604 -1.2874  0.1751
 5786SOL     OW28990   3.480   3.616  14.322 -0.0549  0.0674 -0.1521
 5786SOL    HW128991   3.507   3.638  14.233 -0.9204  4.1197  0.5962
 5786SOL    HW228992   3.404   3.672  14.340  0.4282  0.5704  0.3306
 5787SOL     OW28993   3.683   4.649   2.360 -0.2814  0.1011  0.2143
 5787SOL    HW128994   3.650   4.560   2.347  0.1968 -0.0295 -0.0906
 5787SOL    HW228995   3.677   4.673   2.267  0.8106  0.9824  0.3768
 5788SOL     OW28996   4.367   0.661   6.057 -0.1745 -0.4811  0.5549
 5788SOL    HW128997   4.316   0.707   6.124 -2.1559 -0.4073 -0.9957
 5788SOL    HW228998   4.457   0.690   6.072 -0.3473 -0.1747  0.9820
 5789SOL     OW28999   4.546   4.064   9.037  0.4749 -0.7904  0.6344
 5789SOL    HW129000   4.592   3.984   9.061 -0.9605 -1.8430 -0.1106
 5789SOL    HW229001   4.477   4.063   9.104 -0.8102 -0.8080 -0.6829
 5790SOL     OW29002   0.393   1.136   3.656  0.4145 -0.2132 -0.1599
 5790SOL    HW129003   0.445   1.216   3.662  2.8334 -2.0071  2.6016
 5790SOL    HW229004   0.370   1.124   3.748 -0.1557 -0.4525 -0.3350
 5791SOL     OW29005   3.329   4.070   9.852  0.1420  0.0326  0.4541
 5791SOL    HW129006   3.300   4.029   9.934 -1.9527  0.5597 -0.0121
 5791SOL    HW229007   3.369   3.992   9.814  3.0290  1.2856  0.9678
 5792SOL     OW29008   1.365   2.544   7.410 -0.2978  0.1366 -0.2681
 5792SOL    HW129009   1.370   2.576   7.320 -1.6713  1.2846  0.0714
 5792SOL    HW229010   1.331   2.623   7.451 -2.1786 -0.7734 -0.0670
 5793SOL     OW29011   3.664   1.513   3.111  0.7355 -0.2450 -0.2286
 5793SOL    HW129012   3.670   1.567   3.032 -1.5585 -1.2743 -1.0993
 5793SOL    HW229013   3.751   1.473   3.109  1.2923  0.9825 -0.8880
 5794SOL     OW29014   2.775   0.391  16.780  0.0138  0.5735  0.0895
 5794SOL    HW129015   2.769   0.347  16.865  0.1979 -0.8024 -0.6249
 5794SOL    HW229016   2.774   0.481  16.813  0.4035  0.8725 -0.7409
 5795SOL     OW29017   1.063   0.238   7.039  0.0910 -1.0207  0.0572
 5795SOL    HW129018   0.981   0.256   6.994  1.1991 -0.6800 -1.8331
 5795SOL    HW229019   1.084   0.323   7.078 -0.9103 -1.5507  1.7621
 5796SOL     OW29020   3.646   3.851   6.345  0.0340 -0.4296  0.1530
 5796SOL    HW129021   3.627   3.772   6.294  2.8174  0.1892 -1.8443
 5796SOL    HW229022   3.558   3.882   6.366  0.1798 -0.1274  0.3139
 5797SOL     OW29023   2.920   0.788   9.623 -0.0936 -0.1019 -0.6503
 5797SOL    HW129024   2.830   0.817   9.613 -0.8667 -2.0077  0.6854
 5797SOL    HW229025   2.923   0.784   9.719 -1.5555 -1.3554 -0.6426
 5798SOL     OW29026   0.372   2.678  16.557  0.0953  0.6411 -0.1612
 5798SOL    HW129027   0.420   2.596  16.548  0.6356  0.8496  0.8019
 5798SOL    HW229028   0.433   2.745  16.525 -0.1838  0.8664 -0.2211
 5799SOL     OW29029   3.062   2.761   8.569 -0.2615 -0.4228  0.7034
 5799SOL    HW129030   2.970   2.787   8.568 -0.8266 -2.4316 -0.2419
 5799SOL    HW229031   3.045   2.670   8.593 -1.3197 -0.3961  0.1030
 5800SOL     OW29032   3.596   4.178   0.752  0.2737  0.4668 -0.0230
 5800SOL    HW129033   3.503   4.192   0.733  0.5820  3.1720  0.4857
 5800SOL    HW229034   3.581   4.149   0.842 -1.3009 -1.2140 -0.8255
 5801SOL     OW29035   0.051   3.043   8.895  0.2683  0.2188 -0.6811
 5801SOL    HW129036   4.727   3.097   8.840 -0.9047 -0.8650 -0.5316
 5801SOL    HW229037   0.140   3.048   8.860  0.4502 -0.9587 -0.4072
 5802SOL     OW29038   0.312   2.246  12.665  0.3622  0.2493 -0.3259
 5802SOL    HW129039   0.288   2.320  12.611 -1.8105 -0.6614 -0.6262
 5802SOL    HW229040   0.359   2.180  12.615 -0.8807  1.3459 -2.8978
 5803SOL     OW29041   3.566   2.523   2.327  0.0460  0.7501 -0.4263
 5803SOL    HW129042   3.599   2.467   2.397 -0.2780  0.4655 -0.5019
 5803SOL    HW229043   3.478   2.550   2.355 -0.2766 -1.1650  0.4185
 5804SOL     OW29044   1.811   2.612  11.730 -0.2973 -0.8042 -0.0131
 5804SOL    HW129045   1.904   2.590  11.734 -0.4682 -1.6084 -0.4277
 5804SOL    HW229046   1.775   2.565  11.806  1.0714  0.0533  1.1709
 5805SOL     OW29047   0.271   0.995   0.880  0.0873 -0.1669 -0.3500
 5805SOL    HW129048   0.323   0.927   0.922 -1.3892 -0.3045  1.2361
 5805SOL    HW229049   0.339   1.061   0.864 -0.8850  0.4614 -1.9569
 5806SOL     OW29050   3.587   4.210  14.645  0.6672 -0.9133  0.0774
 5806SOL    HW129051   3.563   4.249  14.562 -1.7196  0.0389  1.2302
 5806SOL    HW229052   3.610   4.120  14.624 -0.7488 -1.1245 -0.5211
 5807SOL     OW29053   4.648   2.400   7.615 -0.1037  0.0083 -0.5015
 5807SOL    HW129054   4.635   2.347   7.693 -0.7118  0.5974 -0.1977
 5807SOL    HW229055   4.651   2.328   7.553  2.0883 -1.7950  1.7063
 5808SOL     OW29056   3.995   0.922  14.695  0.5081  0.5255 -0.1688
 5808SOL    HW129057   4.072   0.901  14.643  0.0472  0.2846 -0.7590
 5808SOL    HW229058   3.943   0.845  14.716  0.6271  0.5258  0.1212
 5809SOL     OW29059   4.243   0.686  10.413 -0.3301 -0.1238 -0.0141
 5809SOL    HW129060   4.261   0.708  10.504 -0.0792 -0.3197 -0.0136
 5809SOL    HW229061   4.250   0.590  10.411  1.2903 -0.0162  0.2099
 5810SOL     OW29062   0.147   1.385   5.221  0.3523 -0.2527  0.1194
 5810SOL    HW129063   0.142   1.417   5.310 -2.9251 -0.6645  0.0828
 5810SOL    HW229064   0.095   1.442   5.164  0.0873  0.4070  1.0181
 5811SOL     OW29065   2.660   1.164  14.508 -0.1561  0.3689 -0.3510
 5811SOL    HW129066   2.726   1.151  14.439 -1.2125  1.2799 -1.5269
 5811SOL    HW229067   2.677   1.101  14.578 -0.6685  0.5835 -0.0330
 5812SOL     OW29068   1.926   1.533  16.614 -0.0595  0.1894  0.3691
 5812SOL    HW129069   1.992   1.484  16.661 -0.5219  0.0500  0.8666
 5812SOL    HW229070   1.866   1.462  16.593  0.8216  0.2777 -2.4673
 5813SOL     OW29071   3.664   1.393   3.783  0.5142  0.4112 -0.2476
 5813SOL    HW129072   3.721   1.374   3.708 -0.2033 -0.0574 -0.6767
 5813SOL    HW229073   3.579   1.381   3.741 -0.1794 -2.4585  2.0126
 5814SOL     OW29074   1.990   3.085   6.783 -0.2891 -0.1579 -0.3282
 5814SOL    HW129075   1.976   3.094   6.878 -0.5421 -0.8581 -0.2946
 5814SOL    HW229076   2.076   3.043   6.777 -1.1420 -2.1222  1.1701
 5815SOL     OW29077   0.054   3.987   1.919 -0.0111 -0.2872 -0.6944
 5815SOL    HW129078   0.109   3.981   1.842  0.0996  1.2780 -0.7346
 5815SOL    HW229079   4.703   4.015   1.880 -0.5670 -0.2841  0.4687
 5816SOL     OW29080   0.957   0.574   3.368  0.0237 -0.0728 -0.1490
 5816SOL    HW129081   0.979   0.500   3.424 -2.1226  1.3141  2.5449
 5816SOL    HW229082   0.994   0.650   3.413  2.9409 -0.3821 -2.0273
 5817SOL     OW29083   1.350   4.622   2.271  0.1697  0.0207  0.2731
 5817SOL    HW129084   1.337   4.541   2.222 -0.2342 -0.2730  0.8605
 5817SOL    HW229085   1.273   4.674   2.247 -0.4238 -1.1577 -0.3679
 5818SOL     OW29086   4.666   4.444  10.834 -0.0071 -0.3868 -0.2436
 5818SOL    HW129087   4.615   4.368  10.805  3.2540 -2.5410 -0.3188
 5818SOL    HW229088   4.608   4.487  10.897  0.7500 -0.0411  0.2198
 5819SOL     OW29089   4.116   3.208   3.896 -0.4028 -0.0536  0.0379
 5819SOL    HW129090   4.176   3.267   3.942 -0.0980  0.3383 -0.8476
 5819SOL    HW229091   4.160   3.202   3.811  1.1281  0.8403  0.7588
 5820SOL     OW29092   1.678   1.904   2.844 -0.1809 -0.0535  0.2058
 5820SOL    HW129093   1.602   1.960   2.831 -0.7746 -0.9993 -0.3867
 5820SOL    HW229094   1.629   1.823   2.858  0.1296 -0.0455  1.3316
 5821SOL     OW29095   1.412   3.368   4.747 -0.1893 -0.4974 -0.3823
 5821SOL    HW129096   1.455   3.448   4.717 -0.6939 -0.5493 -1.2356
 5821SOL    HW229097   1.410   3.301   4.679  0.5109 -0.1447 -0.7503
 5822SOL     OW29098   3.649   3.442   4.237  0.1808 -0.0019  0.0479
 5822SOL    HW129099   3.634   3.360   4.284  2.0475 -1.0857 -1.2767
 5822SOL    HW229100   3.737   3.428   4.204  1.0439  0.5902  2.0790
 5823SOL     OW29101   2.143   4.442   2.043  0.3626 -0.0123  0.1793
 5823SOL    HW129102   2.066   4.396   2.008 -0.2760 -0.3306  1.9706
 5823SOL    HW229103   2.208   4.407   1.983 -1.7624 -1.4096 -1.2868
 5824SOL     OW29104   4.206   3.814   2.065 -0.3260  0.2469 -0.0132
 5824SOL    HW129105   4.288   3.845   2.026 -1.0885  1.9678 -0.2488
 5824SOL    HW229106   4.166   3.800   1.979  0.5567  0.0097 -0.3855
 5825SOL     OW29107   0.168   3.197   5.884 -0.6010 -0.3459  0.0116
 5825SOL    HW129108   0.241   3.257   5.897 -1.2414  0.0797  1.6012
 5825SOL    HW229109   0.211   3.115   5.858 -2.7856 -1.0240 -1.4848
 5826SOL     OW29110   0.519   0.755   6.641  0.6350  0.1892 -0.9443
 5826SOL    HW129111   0.515   0.844   6.675  0.4137 -0.4018  0.5632
 5826SOL    HW229112   0.514   0.776   6.547 -1.3498  2.8012 -0.2425
 5827SOL     OW29113   3.915   2.924  16.982  0.4149 -0.6631  0.4385
 5827SOL    HW129114   3.932   2.831  16.996  0.7709 -0.8942 -1.4315
 5827SOL    HW229115   3.851   2.928  16.911  0.6914 -1.9296  0.1054
 5828SOL     OW29116   3.049   0.731  13.794 -1.0811 -0.1892 -0.3630
 5828SOL    HW129117   3.100   0.795  13.745  1.1442  1.1424  3.6604
 5828SOL    HW229118   3.003   0.786  13.857 -0.0159  1.6540 -1.2096
 5829SOL     OW29119   1.071   4.331  16.245  0.1511 -0.3576  0.0706
 5829SOL    HW129120   1.020   4.357  16.168  0.0574 -1.2338 -0.1635
 5829SOL    HW229121   1.005   4.291  16.302 -0.5766 -0.5001 -0.8621
 5830SOL     OW29122   2.872   1.571   6.864 -0.5908  0.0591 -1.0291
 5830SOL    HW129123   2.829   1.657   6.867 -3.0907 -1.2354  0.4501
 5830SOL    HW229124   2.850   1.539   6.776 -3.1680 -3.7377  1.0368
 5831SOL     OW29125   0.386   3.568   4.460  0.0043 -0.1869  0.1954
 5831SOL    HW129126   0.424   3.576   4.548  1.4965  2.8011 -0.7438
 5831SOL    HW229127   0.461   3.535   4.410  1.4945  0.6237  1.8988
 5832SOL     OW29128   2.565   0.822   4.078  0.5792  0.3775 -0.4062
 5832SOL    HW129129   2.507   0.870   4.019 -1.0293 -1.5519 -0.3929
 5832SOL    HW229130   2.618   0.894   4.113 -0.3201  1.1344 -0.6029
 5833SOL     OW29131   3.300   1.204   3.428 -0.0520 -0.0154 -0.1767
 5833SOL    HW129132   3.284   1.115   3.460  2.0622 -0.7703 -1.1862
 5833SOL    HW229133   3.233   1.213   3.361 -1.9860  1.0005  1.9141
 5834SOL     OW29134   1.826   2.467  16.757  0.2498  0.1696 -0.1049
 5834SOL    HW129135   1.811   2.384  16.711  0.1379  0.6404 -0.9068
 5834SOL    HW229136   1.747   2.470  16.811 -0.1611  0.8601 -0.7516
 5835SOL     OW29137   3.018   0.552   2.093  0.3113 -0.2668  0.6680
 5835SOL    HW129138   3.067   0.480   2.053  1.1949  1.8674 -2.0594
 5835SOL    HW229139   3.095   0.593   2.133  1.0009  1.2460 -2.2113
 5836SOL     OW29140   4.166   4.347   6.351  0.5866  0.2264 -0.1629
 5836SOL    HW129141   4.102   4.370   6.284  1.2704  1.2046 -0.4757
 5836SOL    HW229142   4.188   4.259   6.321 -3.4919 -0.4631 -1.0376
 5837SOL     OW29143   2.389   1.330  10.594  0.0708  0.1051 -0.0619
 5837SOL    HW129144   2.342   1.327  10.678  0.4469 -1.7287  0.0739
 5837SOL    HW229145   2.350   1.258  10.545 -0.7350  0.1960  0.4386
 5838SOL     OW29146   3.230   2.455   4.743  0.3905 -0.0088 -0.2827
 5838SOL    HW129147   3.242   2.425   4.653 -0.5767 -1.5913  0.1062
 5838SOL    HW229148   3.135   2.451   4.757  0.7452 -4.6955  0.6846
 5839SOL     OW29149   2.619   2.780   5.954  0.1930  0.5997  0.1119
 5839SOL    HW129150   2.600   2.698   5.908  0.2436 -0.2722  1.6683
 5839SOL    HW229151   2.573   2.762   6.035 -1.3959  0.4271 -0.8294
 5840SOL     OW29152   2.436   3.999   5.445  0.6394 -0.6178 -0.1947
 5840SOL    HW129153   2.499   3.936   5.412  0.8679 -1.1280  1.2226
 5840SOL    HW229154   2.467   4.018   5.534  0.0593 -1.3363  0.1568
 5841SOL     OW29155   0.395   3.937   5.581  0.3537 -0.5245 -0.1972
 5841SOL    HW129156   0.436   4.012   5.624  0.6838 -0.0198 -1.4158
 5841SOL    HW229157   0.405   3.961   5.489 -0.0456  1.6269  0.3027
 5842SOL     OW29158   3.523   3.677   6.951  0.7686 -0.0186  0.7507
 5842SOL    HW129159   3.555   3.724   6.873  1.8015 -2.7442 -0.4717
 5842SOL    HW229160   3.443   3.727   6.969 -0.0041 -0.9588 -0.0563
 5843SOL     OW29161   2.217   4.004   6.786  0.1846  0.6137 -0.4287
 5843SOL    HW129162   2.155   3.994   6.713 -0.5902  2.6918 -0.0498
 5843SOL    HW229163   2.153   4.040   6.847  0.2014  2.9515 -1.7830
 5844SOL     OW29164   1.819   3.565   7.098  0.0061  0.2968 -0.2759
 5844SOL    HW129165   1.882   3.597   7.162  0.8976  0.5478 -1.2783
 5844SOL    HW229166   1.866   3.491   7.059  2.0059  0.1429  2.5093
 5845SOL     OW29167   3.196   0.298   2.318 -0.1115 -0.1500 -0.2538
 5845SOL    HW129168   3.236   0.384   2.331 -0.6064  0.0770 -0.2284
 5845SOL    HW229169   3.253   0.235   2.361 -1.2332 -0.0521  1.3785
 5846SOL     OW29170   2.743   2.555   8.309 -0.1746 -0.1293 -0.1211
 5846SOL    HW129171   2.709   2.586   8.393 -0.6498 -0.8301 -0.0538
 5846SOL    HW229172   2.692   2.476   8.295  1.4024 -1.3514  0.9521
 5847SOL     OW29173   2.915   3.518   8.731  0.0045 -0.2113 -0.1786
 5847SOL    HW129174   2.949   3.475   8.652  0.2275  1.4684 -1.0008
 5847SOL    HW229175   2.824   3.543   8.715  0.9667  2.1704 -1.9849
 5848SOL     OW29176   4.166   3.702   6.221  0.3848 -0.0512 -0.2057
 5848SOL    HW129177   4.193   3.702   6.313  0.7189  1.1672 -0.3097
 5848SOL    HW229178   4.249   3.688   6.176  1.0605  0.2311  0.9467
 5849SOL     OW29179   3.495   1.084  16.342  0.7290 -0.2067  0.6893
 5849SOL    HW129180   3.527   1.174  16.352 -2.2349  0.7090  1.7095
 5849SOL    HW229181   3.475   1.095  16.249  1.7398  0.4352  0.5401
 5850SOL     OW29182   2.544   3.053  13.833  0.3696 -0.1750 -0.6864
 5850SOL    HW129183   2.567   2.965  13.802  2.1312  0.1299 -0.2292
 5850SOL    HW229184   2.629   3.086  13.861 -0.3191  0.8835  0.1435
 5851SOL     OW29185   0.372   2.529   6.225 -0.3988 -0.3207 -0.5670
 5851SOL    HW129186   0.309   2.584   6.272 -1.1100 -3.4964  2.2185
 5851SOL    HW229187   0.419   2.473   6.287 -1.7280 -0.1225  0.6224
 5852SOL     OW29188   1.376   4.524   8.811 -0.2525 -0.1446 -0.0128
 5852SOL    HW129189   1.335   4.467   8.746  1.6239 -1.1215 -0.3442
 5852SOL    HW229190   1.396   4.453   8.873 -0.2738 -0.3000 -0.1850
 5853SOL     OW29191   1.667   3.145  11.576  0.2790  0.3276 -0.2423
 5853SOL    HW129192   1.576   3.132  11.603 -0.5935  2.1636 -2.2742
 5853SOL    HW229193   1.690   3.233  11.604  0.1736 -0.5221  2.4937
 5854SOL     OW29194   1.126   2.569   0.266 -0.1992  0.1336  0.4772
 5854SOL    HW129195   1.111   2.633   0.337 -3.1779  1.6038 -1.4770
 5854SOL    HW229196   1.219   2.548   0.276  0.6642  4.2648  1.1145
 5855SOL     OW29197   1.134   1.776   8.644  0.3640  0.3735 -0.1834
 5855SOL    HW129198   1.210   1.720   8.631 -0.1670 -0.0119 -1.6108
 5855SOL    HW229199   1.082   1.756   8.566 -1.2372  0.3996  0.8879
 5856SOL     OW29200   2.071   4.233  14.362 -0.6801 -0.1805 -0.8736
 5856SOL    HW129201   2.023   4.207  14.283  2.6169  3.7163 -4.1343
 5856SOL    HW229202   2.113   4.312  14.328  1.5262 -1.1163 -0.3370
 5857SOL     OW29203   2.526   2.545   2.854  0.4421  0.1790  0.3271
 5857SOL    HW129204   2.609   2.594   2.848  0.1261  0.7302  0.4013
 5857SOL    HW229205   2.477   2.593   2.921  2.1306 -0.7820  2.2375
 5858SOL     OW29206   2.547   0.123   8.631 -0.0731 -0.3982  0.0038
 5858SOL    HW129207   2.594   0.116   8.714 -0.7302  1.4297  0.5246
 5858SOL    HW229208   2.518   0.033   8.615 -1.2417  0.4238 -2.5445
 5859SOL     OW29209   2.792   1.700  13.544 -0.5965 -0.5799 -0.4391
 5859SOL    HW129210   2.852   1.734  13.477  1.2162 -1.1765  0.8923
 5859SOL    HW229211   2.817   1.607  13.547  2.1881  0.1543 -1.2193
 5860SOL     OW29212   1.764   3.851   3.899  0.1563 -0.2357  0.4287
 5860SOL    HW129213   1.842   3.886   3.856  0.6004 -0.1780  1.2910
 5860SOL    HW229214   1.772   3.763   3.861  0.8784 -0.6596  1.5735
 5861SOL     OW29215   1.379   1.268  12.928  0.0330  0.0470  0.1881
 5861SOL    HW129216   1.321   1.321  12.983 -0.9062 -0.7893  0.0257
 5861SOL    HW229217   1.395   1.192  12.984 -2.0192  0.7146  1.6781
 5862SOL     OW29218   2.286   1.238   1.608 -0.7874 -0.0479  0.3661
 5862SOL    HW129219   2.236   1.232   1.527  0.1572  0.4718 -0.2555
 5862SOL    HW229220   2.245   1.176   1.669  0.5992 -0.9506  0.3772
 5863SOL     OW29221   0.890   1.837   2.185  0.2518 -0.0417  0.3368
 5863SOL    HW129222   0.877   1.745   2.209 -1.6094  0.1337 -0.0544
 5863SOL    HW229223   0.967   1.830   2.127  0.9867 -1.7858  1.5204
 5864SOL     OW29224   3.786   0.419   3.103 -0.1269 -0.8573  0.2850
 5864SOL    HW129225   3.849   0.487   3.079  2.2340 -3.0306  0.3474
 5864SOL    HW229226   3.708   0.435   3.051 -0.6741 -1.2091  0.9998
 5865SOL     OW29227   1.015   2.747   0.510 -0.4216 -0.1401  0.0157
 5865SOL    HW129228   0.938   2.803   0.500 -0.4510 -0.2500 -0.3876
 5865SOL    HW229229   1.003   2.715   0.599 -0.0203 -1.2801 -0.3358
 5866SOL     OW29230   2.022   2.731   5.532 -0.2301 -0.6226 -0.4240
 5866SOL    HW129231   2.040   2.701   5.621 -2.6580  0.8777  0.5743
 5866SOL    HW229232   1.938   2.771   5.551  1.4946  1.9970  1.7874
 5867SOL     OW29233   3.816   4.517   4.859  0.0285 -0.2276 -0.4173
 5867SOL    HW129234   3.819   4.586   4.792 -3.0033  2.7814  2.5855
 5867SOL    HW229235   3.726   4.487   4.851 -0.3556  0.7114  0.4301
 5868SOL     OW29236   1.276   0.927   1.963  0.3067  0.0354  0.4608
 5868SOL    HW129237   1.347   0.982   1.929 -0.0571  1.4155  1.9208
 5868SOL    HW229238   1.205   0.973   1.916 -0.8098 -1.6664  0.4926
 5869SOL     OW29239   1.744   2.036   4.081  0.2578 -0.3134 -0.2630
 5869SOL    HW129240   1.833   2.034   4.047  0.3794  1.7919 -0.1024
 5869SOL    HW229241   1.696   2.048   3.999  1.6898 -2.7631 -1.4613
 5870SOL     OW29242   0.173   4.583   9.138  0.2162 -0.6354  0.6393
 5870SOL    HW129243   0.174   4.551   9.047 -0.0997  1.3516 -0.0617
 5870SOL    HW229244   0.186   4.676   9.119  1.3676 -0.8761  0.2495
 5871SOL     OW29245   0.808   0.808   7.831  0.2489 -0.8390 -0.1328
 5871SOL    HW129246   0.756   0.757   7.769 -0.0995 -0.6390 -0.0052
 5871SOL    HW229247   0.888   0.755   7.833 -0.6936 -2.2234  1.5423
 5872SOL     OW29248   1.799   0.711   4.221 -0.6875 -0.1938  0.7675
 5872SOL    HW129249   1.794   0.726   4.315  1.0248  0.2991  0.7767
 5872SOL    HW229250   1.885   0.748   4.205 -0.8071  0.2827  1.2386
 5873SOL     OW29251   4.436   2.414   5.303 -0.1333 -0.7223  0.0715
 5873SOL    HW129252   4.421   2.507   5.287  2.2653 -0.6914 -1.9893
 5873SOL    HW229253   4.382   2.394   5.380 -1.1834 -0.3121 -0.5564
 5874SOL     OW29254   2.104   3.565   4.718  0.4507  0.5519  0.3088
 5874SOL    HW129255   2.125   3.492   4.660  0.6215 -0.3395  1.5151
 5874SOL    HW229256   2.113   3.635   4.652  1.1369  0.3462  0.1809
 5875SOL     OW29257   0.906   1.044  12.718  0.5399  0.1588 -0.2647
 5875SOL    HW129258   0.885   1.014  12.630  2.6820  2.1150 -1.4218
 5875SOL    HW229259   0.984   1.096  12.701  0.2853  0.6678  0.1130
 5876SOL     OW29260   1.467   1.828   6.294 -0.0626  0.2965 -0.1364
 5876SOL    HW129261   1.506   1.775   6.225  0.0358  0.2483 -0.0431
 5876SOL    HW229262   1.426   1.755   6.341  0.8591 -0.2136 -0.1186
 5877SOL     OW29263   4.518   4.542  10.311 -0.1018 -0.1009 -0.4210
 5877SOL    HW129264   4.587   4.601  10.280 -1.4524  0.6484 -2.0036
 5877SOL    HW229265   4.469   4.523  10.231 -2.0772 -1.6055  1.1703
 5878SOL     OW29266   4.284   3.865  16.505  0.5537  0.0282 -0.2569
 5878SOL    HW129267   4.284   3.769  16.501  0.4514 -0.0057  0.4980
 5878SOL    HW229268   4.376   3.873  16.483  0.3335 -0.0422 -1.2133
 5879SOL     OW29269   4.373   2.666   2.430 -0.3315  0.0757 -0.3274
 5879SOL    HW129270   4.468   2.661   2.444 -0.0170 -1.9940 -3.0579
 5879SOL    HW229271   4.347   2.751   2.464 -1.5738 -0.4774  0.0998
 5880SOL     OW29272   1.784   2.129  12.803  0.6350  0.5198  0.1745
 5880SOL    HW129273   1.787   2.038  12.777  0.7610 -0.2488  2.8548
 5880SOL    HW229274   1.803   2.181  12.725 -3.5545  1.7402 -0.0292
 5881SOL     OW29275   2.028   1.181   5.005 -0.5628  0.1255 -0.0448
 5881SOL    HW129276   2.006   1.131   4.926  1.5075  1.2719 -1.3528
 5881SOL    HW229277   2.123   1.189   5.005 -0.6676  1.1327 -3.8488
 5882SOL     OW29278   0.128   1.843   3.784  0.4129  0.9001  0.3852
 5882SOL    HW129279   0.128   1.747   3.790  0.3944  0.7042 -2.6111
 5882SOL    HW229280   0.174   1.885   3.857  0.4770 -0.3274  1.0520
 5883SOL     OW29281   2.430   4.621  14.669  0.3895 -0.1553 -0.2628
 5883SOL    HW129282   2.409   4.711  14.645  2.4633  0.1991 -0.7981
 5883SOL    HW229283   2.454   4.641  14.760 -0.6109 -2.3133  0.4651
 5884SOL     OW29284   2.946   3.242   2.847  0.1113  0.1197  0.2222
 5884SOL    HW129285   3.009   3.211   2.782 -0.4924  0.0515 -0.3290
 5884SOL    HW229286   2.899   3.315   2.806 -2.4172 -1.6500 -0.0322
 5885SOL     OW29287   2.214   0.241  12.816  0.3381  0.3961 -0.3416
 5885SOL    HW129288   2.205   0.162  12.869  0.6881  0.0173 -0.8429
 5885SOL    HW229289   2.168   0.220  12.735 -1.4064 -0.9455  1.0264
 5886SOL     OW29290   0.614   0.595  17.574  0.4373 -0.3819  0.5447
 5886SOL    HW129291   0.656   0.542  17.506  1.1202 -1.5060  1.8353
 5886SOL    HW229292   0.692   0.626  17.620  1.4133 -1.9851 -0.0101
 5887SOL     OW29293   0.530   3.224   3.235 -0.0558 -0.3315 -0.8225
 5887SOL    HW129294   0.524   3.134   3.265  0.4993 -0.3931 -0.8976
 5887SOL    HW229295   0.509   3.269   3.317 -2.8303 -0.1985 -1.6156
 5888SOL     OW29296   2.313   3.574   1.436 -0.5599  0.6299  0.0150
 5888SOL    HW129297   2.392   3.624   1.457  0.2813 -1.0050  0.7313
 5888SOL    HW229298   2.259   3.647   1.404 -1.3833 -0.5628 -1.3034
 5889SOL     OW29299   1.460   1.719   9.100 -0.3426  0.4343 -0.3623
 5889SOL    HW129300   1.466   1.668   9.019 -0.2103  1.2768 -0.8881
 5889SOL    HW229301   1.401   1.659   9.145 -0.6798  2.3595  1.7141
 5890SOL     OW29302   0.771   1.918   8.359 -0.3960 -0.3419  0.5570
 5890SOL    HW129303   0.839   1.855   8.385 -0.9975 -1.9888 -1.8533
 5890SOL    HW229304   0.697   1.885   8.411 -0.4439  1.2135  1.4762
 5891SOL     OW29305   1.995   1.094  11.534 -0.0970  0.2075  0.1289
 5891SOL    HW129306   1.981   1.079  11.440  0.9061 -0.0258  0.0088
 5891SOL    HW229307   1.905   1.110  11.562  0.1629 -0.8669  1.5662
 5892SOL     OW29308   3.924   4.132   2.625 -0.2585 -0.0250 -0.1179
 5892SOL    HW129309   4.017   4.153   2.636 -0.4850  0.4915  0.8098
 5892SOL    HW229310   3.905   4.086   2.706 -1.8587  0.0821 -0.4395
 5893SOL     OW29311   3.021   3.006  16.689 -0.2921  0.3136 -0.8863
 5893SOL    HW129312   3.088   3.058  16.643  1.6156  0.2406  1.7796
 5893SOL    HW229313   3.074   2.927  16.692  2.1294  1.9594  0.2163
 5894SOL     OW29314   1.934   2.314  12.931 -0.5725 -0.3679  0.6527
 5894SOL    HW129315   1.879   2.241  12.903 -1.5620  0.3856  0.6310
 5894SOL    HW229316   1.879   2.379  12.974 -0.7830  1.0826 -1.7734
 5895SOL     OW29317   1.706   2.125   7.080 -0.2436 -0.3479 -0.3457
 5895SOL    HW129318   1.701   2.038   7.041  2.0735 -1.3700  1.5798
 5895SOL    HW229319   1.796   2.154   7.065 -1.2164  1.1447 -3.2599
 5896SOL     OW29320   3.835   0.663   2.247 -0.2311 -0.6758  0.0755
 5896SOL    HW129321   3.765   0.660   2.181 -0.8246 -0.4334  0.6867
 5896SOL    HW229322   3.858   0.573   2.270  1.6454  0.3625  2.2479
 5897SOL     OW29323   1.766   2.855   7.004  0.0390 -0.8798 -0.2263
 5897SOL    HW129324   1.688   2.866   6.950  1.1140 -2.6428 -2.1002
 5897SOL    HW229325   1.795   2.768   6.977  0.7615 -0.8129  0.3267
 5898SOL     OW29326   2.665   1.726   1.910 -0.1805  0.0884 -0.3022
 5898SOL    HW129327   2.656   1.764   1.823 -0.7639  0.8048  0.0753
 5898SOL    HW229328   2.648   1.799   1.968 -1.4085  0.3998 -1.0381
 5899SOL     OW29329   1.187   1.292  12.695 -0.2921 -0.1451  0.5452
 5899SOL    HW129330   1.267   1.314  12.743 -0.1651 -0.9206  0.6874
 5899SOL    HW229331   1.216   1.225  12.634 -1.3376 -1.5359  1.5897
 5900SOL     OW29332   0.577   2.181   1.866  1.1365 -0.1731 -0.1848
 5900SOL    HW129333   0.548   2.272   1.862  1.1489 -0.1902 -0.7160
 5900SOL    HW229334   0.527   2.145   1.940 -1.7994  0.8583 -1.6473
 5901SOL     OW29335   3.552   2.516  10.440 -0.0160 -0.1764 -0.4511
 5901SOL    HW129336   3.593   2.437  10.473  1.3839  1.3027  1.3767
 5901SOL    HW229337   3.596   2.533  10.357  0.3280 -2.0132 -0.6408
 5902SOL     OW29338   4.594   4.717   1.920  1.3583 -0.3524 -0.1751
 5902SOL    HW129339   4.567   0.074   1.898  3.1381  0.5816  1.4130
 5902SOL    HW229340   4.517   4.691   1.971  1.8247  0.0883  0.7591
 5903SOL     OW29341   3.085   3.730   4.855 -0.4422 -0.3716 -0.0669
 5903SOL    HW129342   3.151   3.739   4.924 -0.2082  0.5886 -0.3997
 5903SOL    HW229343   3.115   3.645   4.824  1.6435  0.2531  0.1842
 5904SOL     OW29344   3.207   0.163   0.937 -0.0222 -0.1900  0.0035
 5904SOL    HW129345   3.249   0.196   0.858  1.2026  1.2857  1.3008
 5904SOL    HW229346   3.123   0.127   0.906  0.3426 -2.5444  1.7286
 5905SOL     OW29347   0.516   4.555   0.237 -0.2521  0.3838  0.8561
 5905SOL    HW129348   0.585   4.615   0.209 -1.2094  1.3570  0.5774
 5905SOL    HW229349   0.508   4.505   0.156 -0.5018  0.9196  0.5515
 5906SOL     OW29350   0.633   2.193   8.977  0.4653 -0.7155  0.6584
 5906SOL    HW129351   0.583   2.112   8.978  0.2635 -0.6006 -2.6114
 5906SOL    HW229352   0.632   2.216   9.070 -0.5786  0.2768  0.4048
 5907SOL     OW29353   4.023   2.895   4.255  0.3087 -0.2515  0.0176
 5907SOL    HW129354   4.044   2.885   4.348 -1.4972 -1.7499  0.2584
 5907SOL    HW229355   4.054   2.815   4.214  0.7011  0.6633 -1.5036
 5908SOL     OW29356   1.326   1.635   5.872 -0.1869  0.1779  0.1335
 5908SOL    HW129357   1.274   1.564   5.834 -1.6559  1.2495  0.1335
 5908SOL    HW229358   1.368   1.666   5.793  0.4356 -0.8701  0.0520
 5909SOL     OW29359   3.585   2.134   4.855  0.4253  0.2959 -0.2172
 5909SOL    HW129360   3.603   2.065   4.919 -0.6391 -1.7051 -2.0801
 5909SOL    HW229361   3.508   2.170   4.899  0.2858  0.3627 -0.5116
 5910SOL     OW29362   4.051   0.695   6.930  0.1352 -0.1761 -0.2833
 5910SOL    HW129363   3.980   0.738   6.882  0.5462  1.8518  0.9041
 5910SOL    HW229364   4.125   0.751   6.907 -0.0750  0.7547  1.2919
 5911SOL     OW29365   4.018   0.363   2.544  0.0771 -0.3551  0.1528
 5911SOL    HW129366   3.989   0.366   2.635 -3.7280  2.3336 -1.1428
 5911SOL    HW229367   4.055   0.448   2.519  3.8843 -1.6871  1.3572
 5912SOL     OW29368   4.435   0.229   4.519  0.7108  0.5989 -0.5384
 5912SOL    HW129369   4.490   0.307   4.525  0.5682  0.5936  0.7230
 5912SOL    HW229370   4.410   0.204   4.608 -1.5116  1.1959 -0.9797
 5913SOL     OW29371   0.801   4.408   8.137  0.3489  0.3484  0.2453
 5913SOL    HW129372   0.848   4.479   8.093 -0.4453 -0.2170 -1.5286
 5913SOL    HW229373   0.825   4.333   8.083  0.3250  1.0724 -0.7689
 5914SOL     OW29374   4.708   3.912   7.478  0.1116 -0.3341 -0.5132
 5914SOL    HW129375   4.707   3.994   7.428 -0.2347 -0.8433 -1.3547
 5914SOL    HW229376   0.029   3.862   7.416  1.9127  2.7022 -1.3872
 5915SOL     OW29377   3.495   2.836   0.357  0.4533  0.1664 -0.4449
 5915SOL    HW129378   3.529   2.838   0.447 -0.5279 -0.8228 -0.0542
 5915SOL    HW229379   3.529   2.755   0.319  1.0578 -0.4587  1.3875
 5916SOL     OW29380   1.171   1.226   7.866 -0.0251  0.3260  0.3123
 5916SOL    HW129381   1.203   1.227   7.957  1.9482 -1.4100 -0.3721
 5916SOL    HW229382   1.078   1.249   7.864 -0.0286  0.3073  0.2677
 5917SOL     OW29383   4.478   1.133  11.869  0.1557 -0.9180  0.2828
 5917SOL    HW129384   4.518   1.184  11.940  4.0369  0.8364 -3.1305
 5917SOL    HW229385   4.393   1.176  11.869  1.6976  2.1601 -2.0345
 5918SOL     OW29386   1.836   3.092   5.075 -0.1794  0.3653 -0.4670
 5918SOL    HW129387   1.923   3.125   5.097  1.2389 -2.5777 -1.6038
 5918SOL    HW229388   1.818   3.021   5.137  0.8111  0.3119 -0.2374
 5919SOL     OW29389   0.003   4.011   5.720  0.2857 -0.1448  0.2399
 5919SOL    HW129390   4.652   3.966   5.734 -0.3271 -0.2964 -3.8780
 5919SOL    HW229391   4.714   4.084   5.661 -0.6769  0.1450  0.9410
 5920SOL     OW29392   2.356   4.385   2.776 -0.0138 -0.1332  0.4140
 5920SOL    HW129393   2.397   4.342   2.701 -1.3838 -0.0982 -0.3500
 5920SOL    HW229394   2.266   4.361   2.755  0.2138 -1.6231  1.1776
 5921SOL     OW29395   1.215   0.098   7.563  0.0451 -0.1058 -0.1344
 5921SOL    HW129396   1.174   0.012   7.567 -1.1969  0.5006  0.0873
 5921SOL    HW229397   1.181   0.141   7.484  0.2856 -3.6592 -2.1601
 5922SOL     OW29398   2.213   1.419  15.418 -0.1436  0.0078 -0.0975
 5922SOL    HW129399   2.305   1.394  15.409 -0.0389  0.2634  0.2980
 5922SOL    HW229400   2.185   1.355  15.483 -0.1101 -0.1115 -0.2006
 5923SOL     OW29401   3.711   3.956  17.331  0.2700 -0.2566  0.1996
 5923SOL    HW129402   3.763   4.013  17.388 -0.7107  3.7214 -2.8533
 5923SOL    HW229403   3.631   3.964  17.381  1.0193 -0.8388  1.4827
 5924SOL     OW29404   3.824   3.302  15.789 -0.1393 -0.2186  0.0448
 5924SOL    HW129405   3.729   3.311  15.792 -0.2226 -0.8370 -0.9536
 5924SOL    HW229406   3.839   3.299  15.884  1.7166  0.7963 -0.2169
 5925SOL     OW29407   1.928   3.383   2.769  0.0418 -0.0738 -0.3790
 5925SOL    HW129408   1.926   3.473   2.734 -2.7238 -0.3613 -0.9651
 5925SOL    HW229409   1.973   3.340   2.697  0.2584 -0.2688 -0.1246
 5926SOL     OW29410   1.647   2.569   4.298 -0.7738 -0.0762  0.0498
 5926SOL    HW129411   1.660   2.478   4.271  0.6733  0.7624 -2.0806
 5926SOL    HW229412   1.585   2.561   4.370  0.3827  1.8057  1.2648
 5927SOL     OW29413   3.661   4.696   4.408 -0.2544 -0.1105  0.2436
 5927SOL    HW129414   3.727   4.713   4.342 -1.1104  0.3499 -0.4956
 5927SOL    HW229415   3.602   0.021   4.359  0.3451 -1.8404 -2.4993
 5928SOL     OW29416   0.138   2.461   7.841  0.0273 -0.1113 -0.0252
 5928SOL    HW129417   0.225   2.429   7.864  0.7278  2.0210  0.2571
 5928SOL    HW229418   0.152   2.555   7.846  0.3065 -0.1983  0.7890
 5929SOL     OW29419   3.454   1.769   3.738 -0.2446  0.5783 -0.1174
 5929SOL    HW129420   3.394   1.705   3.775 -0.1193  1.6184  1.8976
 5929SOL    HW229421   3.530   1.759   3.796  0.4103  0.4376 -0.9892
 5930SOL     OW29422   3.810   0.280  16.618 -0.2792 -0.6720  0.3953
 5930SOL    HW129423   3.787   0.356  16.671 -0.5245  0.5685 -1.4870
 5930SOL    HW229424   3.798   0.207  16.679 -2.2515  0.5887  1.5327
 5931SOL     OW29425   0.327   1.535   0.285 -0.4970  0.4280 -0.2801
 5931SOL    HW129426   0.395   1.495   0.230 -2.3089 -1.3770 -1.2003
 5931SOL    HW229427   0.250   1.516   0.232  0.0919 -1.7262 -0.3393
 5932SOL     OW29428   3.551   3.519  11.271 -0.3311  0.4155 -0.0925
 5932SOL    HW129429   3.583   3.430  11.259 -1.9509 -0.2605  0.6561
 5932SOL    HW229430   3.464   3.518  11.233 -1.1463 -1.6841  1.8765
 5933SOL     OW29431   3.572   0.951   0.797 -0.1651 -0.2115  0.2092
 5933SOL    HW129432   3.512   1.002   0.851  0.0264  0.2784 -0.0376
 5933SOL    HW229433   3.519   0.958   0.717 -0.9028  0.5616  0.7646
 5934SOL     OW29434   3.817   3.068   3.393  0.3290  0.4561 -0.2566
 5934SOL    HW129435   3.864   3.098   3.315  0.3545 -0.7952 -0.7268
 5934SOL    HW229436   3.820   3.147   3.447 -0.6558 -0.0052  0.4830
 5935SOL     OW29437   3.988   4.050   9.494 -0.3354 -0.1240  0.2236
 5935SOL    HW129438   4.077   4.016   9.501  0.2449  1.1141 -1.2769
 5935SOL    HW229439   3.951   4.015   9.575  0.9387  0.9630  1.2839
 5936SOL     OW29440   0.959   1.377   0.606  0.5442  0.0456  0.1316
 5936SOL    HW129441   0.899   1.446   0.634  0.3348 -0.3679  0.7021
 5936SOL    HW229442   0.931   1.365   0.515 -1.1383 -0.3050  0.7097
 5937SOL     OW29443   0.483   3.070   3.587 -0.2214 -0.1510 -0.4441
 5937SOL    HW129444   0.431   3.082   3.666 -1.9109  2.0727 -1.9039
 5937SOL    HW229445   0.551   3.014   3.624 -2.3685 -0.3020  3.2087
 5938SOL     OW29446   4.129   1.068   3.781  0.4331 -1.1238 -0.7225
 5938SOL    HW129447   4.183   0.991   3.800  1.6312 -0.3305 -0.9273
 5938SOL    HW229448   4.052   1.030   3.737  1.6837 -1.4353 -2.6419
 5939SOL     OW29449   0.028   4.644  10.253  0.9912 -0.7053 -0.0096
 5939SOL    HW129450   0.032   4.688  10.167  0.1813 -0.4952  0.0559
 5939SOL    HW229451   0.088   4.570  10.248  2.2754  0.4505 -1.8444
 5940SOL     OW29452   2.069   3.783  16.514 -0.0132 -0.1269 -0.0461
 5940SOL    HW129453   2.095   3.832  16.592 -0.0023 -0.5824  0.2375
 5940SOL    HW229454   2.107   3.700  16.541  0.8672 -0.0937 -1.1908
 5941SOL     OW29455   3.640   3.792   0.502 -0.2641 -0.0637 -0.7512
 5941SOL    HW129456   3.612   3.743   0.579 -0.2779  2.0544  0.5767
 5941SOL    HW229457   3.580   3.867   0.500 -0.0924  0.0842 -0.2264
 5942SOL     OW29458   2.914   3.979   7.996  0.1254 -0.4552  0.2351
 5942SOL    HW129459   2.911   3.902   8.053  0.1970  0.0417  0.9059
 5942SOL    HW229460   2.842   3.958   7.936 -0.1658 -0.6066  0.6437
 5943SOL     OW29461   1.767   2.202  16.700  0.0945  0.2244 -0.5437
 5943SOL    HW129462   1.857   2.174  16.680  0.5243 -0.3640  2.2140
 5943SOL    HW229463   1.760   2.190  16.795 -1.3499 -1.7772 -0.8976
 5944SOL     OW29464   4.322   0.844   3.792 -0.8092  0.1796 -0.4427
 5944SOL    HW129465   4.267   0.776   3.755  0.3818 -1.3428  0.5719
 5944SOL    HW229466   4.357   0.877   3.709  0.1588 -1.0054 -0.5064
 5945SOL     OW29467   3.018   3.621   5.139  0.6745 -0.4417  0.0644
 5945SOL    HW129468   2.942   3.673   5.114  2.2397  2.2898  0.9211
 5945SOL    HW229469   3.028   3.645   5.232  1.3795 -1.2735  0.1965
 5946SOL     OW29470   2.405   1.255   7.347 -0.2326  0.5318  0.9366
 5946SOL    HW129471   2.330   1.201   7.371 -0.3960  0.9759  1.4352
 5946SOL    HW229472   2.443   1.271   7.433 -3.2978 -0.3991  2.4906
 5947SOL     OW29473   4.665   0.501   8.024 -0.6651 -0.1123 -0.1981
 5947SOL    HW129474   4.679   0.479   7.931  1.2694 -1.5671  0.4449
 5947SOL    HW229475   4.698   0.591   8.017  1.0046 -0.7115 -0.0083
 5948SOL     OW29476   4.312   4.415   6.066  0.0195  0.4641 -0.4710
 5948SOL    HW129477   4.318   4.419   5.971  1.7482 -0.3308 -0.3891
 5948SOL    HW229478   4.219   4.412   6.088 -0.0330  3.3179 -0.2612
 5949SOL     OW29479   0.211   4.247  13.662  0.6138 -0.6105 -0.0994
 5949SOL    HW129480   0.211   4.161  13.619 -0.6377 -1.0060  0.6729
 5949SOL    HW229481   0.229   4.298  13.584 -1.3708  1.5225  0.8310
 5950SOL     OW29482   0.280   0.848   2.335  0.1513 -0.2177  0.1084
 5950SOL    HW129483   0.352   0.905   2.308 -0.9980  1.1038 -0.1556
 5950SOL    HW229484   0.218   0.881   2.271  2.2270  0.2356 -1.6801
 5951SOL     OW29485   1.023   2.785  16.878  0.4719  0.2636  0.2527
 5951SOL    HW129486   0.983   2.872  16.886  0.5785  0.2286  1.1289
 5951SOL    HW229487   1.100   2.798  16.823  0.5179 -0.9859  0.0170
 5952SOL     OW29488   1.048   4.177  14.902  0.6329  0.2479  0.8497
 5952SOL    HW129489   1.116   4.110  14.899 -0.2672 -0.5331 -1.3371
 5952SOL    HW229490   0.968   4.130  14.925  1.9112 -1.8921  0.8541
 5953SOL     OW29491   2.197   4.100  13.755 -0.0584  0.4471 -0.0376
 5953SOL    HW129492   2.261   4.131  13.818 -0.4030  0.8878  0.0952
 5953SOL    HW229493   2.245   4.104  13.673  0.8001  0.6707  0.4718
 5954SOL     OW29494   3.374   2.126  16.619  0.2041  0.3658  0.5180
 5954SOL    HW129495   3.431   2.075  16.677  0.8294 -1.1334 -1.4440
 5954SOL    HW229496   3.405   2.214  16.641 -0.9904  0.7043  0.8515
 5955SOL     OW29497   3.417   1.597   0.674 -0.3082  0.9611  0.2065
 5955SOL    HW129498   3.441   1.688   0.690 -0.9945  0.4831  3.9402
 5955SOL    HW229499   3.415   1.571   0.766 -0.3230 -0.6361 -0.2399
 5956SOL     OW29500   3.447   0.076   1.229  0.6456  0.5014 -0.2561
 5956SOL    HW129501   3.400   0.154   1.198 -0.2577 -0.5303 -1.4329
 5956SOL    HW229502   3.447   0.015   1.156  1.9213 -1.6431  1.5252
 5957SOL     OW29503   0.489   1.116   4.589 -0.1651 -0.7482 -0.5095
 5957SOL    HW129504   0.475   1.204   4.625  0.8995 -0.6287 -0.3762
 5957SOL    HW229505   0.568   1.089   4.635 -0.3687  0.3620  0.4925
 5958SOL     OW29506   4.098   2.544   3.520 -0.0620 -0.2250 -0.3741
 5958SOL    HW129507   4.182   2.573   3.556 -0.0902  0.1610 -0.6217
 5958SOL    HW229508   4.093   2.620   3.462 -0.2695 -0.2330 -0.3638
 5959SOL     OW29509   0.361   0.032   0.636  0.2654 -1.0810 -0.3393
 5959SOL    HW129510   0.430   4.708   0.602  1.4510  0.1481  0.0184
 5959SOL    HW229511   0.406   0.116   0.642 -0.2565 -0.8304  0.0899
 5960SOL     OW29512   3.142   2.042   6.330  0.6673 -0.0613 -0.6834
 5960SOL    HW129513   3.165   1.972   6.391 -0.7806  0.1920  0.1551
 5960SOL    HW229514   3.117   1.988   6.255  2.9020 -2.6599  0.4640
 5961SOL     OW29515   1.342   2.098   2.186  0.1748  0.0286 -0.4849
 5961SOL    HW129516   1.396   2.133   2.257  1.9329  0.0289 -1.8107
 5961SOL    HW229517   1.328   2.008   2.215  1.4893 -0.1233 -0.3230
 5962SOL     OW29518   3.647   3.571   4.003  0.4103  0.4302  0.3064
 5962SOL    HW129519   3.568   3.625   3.997 -0.6297 -1.0357  0.7506
 5962SOL    HW229520   3.637   3.529   4.089 -1.7954  1.7890  0.7130
 5963SOL     OW29521   3.210   0.626   3.151 -0.1754  0.6961  0.7379
 5963SOL    HW129522   3.261   0.689   3.202  0.0532  0.9886  0.1374
 5963SOL    HW229523   3.179   0.674   3.074  1.9469  2.9362  1.2746
 5964SOL     OW29524   0.557   3.097   2.394 -0.8662  0.5384  0.0475
 5964SOL    HW129525   0.633   3.085   2.452  0.0419 -2.0529 -1.6471
 5964SOL    HW229526   0.553   3.192   2.386  0.8562  0.5558 -0.6295
 5965SOL     OW29527   0.119   2.116   5.045 -0.0616 -0.4726  0.2671
 5965SOL    HW129528   0.043   2.136   5.099  0.5967 -1.3266  1.5226
 5965SOL    HW229529   0.178   2.108   5.120  0.6944  2.9870  0.0522
 5966SOL     OW29530   0.530   1.185   5.497  0.3070  0.3981 -0.2480
 5966SOL    HW129531   0.460   1.128   5.467 -1.1843  1.9640  0.2342
 5966SOL    HW229532   0.572   1.227   5.422  3.7508  0.9613  1.9506
 5967SOL     OW29533   0.452   1.105  15.238  0.3422  0.5938 -0.2931
 5967SOL    HW129534   0.361   1.109  15.268  0.5085 -0.5480  0.3658
 5967SOL    HW229535   0.480   1.014  15.247  0.4594  0.7343  0.7207
 5968SOL     OW29536   4.299   0.338   6.254  0.4258  0.0915 -0.4541
 5968SOL    HW129537   4.239   0.408   6.282 -0.5500  0.5779 -3.7357
 5968SOL    HW229538   4.369   0.346   6.318 -0.8983 -2.2161  1.2692
 5969SOL     OW29539   1.660   3.402   1.778 -0.2445 -0.4918 -0.4750
 5969SOL    HW129540   1.721   3.471   1.803 -1.3894  0.6896 -0.9379
 5969SOL    HW229541   1.641   3.377   1.869 -0.2413  2.4102  0.3051
 5970SOL     OW29542   4.038   3.436   8.173  0.2796 -0.1664 -0.0614
 5970SOL    HW129543   4.070   3.369   8.232 -0.8485 -1.0750 -0.4838
 5970SOL    HW229544   3.962   3.469   8.222  0.4774 -0.4557  0.4395
 5971SOL     OW29545   0.457   0.275  12.261  0.2594  0.7432  0.3559
 5971SOL    HW129546   0.417   0.329  12.193 -1.2122 -1.1255 -0.2573
 5971SOL    HW229547   0.544   0.314  12.259  0.7222 -0.2235  1.6959
 5972SOL     OW29548   2.475   4.577   8.513  0.3330  0.1374  0.0209
 5972SOL    HW129549   2.399   4.530   8.548  0.7350  1.2772  2.4729
 5972SOL    HW229550   2.544   4.510   8.514 -1.6571 -1.8835  0.1100
 5973SOL     OW29551   2.334   0.548   7.533  0.0959  0.8235 -0.1285
 5973SOL    HW129552   2.270   0.519   7.468 -0.2950  2.2068 -0.3771
 5973SOL    HW229553   2.376   0.615   7.479  1.2661 -2.0762 -2.8217
 5974SOL     OW29554   4.713   3.675   6.373 -0.5779 -0.4882  0.0486
 5974SOL    HW129555   4.680   3.715   6.292 -2.8349  1.8033  2.0993
 5974SOL    HW229556   4.702   3.581   6.355  0.4850 -0.1750 -2.2035
 5975SOL     OW29557   1.473   2.978   8.494 -0.0218 -0.5062  0.5353
 5975SOL    HW129558   1.398   3.037   8.497  1.7981  1.8633  0.4059
 5975SOL    HW229559   1.436   2.891   8.504 -0.3925 -0.1778  1.9702
 5976SOL     OW29560   2.658   2.234   8.585 -0.2142 -0.2085  0.1581
 5976SOL    HW129561   2.568   2.268   8.589 -1.1993 -2.6845 -0.8208
 5976SOL    HW229562   2.642   2.139   8.585 -1.4408 -0.0046 -0.0666
 5977SOL     OW29563   4.339   3.910   6.777 -0.7039 -0.3732  0.3583
 5977SOL    HW129564   4.378   3.835   6.820  1.9378  1.6468  1.4915
 5977SOL    HW229565   4.254   3.878   6.747 -0.9047 -0.0318  0.5541
 5978SOL     OW29566   1.913   2.050   5.958 -0.7123  0.1408  0.2955
 5978SOL    HW129567   1.882   2.087   5.875  1.3428  0.4357 -0.3462
 5978SOL    HW229568   1.968   1.976   5.931 -1.1386  0.1557 -0.6111
 5979SOL     OW29569   1.001   4.006   7.910 -0.3763  0.1113  0.0289
 5979SOL    HW129570   1.075   3.993   7.851  0.5054  0.6309  1.0186
 5979SOL    HW229571   1.033   4.022   7.999  0.2277  1.2760 -0.4089
 5980SOL     OW29572   4.059   2.080   2.392  0.5713 -0.5943 -0.5921
 5980SOL    HW129573   4.044   1.986   2.376 -0.1622 -0.4724 -0.6296
 5980SOL    HW229574   4.128   2.075   2.457  0.5817  1.8302 -0.4278
 5981SOL     OW29575   1.640   0.570  17.651 -0.8616 -0.2689  0.0780
 5981SOL    HW129576   1.732   0.594  17.662 -0.3504 -2.2512  0.0209
 5981SOL    HW229577   1.598   0.631  17.712 -1.3486  1.3612 -1.8857
 5982SOL     OW29578   0.981   3.200   2.605 -0.2119 -0.0415 -0.1097
 5982SOL    HW129579   1.038   3.161   2.671 -1.8887 -0.7638  0.9227
 5982SOL    HW229580   0.938   3.271   2.652 -0.8522 -1.2989  1.2143
 5983SOL     OW29581   1.973   1.645   6.401  0.0489  0.3205  0.1957
 5983SOL    HW129582   2.040   1.673   6.463 -0.8132 -0.1011  1.3330
 5983SOL    HW229583   1.961   1.555   6.434  1.1479  0.2419  0.3864
 5984SOL     OW29584   2.382   1.223  11.547  0.3158 -0.4441  0.0880
 5984SOL    HW129585   2.415   1.245  11.634 -0.8910 -0.7593  0.6304
 5984SOL    HW229586   2.460   1.177  11.516  2.0897  5.0539 -3.6862
 5985SOL     OW29587   4.254   2.841   4.490  0.0432 -0.3747  0.3378
 5985SOL    HW129588   4.283   2.911   4.432  0.6879 -1.8466 -1.1435
 5985SOL    HW229589   4.299   2.870   4.569 -0.8651  2.2865 -0.1223
 5986SOL     OW29590   0.625   3.817  15.758  0.2394 -0.5033 -0.2046
 5986SOL    HW129591   0.693   3.753  15.781 -0.2408 -0.6832  0.7149
 5986SOL    HW229592   0.627   3.880  15.829  1.3565 -0.6337 -0.1177
 5987SOL     OW29593   3.147   1.837   1.664  0.0028  0.1288 -0.2829
 5987SOL    HW129594   3.092   1.895   1.717 -0.6685 -1.1423  0.3961
 5987SOL    HW229595   3.091   1.842   1.586  0.1529 -0.9288 -0.4548
 5988SOL     OW29596   1.793   0.189   2.834 -0.3392  0.5421  0.0618
 5988SOL    HW129597   1.824   0.123   2.895  1.3667  0.3669 -0.9948
 5988SOL    HW229598   1.725   0.233   2.886 -0.7988 -0.5972  0.4066
 5989SOL     OW29599   3.176   0.073   8.125  0.2936 -0.4529 -0.2637
 5989SOL    HW129600   3.204   0.103   8.211  1.2526 -2.2556  0.0703
 5989SOL    HW229601   3.267   0.065   8.095  0.4207 -0.7503  0.2074
 5990SOL     OW29602   1.082   4.050  16.179  0.6454  0.5964  0.2626
 5990SOL    HW129603   0.998   4.040  16.133  0.0821  1.0804  1.1821
 5990SOL    HW229604   1.052   4.073  16.267  0.2578 -1.2719  0.6166
 5991SOL     OW29605   4.176   1.683   8.947 -0.0122 -0.2963 -0.0887
 5991SOL    HW129606   4.156   1.741   8.873 -0.6703 -0.3981  0.0185
 5991SOL    HW229607   4.115   1.611   8.936  0.7035 -1.1659  1.6230
 5992SOL     OW29608   0.511   0.050   2.956  0.1807  0.4443 -0.1396
 5992SOL    HW129609   0.580   0.071   2.893  2.0220  2.1499  2.4817
 5992SOL    HW229610   0.504   4.686   2.949 -2.0972  0.5110  1.2854
 5993SOL     OW29611   1.255   2.049   8.846  0.8375  0.1321 -0.0130
 5993SOL    HW129612   1.299   2.083   8.769 -2.0604  0.0104 -1.7065
 5993SOL    HW229613   1.261   1.954   8.838 -0.6397 -0.0309  0.7161
 5994SOL     OW29614   4.579   2.324   8.893 -0.4156 -0.2475 -0.7271
 5994SOL    HW129615   4.549   2.259   8.958 -0.6288 -0.2020 -0.7798
 5994SOL    HW229616   4.574   2.403   8.947  0.7702 -0.0860 -0.8501
 5995SOL     OW29617   4.521   2.611   4.738  0.5166 -0.2207 -0.1164
 5995SOL    HW129618   4.483   2.534   4.780 -0.3880  1.0666  1.4199
 5995SOL    HW229619   4.608   2.572   4.728  0.1677 -1.2612  0.8971
 5996SOL     OW29620   0.430   1.226   4.347  0.0471 -0.2449  0.2622
 5996SOL    HW129621   0.507   1.190   4.303 -0.0768  0.5041 -0.5620
 5996SOL    HW229622   0.399   1.147   4.391 -0.4937 -1.8227 -2.9812
 5997SOL     OW29623   3.473   2.952   2.748  0.2940  0.2809 -0.2447
 5997SOL    HW129624   3.483   3.009   2.671  0.8013  0.1303 -0.2917
 5997SOL    HW229625   3.471   2.867   2.703 -2.3056  0.5694 -0.6382
 5998SOL     OW29626   0.657   2.664  17.498  0.4962 -0.2609  0.0578
 5998SOL    HW129627   0.723   2.685  17.431  0.9886 -2.0952 -0.0126
 5998SOL    HW229628   0.656   2.750  17.541  0.7291  0.0081 -0.4721
 5999SOL     OW29629   1.122   1.460   4.517  0.1307  0.2183  0.1734
 5999SOL    HW129630   1.144   1.446   4.425 -0.0792  1.7191 -0.1113
 5999SOL    HW229631   1.060   1.388   4.526  0.7945 -0.2907  0.6157
 6000SOL     OW29632   0.741   3.703   1.717 -0.5125  0.0335 -0.0397
 6000SOL    HW129633   0.662   3.754   1.730  0.6747  1.6197  1.0150
 6000SOL    HW229634   0.721   3.634   1.653 -2.4295 -0.8463  1.5168
 6001SOL     OW29635   0.539   2.564   3.476  0.3509 -0.0119  0.0067
 6001SOL    HW129636   0.564   2.523   3.559  0.6590  0.7297  0.2819
 6001SOL    HW229637   0.580   2.499   3.420 -1.1473 -0.9427 -0.0043
 6002SOL     OW29638   3.487   3.455   3.452 -0.2033  0.2346  0.4025
 6002SOL    HW129639   3.437   3.455   3.534 -1.0193 -0.0386 -0.1004
 6002SOL    HW229640   3.474   3.363   3.429 -3.6801  1.3811 -2.1538
 6003SOL     OW29641   0.940   3.448   7.364 -0.3197 -0.2521  0.1009
 6003SOL    HW129642   0.992   3.379   7.405  1.6610  0.1195 -1.7888
 6003SOL    HW229643   0.890   3.473   7.441 -0.4698 -0.8507  0.1988
 6004SOL     OW29644   3.324   4.246   2.830 -0.0482  0.3575 -0.5635
 6004SOL    HW129645   3.321   4.317   2.894 -0.8145  1.4836 -1.8431
 6004SOL    HW229646   3.285   4.179   2.885  1.7860 -0.4448 -0.2329
 6005SOL     OW29647   3.446   1.357   2.083 -0.5423  0.0428  0.2093
 6005SOL    HW129648   3.489   1.436   2.114  0.3870 -0.6293  0.6195
 6005SOL    HW229649   3.456   1.381   1.991  0.3413 -2.7823 -0.4342
 6006SOL     OW29650   3.678   0.583   6.394  0.2416 -0.4725 -0.6500
 6006SOL    HW129651   3.622   0.545   6.461 -0.3681 -0.3861 -1.1093
 6006SOL    HW229652   3.701   0.671   6.425  1.6068 -0.7369 -0.9378
 6007SOL     OW29653   4.059   2.295   5.157 -0.0892  0.0327  0.6641
 6007SOL    HW129654   4.067   2.278   5.251 -2.0709  1.1133  1.0162
 6007SOL    HW229655   4.097   2.382   5.143  1.0041 -0.5025  0.3401
 6008SOL     OW29656   0.149   1.036   4.540 -0.4749 -0.4202  0.3735
 6008SOL    HW129657   0.158   0.985   4.460  1.6544  1.7308 -0.7639
 6008SOL    HW229658   0.116   1.119   4.504  0.0558 -0.7866 -0.9799
 6009SOL     OW29659   0.830   1.367   7.356  0.1668 -0.1871  0.4000
 6009SOL    HW129660   0.748   1.336   7.317 -0.1540  0.0604  0.8749
 6009SOL    HW229661   0.835   1.459   7.330 -0.4877 -0.8547 -2.1414
 6010SOL     OW29662   2.900   0.615  10.694 -0.3217 -0.0597 -0.2714
 6010SOL    HW129663   2.939   0.567  10.622 -0.8533 -0.3710 -0.3499
 6010SOL    HW229664   2.818   0.567  10.701  0.3819 -1.2074 -0.0560
 6011SOL     OW29665   1.419   4.208  14.422  0.2163 -0.8149  0.3309
 6011SOL    HW129666   1.394   4.291  14.463  2.9801  1.3892 -2.4222
 6011SOL    HW229667   1.480   4.243  14.357 -1.0681  1.2746  0.2643
 6012SOL     OW29668   0.251   0.520   5.369 -0.0041 -0.3349  0.6374
 6012SOL    HW129669   0.248   0.475   5.284  1.5733  0.8514 -0.0453
 6012SOL    HW229670   0.168   0.567   5.358  0.8486  1.0745  0.1572
 6013SOL     OW29671   1.044   4.120   2.591  0.5087  0.3065 -0.2616
 6013SOL    HW129672   1.084   4.040   2.558 -0.1517  0.4875 -1.5010
 6013SOL    HW229673   0.978   4.089   2.653 -2.0263  0.0508 -3.1049
 6014SOL     OW29674   3.082   3.719  10.042 -0.1445 -0.3603 -0.2810
 6014SOL    HW129675   3.148   3.769  10.090 -0.2241 -0.0253 -0.5242
 6014SOL    HW229676   3.142   3.665   9.990  1.0857  0.9201 -0.1967
 6015SOL     OW29677   0.419   0.708   2.732  0.0471  0.6649  0.0304
 6015SOL    HW129678   0.366   0.682   2.808  2.7544  0.3232  1.8200
 6015SOL    HW229679   0.350   0.752   2.682 -0.7358 -1.5364 -0.8239
 6016SOL     OW29680   4.686   3.385  15.724  0.1365  0.0317  0.4492
 6016SOL    HW129681   4.640   3.467  15.705  2.3890  1.4056  0.8745
 6016SOL    HW229682   4.660   3.320  15.659 -1.1877  2.0175 -0.9895
 6017SOL     OW29683   1.548   1.886   5.416  0.6723  0.3995 -0.1524
 6017SOL    HW129684   1.644   1.892   5.413  0.7263  0.8543  2.1716
 6017SOL    HW229685   1.517   1.826   5.484  1.3943  0.6510  0.4061
 6018SOL     OW29686   4.413   1.406   4.463 -0.2459  0.7378 -0.8620
 6018SOL    HW129687   4.349   1.370   4.402 -0.8696  2.4419 -1.2094
 6018SOL    HW229688   4.349   1.444   4.523 -1.8467 -3.0748 -0.1672
 6019SOL     OW29689   1.268   0.233  10.578  0.1964  0.8151  0.4657
 6019SOL    HW129690   1.243   0.145  10.607  3.0415 -0.4062 -0.7908
 6019SOL    HW229691   1.350   0.242  10.626  0.1825 -0.4357  0.7190
 6020SOL     OW29692   0.309   0.656   8.489  0.6552 -0.9985 -0.1185
 6020SOL    HW129693   0.377   0.621   8.547 -0.1459 -0.5268  1.0936
 6020SOL    HW229694   0.311   0.749   8.511  1.4631 -1.5785  2.2477
 6021SOL     OW29695   1.196   3.105   2.033  0.1950 -0.3421  0.1610
 6021SOL    HW129696   1.230   3.025   1.993  0.5508 -0.1759  0.1353
 6021SOL    HW229697   1.279   3.136   2.067 -0.7325 -0.1302  2.2162
 6022SOL     OW29698   0.050   0.798   3.746  0.8672  0.0712 -0.6319
 6022SOL    HW129699   0.040   0.865   3.813  0.9423 -1.0600  0.4885
 6022SOL    HW229700   0.029   0.719   3.795  0.4449  1.6676  1.7483
 6023SOL     OW29701   0.322   3.178   0.863  0.0722  0.0771 -0.7249
 6023SOL    HW129702   0.301   3.271   0.851  1.2236  0.4285 -0.0309
 6023SOL    HW229703   0.301   3.160   0.954 -0.9353  0.5056 -0.8689
 6024SOL     OW29704   2.514   2.169  13.140 -0.2468  0.1179  0.0402
 6024SOL    HW129705   2.444   2.231  13.164  0.7462  1.3148 -0.1553
 6024SOL    HW229706   2.557   2.158  13.225 -1.2823 -1.0105  0.4218
 6025SOL     OW29707   2.007   1.403   6.745  0.0861 -0.2782  0.5892
 6025SOL    HW129708   2.093   1.436   6.719 -0.1897  2.0195  2.6044
 6025SOL    HW229709   2.013   1.397   6.840  1.6651  0.7015  0.5435
 6026SOL     OW29710   0.551   2.842  16.463 -0.3875 -0.2178 -0.3319
 6026SOL    HW129711   0.527   2.800  16.380 -2.2403  0.8955 -0.3597
 6026SOL    HW229712   0.598   2.919  16.433 -1.7516  0.7550  0.0385
 6027SOL     OW29713   2.011   4.518   2.470  0.3744  0.5568  0.1819
 6027SOL    HW129714   2.059   4.576   2.411 -0.0804  1.1186  0.3707
 6027SOL    HW229715   1.920   4.521   2.440  0.4301  0.6504  0.0219
 6028SOL     OW29716   1.462   1.129  16.234 -0.1098 -0.3688  0.1461
 6028SOL    HW129717   1.473   1.220  16.263  0.9935  0.1054 -1.7705
 6028SOL    HW229718   1.547   1.108  16.196  1.0476  1.8289  1.5011
 6029SOL     OW29719   0.114   1.721  10.024 -0.1303 -0.1141  0.3786
 6029SOL    HW129720   0.182   1.782   9.997 -0.8477  1.1123  1.3725
 6029SOL    HW229721   0.132   1.641   9.975  0.9028 -0.2272  0.9392
 6030SOL     OW29722   2.645   3.524   2.344 -0.2073 -0.0512 -0.5667
 6030SOL    HW129723   2.633   3.491   2.255 -1.2775 -1.0423 -0.0593
 6030SOL    HW229724   2.713   3.465   2.377  3.2457  3.3193 -1.6763
 6031SOL     OW29725   0.865   1.395  16.487  0.4937  0.3164 -0.0244
 6031SOL    HW129726   0.822   1.333  16.428  1.3920 -0.2730 -0.0581
 6031SOL    HW229727   0.848   1.364  16.576 -1.5608 -1.7197 -1.1248
 6032SOL     OW29728   2.233   3.725   2.915 -0.4356  0.3668 -0.0741
 6032SOL    HW129729   2.319   3.693   2.943 -0.4418  1.0524  0.7637
 6032SOL    HW229730   2.184   3.723   2.997 -2.0944  0.8501 -1.0521
 6033SOL     OW29731   0.325   0.753   1.454 -0.1159 -0.1642  0.2567
 6033SOL    HW129732   0.340   0.675   1.400  1.0317  1.0445 -1.1498
 6033SOL    HW229733   0.396   0.814   1.435  2.2211 -2.5972  1.1679
 6034SOL     OW29734   0.376   0.405  16.830  0.0064  0.6215 -0.1267
 6034SOL    HW129735   0.448   0.413  16.767 -1.8293 -1.7925 -2.5420
 6034SOL    HW229736   0.402   0.444  16.913  4.0762  1.0375 -1.5943
 6035SOL     OW29737   1.648   2.001  12.300  0.3936 -0.4172 -0.1594
 6035SOL    HW129738   1.579   2.031  12.240  1.5159  0.8189 -0.8243
 6035SOL    HW229739   1.648   1.908  12.278 -0.5409 -0.5995  0.6039
 6036SOL     OW29740   2.074   3.447   6.784  0.0689  0.0976 -0.0338
 6036SOL    HW129741   2.114   3.388   6.848  0.8214 -0.4086 -0.9624
 6036SOL    HW229742   2.091   3.532   6.823  0.5948  0.2793 -0.6485
 6037SOL     OW29743   4.127   0.932   4.932  0.2471  0.3496 -0.1103
 6037SOL    HW129744   4.157   0.994   4.998  1.0568  2.2360 -2.2461
 6037SOL    HW229745   4.040   0.930   4.972 -0.6340  1.4808 -1.9171
 6038SOL     OW29746   0.163   4.313   4.373  0.3776 -0.8211 -0.2459
 6038SOL    HW129747   0.147   4.222   4.398 -0.7339  0.1669  2.5488
 6038SOL    HW229748   0.084   4.328   4.320  0.4268 -1.4535 -0.5021
 6039SOL     OW29749   3.607   0.196   1.635 -0.2566 -0.0070  0.0482
 6039SOL    HW129750   3.622   0.113   1.681 -2.3131  0.4055  1.4598
 6039SOL    HW229751   3.642   0.176   1.549  0.3227 -1.0389  0.5245
 6040SOL     OW29752   0.141   1.821   7.960  0.0583 -0.0935 -0.1628
 6040SOL    HW129753   0.084   1.776   7.897 -0.5343 -0.4450  0.6204
 6040SOL    HW229754   0.224   1.781   7.936  0.2876  0.0840  0.3368
 6041SOL     OW29755   2.024   4.168   2.852 -0.2055  0.8680 -0.1798
 6041SOL    HW129756   2.040   4.078   2.823  0.8353 -0.1616  3.4861
 6041SOL    HW229757   2.049   4.215   2.773  1.1472  0.6660  0.1287
 6042SOL     OW29758   1.415   0.925  17.342 -1.0260 -0.3258  0.1536
 6042SOL    HW129759   1.402   0.859  17.274  0.1759 -2.2601  1.8164
 6042SOL    HW229760   1.469   0.884  17.409 -0.9281  0.1669  0.3805
 6043SOL     OW29761   3.348   1.297   9.508  0.0639 -0.0347  0.2978
 6043SOL    HW129762   3.276   1.256   9.462  1.6004 -1.7235 -0.5889
 6043SOL    HW229763   3.312   1.306   9.596 -1.4194 -2.7513 -0.0356
 6044SOL     OW29764   3.866   0.393   7.631  0.3090  0.1645 -0.8938
 6044SOL    HW129765   3.831   0.364   7.546 -1.0963  0.6940 -0.5025
 6044SOL    HW229766   3.917   0.470   7.607  2.1208 -0.5724  0.6291
 6045SOL     OW29767   4.112   2.750  11.477 -0.2671  0.3284  0.0068
 6045SOL    HW129768   4.202   2.781  11.489  0.2041 -1.4953  1.1893
 6045SOL    HW229769   4.081   2.801  11.552 -0.0009 -1.1926  1.1391
 6046SOL     OW29770   3.893   4.149   8.435  0.0154  0.5172 -0.3481
 6046SOL    HW129771   3.851   4.094   8.368  0.9061 -1.6423  0.8584
 6046SOL    HW229772   3.846   4.232   8.428 -0.8423 -0.1091 -2.1888
 6047SOL     OW29773   1.603   1.437   6.162 -0.0370  1.3834 -0.8261
 6047SOL    HW129774   1.684   1.430   6.111  0.3155 -1.7247  0.1672
 6047SOL    HW229775   1.595   1.532   6.149 -1.3905  1.4022  0.2249
 6048SOL     OW29776   1.026   4.192   2.226 -0.1398  0.0958  0.1788
 6048SOL    HW129777   1.013   4.146   2.143  1.1907 -0.3954  0.2290
 6048SOL    HW229778   0.974   4.271   2.212  0.1653  0.1226 -0.8381
 6049SOL     OW29779   1.856   4.586   7.546  0.0165  0.0224 -0.1710
 6049SOL    HW129780   1.863   4.637   7.628 -1.4456 -0.2331  0.1073
 6049SOL    HW229781   1.944   4.605   7.513  0.7040 -1.5623  0.7474
 6050SOL     OW29782   2.005   1.182  15.535  0.2051  0.1468  0.5268
 6050SOL    HW129783   2.021   1.226  15.618  2.5910  0.0925  0.0872
 6050SOL    HW229784   1.928   1.228  15.501  0.6147 -0.6055 -1.4150
 6051SOL     OW29785   2.010   4.525   3.493 -0.1109 -0.0532 -0.3371
 6051SOL    HW129786   2.036   4.521   3.401  2.0281  1.1401  0.2339
 6051SOL    HW229787   2.088   4.479   3.523 -0.4012  0.0252  0.5305
 6052SOL     OW29788   1.507   4.063  16.000  0.0705 -0.7193 -0.5083
 6052SOL    HW129789   1.449   4.136  16.020 -0.6099 -1.5563  0.5143
 6052SOL    HW229790   1.488   4.016  16.081  2.1511 -2.5056 -1.0378
 6053SOL     OW29791   0.610   1.147   6.307 -0.3839  0.1100 -0.1985
 6053SOL    HW129792   0.626   1.074   6.247  1.1638  1.5972 -1.5863
 6053SOL    HW229793   0.698   1.180   6.324 -0.3034 -0.3277  0.2337
 6054SOL     OW29794   2.580   3.225   5.909  0.1586 -0.1839 -0.8375
 6054SOL    HW129795   2.494   3.263   5.894  0.3417  1.6915  2.8711
 6054SOL    HW229796   2.550   3.146   5.953  0.0631  1.0346  1.2803
 6055SOL     OW29797   4.374   1.744   1.855 -0.0910 -0.3296 -0.3566
 6055SOL    HW129798   4.392   1.824   1.905  2.6999 -0.6969 -0.7845
 6055SOL    HW229799   4.310   1.710   1.918 -1.6810 -0.0785 -1.8605
 6056SOL     OW29800   4.343   1.865   0.875  0.3873  0.2456 -0.0587
 6056SOL    HW129801   4.293   1.946   0.867 -1.4585 -0.4953  3.7846
 6056SOL    HW229802   4.429   1.905   0.862  0.2833  0.2530 -0.6898
 6057SOL     OW29803   1.394   1.028  11.019 -0.1352  0.3616 -0.9380
 6057SOL    HW129804   1.416   0.983  10.937  0.2148 -1.9132  0.4026
 6057SOL    HW229805   1.407   1.121  11.001 -1.4634  0.4110 -1.6702
 6058SOL     OW29806   1.496   1.961  11.369  0.0353 -0.0509 -0.1439
 6058SOL    HW129807   1.473   1.873  11.400  0.4887 -0.6939 -1.6210
 6058SOL    HW229808   1.407   1.991  11.350 -0.0298 -0.0927  0.0932
 6059SOL     OW29809   0.290   2.130  12.163 -0.7271  0.5081 -0.1852
 6059SOL    HW129810   0.256   2.043  12.184 -0.0036  0.4612  0.8258
 6059SOL    HW229811   0.368   2.128  12.219 -0.8958 -3.0321 -0.0515
 6060SOL     OW29812   1.116   2.324  12.604  0.2450 -0.8574  0.0600
 6060SOL    HW129813   1.122   2.371  12.521 -0.9561  1.6875  1.3791
 6060SOL    HW229814   1.200   2.345  12.646 -0.2114  0.5290  0.3001
 6061SOL     OW29815   4.514   2.694   1.212 -0.4347 -0.5040 -0.0776
 6061SOL    HW129816   4.574   2.635   1.259  0.2710  0.5112  0.2985
 6061SOL    HW229817   4.560   2.776   1.228 -0.2265 -0.8533  1.1077
 6062SOL     OW29818   2.162   1.755   5.865 -0.4477  0.0038 -0.0109
 6062SOL    HW129819   2.109   1.747   5.786 -0.3380  0.1870 -0.1009
 6062SOL    HW229820   2.134   1.676   5.912 -1.2445  1.1078  1.4083
 6063SOL     OW29821   3.772   3.102   7.237 -0.0427  0.3344 -0.5479
 6063SOL    HW129822   3.785   3.108   7.332  0.6905 -0.0934 -0.6203
 6063SOL    HW229823   3.690   3.147   7.217 -0.9559 -0.6874  0.8765
 6064SOL     OW29824   0.545   1.393   3.954  0.2617  0.1122  0.4085
 6064SOL    HW129825   0.572   1.340   4.029 -1.0133 -2.5480 -1.0223
 6064SOL    HW229826   0.488   1.459   3.994  0.5806 -0.7047  2.2362
 6065SOL     OW29827   4.527   0.021   6.112  0.0109 -0.7227  0.3921
 6065SOL    HW129828   4.465   4.692   6.150 -1.5291 -0.2008 -1.2983
 6065SOL    HW229829   4.509   0.003   6.020  3.4086  2.1799 -0.8368
 6066SOL     OW29830   1.671   1.117  12.001 -0.2850  0.4240 -0.1108
 6066SOL    HW129831   1.582   1.085  12.019 -0.6460  0.5135 -1.7496
 6066SOL    HW229832   1.647   1.186  11.939 -0.2608  0.4428 -0.0991
 6067SOL     OW29833   3.941   1.258  12.339  0.3277 -0.5776  0.1894
 6067SOL    HW129834   3.973   1.260  12.429 -0.1449 -0.7528  0.3579
 6067SOL    HW229835   4.019   1.224  12.294 -0.7973 -2.2151 -0.5611
 6068SOL     OW29836   0.755   3.682  14.014 -0.0224  0.4329  0.0797
 6068SOL    HW129837   0.758   3.717  14.103 -0.5246  0.4209  0.0994
 6068SOL    HW229838   0.670   3.640  14.008  0.4226 -0.3444 -0.8846
 6069SOL     OW29839   0.068   1.192   4.798 -0.0567 -0.4127 -0.8870
 6069SOL    HW129840   0.110   1.124   4.746 -0.8773 -1.5412 -0.0678
 6069SOL    HW229841   0.109   1.268   4.756  1.3655 -1.0477 -0.6762
 6070SOL     OW29842   1.232   1.149   0.752  0.2445 -0.0284  0.1755
 6070SOL    HW129843   1.270   1.067   0.783  1.4506  0.5263  0.1631
 6070SOL    HW229844   1.230   1.130   0.658 -0.1276  0.6153  0.0502
 6071SOL     OW29845   2.861   3.948  12.876 -0.3187 -0.2159  0.2984
 6071SOL    HW129846   2.885   4.024  12.823 -0.8861  0.1212  0.5301
 6071SOL    HW229847   2.847   3.888  12.803  1.2547  0.0504 -0.2145
 6072SOL     OW29848   0.299   1.702   0.634  0.4890 -0.6003  0.1418
 6072SOL    HW129849   0.313   1.724   0.542  1.4925 -2.2061 -0.1004
 6072SOL    HW229850   0.225   1.643   0.620 -0.4966  0.2393  1.8388
 6073SOL     OW29851   3.514   3.737   9.995 -0.3934 -0.1557 -0.1976
 6073SOL    HW129852   3.600   3.753  10.032 -0.1308 -1.1920 -0.3744
 6073SOL    HW229853   3.479   3.677  10.061  1.6638  0.1588  1.1749
 6074SOL     OW29854   3.178   4.145  12.087 -0.2326 -0.9108 -0.1532
 6074SOL    HW129855   3.148   4.204  12.017  2.5383  1.5291  0.7294
 6074SOL    HW229856   3.202   4.069  12.035  1.5942 -0.5676  0.1977
 6075SOL     OW29857   3.058   1.053   4.644  0.5408 -0.2587 -0.4379
 6075SOL    HW129858   3.127   1.105   4.685  1.7201 -1.0356 -1.4245
 6075SOL    HW229859   3.093   0.964   4.644 -2.8189 -1.5505  0.2811
 6076SOL     OW29860   3.980   4.001  14.505  0.6571 -0.4932  0.2835
 6076SOL    HW129861   3.979   3.959  14.419  3.6911  0.9264 -0.4288
 6076SOL    HW229862   4.071   3.979  14.526  0.2497 -1.7383  0.7692
 6077SOL     OW29863   0.433   0.179   0.353 -0.0387  0.1808  0.1191
 6077SOL    HW129864   0.472   0.214   0.434  1.1442 -1.0746  0.1030
 6077SOL    HW229865   0.505   0.197   0.292  1.5412 -1.7334  1.3880
 6078SOL     OW29866   1.714   1.043  10.835 -0.0131  0.0668 -0.3782
 6078SOL    HW129867   1.627   1.007  10.816  0.4199 -1.3639  0.3909
 6078SOL    HW229868   1.714   1.030  10.929  0.9264  0.1608 -0.3656
 6079SOL     OW29869   1.312   0.512   3.952  0.0262 -0.2348 -0.3829
 6079SOL    HW129870   1.389   0.546   3.906  0.5922  0.8931  1.3779
 6079SOL    HW229871   1.247   0.499   3.884 -1.3333 -1.2889  1.1197
 6080SOL     OW29872   3.353   3.378   4.116 -0.2848 -0.1202 -0.9717
 6080SOL    HW129873   3.317   3.316   4.180  0.2814  0.2619 -0.2708
 6080SOL    HW229874   3.390   3.316   4.054  1.6838  2.5213 -2.4618
 6081SOL     OW29875   0.637   3.036   3.930 -0.3224 -0.2314  0.2936
 6081SOL    HW129876   0.553   3.070   3.901 -1.7748 -1.3015  3.1943
 6081SOL    HW229877   0.658   2.973   3.861  0.7771  0.3964  0.0543
 6082SOL     OW29878   2.934   1.067   7.857  0.4720 -0.4624  0.4177
 6082SOL    HW129879   2.930   0.982   7.812 -0.8527 -0.2573  0.1560
 6082SOL    HW229880   2.843   1.079   7.884  0.4208 -0.6747  0.3393
 6083SOL     OW29881   3.171   4.531  11.922  0.6196  0.0663  0.4340
 6083SOL    HW129882   3.159   4.577  12.005  2.6570  0.2300  0.6358
 6083SOL    HW229883   3.135   4.448  11.953  1.5930 -0.8717 -0.9896
 6084SOL     OW29884   0.894   1.717   0.870  0.4290  0.0651  0.0554
 6084SOL    HW129885   0.881   1.795   0.925  0.7472 -1.4362  2.2809
 6084SOL    HW229886   0.877   1.645   0.931 -0.2324  0.0341 -0.1608
 6085SOL     OW29887   4.542   4.407  11.880 -0.1790  0.2098 -0.1382
 6085SOL    HW129888   4.490   4.326  11.884  0.5583 -0.2546  0.2071
 6085SOL    HW229889   4.578   4.418  11.969  2.2873 -0.5018 -1.0419
 6086SOL     OW29890   0.422   4.468  11.026 -0.2813 -0.5722  0.6719
 6086SOL    HW129891   0.326   4.464  11.023 -0.2085 -1.0410 -0.9868
 6086SOL    HW229892   0.422   4.386  11.075  0.8360  0.2298  2.0334
 6087SOL     OW29893   3.128   4.056   7.835  0.1847 -0.1275 -0.1189
 6087SOL    HW129894   3.183   3.989   7.874 -3.1678 -3.6111 -1.4354
 6087SOL    HW229895   3.062   4.053   7.903 -1.6247  1.3552 -1.8066
 6088SOL     OW29896   3.442   1.040  16.072 -0.4770 -0.2420 -0.1422
 6088SOL    HW129897   3.377   0.997  16.016 -0.0162  1.6403 -2.1370
 6088SOL    HW229898   3.529   1.007  16.048  0.2228 -0.2271  2.3433
 6089SOL     OW29899   0.487   2.526   7.546  0.4901 -0.1142 -0.0333
 6089SOL    HW129900   0.393   2.522   7.563  0.4496  1.1307  0.0558
 6089SOL    HW229901   0.504   2.432   7.554 -1.8542 -0.4492  0.9826
 6090SOL     OW29902   3.881   1.155   0.571 -0.0992 -0.2155 -0.0139
 6090SOL    HW129903   3.940   1.225   0.546  1.5612 -1.8670 -0.7459
 6090SOL    HW229904   3.826   1.206   0.630 -0.0406 -0.2401  0.0626
 6091SOL     OW29905   4.683   1.938   1.424  0.7201 -0.3102  0.0595
 6091SOL    HW129906   4.644   1.853   1.404  0.3505  0.2169 -1.4331
 6091SOL    HW229907   4.600   1.983   1.442  1.5252  0.5168  1.7020
 6092SOL     OW29908   3.551   1.414  15.388 -0.2095  0.4419  0.0992
 6092SOL    HW129909   3.567   1.321  15.374  1.0007  0.9447 -1.8048
 6092SOL    HW229910   3.634   1.459  15.373  0.4354 -0.2091  1.6861
 6093SOL     OW29911   2.110   2.079   8.616  0.0091  0.7558  0.0994
 6093SOL    HW129912   2.115   2.089   8.521 -1.9667  4.0633  0.3439
 6093SOL    HW229913   2.018   2.057   8.633  0.3270 -0.4317  0.3257
 6094SOL     OW29914   1.900   2.513  13.395  0.2666 -0.0115 -0.2975
 6094SOL    HW129915   1.861   2.594  13.428 -0.5666  0.5485 -2.5864
 6094SOL    HW229916   1.929   2.465  13.471  0.1060  0.6684  0.1961
 6095SOL     OW29917   3.929   4.572   8.787  0.1545 -0.4741  0.6217
 6095SOL    HW129918   3.976   4.648   8.754  0.6944 -1.3772 -0.6755
 6095SOL    HW229919   3.951   4.493   8.738  1.9380  1.1886 -1.2251
 6096SOL     OW29920   3.017   2.897   1.013 -0.6354  0.2366 -0.1760
 6096SOL    HW129921   3.031   2.833   0.944  0.3626  1.3321 -0.9970
 6096SOL    HW229922   2.939   2.947   0.990  0.2817  1.0642 -1.5422
 6097SOL     OW29923   1.130   4.602   6.573  0.7620 -0.2676 -0.0094
 6097SOL    HW129924   1.156   4.510   6.562 -1.6068 -1.0468  0.8649
 6097SOL    HW229925   1.036   4.605   6.591  0.9500  1.2805  0.6538
 6098SOL     OW29926   0.743   3.569   9.116  0.5699 -0.5204  0.0484
 6098SOL    HW129927   0.831   3.556   9.151  0.9316  1.4150 -0.1063
 6098SOL    HW229928   0.711   3.650   9.157 -1.2152 -1.7750  1.1368
 6099SOL     OW29929   0.716   1.579   7.243  0.5998 -1.0385 -0.0807
 6099SOL    HW129930   0.719   1.604   7.151  1.6353 -0.1831  0.1946
 6099SOL    HW229931   0.656   1.505   7.235  0.4467 -1.1430  1.9816
 6100SOL     OW29932   4.655   4.213   8.332  0.2910 -0.2875 -0.6116
 6100SOL    HW129933   4.683   4.144   8.392  1.6507 -0.9848 -2.0555
 6100SOL    HW229934   4.719   4.204   8.261  2.8780  2.0698  1.4145
 6101SOL     OW29935   4.597   0.592   4.349  0.0470  0.2000 -0.4088
 6101SOL    HW129936   4.654   0.536   4.402  0.1386  1.7733  1.1587
 6101SOL    HW229937   4.554   0.635   4.423  3.9535 -1.6606  2.9476
 6102SOL     OW29938   0.267   1.428   6.716 -0.4237 -0.0216 -0.3793
 6102SOL    HW129939   0.205   1.499   6.697 -2.1435 -1.5313 -0.3232
 6102SOL    HW229940   0.251   1.382   6.634 -0.1800  1.3908 -1.2322
 6103SOL     OW29941   2.358   2.557   8.606 -0.3160 -0.4342 -0.0638
 6103SOL    HW129942   2.301   2.626   8.574  0.2422  1.2943  2.6390
 6103SOL    HW229943   2.368   2.592   8.695  1.7086 -1.5158  0.1431
 6104SOL     OW29944   2.546   3.787   9.985 -0.0405  0.1279  0.4924
 6104SOL    HW129945   2.633   3.764   9.953 -0.5718 -0.6963 -0.3322
 6104SOL    HW229946   2.559   3.771  10.079  1.0688  1.6218  0.6009
 6105SOL     OW29947   0.537   4.676   5.443 -0.1172  0.2710  0.0636
 6105SOL    HW129948   0.459   4.729   5.425 -0.1880  0.5380  1.1899
 6105SOL    HW229949   0.539   4.616   5.368  2.3041  0.9455 -0.4176
 6106SOL     OW29950   1.311   4.155   0.654 -0.1739 -0.1646 -0.4157
 6106SOL    HW129951   1.289   4.136   0.745  1.6995 -2.4013 -0.4215
 6106SOL    HW229952   1.238   4.116   0.607  0.1900 -0.1440 -1.0022
 6107SOL     OW29953   2.655   1.012  16.207 -1.0895 -0.2565 -0.3019
 6107SOL    HW129954   2.642   0.964  16.125 -0.5106  0.0846 -0.6023
 6107SOL    HW229955   2.748   0.987  16.213 -1.0181 -0.0385 -0.4673
 6108SOL     OW29956   3.490   3.915   5.769 -0.1148 -0.5270 -0.2242
 6108SOL    HW129957   3.520   3.848   5.829 -1.4817 -0.6334  0.3329
 6108SOL    HW229958   3.522   3.997   5.807 -2.5253  0.8769 -1.2505
 6109SOL     OW29959   4.731   2.110   5.440  0.3166 -0.8033  0.0887
 6109SOL    HW129960   0.041   2.030   5.411  1.9189 -0.3042  1.0683
 6109SOL    HW229961   4.693   2.135   5.356 -1.4966  0.5312  1.3003
 6110SOL     OW29962   2.433   0.803   1.088  0.1775 -0.0023  0.2404
 6110SOL    HW129963   2.364   0.757   1.136 -1.1631 -0.6987 -2.3341
 6110SOL    HW229964   2.433   0.758   1.003 -0.3561 -0.6779  0.5919
 6111SOL     OW29965   3.155   3.605   6.827  0.0408 -0.3015  0.1084
 6111SOL    HW129966   3.105   3.525   6.837 -2.4580  1.2972  0.3167
 6111SOL    HW229967   3.160   3.635   6.918 -0.3269 -0.6937  0.2536
 6112SOL     OW29968   3.162   2.896   8.783 -0.7732  0.0880  0.0965
 6112SOL    HW129969   3.176   2.824   8.844 -1.9093  1.1350  1.5988
 6112SOL    HW229970   3.124   2.852   8.707 -1.0779  0.1070  0.2360
 6113SOL     OW29971   3.664   0.384  17.403  0.0419 -0.2278 -0.2620
 6113SOL    HW129972   3.590   0.379  17.464 -0.5834  0.1252 -0.9933
 6113SOL    HW229973   3.676   0.479  17.410 -1.4714 -0.0241 -0.3065
 6114SOL     OW29974   2.155   1.655   3.530 -0.6629  0.3667  0.2546
 6114SOL    HW129975   2.092   1.613   3.471  1.5703  0.4606 -2.1936
 6114SOL    HW229976   2.106   1.660   3.612  0.5700  1.0427  0.9596
 6115SOL     OW29977   0.153   0.088   5.656  0.1285  0.1246 -0.7662
 6115SOL    HW129978   0.101   0.009   5.637  0.6246 -0.4973  0.4378
 6115SOL    HW229979   0.087   0.140   5.701  0.8703 -0.4843  1.0602
 6116SOL     OW29980   1.186   3.632   4.677 -0.1722  0.0694  0.0651
 6116SOL    HW129981   1.196   3.709   4.622  1.7374  1.3863  2.2433
 6116SOL    HW229982   1.123   3.588   4.621  1.2286 -0.7193 -0.8832
 6117SOL     OW29983   2.517   3.099  13.506  0.2900  0.4568 -0.5607
 6117SOL    HW129984   2.549   3.034  13.568 -3.1173 -2.2062 -1.5442
 6117SOL    HW229985   2.590   3.160  13.498  0.0130  0.8668  0.1044
 6118SOL     OW29986   4.635   4.722  14.904 -0.2523  0.0732 -0.7569
 6118SOL    HW129987   4.564   4.686  14.957  0.9164  1.0518  1.4509
 6118SOL    HW229988   4.700   4.653  14.896 -1.0232 -0.5883 -1.3413
 6119SOL     OW29989   4.523   1.175   4.612  0.5809 -0.4160  0.8050
 6119SOL    HW129990   4.462   1.248   4.613 -2.3529 -2.8790  0.5687
 6119SOL    HW229991   4.570   1.196   4.693 -0.8466  0.3983  1.4198
 6120SOL     OW29992   1.718   3.390   5.665  0.0090 -0.2013  0.3194
 6120SOL    HW129993   1.777   3.464   5.679  1.4537 -1.2249 -0.3468
 6120SOL    HW229994   1.635   3.437   5.659  0.7374  1.0933  0.6382
 6121SOL     OW29995   1.633   2.005   0.186 -0.0864 -0.0030 -0.3679
 6121SOL    HW129996   1.609   2.098   0.184  2.7655  0.7502  1.7037
 6121SOL    HW229997   1.595   1.975   0.269 -0.2363  0.0588 -0.4133
 6122SOL     OW29998   3.862   2.675  10.139  0.3212 -0.1348  0.0132
 6122SOL    HW129999   3.784   2.619  10.142 -1.7089  2.7184  0.9292
 6122SOL    HW230000   3.822   2.761  10.149 -0.9187 -0.9842  2.2222
 6123SOL     OW30001   0.514   1.315   3.347 -0.0833  0.3266 -0.4108
 6123SOL    HW130002   0.584   1.292   3.286  0.7982 -0.1409  0.7663
 6123SOL    HW230003   0.526   1.237   3.402 -1.5044  0.0864 -0.4556
 6124SOL     OW30004   2.749   2.524   8.774 -0.2119  0.7984  0.2435
 6124SOL    HW130005   2.758   2.594   8.838 -1.0175  0.6034  0.5688
 6124SOL    HW230006   2.675   2.476   8.811  1.0599 -0.1275  1.5644
 6125SOL     OW30007   1.077   4.114   6.743  0.0914  0.3762  0.4666
 6125SOL    HW130008   1.002   4.072   6.783  0.1542 -0.0580  0.1209
 6125SOL    HW230009   1.129   4.120   6.823  0.7756 -0.7541  0.1032
 6126SOL     OW30010   1.586   2.230   5.312  0.5935 -0.0552  0.3595
 6126SOL    HW130011   1.498   2.215   5.345 -0.1620 -1.0660 -2.1430
 6126SOL    HW230012   1.581   2.324   5.295 -3.0056 -0.0562  1.4996
 6127SOL     OW30013   0.666   3.666  16.637  0.2481 -0.1413 -0.5531
 6127SOL    HW130014   0.615   3.743  16.660  2.0270  0.2964  1.9056
 6127SOL    HW230015   0.661   3.621  16.722  0.5187  1.7252  0.4389
 6128SOL     OW30016   4.726   2.964  12.611  0.3397 -0.1900  0.3435
 6128SOL    HW130017   4.682   2.949  12.527 -0.4739  0.0176  0.7308
 6128SOL    HW230018   4.667   2.917  12.670 -1.1226  1.5049  0.2102
 6129SOL     OW30019   0.445   0.388   6.084  0.0739  0.1849  0.3980
 6129SOL    HW130020   0.533   0.362   6.059  0.4632  0.6629  1.2717
 6129SOL    HW230021   0.400   0.303   6.083 -2.2450  1.4456 -1.4498
 6130SOL     OW30022   3.125   3.680   8.201 -0.3807 -0.1246 -0.1290
 6130SOL    HW130023   3.160   3.768   8.189 -1.3350  0.2274 -0.3661
 6130SOL    HW230024   3.033   3.706   8.192  0.3814  1.6967 -2.6054
 6131SOL     OW30025   4.454   0.709   4.885  0.2830 -0.3215  0.2717
 6131SOL    HW130026   4.393   0.683   4.954  0.7133  0.5902  1.0019
 6131SOL    HW230027   4.398   0.737   4.812  0.7169  0.9876  0.4377
 6132SOL     OW30028   4.252   2.590  11.209 -0.4199  0.3143 -0.3238
 6132SOL    HW130029   4.223   2.499  11.209 -1.2624  0.5834 -2.5683
 6132SOL    HW230030   4.168   2.632  11.190 -1.1809 -0.8894  0.3339
 6133SOL     OW30031   1.368   3.935   1.609 -0.3080  0.0316 -0.1784
 6133SOL    HW130032   1.453   3.890   1.603  0.7342  2.1017 -0.9071
 6133SOL    HW230033   1.299   3.875   1.638 -1.8012  0.8449 -2.1161
 6134SOL     OW30034   4.644   1.698   4.490  0.1816  0.3010 -0.1799
 6134SOL    HW130035   4.656   1.662   4.578  2.3992  4.3344  1.1876
 6134SOL    HW230036   4.685   1.785   4.497 -1.7168  1.1925 -0.2211
 6135SOL     OW30037   2.726   1.166   6.804 -0.3334 -0.1062  0.3079
 6135SOL    HW130038   2.675   1.170   6.724 -0.7335  1.1609  0.6190
 6135SOL    HW230039   2.800   1.119   6.768 -0.5490  1.0500 -1.6641
 6136SOL     OW30040   1.491   1.869   2.460  0.1160  0.2964 -0.3601
 6136SOL    HW130041   1.395   1.860   2.466  0.4376 -3.3367 -0.5937
 6136SOL    HW230042   1.519   1.827   2.542  1.9868 -0.2564 -1.2843
 6137SOL     OW30043   4.488   0.400   6.420  0.1450  0.2820  0.0648
 6137SOL    HW130044   4.518   0.379   6.509  2.0363  1.0726 -0.4025
 6137SOL    HW230045   4.518   0.489   6.407 -0.4919  0.6430  1.0328
 6138SOL     OW30046   3.925   1.841   4.200  0.2957  0.2525  0.1079
 6138SOL    HW130047   4.017   1.815   4.207  0.5051  0.5981 -1.2233
 6138SOL    HW230048   3.920   1.878   4.111 -0.9478  0.5236  0.3003
 6139SOL     OW30049   0.437   1.166  14.954  0.5787 -0.5293 -0.3560
 6139SOL    HW130050   0.440   1.126  15.041 -2.4385  0.9889  0.4603
 6139SOL    HW230051   0.415   1.256  14.978  0.9105 -0.5905  0.1841
 6140SOL     OW30052   0.545   3.448  11.825 -0.1215  0.0756 -0.2261
 6140SOL    HW130053   0.634   3.479  11.808 -0.7193  3.5653  2.6782
 6140SOL    HW230054   0.565   3.367  11.871 -0.0975 -0.0172 -0.4040
 6141SOL     OW30055   1.646   4.531   6.972 -0.0469 -0.6437 -0.6681
 6141SOL    HW130056   1.668   4.447   6.933  0.0586  0.3173 -2.6903
 6141SOL    HW230057   1.626   4.591   6.900 -3.7581  0.4777  1.2994
 6142SOL     OW30058   0.714   0.396  16.901  0.1054  0.2778 -0.1560
 6142SOL    HW130059   0.702   0.487  16.927  0.1740  0.1722  0.2401
 6142SOL    HW230060   0.665   0.399  16.819  2.2327 -0.4324 -1.4516
 6143SOL     OW30061   3.028   1.397   7.710  0.5982 -0.1554 -0.9319
 6143SOL    HW130062   2.999   1.456   7.640  0.9236 -0.2173 -1.1172
 6143SOL    HW230063   3.049   1.324   7.651  0.0128 -1.7844  0.8887
 6144SOL     OW30064   0.942   4.675   8.442  0.1200  0.0751 -0.0914
 6144SOL    HW130065   0.925   4.669   8.536  0.2590  2.8445  0.1103
 6144SOL    HW230066   0.908   4.589   8.420 -0.7482 -0.0799  1.8115
 6145SOL     OW30067   2.328   1.333   2.900 -0.3342 -0.0767 -0.1874
 6145SOL    HW130068   2.420   1.338   2.924  0.2522 -0.8848 -2.2367
 6145SOL    HW230069   2.323   1.361   2.809  0.3194 -0.9593 -0.4997
 6146SOL     OW30070   0.971   1.277   3.705 -0.3157  0.0432 -0.2198
 6146SOL    HW130071   0.905   1.208   3.700 -1.1899  0.6705  2.9357
 6146SOL    HW230072   0.918   1.337   3.756  0.4095 -0.5516  1.2361
 6147SOL     OW30073   1.190   0.839   9.241 -0.3410  0.1808 -0.1640
 6147SOL    HW130074   1.126   0.816   9.173  0.2910 -0.2275 -0.6243
 6147SOL    HW230075   1.157   0.926   9.265  1.8731  0.4515  1.8166
 6148SOL     OW30076   0.482   0.487   1.505 -0.0149 -0.0374  0.0946
 6148SOL    HW130077   0.496   0.560   1.565  1.7746  0.8801 -1.4521
 6148SOL    HW230078   0.526   0.417   1.552 -0.4053  2.1679  3.7544
 6149SOL     OW30079   4.700   2.666   8.092  0.0545 -0.1590  0.0266
 6149SOL    HW130080   4.659   2.583   8.117 -1.4107  0.7836  0.7613
 6149SOL    HW230081   4.661   2.681   8.006 -1.3487 -0.2502  0.6486
 6150SOL     OW30082   1.143   0.996   8.110 -0.1949 -0.6832  0.1496
 6150SOL    HW130083   1.153   0.916   8.058  3.0593  1.8311 -3.1143
 6150SOL    HW230084   1.049   1.010   8.120  0.2708  1.7233  1.0394
 6151SOL     OW30085   0.744   2.646   8.594 -0.0433  0.0668 -0.1106
 6151SOL    HW130086   0.652   2.623   8.604 -0.2084  0.4296 -0.7438
 6151SOL    HW230087   0.761   2.687   8.679 -0.7214  0.7909 -0.3223
 6152SOL     OW30088   2.756   2.249   1.663 -0.5712  0.2391  0.3622
 6152SOL    HW130089   2.849   2.264   1.683 -0.2001  0.6012 -1.6116
 6152SOL    HW230090   2.705   2.290   1.733 -1.4773 -0.3705  0.0572
 6153SOL     OW30091   3.478   1.227   3.669 -0.8467 -0.1156 -0.4726
 6153SOL    HW130092   3.512   1.140   3.690 -1.2276  0.1046  1.1145
 6153SOL    HW230093   3.455   1.212   3.577  0.3355  0.7693 -0.9055
 6154SOL     OW30094   2.213   2.592   9.061  0.1462  0.1224 -0.0082
 6154SOL    HW130095   2.126   2.557   9.083  0.3808  0.6901  1.8798
 6154SOL    HW230096   2.188   2.684   9.051 -1.0586 -0.1295  0.6726
 6155SOL     OW30097   4.697   0.637  13.560  0.2894  0.3497 -0.3918
 6155SOL    HW130098   4.730   0.550  13.539 -0.7236  0.0009 -0.5482
 6155SOL    HW230099   0.013   0.694  13.499  1.2129 -0.5507 -0.4994
 6156SOL     OW30100   4.008   3.150   8.374 -0.0169 -0.5403  0.2729
 6156SOL    HW130101   3.999   3.098   8.455  0.7987  1.3546  1.5803
 6156SOL    HW230102   4.103   3.162   8.381 -0.1904 -0.1435  1.9245
 6157SOL     OW30103   1.531   2.856  11.107 -0.0393  0.3484  0.3428
 6157SOL    HW130104   1.484   2.775  11.090  0.4555 -0.1957  1.5622
 6157SOL    HW230105   1.564   2.832  11.194  0.9917  0.8314  0.0840
 6158SOL     OW30106   0.074   1.043   8.076 -0.2125  0.3663  0.1132
 6158SOL    HW130107   0.030   1.079   8.000 -0.5755 -2.5085 -1.0302
 6158SOL    HW230108   0.150   1.000   8.037  0.1915 -1.5059  2.9145
 6159SOL     OW30109   1.998   1.944   7.115  0.3208 -0.0686 -0.3952
 6159SOL    HW130110   1.949   1.975   7.192 -1.5867 -0.4702 -1.4624
 6159SOL    HW230111   1.980   2.020   7.060  3.0283  0.8208 -0.0493
 6160SOL     OW30112   2.295   4.039   4.717  0.4496  0.1202  0.5271
 6160SOL    HW130113   2.251   3.967   4.671  0.0856  0.9565 -0.4366
 6160SOL    HW230114   2.228   4.082   4.770  1.1585 -0.2031  1.6745
 6161SOL     OW30115   1.541   3.045   5.330  0.0684  0.2651 -0.1984
 6161SOL    HW130116   1.575   3.109   5.393 -1.0658  1.6073 -0.9546
 6161SOL    HW230117   1.617   3.040   5.273  0.0790 -0.1477 -0.1476
 6162SOL     OW30118   3.868   0.021   9.510 -0.0744  0.1374 -0.2820
 6162SOL    HW130119   3.806   4.726   9.578 -0.1610  0.7291 -0.1233
 6162SOL    HW230120   3.947   4.717   9.550  0.6281  2.6318  0.5856
 6163SOL     OW30121   1.611   3.032   2.513 -0.1104 -0.6938  1.1427
 6163SOL    HW130122   1.521   3.002   2.498 -0.1157 -0.2359  0.2295
 6163SOL    HW230123   1.628   2.970   2.585  0.1267 -2.4248 -0.3923
 6164SOL     OW30124   4.020   0.940   4.122 -0.6235  0.0016  0.3334
 6164SOL    HW130125   3.942   0.901   4.161 -0.2334  0.0052  1.1115
 6164SOL    HW230126   4.022   0.885   4.043  1.9321 -0.2751  0.5935
 6165SOL     OW30127   1.857   2.176  12.139  0.5415 -0.0540 -0.1089
 6165SOL    HW130128   1.832   2.092  12.177  1.2689  0.0270  0.5509
 6165SOL    HW230129   1.778   2.204  12.092 -0.9159 -2.2142  1.0126
 6166SOL     OW30130   2.320   1.760   7.567  0.0545  0.1661 -0.3290
 6166SOL    HW130131   2.335   1.721   7.481  0.2633  0.3289 -0.3670
 6166SOL    HW230132   2.227   1.781   7.568  0.2616  1.0948 -0.0146
 6167SOL     OW30133   4.113   0.764  10.881  0.2068  0.2041  0.5965
 6167SOL    HW130134   4.044   0.792  10.941  0.3925  1.4001  0.2561
 6167SOL    HW230135   4.172   0.718  10.942  2.6866  0.1707 -1.8280
 6168SOL     OW30136   4.157   3.106  15.338 -0.3884  0.1231  0.3289
 6168SOL    HW130137   4.085   3.071  15.390 -0.0935  0.2959  0.8580
 6168SOL    HW230138   4.133   3.083  15.248  0.2253 -0.3093  0.2822
 6169SOL     OW30139   0.592   3.537  13.623  0.1179  0.4226 -0.2562
 6169SOL    HW130140   0.633   3.560  13.540 -0.0594 -2.7963 -1.2429
 6169SOL    HW230141   0.500   3.552  13.604  0.0806  1.2524  0.5820
 6170SOL     OW30142   3.241   0.241   6.012 -0.1847 -0.4733 -0.2413
 6170SOL    HW130143   3.146   0.237   6.001 -0.2161 -2.2028  0.6459
 6170SOL    HW230144   3.246   0.336   6.000 -0.9829 -0.6357 -1.8753
 6171SOL     OW30145   1.507   1.557   0.350  0.4783  0.3697 -0.1663
 6171SOL    HW130146   1.490   1.518   0.264 -1.2554 -1.8386  1.1815
 6171SOL    HW230147   1.591   1.596   0.325  1.4611  0.4960  3.4366
 6172SOL     OW30148   0.642   2.111   3.249 -0.5020  0.3552 -0.4210
 6172SOL    HW130149   0.674   2.186   3.198  1.6859  0.0704  0.5604
 6172SOL    HW230150   0.708   2.045   3.229  0.4589  0.6591  1.7935
 6173SOL     OW30151   1.493   0.829   5.048  0.1985 -0.3307  0.2772
 6173SOL    HW130152   1.459   0.890   5.113  0.8996  0.6186 -0.2372
 6173SOL    HW230153   1.452   0.753   5.089 -0.3431  1.3397  2.8265
 6174SOL     OW30154   2.746   0.053   5.922 -0.2463 -0.0762  0.1714
 6174SOL    HW130155   2.679   4.718   5.911  0.4783 -1.1935  2.5960
 6174SOL    HW230156   2.717   0.094   6.003 -1.5650 -0.4685 -0.0923
 6175SOL     OW30157   1.008   2.198  15.601 -0.2306  0.2586  0.1989
 6175SOL    HW130158   1.102   2.190  15.583 -0.9527 -0.3826 -3.2541
 6175SOL    HW230159   0.973   2.216  15.514  1.4246  0.4254 -0.4469
 6176SOL     OW30160   0.465   0.594  17.032 -0.0446 -0.0176  0.0428
 6176SOL    HW130161   0.374   0.622  17.027  0.7092  2.2749 -0.5315
 6176SOL    HW230162   0.479   0.597  17.127 -0.8865 -0.7012  0.1900
 6177SOL     OW30163   2.404   3.214   4.425 -0.2064 -0.0048  0.1431
 6177SOL    HW130164   2.473   3.148   4.432 -0.6294 -0.7166 -2.2786
 6177SOL    HW230165   2.336   3.155   4.392 -2.0781  2.2735 -0.0033
 6178SOL     OW30166   3.348   4.409  12.503  0.1143  0.1172  0.4959
 6178SOL    HW130167   3.395   4.363  12.433 -0.9412  1.7690 -1.3057
 6178SOL    HW230168   3.301   4.334  12.539 -0.1265  0.3369  0.6400
 6179SOL     OW30169   1.188   2.444   2.702  0.1644 -0.6288 -0.1009
 6179SOL    HW130170   1.152   2.355   2.698 -0.7316 -0.2911  0.5993
 6179SOL    HW230171   1.186   2.474   2.611  0.8665  0.4598  0.2506
 6180SOL     OW30172   3.359   2.437   3.875 -0.6070 -0.3783  0.3883
 6180SOL    HW130173   3.290   2.478   3.927 -1.9444 -0.6101 -1.1934
 6180SOL    HW230174   3.331   2.459   3.786  0.3880  1.0262  0.4117
 6181SOL     OW30175   0.988   4.183  13.837 -0.6727  0.0497  0.4768
 6181SOL    HW130176   0.929   4.240  13.786 -1.4541  0.7128  2.1294
 6181SOL    HW230177   0.945   4.098  13.832 -0.7205  0.2713 -2.9841
 6182SOL     OW30178   1.862   0.557   2.379 -0.6993 -0.3600 -0.1629
 6182SOL    HW130179   1.957   0.548   2.377 -0.8558 -2.2665  1.3354
 6182SOL    HW230180   1.847   0.598   2.294 -1.3645  0.8730  0.5531
 6183SOL     OW30181   0.952   1.412  11.038  0.1317 -0.2822  0.4950
 6183SOL    HW130182   0.971   1.426  10.945  0.8714  0.1112  0.7100
 6183SOL    HW230183   0.856   1.420  11.040  0.2127  0.9293 -0.1971
 6184SOL     OW30184   4.440   4.166   5.812 -0.2819  0.3011 -0.2620
 6184SOL    HW130185   4.446   4.130   5.724 -1.2410  0.3282 -0.3387
 6184SOL    HW230186   4.367   4.117   5.850 -1.1647  1.5983 -0.2739
 6185SOL     OW30187   2.954   0.871   2.703  0.0671  0.1326 -0.2647
 6185SOL    HW130188   2.950   0.858   2.608 -0.3649  2.4684 -0.5654
 6185SOL    HW230189   2.877   0.825   2.735 -1.3464  1.5040 -1.7106
 6186SOL     OW30190   1.674   0.631  16.814 -0.3333  0.7519  0.3635
 6186SOL    HW130191   1.612   0.576  16.765 -0.2294  2.0737 -1.2386
 6186SOL    HW230192   1.690   0.698  16.748  4.3338 -0.9895 -0.2714
 6187SOL     OW30193   0.824   3.395   2.722 -0.7574  0.0608 -0.2537
 6187SOL    HW130194   0.813   3.435   2.809 -2.1507 -0.9347  0.0303
 6187SOL    HW230195   0.746   3.436   2.683  0.0459  0.5723 -1.3266
 6188SOL     OW30196   1.527   2.778   5.443  0.1226 -0.1295  0.2157
 6188SOL    HW130197   1.481   2.809   5.521  1.9152 -0.1286  1.2696
 6188SOL    HW230198   1.518   2.857   5.389  1.0893 -0.2683 -0.1353
 6189SOL     OW30199   3.196   4.542   1.184 -0.1624 -0.0956 -0.4324
 6189SOL    HW130200   3.103   4.526   1.167 -0.5405  0.5170  1.1026
 6189SOL    HW230201   3.193   4.633   1.213 -0.0675 -0.5400  0.9555
 6190SOL     OW30202   1.845   0.783   5.785  0.0416  0.4761 -0.4030
 6190SOL    HW130203   1.843   0.688   5.796  0.0315  0.7258  1.6848
 6190SOL    HW230204   1.753   0.797   5.764  0.0332 -1.0167 -1.3788
 6191SOL     OW30205   0.260   1.759   2.158  0.1200 -0.0557 -0.1849
 6191SOL    HW130206   0.297   1.804   2.233  0.7744 -1.5882  0.4182
 6191SOL    HW230207   0.203   1.826   2.121 -0.7384  0.4494  2.0696
 6192SOL     OW30208   0.723   1.612  11.326 -0.2419  0.1863  0.2760
 6192SOL    HW130209   0.738   1.538  11.385 -1.3600 -0.3055 -0.0447
 6192SOL    HW230210   0.640   1.589  11.283 -0.3154 -0.8084  0.9519
 6193SOL     OW30211   3.632   4.628  17.321 -0.5027 -0.2367  0.3725
 6193SOL    HW130212   3.621   4.578  17.240 -0.4408 -1.1475  0.9157
 6193SOL    HW230213   3.669   4.713  17.299  0.3466 -0.5623  0.5478
 6194SOL     OW30214   4.293   1.447   5.733  0.2955 -0.1153 -0.2179
 6194SOL    HW130215   4.343   1.405   5.662 -1.1666 -0.2426 -1.1662
 6194SOL    HW230216   4.243   1.376   5.774  0.9316 -0.0774  0.6190
 6195SOL     OW30217   3.848   3.775  10.024  0.0008 -0.1439  0.4538
 6195SOL    HW130218   3.837   3.680  10.018 -0.6421  0.0067 -0.7447
 6195SOL    HW230219   3.943   3.785  10.027 -0.1553  1.6213 -0.3629
 6196SOL     OW30220   3.803   3.661   1.405  0.2958 -0.2614 -0.0637
 6196SOL    HW130221   3.810   3.658   1.309  2.0782  0.6574  0.0404
 6196SOL    HW230222   3.886   3.693   1.439  0.9369  0.7010 -2.5367
 6197SOL     OW30223   3.900   0.885   0.660  0.7442  0.2335  0.0430
 6197SOL    HW130224   3.916   0.970   0.618  0.4518  0.4760  0.4194
 6197SOL    HW230225   3.815   0.859   0.624  0.3334  1.1939  0.3241
 6198SOL     OW30226   0.253   0.986  17.226  0.0087  0.3416 -0.2702
 6198SOL    HW130227   0.224   0.980  17.135  0.6656 -1.8191 -0.3411
 6198SOL    HW230228   0.183   0.936  17.266  1.4210 -0.4473  1.2234
 6199SOL     OW30229   0.349   1.045   9.483  0.0119  0.2041  0.2281
 6199SOL    HW130230   0.256   1.063   9.496 -0.3440 -2.0572  0.7762
 6199SOL    HW230231   0.361   1.042   9.388  1.0024  1.5428  0.3069
 6200SOL     OW30232   3.309   1.497   9.170  0.1625 -0.4062  0.2124
 6200SOL    HW130233   3.382   1.521   9.227 -0.4938 -1.0744  1.3484
 6200SOL    HW230234   3.331   1.404   9.160 -1.2596 -0.7834  0.5534
 6201SOL     OW30235   1.898   4.721   6.771 -0.8278  0.1263  0.1712
 6201SOL    HW130236   1.949   0.058   6.814  2.8442 -1.7105 -1.1737
 6201SOL    HW230237   1.808   0.021   6.773 -0.9426 -0.1526 -0.6038
 6202SOL     OW30238   1.412   2.319  14.979  0.3385 -0.2376  0.1506
 6202SOL    HW130239   1.428   2.413  14.978  1.3437 -0.4102  2.1783
 6202SOL    HW230240   1.341   2.323  15.043  1.8970 -1.2948  1.9348
 6203SOL     OW30241   0.559   0.850  15.270  0.1156 -0.0294  0.3400
 6203SOL    HW130242   0.583   0.865  15.179  2.9060 -1.6162  0.8272
 6203SOL    HW230243   0.564   0.754  15.269 -1.9766 -0.1384 -0.4373
 6204SOL     OW30244   3.451   1.014   2.741  0.4994  0.2250 -0.5768
 6204SOL    HW130245   3.449   1.004   2.836  0.1475  0.1930 -0.5891
 6204SOL    HW230246   3.401   0.936   2.717  1.7095 -0.1339 -1.9476
 6205SOL     OW30247   4.188   0.451   2.966  0.2411  0.3139  0.0228
 6205SOL    HW130248   4.124   0.382   2.983 -1.2484  1.4320 -0.9692
 6205SOL    HW230249   4.258   0.425   3.025  0.0290 -0.5495 -0.1169
 6206SOL     OW30250   3.166   4.638   3.145  0.2023  0.3234 -0.1260
 6206SOL    HW130251   3.072   4.647   3.127  0.1919  0.3536 -0.0576
 6206SOL    HW230252   3.165   4.652   3.240  3.8802 -1.4803  0.1493
 6207SOL     OW30253   3.043   2.214   1.766 -0.3867  0.4568 -0.4140
 6207SOL    HW130254   2.989   2.135   1.771  2.0613 -1.2214 -0.8975
 6207SOL    HW230255   3.033   2.244   1.856  1.4357  2.5083 -0.9067
 6208SOL     OW30256   0.569   0.664   1.684 -0.0154  0.0636 -0.2632
 6208SOL    HW130257   0.619   0.745   1.691 -1.7977  1.2070 -1.1093
 6208SOL    HW230258   0.560   0.644   1.778  1.4788  1.7366  0.2388
 6209SOL     OW30259   4.162   0.015   9.854  0.0990  0.3345  0.0352
 6209SOL    HW130260   4.255   0.002   9.873 -0.3823 -2.6718  0.3084
 6209SOL    HW230261   4.143   0.075   9.925  1.0035 -0.1699  0.7038
 6210SOL     OW30262   3.244   4.210   0.203  0.7410  0.9846 -0.5149
 6210SOL    HW130263   3.312   4.155   0.239  0.2937 -0.4347 -1.8479
 6210SOL    HW230264   3.290   4.263   0.138  1.2588  2.2650  0.8942
 6211SOL     OW30265   1.579   2.066   6.320  0.7944  0.1902  0.5182
 6211SOL    HW130266   1.662   2.028   6.290 -0.3153 -1.1800 -0.8397
 6211SOL    HW230267   1.524   1.988   6.313  0.0728  0.5531  2.0987
 6212SOL     OW30268   4.032   1.811   2.634  0.2728  0.3291 -0.7709
 6212SOL    HW130269   3.952   1.834   2.682  1.5037 -0.3665  1.6484
 6212SOL    HW230270   4.005   1.812   2.542  0.8804 -0.5860 -0.9611
 6213SOL     OW30271   2.584   1.400   3.084 -0.1645 -0.1305  0.1365
 6213SOL    HW130272   2.670   1.426   3.118  0.4031  0.3414 -1.6784
 6213SOL    HW230273   2.521   1.450   3.136  2.8201  1.0724  2.6215
 6214SOL     OW30274   3.574   3.384   6.307 -0.7968 -0.0425  0.3158
 6214SOL    HW130275   3.519   3.459   6.328 -0.3355  0.3302  0.1913
 6214SOL    HW230276   3.640   3.406   6.372 -0.0156 -0.3726 -0.3676
 6215SOL     OW30277   3.747   1.067   6.428 -0.3874  0.0000 -0.3404
 6215SOL    HW130278   3.773   1.157   6.406 -3.1531  0.5683 -1.2028
 6215SOL    HW230279   3.818   1.036   6.484 -1.9231  0.3046  1.8037
 6216SOL     OW30280   4.548   2.775   4.958 -0.8402  0.0166 -0.4220
 6216SOL    HW130281   4.542   2.742   4.868 -0.4024  0.0744 -0.4712
 6216SOL    HW230282   4.475   2.724   4.994 -0.2609 -0.1722  0.4597
 6217SOL     OW30283   4.195   4.351   1.700 -0.2147  0.4961  0.4331
 6217SOL    HW130284   4.125   4.330   1.761 -1.6113  2.7802 -0.3737
 6217SOL    HW230285   4.136   4.355   1.625  1.6785  1.3620 -1.0404
 6218SOL     OW30286   1.776   0.525   3.461 -0.1034  0.5262 -0.0486
 6218SOL    HW130287   1.860   0.553   3.498 -0.2558  1.9265 -0.7438
 6218SOL    HW230288   1.772   0.430   3.470  1.6474  0.4207 -0.4130
 6219SOL     OW30289   1.930   0.582  17.692  0.5912  0.1127 -0.3125
 6219SOL    HW130290   1.956   0.652   0.024  0.3985  0.7330 -0.9430
 6219SOL    HW230291   2.010   0.546  17.654  0.6191 -0.8139  0.6235
 6220SOL     OW30292   0.277   0.455  17.621 -0.5072  0.0770  0.2400
 6220SOL    HW130293   0.215   0.382  17.629  0.6374 -0.9837 -0.7902
 6220SOL    HW230294   0.360   0.414  17.600  0.2010  2.0172 -0.7341
 6221SOL     OW30295   0.122   3.431  15.444 -0.1514  0.0839 -0.2173
 6221SOL    HW130296   0.161   3.516  15.467  0.1092 -0.4559  1.3854
 6221SOL    HW230297   0.202   3.379  15.441 -1.0626 -1.4144  1.0663
 6222SOL     OW30298   2.256   1.060  12.292 -0.3680 -0.3100  0.1967
 6222SOL    HW130299   2.260   1.114  12.371 -0.0477 -0.5029  0.3100
 6222SOL    HW230300   2.204   1.113  12.231  1.7611 -1.9189 -3.0174
 6223SOL     OW30301   2.362   1.639   7.314 -0.2030  0.0914 -0.2492
 6223SOL    HW130302   2.312   1.715   7.284 -0.9746 -0.4011 -0.2058
 6223SOL    HW230303   2.303   1.568   7.291  0.3129 -0.9472  1.5474
 6224SOL     OW30304   3.066   2.047   6.033  0.0415 -0.4331 -0.7509
 6224SOL    HW130305   3.019   2.115   5.986  0.6899  0.3064 -0.3225
 6224SOL    HW230306   3.148   2.089   6.059 -0.8882 -1.5283  3.9169
 6225SOL     OW30307   4.418   1.931   3.582  0.6065  0.0741  0.0384
 6225SOL    HW130308   4.394   1.844   3.550  3.0475 -0.6718  0.2572
 6225SOL    HW230309   4.359   1.992   3.538 -1.2184 -0.0977  2.2732
 6226SOL     OW30310   2.207   4.027   0.493  0.1392 -0.1971  0.4053
 6226SOL    HW130311   2.230   3.937   0.516  0.8339 -0.4273 -1.1240
 6226SOL    HW230312   2.144   4.010   0.422 -0.8519  1.6509  0.8538
 6227SOL     OW30313   0.953   4.335   1.001  0.1780 -0.5391  0.1078
 6227SOL    HW130314   0.897   4.283   1.058  0.6933  1.2127  2.2241
 6227SOL    HW230315   1.021   4.366   1.060  2.3765  1.2571 -3.3649
 6228SOL     OW30316   1.175   2.249   8.481  0.3002  0.4485  0.2644
 6228SOL    HW130317   1.138   2.183   8.422 -0.4450  1.0791  0.0127
 6228SOL    HW230318   1.253   2.205   8.515  0.5782  1.1382  0.5210
 6229SOL     OW30319   4.427   0.345   3.440  0.4596 -0.0770 -0.2033
 6229SOL    HW130320   4.359   0.349   3.507  1.6080  0.3280  0.9440
 6229SOL    HW230321   4.439   0.252   3.456 -0.7935 -0.2015 -0.0180
 6230SOL     OW30322   3.815   1.991   6.269 -0.3657  0.5200 -0.1953
 6230SOL    HW130323   3.893   1.957   6.312 -0.5119  1.2778  0.6801
 6230SOL    HW230324   3.828   2.086   6.281 -0.6061  0.4595  0.5688
 6231SOL     OW30325   4.674   4.174  10.186  0.3016 -0.2765 -0.0798
 6231SOL    HW130326   0.013   4.198  10.245  0.3249  1.3080 -0.7750
 6231SOL    HW230327   4.636   4.260  10.169  2.2475  0.5871 -0.0389
 6232SOL     OW30328   2.285   1.663  11.190 -0.2677  0.4593  0.1106
 6232SOL    HW130329   2.362   1.719  11.179 -0.0363 -0.4893 -3.0943
 6232SOL    HW230330   2.230   1.685  11.114 -1.0089 -2.5422 -0.2114
 6233SOL     OW30331   2.017   1.414   7.659  0.1227  0.3926  0.1141
 6233SOL    HW130332   1.933   1.408   7.613 -0.1885  1.2430  0.5740
 6233SOL    HW230333   2.005   1.325   7.693 -1.4965  0.9527  0.9980
 6234SOL     OW30334   0.754   4.268   4.700 -0.3003 -0.3502  0.4175
 6234SOL    HW130335   0.830   4.212   4.718 -0.4121 -0.7646 -0.3916
 6234SOL    HW230336   0.683   4.203   4.699  1.4872 -2.3347  2.6142
 6235SOL     OW30337   1.459   4.542   6.222  0.3345 -0.0727  0.4328
 6235SOL    HW130338   1.409   4.588   6.290  1.4198  1.2611  0.3181
 6235SOL    HW230339   1.392   4.482   6.187  1.8699 -0.1887 -2.2547
 6236SOL     OW30340   1.735   1.879  12.735  0.3551 -0.0363  0.4606
 6236SOL    HW130341   1.796   1.806  12.734 -0.7544 -0.9566 -0.0498
 6236SOL    HW230342   1.676   1.856  12.663  1.7098 -2.2142  0.0701
 6237SOL     OW30343   0.664   0.963   1.653 -0.0898  0.1363  0.3995
 6237SOL    HW130344   0.583   0.986   1.608 -0.2280  0.7936  0.9821
 6237SOL    HW230345   0.728   1.011   1.600 -0.5084  0.9836  0.6658
 6238SOL     OW30346   3.650   4.544   6.407  0.7392  0.0307  0.0345
 6238SOL    HW130347   3.622   4.593   6.330 -1.8378 -0.1953  0.8335
 6238SOL    HW230348   3.657   4.621   6.463 -2.2647  0.0741  0.3281
 6239SOL     OW30349   0.523   2.663   0.126 -0.6062 -0.1467  0.2808
 6239SOL    HW130350   0.441   2.712   0.118 -1.0300 -0.8547  0.2987
 6239SOL    HW230351   0.581   2.720   0.076  0.4501 -3.1919 -1.9749
 6240SOL     OW30352   4.657   2.122   0.865 -0.2542  0.3132 -0.7120
 6240SOL    HW130353   0.017   2.098   0.857 -0.3788 -0.3009 -0.2918
 6240SOL    HW230354   4.623   2.054   0.806 -1.7141  1.5948 -1.3757
 6241SOL     OW30355   4.265   1.359   8.729 -0.7696 -0.1677  0.5367
 6241SOL    HW130356   4.266   1.338   8.822  0.4092 -1.7157  0.1829
 6241SOL    HW230357   4.180   1.401   8.718 -0.4957 -0.3665 -2.4856
 6242SOL     OW30358   1.373   0.858  11.251  0.6309  0.4880 -0.1339
 6242SOL    HW130359   1.382   0.909  11.171 -2.4827  0.3588 -0.5746
 6242SOL    HW230360   1.458   0.816  11.237  1.2343  1.9092 -0.6712
 6243SOL     OW30361   2.394   3.397   2.465  0.1902 -0.4583 -0.1085
 6243SOL    HW130362   2.477   3.374   2.507  0.1031 -0.7874 -0.1104
 6243SOL    HW230363   2.400   3.332   2.395  0.2735 -2.3519  1.6504
 6244SOL     OW30364   1.013   0.735   9.060  0.2846 -0.3827  0.4872
 6244SOL    HW130365   0.967   0.680   9.124  2.6757 -0.2655  2.2797
 6244SOL    HW230366   1.056   0.668   9.007  3.2350  3.3315 -1.7445
 6245SOL     OW30367   3.291   2.123   3.022  0.0721 -0.1066 -0.0383
 6245SOL    HW130368   3.387   2.120   3.017  0.0377 -1.7796  0.3660
 6245SOL    HW230369   3.271   2.095   2.932 -1.0917  0.5041  0.0305
 6246SOL     OW30370   1.395   4.203   1.570  0.0081 -0.1523  0.1136
 6246SOL    HW130371   1.323   4.228   1.628  1.8475 -0.7653  2.6223
 6246SOL    HW230372   1.393   4.109   1.588  1.0620  0.1475  1.7760
 6247SOL     OW30373   1.103   0.493  15.599 -0.5199  0.6226 -0.3575
 6247SOL    HW130374   1.163   0.519  15.530 -0.2590  1.4835  0.1838
 6247SOL    HW230375   1.132   0.558  15.663 -0.2709 -2.1345  2.3367
 6248SOL     OW30376   1.373   2.394   7.012  0.2306 -0.0823  0.3756
 6248SOL    HW130377   1.359   2.337   6.936  1.4246 -0.4681  0.4447
 6248SOL    HW230378   1.373   2.327   7.081 -0.9673 -1.3260 -0.8248
 6249SOL     OW30379   3.517   3.373   1.700  0.4807 -0.2521 -0.0879
 6249SOL    HW130380   3.591   3.434   1.698  0.7638 -0.4683  2.8530
 6249SOL    HW230381   3.562   3.293   1.730  0.0000 -0.4807  0.0145
 6250SOL     OW30382   3.092   2.054  16.155 -0.2063  0.5913 -0.4741
 6250SOL    HW130383   3.136   1.988  16.208 -3.4670 -1.2454 -0.0332
 6250SOL    HW230384   3.121   2.039  16.065 -0.8077  0.4468 -0.6460
 6251SOL     OW30385   1.812   3.556   5.275  0.0129  0.3794 -0.0632
 6251SOL    HW130386   1.741   3.610   5.311 -0.5969  1.2118 -2.5781
 6251SOL    HW230387   1.824   3.490   5.344  2.3454  0.2906 -0.5658
 6252SOL     OW30388   4.123   4.588   1.993  0.5554  0.0139  0.3090
 6252SOL    HW130389   4.136   4.527   2.065 -0.1075  0.2796  0.6579
 6252SOL    HW230390   4.069   4.657   2.031  1.8872  1.0069  0.3963
 6253SOL     OW30391   0.124   4.534   3.057  0.1685  0.1177 -0.0377
 6253SOL    HW130392   0.181   4.499   2.990 -0.4716 -0.4283 -0.2978
 6253SOL    HW230393   0.166   4.619   3.074  0.3720 -0.3601  1.8341
 6254SOL     OW30394   4.310   3.734   6.458 -0.6672 -0.3334 -1.0446
 6254SOL    HW130395   4.268   3.791   6.522 -0.5887 -1.2641 -0.1597
 6254SOL    HW230396   4.337   3.663   6.517  2.2413  1.1793 -0.5809
 6255SOL     OW30397   2.375   1.464  14.236  0.1452 -0.3219  0.6875
 6255SOL    HW130398   2.461   1.484  14.199  0.6757 -2.3895  0.8035
 6255SOL    HW230399   2.353   1.551  14.268 -0.5334  0.0285 -0.7271
 6256SOL     OW30400   0.630   0.047   6.880  0.5225  0.0137 -0.5303
 6256SOL    HW130401   0.580   0.124   6.907  0.8610 -0.0141  0.1789
 6256SOL    HW230402   0.612   0.048   6.786 -1.2433 -0.7434 -0.1906
 6257SOL     OW30403   3.081   3.601  12.978 -0.2605 -0.1121  0.1578
 6257SOL    HW130404   3.122   3.583  12.893  0.2196 -0.5805  0.4915
 6257SOL    HW230405   3.129   3.681  13.003 -0.2508  0.0959 -0.5309
 6258SOL     OW30406   1.450   0.224   1.514  0.0790  0.7776 -0.2718
 6258SOL    HW130407   1.472   0.145   1.564  2.8781  2.0200  0.4829
 6258SOL    HW230408   1.421   0.279   1.587  0.6096  0.8471 -0.1119
 6259SOL     OW30409   2.470   0.919   4.419 -0.3227  0.8276 -0.1338
 6259SOL    HW130410   2.401   0.891   4.479 -0.9093  2.2035 -0.1547
 6259SOL    HW230411   2.484   0.845   4.360 -1.5865 -2.0882  3.2553
 6260SOL     OW30412   1.170   0.753   7.386  0.4105 -0.0612  0.0836
 6260SOL    HW130413   1.256   0.773   7.422 -0.0231 -0.5834  1.4146
 6260SOL    HW230414   1.129   0.840   7.379 -1.6596 -1.1613 -1.5366
 6261SOL     OW30415   3.665   2.226  10.547  0.2342  0.6444  0.1425
 6261SOL    HW130416   3.584   2.190  10.511  0.1395  0.9462  0.0567
 6261SOL    HW230417   3.644   2.213  10.640 -0.8805 -0.1059 -0.2170
 6262SOL     OW30418   0.961   2.645   2.518  0.4536 -0.2878 -0.8863
 6262SOL    HW130419   0.890   2.638   2.581 -0.9879  0.3453 -2.4349
 6262SOL    HW230420   0.920   2.621   2.435 -0.4296  0.3122 -0.6169
 6263SOL     OW30421   2.543   1.298   1.628 -0.3103  0.4763 -0.2541
 6263SOL    HW130422   2.522   1.359   1.699  2.0057  1.5592 -0.4947
 6263SOL    HW230423   2.457   1.258   1.615 -0.1000  0.0256 -0.2348
 6264SOL     OW30424   3.500   4.682   6.219  0.4892  0.3313  0.1596
 6264SOL    HW130425   3.463   0.028   6.260 -0.7778 -0.9142  1.3749
 6264SOL    HW230426   3.559   4.721   6.154  0.2139  2.7077  1.3345
 6265SOL     OW30427   0.220   4.059   1.661  0.2021  0.0955 -0.1195
 6265SOL    HW130428   0.269   4.137   1.685 -1.2912 -0.2142  3.8786
 6265SOL    HW230429   0.290   3.997   1.641 -0.3874 -0.3455 -0.8120
 6266SOL     OW30430   0.690   2.594   6.181 -0.0273 -0.2537 -0.1327
 6266SOL    HW130431   0.606   2.569   6.141 -1.1760 -0.1971  2.2791
 6266SOL    HW230432   0.704   2.541   6.259 -0.0303  0.6443  0.4760
 6267SOL     OW30433   2.922   2.877   2.243 -0.0395  0.1029 -0.0827
 6267SOL    HW130434   2.864   2.847   2.173  0.4147  1.4123 -1.0159
 6267SOL    HW230435   2.925   2.797   2.296 -0.4259  0.6046  0.6931
 6268SOL     OW30436   3.769   2.929  10.121 -0.3658  0.1225 -0.3841
 6268SOL    HW130437   3.825   2.969  10.054 -1.4777 -0.9218 -1.9417
 6268SOL    HW230438   3.746   3.001  10.180 -1.3124 -2.6374  2.6382
 6269SOL     OW30439   2.960   1.980  13.758  0.2170  0.3977 -0.5190
 6269SOL    HW130440   3.032   1.992  13.820 -1.0164 -2.1733  1.3597
 6269SOL    HW230441   2.897   1.915  13.787  0.9923 -1.1583 -2.2954
 6270SOL     OW30442   3.668   4.623   1.401 -0.9673 -0.5427 -0.8116
 6270SOL    HW130443   3.676   4.581   1.315 -1.0205 -0.9990 -0.5900
 6270SOL    HW230444   3.706   4.566   1.468  0.8065 -0.0800 -1.4097
 6271SOL     OW30445   3.141   4.386   5.460 -0.5227  0.1051  0.2813
 6271SOL    HW130446   3.085   4.426   5.528 -2.6831 -2.9871  0.3299
 6271SOL    HW230447   3.084   4.313   5.437  0.4153 -0.9784  1.4349
 6272SOL     OW30448   1.686   1.680   2.607 -0.4743 -0.2010 -0.0587
 6272SOL    HW130449   1.737   1.754   2.573 -1.2268  0.1622 -0.3968
 6272SOL    HW230450   1.712   1.622   2.536 -0.0193 -0.3976  0.2747
 6273SOL     OW30451   3.951   3.066   5.543  0.2236  0.2534  0.8511
 6273SOL    HW130452   3.915   2.982   5.515  2.8940 -0.5043 -0.3549
 6273SOL    HW230453   3.876   3.125   5.535  0.0904  0.4794  3.7546
 6274SOL     OW30454   0.930   4.302   3.898 -0.0215 -0.6325  0.5751
 6274SOL    HW130455   0.858   4.349   3.938 -1.9948 -3.3569  0.1978
 6274SOL    HW230456   0.870   4.247   3.849 -0.1343  0.3349 -0.3678
 6275SOL     OW30457   3.274   1.582   1.707  0.1376  0.6363  0.3175
 6275SOL    HW130458   3.276   1.678   1.707 -2.4691  0.6843  2.4911
 6275SOL    HW230459   3.237   1.578   1.795  0.4971  1.3442  0.5081
 6276SOL     OW30460   1.933   1.642   1.990  0.0308 -0.2106  0.4414
 6276SOL    HW130461   1.867   1.628   1.922 -0.7737  1.7009  0.8141
 6276SOL    HW230462   1.979   1.559   1.995 -0.2452 -0.5052 -2.2294
 6277SOL     OW30463   1.968   2.244   7.009  0.3199 -0.4552 -0.5620
 6277SOL    HW130464   1.939   2.297   6.935 -0.5096  0.0100  0.0932
 6277SOL    HW230465   2.040   2.299   7.040 -0.6766 -0.0679  1.0776
 6278SOL     OW30466   1.427   2.360   4.216 -0.5179 -0.9582  0.1952
 6278SOL    HW130467   1.502   2.360   4.156 -0.3460  3.4101  0.4136
 6278SOL    HW230468   1.461   2.318   4.295  1.7972  0.9952  0.2123
 6279SOL     OW30469   4.421   4.546   6.282 -0.3821 -0.1762 -0.0710
 6279SOL    HW130470   4.384   4.513   6.200 -0.5035  1.0075 -0.4867
 6279SOL    HW230471   4.414   4.474   6.344  0.7977  0.3406  0.6721
 6280SOL     OW30472   3.109   4.668   3.418 -0.5381 -0.1501  0.9296
 6280SOL    HW130473   3.041   4.610   3.384 -0.1871  1.0755 -1.8792
 6280SOL    HW230474   3.135   4.619   3.496  0.6845 -1.8441 -0.5601
 6281SOL     OW30475   4.045   3.870   8.696  0.7333  0.4234 -0.1186
 6281SOL    HW130476   3.956   3.903   8.705  0.6576  0.2064 -0.0792
 6281SOL    HW230477   4.042   3.800   8.762 -1.5760  0.6460  0.0135
 6282SOL     OW30478   1.786   2.601   6.846  0.2315  0.3574 -0.1750
 6282SOL    HW130479   1.742   2.553   6.916  0.0851 -1.2489 -1.3493
 6282SOL    HW230480   1.713   2.619   6.787  0.3444  0.6450 -0.2277
 6283SOL     OW30481   4.114   2.751   8.628 -0.1756  0.0133 -0.0796
 6283SOL    HW130482   4.183   2.697   8.666  0.6472  1.1622  0.0350
 6283SOL    HW230483   4.108   2.708   8.542 -1.3461 -0.3849  0.1971
 6284SOL     OW30484   1.682   0.121   9.541 -0.1278  0.3948 -0.3425
 6284SOL    HW130485   1.689   0.089   9.451 -0.6621  1.3936 -0.7300
 6284SOL    HW230486   1.697   0.044   9.597  2.0683 -0.0079 -1.4809
 6285SOL     OW30487   0.640   2.270  13.897  0.8175  0.5356  0.2858
 6285SOL    HW130488   0.641   2.341  13.834 -0.2654 -1.1933 -1.6811
 6285SOL    HW230489   0.718   2.223  13.867 -1.1695 -0.6021 -3.0496
 6286SOL     OW30490   0.097   1.456   1.687  0.6310  0.0566  0.6557
 6286SOL    HW130491   0.040   1.400   1.635 -0.1465  0.5679  0.9544
 6286SOL    HW230492   0.060   1.543   1.676  0.1972 -0.1092  0.8199
 6287SOL     OW30493   1.261   2.813   3.769 -0.3522  0.2790 -0.0530
 6287SOL    HW130494   1.235   2.755   3.697 -2.3417  0.1762  0.7432
 6287SOL    HW230495   1.346   2.774   3.790 -0.3944  0.1592 -0.1010
 6288SOL     OW30496   3.219   3.030   1.136 -0.0844  0.4704 -0.4922
 6288SOL    HW130497   3.157   2.970   1.094  1.1055 -0.7409 -0.5290
 6288SOL    HW230498   3.301   3.039   1.086  0.1941  0.2591 -0.0754
 6289SOL     OW30499   0.518   3.754   4.019  0.2738 -0.0918  0.7477
 6289SOL    HW130500   0.422   3.746   4.021  0.3146 -0.2953  1.6555
 6289SOL    HW230501   0.532   3.816   3.947 -0.4263 -2.2718 -1.2900
 6290SOL     OW30502   0.064   2.462   7.114 -0.9009 -0.3360  0.0243
 6290SOL    HW130503   0.083   2.372   7.140  1.9561 -0.1818 -1.5979
 6290SOL    HW230504   4.717   2.485   7.164 -0.5746 -0.1869  0.4669
 6291SOL     OW30505   3.336   1.864   5.342 -0.0352  0.1104 -0.0403
 6291SOL    HW130506   3.307   1.945   5.300  0.1641 -0.3884 -1.1430
 6291SOL    HW230507   3.429   1.855   5.320 -0.0855 -1.0430  0.1978
 6292SOL     OW30508   3.071   1.571   4.965 -0.2191  0.4778  0.2274
 6292SOL    HW130509   3.108   1.656   4.986 -0.3442  0.5134  0.3048
 6292SOL    HW230510   3.137   1.504   4.983  0.6077  1.4718  0.8956
 6293SOL     OW30511   1.573   0.723   6.859 -0.0314  0.4207 -0.2176
 6293SOL    HW130512   1.642   0.789   6.860  1.1105 -0.7698 -0.0122
 6293SOL    HW230513   1.528   0.749   6.779 -0.0488  0.5641 -0.1616
 6294SOL     OW30514   0.182   2.647   8.256 -0.2767  0.3873 -0.1230
 6294SOL    HW130515   0.265   2.646   8.207 -1.1502 -2.6034 -1.5971
 6294SOL    HW230516   0.115   2.667   8.190 -1.3683 -0.1840  0.8176
 6295SOL     OW30517   3.297   0.005  14.037 -0.0201  0.1167 -0.3960
 6295SOL    HW130518   3.315   0.087  13.991 -0.2787  1.4713  1.8783
 6295SOL    HW230519   3.307   0.032  14.129  2.7221 -2.3098  0.0107
 6296SOL     OW30520   0.916   0.111  16.209 -0.0232 -0.1524 -0.0074
 6296SOL    HW130521   0.910   0.032  16.263  3.4559 -0.3196  0.1045
 6296SOL    HW230522   0.996   0.086  16.163 -0.1470  0.3008 -0.4666
 6297SOL     OW30523   3.894   1.555   0.711  0.3817  0.1755  0.0264
 6297SOL    HW130524   3.988   1.536   0.705  0.3430 -0.3198  0.9866
 6297SOL    HW230525   3.885   1.565   0.806 -1.9703 -0.2495 -0.1562
 6298SOL     OW30526   1.238   4.166  10.256 -0.0143  0.2965 -0.6112
 6298SOL    HW130527   1.309   4.154  10.319 -0.6575 -0.1109  0.0330
 6298SOL    HW230528   1.231   4.076  10.223  1.4569 -0.9030  2.3955
 6299SOL     OW30529   1.567   0.429  14.608  0.5261  0.3328  0.3792
 6299SOL    HW130530   1.475   0.406  14.615 -0.0682  1.5579 -3.3555
 6299SOL    HW230531   1.606   0.343  14.620  0.4884  0.2682  0.0349
 6300SOL     OW30532   1.741   1.646   0.245 -0.6918  0.2972  0.1804
 6300SOL    HW130533   1.784   1.601   0.318 -0.0125 -1.5894 -1.3690
 6300SOL    HW230534   1.815   1.654   0.184 -0.2726 -1.5981  0.4340
 6301SOL     OW30535   1.902   0.282   8.543 -0.0997  0.1509  0.1219
 6301SOL    HW130536   1.909   0.250   8.633  0.2216  1.3682  0.5321
 6301SOL    HW230537   1.829   0.233   8.507  1.4825 -0.5107 -2.1795
 6302SOL     OW30538   3.314   4.667   5.316 -0.0529 -0.1796  0.0038
 6302SOL    HW130539   3.343   4.576   5.309 -0.3048 -0.0840 -2.2676
 6302SOL    HW230540   3.290   4.671   5.409 -2.3989 -0.3166 -0.5876
 6303SOL     OW30541   3.742   0.416   3.531 -0.4010 -0.0056 -0.0957
 6303SOL    HW130542   3.782   0.366   3.461  0.4756  2.6719 -1.5142
 6303SOL    HW230543   3.777   0.382   3.614  1.6867  1.6058 -0.3085
 6304SOL     OW30544   3.521   1.905  15.781  0.1703 -0.2479 -0.1377
 6304SOL    HW130545   3.540   1.927  15.690 -1.0159  0.6252 -0.1752
 6304SOL    HW230546   3.427   1.921  15.783  0.0601 -0.7142 -1.8339
 6305SOL     OW30547   4.129   4.042  15.338  0.2006  0.0672 -0.3899
 6305SOL    HW130548   4.125   3.986  15.415 -0.2421  1.0082  0.2796
 6305SOL    HW230549   4.216   4.078  15.357 -0.2185  0.4033  0.8750
 6306SOL     OW30550   0.220   3.609   5.178  0.8309 -0.0429 -0.6752
 6306SOL    HW130551   0.222   3.516   5.202 -1.1289  0.4842  1.5790
 6306SOL    HW230552   0.250   3.617   5.088 -2.7226  1.6685 -1.6869
 6307SOL     OW30553   1.666   2.669  15.409 -0.3039  0.0691  0.1740
 6307SOL    HW130554   1.655   2.732  15.337  0.6266 -0.9244 -0.8319
 6307SOL    HW230555   1.644   2.587  15.366 -1.7116  1.0608 -1.0194
 6308SOL     OW30556   2.800   3.657   2.780 -0.2062 -0.5411  0.3871
 6308SOL    HW130557   2.874   3.687   2.727 -1.5266 -0.2549 -1.2751
 6308SOL    HW230558   2.725   3.688   2.729  0.5333  0.5777 -0.0314
 6309SOL     OW30559   4.433   2.064   5.106 -0.3536  0.2924 -0.1990
 6309SOL    HW130560   4.377   2.090   5.033 -1.4665 -0.0634  0.5429
 6309SOL    HW230561   4.374   2.007   5.155  0.2802 -0.7713 -0.6669
 6310SOL     OW30562   2.414   2.349   2.683 -0.1889  0.6168  0.4678
 6310SOL    HW130563   2.441   2.266   2.724 -0.7714  0.3344  0.2733
 6310SOL    HW230564   2.460   2.416   2.733  0.0503  1.3338 -0.7014
 6311SOL     OW30565   1.293   0.098  10.933  0.4074 -0.4228 -0.1045
 6311SOL    HW130566   1.243   0.023  10.903 -0.2470  0.2251 -0.6294
 6311SOL    HW230567   1.382   0.074  10.909  0.5195 -0.2962  0.1738
 6312SOL     OW30568   1.492   4.427   4.504 -0.2385 -0.3277 -0.2414
 6312SOL    HW130569   1.515   4.335   4.514 -0.9634 -0.7753 -2.5709
 6312SOL    HW230570   1.581   4.457   4.483  0.2443 -1.3313  0.3686
 6313SOL     OW30571   4.712   0.597   8.481 -0.4006  0.4293 -0.3685
 6313SOL    HW130572   4.648   0.637   8.540 -0.4211 -0.3786  0.1707
 6313SOL    HW230573   0.034   0.551   8.546  1.2352 -0.3057 -2.2818
 6314SOL     OW30574   2.847   0.338   3.602  1.1028 -0.5327 -0.3263
 6314SOL    HW130575   2.935   0.374   3.596  0.6021  1.0256  1.8064
 6314SOL    HW230576   2.858   0.260   3.548 -2.4187 -0.1699 -1.5799
 6315SOL     OW30577   0.780   2.964   7.468 -0.0578  0.1109 -0.0049
 6315SOL    HW130578   0.721   2.977   7.543 -0.9770 -0.1752 -0.6729
 6315SOL    HW230579   0.816   2.880   7.497  0.4852  0.4669  0.3511
 6316SOL     OW30580   0.770   2.686  11.325 -0.2906 -0.0802  0.2302
 6316SOL    HW130581   0.726   2.701  11.409  1.3041  1.7346  0.7342
 6316SOL    HW230582   0.769   2.776  11.295  1.2902  0.1143  0.7606
 6317SOL     OW30583   0.093   1.295   0.238  0.3471 -0.1382 -0.3812
 6317SOL    HW130584   0.172   1.242   0.233  1.2180  1.1862 -0.7457
 6317SOL    HW230585   0.106   1.357   0.166 -1.0574 -0.2042 -0.6973
 6318SOL     OW30586   1.418   0.453  17.007 -0.0670  0.2957  0.1443
 6318SOL    HW130587   1.474   0.377  16.988  1.2141  1.2919 -0.0695
 6318SOL    HW230588   1.346   0.418  17.060 -0.0750  0.2848  0.1261
 6319SOL     OW30589   0.859   2.590   7.116  0.1116  0.6294 -0.0520
 6319SOL    HW130590   0.897   2.656   7.174  0.4468  0.4254 -0.0378
 6319SOL    HW230591   0.791   2.566   7.179 -0.5858  1.2161 -0.5890
 6320SOL     OW30592   1.119   2.321   4.579 -0.0502 -0.0227 -0.1922
 6320SOL    HW130593   1.086   2.234   4.557 -1.2807  0.3043  0.3781
 6320SOL    HW230594   1.134   2.357   4.491  2.3300 -0.1529  0.1768
 6321SOL     OW30595   2.567   1.125   1.233 -0.1553 -0.0142 -0.2588
 6321SOL    HW130596   2.475   1.120   1.206 -0.2513  0.8050 -0.1081
 6321SOL    HW230597   2.586   1.209   1.191 -0.6897 -0.9852 -2.4385
 6322SOL     OW30598   1.698   3.103  15.625 -0.3339  0.3273  0.2713
 6322SOL    HW130599   1.626   3.166  15.637 -0.4564  0.8271 -2.9736
 6322SOL    HW230600   1.735   3.114  15.537 -1.0509 -2.2091 -0.3536
 6323SOL     OW30601   2.613   0.269   9.025 -0.3654 -0.1516 -0.5041
 6323SOL    HW130602   2.549   0.338   9.005  0.6615  0.5450 -1.3745
 6323SOL    HW230603   2.616   0.277   9.120 -0.3611 -0.3444 -0.4876
 6324SOL     OW30604   1.693   1.946  15.111  0.2112  0.5627 -0.2056
 6324SOL    HW130605   1.609   1.933  15.067 -0.3584  0.4785  0.9021
 6324SOL    HW230606   1.746   1.963  15.033 -0.5908  0.2642 -0.8140
 6325SOL     OW30607   0.580   3.203  12.254  0.4988  0.0748  0.2039
 6325SOL    HW130608   0.661   3.158  12.231 -0.4894 -1.5206 -0.1674
 6325SOL    HW230609   0.608   3.230  12.342 -0.7705 -0.3564  0.7379
 6326SOL     OW30610   4.097   2.440   9.647 -0.4136  0.1191  0.4076
 6326SOL    HW130611   4.056   2.457   9.732  1.2103 -1.0209  1.3977
 6326SOL    HW230612   4.188   2.431   9.674 -0.7582  3.4630  2.7730
 6327SOL     OW30613   0.181   2.824  14.012 -0.5585  0.2416  0.0298
 6327SOL    HW130614   0.193   2.800  14.104  0.1699  1.6547  0.3013
 6327SOL    HW230615   0.253   2.884  13.992 -2.9260  2.5783 -1.4024
 6328SOL     OW30616   3.663   3.193   4.406  0.6638 -0.0242  0.4115
 6328SOL    HW130617   3.611   3.157   4.477 -1.2581 -0.8489 -1.3956
 6328SOL    HW230618   3.714   3.120   4.370  0.2479  0.7041 -1.6714
 6329SOL     OW30619   0.523   0.236   7.187 -0.2768  0.3435 -0.3200
 6329SOL    HW130620   0.473   0.278   7.116  2.5972  1.5554 -1.6134
 6329SOL    HW230621   0.611   0.268   7.167  0.6886 -1.6182  0.9052
 6330SOL     OW30622   0.586   3.198  14.589  0.4819 -0.1565  0.4027
 6330SOL    HW130623   0.611   3.253  14.663  0.1164  0.4460  0.0806
 6330SOL    HW230624   0.632   3.116  14.605 -0.3936 -0.4148  1.5597
 6331SOL     OW30625   2.487   2.903   5.744 -0.1229 -0.0515 -0.1397
 6331SOL    HW130626   2.557   2.964   5.723  0.7258 -1.3057 -0.9211
 6331SOL    HW230627   2.527   2.847   5.810 -0.3043 -0.9286 -0.7664
 6332SOL     OW30628   1.069   1.063   0.188  0.1649  0.3085  0.1060
 6332SOL    HW130629   1.154   1.019   0.185  0.0111  0.0098  0.1093
 6332SOL    HW230630   1.010   0.995   0.221  0.7867  0.0631  0.6950
 6333SOL     OW30631   1.279   3.967  12.730  0.0887 -0.2828  0.1437
 6333SOL    HW130632   1.244   3.902  12.669  0.8817 -0.5242 -0.0561
 6333SOL    HW230633   1.204   3.981  12.787  0.7418  2.9707  0.1815
 6334SOL     OW30634   0.284   2.802   3.526 -0.4127 -0.4834  0.0047
 6334SOL    HW130635   0.359   2.743   3.535 -1.7836 -2.3301 -0.5466
 6334SOL    HW230636   0.296   2.847   3.443 -0.9919 -0.3079  0.0178
 6335SOL     OW30637   0.673   3.647   7.573 -0.2893  0.4317 -0.1604
 6335SOL    HW130638   0.603   3.633   7.637  0.4048  0.5757  0.6188
 6335SOL    HW230639   0.738   3.584   7.605 -1.3634  0.4952  2.1437
 6336SOL     OW30640   0.190   1.181   7.620  0.1799 -0.2260  0.3582
 6336SOL    HW130641   0.178   1.097   7.575  0.8804  0.2288 -0.6786
 6336SOL    HW230642   0.199   1.247   7.552  0.9602 -1.3916 -0.6600
 6337SOL     OW30643   2.851   4.506   4.688  0.2038 -0.1699 -0.5929
 6337SOL    HW130644   2.759   4.533   4.690  0.0189 -0.7883 -0.6851
 6337SOL    HW230645   2.852   4.466   4.601  1.0162 -3.1513  0.7719
 6338SOL     OW30646   1.243   0.868   1.641 -0.5803  0.4946 -0.2420
 6338SOL    HW130647   1.302   0.915   1.700 -1.8281  0.8567  0.7173
 6338SOL    HW230648   1.192   0.814   1.702  1.3803 -0.4173  0.5660
 6339SOL     OW30649   1.471   0.355   2.706 -0.3323 -0.2894 -0.6228
 6339SOL    HW130650   1.440   0.445   2.696 -0.5184 -0.4872 -1.9131
 6339SOL    HW230651   1.559   0.381   2.735 -0.4131  1.3067 -1.8206
 6340SOL     OW30652   4.104   2.894   6.369 -0.1228  0.0408 -0.0548
 6340SOL    HW130653   4.030   2.953   6.386 -0.3343  0.4245 -2.3449
 6340SOL    HW230654   4.163   2.901   6.444  0.3951  2.6667 -0.6895
 6341SOL     OW30655   1.107   4.027   1.507 -0.4495  0.2699  0.3207
 6341SOL    HW130656   1.017   4.058   1.491 -0.2999 -0.4917 -2.0664
 6341SOL    HW230657   1.132   4.028   1.414 -2.3677 -0.0586 -0.2100
 6342SOL     OW30658   2.094   0.347   1.992 -0.0586  0.0113  0.0423
 6342SOL    HW130659   2.126   0.313   1.909 -2.4542 -0.8143 -0.5491
 6342SOL    HW230660   2.024   0.287   2.019 -2.1152  2.3007 -0.2253
 6343SOL     OW30661   1.491   3.620   2.359  0.0351 -0.1267 -0.0413
 6343SOL    HW130662   1.408   3.668   2.352 -0.1116 -0.1826  1.2310
 6343SOL    HW230663   1.505   3.594   2.268  2.1401 -2.9418  1.0770
 6344SOL     OW30664   3.282   0.195   6.775 -0.2131  0.4233  0.7255
 6344SOL    HW130665   3.345   0.137   6.732  0.7471  0.7251  1.7177
 6344SOL    HW230666   3.228   0.228   6.703  0.6011  0.9011  0.3323
 6345SOL     OW30667   1.814   0.385   6.299 -0.0614 -0.3708  0.0349
 6345SOL    HW130668   1.728   0.390   6.342 -0.8706  1.1962 -1.7729
 6345SOL    HW230669   1.791   0.423   6.214 -1.1987 -0.1732  0.4365
 6346SOL     OW30670   3.188   3.511   6.206 -0.3185  0.1904  0.5024
 6346SOL    HW130671   3.242   3.526   6.283  0.4669 -0.4266  0.0759
 6346SOL    HW230672   3.151   3.599   6.195  0.6783  0.5134 -0.2160
 6347SOL     OW30673   3.142   1.483   8.219  0.2242 -0.5358 -0.1588
 6347SOL    HW130674   3.058   1.488   8.173 -0.7643 -0.4797  1.6699
 6347SOL    HW230675   3.119   1.433   8.297  3.0870 -1.4174  0.1234
 6348SOL     OW30676   1.781   0.948   7.607  0.4221 -0.4924 -0.2178
 6348SOL    HW130677   1.714   0.962   7.673 -0.5016 -1.6065 -0.9249
 6348SOL    HW230678   1.836   0.879   7.646 -0.1274  0.2809  1.9279
 6349SOL     OW30679   2.236   3.984  12.740  0.1880  0.0222  0.3607
 6349SOL    HW130680   2.171   3.930  12.695  0.8231  0.1328 -0.6821
 6349SOL    HW230681   2.188   3.990  12.823  0.4508 -1.1257  0.5974
 6350SOL     OW30682   3.150   2.745   4.715 -0.0314  0.5898 -0.5931
 6350SOL    HW130683   3.194   2.660   4.715 -0.8391  0.1616  1.5881
 6350SOL    HW230684   3.122   2.760   4.805 -1.2712 -2.9729 -0.3528
 6351SOL     OW30685   1.487   4.554   7.616 -0.1862  0.3881 -0.1956
 6351SOL    HW130686   1.401   4.531   7.581 -0.4874  0.9936  0.1401
 6351SOL    HW230687   1.547   4.489   7.581  0.9039  1.3399 -0.1216
 6352SOL     OW30688   0.076   2.622   2.923  0.2200 -0.1846  0.4038
 6352SOL    HW130689   0.149   2.575   2.963  0.3835  2.3152  3.0185
 6352SOL    HW230690   0.106   2.712   2.933 -1.6142  0.4066  0.4583
 6353SOL     OW30691   0.557   1.128   2.328  0.1290 -0.2277 -0.2643
 6353SOL    HW130692   0.510   1.084   2.258 -0.3856 -2.3566  1.4020
 6353SOL    HW230693   0.636   1.155   2.281  0.0685 -0.4741 -0.5066
 6354SOL     OW30694   1.211   3.819  12.532 -0.5994  0.3340  0.2888
 6354SOL    HW130695   1.222   3.887  12.465  1.1366 -2.1708 -1.9371
 6354SOL    HW230696   1.229   3.740  12.481  3.0002  0.5882  1.1654
 6355SOL     OW30697   2.671   1.026   8.496 -0.1889  0.2875 -0.2826
 6355SOL    HW130698   2.668   0.985   8.582 -0.0741 -0.8160 -0.8045
 6355SOL    HW230699   2.594   1.082   8.494 -2.9572 -3.5980 -1.9463
 6356SOL     OW30700   3.653   2.054   7.407 -0.0642  0.0795 -0.4469
 6356SOL    HW130701   3.726   2.041   7.346  1.0289  2.0780  0.4119
 6356SOL    HW230702   3.586   1.993   7.378  0.7252 -2.3031  2.7707
 6357SOL     OW30703   2.391   4.476  14.331  0.1644 -0.2619  0.7422
 6357SOL    HW130704   2.461   4.541  14.324  0.0330 -0.4297 -2.0098
 6357SOL    HW230705   2.452   4.411  14.295 -1.5278 -1.8856  0.7946
 6358SOL     OW30706   0.257   3.893   8.476 -0.7233 -0.1756  0.5131
 6358SOL    HW130707   0.230   3.899   8.384  2.9004 -0.8591 -0.6069
 6358SOL    HW230708   0.172   3.871   8.515 -1.6213  1.6261 -0.3922
 6359SOL     OW30709   2.625   1.982   6.306  0.6177 -0.2356 -0.1059
 6359SOL    HW130710   2.541   1.999   6.349 -0.6517  2.7639 -3.6765
 6359SOL    HW230711   2.634   2.067   6.262 -1.7111  0.4364  0.6866
 6360SOL     OW30712   1.255   2.017   2.602 -0.6515 -0.1521  0.2356
 6360SOL    HW130713   1.305   1.994   2.680  0.2680  3.0775  0.6375
 6360SOL    HW230714   1.233   1.929   2.574  0.1331 -0.4411  0.5335
 6361SOL     OW30715   1.326   1.038   2.381  0.0635 -0.2312  0.2954
 6361SOL    HW130716   1.327   1.125   2.421 -0.5946 -0.6320  1.1962
 6361SOL    HW230717   1.245   1.029   2.330  0.3260  1.4572 -0.4157
 6362SOL     OW30718   4.043   2.125   8.484  0.3566  0.4683 -0.4966
 6362SOL    HW130719   4.057   2.213   8.517 -1.5333  1.5220 -2.5551
 6362SOL    HW230720   4.099   2.133   8.407  0.7754 -0.7946 -0.3276
 6363SOL     OW30721   2.985   2.740   2.542  0.4809  0.8633  0.5784
 6363SOL    HW130722   2.992   2.645   2.534 -1.0986  0.7295  0.6891
 6363SOL    HW230723   2.891   2.740   2.561  0.0501  2.4388 -1.5339
 6364SOL     OW30724   3.919   2.317   9.483 -0.0756  0.0065  0.3205
 6364SOL    HW130725   3.992   2.358   9.529  0.8008  0.8302 -1.8543
 6364SOL    HW230726   3.917   2.365   9.401  1.2993  0.7504  0.7409
 6365SOL     OW30727   3.581   3.988   3.860 -0.5724 -0.1561  0.1295
 6365SOL    HW130728   3.538   4.036   3.931  0.7483 -1.3974  1.7536
 6365SOL    HW230729   3.667   4.029   3.857 -0.1528 -0.8606  2.9312
 6366SOL     OW30730   1.761   2.494   8.765  0.1987  0.2312 -0.5267
 6366SOL    HW130731   1.723   2.581   8.753 -2.5798 -0.5520  2.6211
 6366SOL    HW230732   1.678   2.453   8.742 -0.0905 -0.4521  1.6735
 6367SOL     OW30733   1.651   3.706  12.896  0.6877  0.0834 -0.1468
 6367SOL    HW130734   1.570   3.754  12.917  0.7946  0.3380 -0.3197
 6367SOL    HW230735   1.638   3.612  12.901 -0.5631  0.2184 -0.7639
 6368SOL     OW30736   4.566   2.799   3.482 -0.2977 -0.0708 -0.4504
 6368SOL    HW130737   4.506   2.742   3.530 -0.0743 -0.0558 -0.1558
 6368SOL    HW230738   4.642   2.792   3.540 -0.0055 -0.3312 -0.8697
 6369SOL     OW30739   1.874   0.496   4.740  0.1774 -0.0784  0.1497
 6369SOL    HW130740   1.792   0.450   4.758  0.3233  0.2279  1.6498
 6369SOL    HW230741   1.859   0.588   4.764 -1.1556 -0.0967 -0.6312
 6370SOL     OW30742   2.694   1.926  12.560 -0.3751  0.3263  0.2022
 6370SOL    HW130743   2.789   1.926  12.575  0.1980  0.0857 -3.4169
 6370SOL    HW230744   2.673   1.995  12.496  1.7823 -0.1549 -1.0385
 6371SOL     OW30745   4.721   0.654   2.877  0.1598  0.5302 -0.1281
 6371SOL    HW130746   4.682   0.602   2.947 -3.3534  1.0480 -1.6904
 6371SOL    HW230747   4.687   0.740   2.903 -3.8349 -0.5410 -1.8757
 6372SOL     OW30748   1.617   1.062  11.373  0.2328  0.1790 -0.0421
 6372SOL    HW130749   1.642   1.090  11.461  2.6485  0.3096 -0.7749
 6372SOL    HW230750   1.617   0.968  11.390 -0.7475 -0.0645 -1.4127
 6373SOL     OW30751   0.808   3.498   7.984 -0.1830 -0.2673 -0.0342
 6373SOL    HW130752   0.825   3.590   7.965  1.3078 -0.3990  0.6422
 6373SOL    HW230753   0.734   3.510   8.044  0.4387 -1.4946  0.9786
 6374SOL     OW30754   4.415   1.229   2.195 -0.4322  0.3794 -0.1863
 6374SOL    HW130755   4.330   1.206   2.157 -0.0272 -0.9855 -0.2597
 6374SOL    HW230756   4.443   1.144   2.229 -2.6031  0.3843  1.6409
 6375SOL     OW30757   2.734   2.651   2.602 -0.3357  0.1731 -0.1430
 6375SOL    HW130758   2.655   2.705   2.595 -0.2161  0.1304 -1.6702
 6375SOL    HW230759   2.740   2.627   2.695 -2.3660  1.2515  0.2885
 6376SOL     OW30760   0.982   2.534  15.104  0.1717  0.3767 -0.4924
 6376SOL    HW130761   1.024   2.614  15.071  1.0840  0.2052  0.2748
 6376SOL    HW230762   0.891   2.562  15.093 -0.5041 -2.6154 -2.4729
 6377SOL     OW30763   0.634   3.665   6.781 -0.3638  0.3403 -0.3986
 6377SOL    HW130764   0.694   3.590   6.791 -1.0819 -0.2430 -0.4718
 6377SOL    HW230765   0.609   3.671   6.689 -0.7958 -1.1194 -0.3804
 6378SOL     OW30766   4.346   4.205   7.765  0.1395 -0.3436  0.3133
 6378SOL    HW130767   4.397   4.253   7.830 -0.2727 -0.8910  1.0480
 6378SOL    HW230768   4.390   4.213   7.681 -1.8495  0.4054 -0.6720
 6379SOL     OW30769   0.720   0.465   6.007 -0.1687 -0.3774 -0.7421
 6379SOL    HW130770   0.812   0.440   6.005 -0.1784 -0.3942 -0.9690
 6379SOL    HW230771   0.697   0.438   5.918  0.0251 -0.8925 -0.6364
 6380SOL     OW30772   2.621   3.337   1.849  0.2562  0.3596  0.2406
 6380SOL    HW130773   2.663   3.300   1.771  1.1432  0.8966  0.4667
 6380SOL    HW230774   2.538   3.290   1.848  0.2867  0.3331 -1.4858
 6381SOL     OW30775   0.826   3.848   2.876 -0.0683  0.0007 -0.6438
 6381SOL    HW130776   0.761   3.789   2.836  0.7019 -1.9293  0.9401
 6381SOL    HW230777   0.904   3.793   2.872 -0.8936 -1.2280  0.0237
 6382SOL     OW30778   4.637   4.605  11.525  0.5070 -0.6244  0.3287
 6382SOL    HW130779   4.600   4.633  11.441  3.4125  0.9328 -0.4258
 6382SOL    HW230780   4.603   4.516  11.534  1.1844 -0.7173  2.0564
 6383SOL     OW30781   0.947   1.061   1.584  0.1742  0.3743 -0.1736
 6383SOL    HW130782   0.914   1.019   1.505  1.0749 -1.7880  0.5925
 6383SOL    HW230783   1.023   1.106   1.548 -0.0135  0.0006 -1.0291
 6384SOL     OW30784   0.757   3.429   6.806  0.6728  0.0486  0.1073
 6384SOL    HW130785   0.747   3.341   6.769  0.5768 -0.5420  1.5320
 6384SOL    HW230786   0.751   3.410   6.899  1.1252 -2.3512 -0.3531
 6385SOL     OW30787   0.095   0.401   1.656 -0.1540  0.4364  0.0003
 6385SOL    HW130788   0.158   0.473   1.662  1.1500 -0.6439 -0.7108
 6385SOL    HW230789   0.106   0.370   1.746 -2.2555 -1.1603 -0.3028
 6386SOL     OW30790   1.291   2.023   6.597 -0.8185  0.7872  0.1256
 6386SOL    HW130791   1.311   2.081   6.524 -0.3535  0.7419  0.2177
 6386SOL    HW230792   1.258   1.939   6.564  2.4436 -0.0893 -0.8772
 6387SOL     OW30793   2.893   3.993   7.031 -0.1168 -0.0610 -0.8069
 6387SOL    HW130794   2.964   3.991   7.095 -0.5938 -3.5298 -0.3512
 6387SOL    HW230795   2.942   3.985   6.949 -0.2225  1.0496 -0.9747
 6388SOL     OW30796   0.427   4.465   6.742 -0.0517 -0.1003  0.0904
 6388SOL    HW130797   0.406   4.384   6.787  0.0510  0.2581  0.7833
 6388SOL    HW230798   0.357   4.525   6.768  0.2223  0.4940 -0.5428
 6389SOL     OW30799   2.896   4.459  17.068  0.3298 -0.2754  0.5966
 6389SOL    HW130800   2.882   4.536  17.124 -2.4232 -1.9003  2.1278
 6389SOL    HW230801   2.830   4.404  17.109  0.7766  0.3792  2.2050
 6390SOL     OW30802   4.711   3.938   8.124  0.1656 -0.0659  0.0033
 6390SOL    HW130803   4.656   3.901   8.055  0.6034  1.1846 -1.0200
 6390SOL    HW230804   0.013   4.019   8.086  0.6915 -0.6337 -0.7478
 6391SOL     OW30805   3.669   3.494  13.288  0.2095  0.4169 -0.4461
 6391SOL    HW130806   3.746   3.495  13.344 -0.9077  2.1444  1.0585
 6391SOL    HW230807   3.625   3.578  13.303  1.7375  1.0089  0.6972
 6392SOL     OW30808   2.217   4.615  10.849  0.6599 -0.6073  0.1023
 6392SOL    HW130809   2.230   4.595  10.942 -4.2485  0.7794  1.1388
 6392SOL    HW230810   2.258   4.701  10.840  0.2399 -0.6263 -1.8568
 6393SOL     OW30811   2.400   2.075   6.428  0.5174 -0.0186 -0.0441
 6393SOL    HW130812   2.343   2.047   6.500  0.0587  0.6070 -0.1716
 6393SOL    HW230813   2.345   2.109   6.358 -0.7295 -1.3724  0.2606
 6394SOL     OW30814   4.300   2.746  15.537 -0.0230 -0.3256 -0.1673
 6394SOL    HW130815   4.222   2.763  15.588  0.0981 -0.8834  0.1978
 6394SOL    HW230816   4.377   2.768  15.589 -1.4130  1.9585  0.9353
 6395SOL     OW30817   1.954   2.619   1.322 -0.3726  1.0039  0.0829
 6395SOL    HW130818   1.906   2.671   1.257 -0.6010  3.3169  2.0667
 6395SOL    HW230819   1.880   2.562   1.344  0.7606 -0.0877  1.0425
 6396SOL     OW30820   4.658   4.583   7.601  0.2238 -1.0203  0.1704
 6396SOL    HW130821   4.669   4.528   7.679  0.8675 -4.2634 -2.2195
 6396SOL    HW230822   4.566   4.566   7.579 -0.5299  1.7928  1.1619
 6397SOL     OW30823   1.876   3.664  14.510 -0.6424  0.5166  0.4487
 6397SOL    HW130824   1.863   3.637  14.419 -1.2237 -0.4888  0.8237
 6397SOL    HW230825   1.801   3.616  14.546 -1.0918  1.1836  0.3966
 6398SOL     OW30826   3.649   4.001   3.013  0.1061  0.7797  0.0155
 6398SOL    HW130827   3.614   3.920   3.050  0.9275 -0.1436 -1.2337
 6398SOL    HW230828   3.593   4.020   2.937 -0.3619 -2.4008 -0.4559
 6399SOL     OW30829   2.429   0.875   7.873  0.7083 -0.5138  0.3969
 6399SOL    HW130830   2.491   0.920   7.930  2.5509  0.7984 -2.6506
 6399SOL    HW230831   2.399   0.947   7.818  2.4107 -1.0982 -1.2802
 6400SOL     OW30832   2.089   2.225   5.769 -0.3445 -0.2392  0.4015
 6400SOL    HW130833   2.105   2.229   5.675  1.4450 -2.0059  0.6248
 6400SOL    HW230834   1.999   2.258   5.774 -0.9873 -2.1050  1.1426
 6401SOL     OW30835   4.370   4.690  14.987  0.1428  0.1039  0.2098
 6401SOL    HW130836   4.320   4.659  14.911  1.2499 -1.9777  0.3238
 6401SOL    HW230837   4.308   0.019  15.026 -0.0262  0.3291 -0.4244
 6402SOL     OW30838   2.260   0.002   6.633  0.2450 -0.2723 -0.6620
 6402SOL    HW130839   2.348   4.723   6.597  1.2434  0.7287  1.4922
 6402SOL    HW230840   2.259   0.097   6.642  0.1698 -0.4293  0.9392
 6403SOL     OW30841   3.069   0.187   4.347 -0.5180  0.4214 -0.2260
 6403SOL    HW130842   2.975   0.183   4.367 -0.7884  0.4097 -1.5261
 6403SOL    HW230843   3.090   0.280   4.343 -2.4275  1.0279  3.3724
 6404SOL     OW30844   0.753   0.237   3.598  0.2049 -0.5851 -0.4710
 6404SOL    HW130845   0.758   0.142   3.610  2.3133 -0.6040 -1.4669
 6404SOL    HW230846   0.814   0.263   3.666  0.6298 -1.6636 -0.4398
 6405SOL     OW30847   3.214   2.228   8.972  0.2674 -0.6384  0.6464
 6405SOL    HW130848   3.194   2.217   8.879  1.3427 -1.0244  0.4724
 6405SOL    HW230849   3.127   2.230   9.013  0.4253  0.0573  0.9560
 6406SOL     OW30850   0.590   3.543   8.137 -0.1403 -0.0972 -0.0153
 6406SOL    HW130851   0.529   3.558   8.209  1.3496  0.2005  1.1754
 6406SOL    HW230852   0.559   3.610   8.075 -0.2691 -0.2746 -0.1424
 6407SOL     OW30853   1.899   1.070   7.983  0.6532 -0.2123 -0.5225
 6407SOL    HW130854   1.896   1.118   8.066  1.7038 -0.0435 -0.5857
 6407SOL    HW230855   1.935   0.987   8.013 -0.9517  0.0167  2.0612
 6408SOL     OW30856   3.597   1.680  10.008 -0.0634  0.3229 -0.4126
 6408SOL    HW130857   3.589   1.712   9.918  1.2410 -0.3942 -0.7882
 6408SOL    HW230858   3.511   1.696  10.046  0.3542 -0.0618  0.7216
 6409SOL     OW30859   3.524   1.437  13.899  0.5911  0.5935 -0.2447
 6409SOL    HW130860   3.508   1.528  13.873 -0.0310  0.1700 -1.3305
 6409SOL    HW230861   3.613   1.420  13.869  0.4896 -0.8354  0.2920
 6410SOL     OW30862   3.062   0.978   6.432 -0.0231  0.1307  0.4532
 6410SOL    HW130863   3.144   0.994   6.385  0.1573  1.0861  1.0810
 6410SOL    HW230864   3.015   1.058   6.408 -2.2565 -0.7925  1.7507
 6411SOL     OW30865   2.916   0.911  16.122  0.8618  0.0633  0.3889
 6411SOL    HW130866   2.935   0.859  16.200 -1.4667 -1.1996  0.1298
 6411SOL    HW230867   3.005   0.902  16.088  0.9100 -0.2480  0.5945
 6412SOL     OW30868   0.608   3.351   1.796 -0.2280 -0.2366 -0.3071
 6412SOL    HW130869   0.568   3.419   1.850 -0.6026 -2.1633  1.8314
 6412SOL    HW230870   0.585   3.265   1.831 -1.4745 -0.2512 -1.1399
 6413SOL     OW30871   0.135   1.797   6.012  0.0977 -0.3004 -0.5450
 6413SOL    HW130872   0.074   1.802   6.085 -0.3518  1.3949 -1.0282
 6413SOL    HW230873   0.195   1.734   6.053  0.2761  2.3196  3.2765
 6414SOL     OW30874   1.807   0.903  15.473 -0.0875 -0.3221 -0.1957
 6414SOL    HW130875   1.729   0.864  15.512 -1.4052  2.6217  0.1382
 6414SOL    HW230876   1.868   0.876  15.542  0.0409  1.0313  0.2260
 6415SOL     OW30877   2.909   1.650   5.930  0.0494 -0.2663  0.0605
 6415SOL    HW130878   2.867   1.702   5.999  0.6050  1.6624 -1.0581
 6415SOL    HW230879   2.930   1.710   5.858 -0.4053  0.6643  0.6991
 6416SOL     OW30880   3.997   4.395  10.085  0.0557  0.5331 -0.2367
 6416SOL    HW130881   3.913   4.433  10.109  0.4297  0.3477  1.3404
 6416SOL    HW230882   3.973   4.396   9.992  0.1067 -0.6517 -0.2654
 6417SOL     OW30883   0.911   0.826   8.225  0.0891 -0.4416 -0.3170
 6417SOL    HW130884   0.827   0.827   8.178  0.3992 -2.1887 -0.8986
 6417SOL    HW230885   0.942   0.737   8.207 -0.2536 -0.9490  1.6737
 6418SOL     OW30886   0.434   4.696  10.043 -0.0410  0.0086 -0.0945
 6418SOL    HW130887   0.425   4.613  10.090 -2.3559  2.7851  4.3245
 6418SOL    HW230888   0.373   4.670   9.974  0.8750  1.1066 -1.3015
 6419SOL     OW30889   0.037   1.089  11.961 -0.8718 -0.3585 -0.0180
 6419SOL    HW130890   4.712   1.029  12.010 -1.1973  1.3095  1.6223
 6419SOL    HW230891   4.716   1.168  11.968 -1.6886 -0.9104  0.1202
 6420SOL     OW30892   2.192   4.154   3.313  0.2243  0.5294  0.3558
 6420SOL    HW130893   2.129   4.184   3.248 -2.4539 -0.9968  2.2245
 6420SOL    HW230894   2.146   4.184   3.392 -0.3341  1.8423 -0.4711
 6421SOL     OW30895   2.322   2.655   3.058 -0.2986  0.2722 -0.0545
 6421SOL    HW130896   2.244   2.710   3.061 -2.1618 -2.2251 -2.0074
 6421SOL    HW230897   2.362   2.676   3.143  2.9527  1.6755 -1.9217
 6422SOL     OW30898   0.281   0.184   2.877 -0.0696 -0.7599  0.2489
 6422SOL    HW130899   0.359   0.150   2.922  0.1284 -0.7761 -0.1071
 6422SOL    HW230900   0.306   0.274   2.857 -0.8884 -0.6001 -0.0723
 6423SOL     OW30901   4.216   2.314   7.074 -0.2574 -0.1071  0.0987
 6423SOL    HW130902   4.176   2.387   7.122 -0.7289  0.7151 -1.5451
 6423SOL    HW230903   4.262   2.269   7.145 -0.4182 -0.9466 -0.3310
 6424SOL     OW30904   3.217   0.775  11.450 -0.3437  0.5250 -0.1654
 6424SOL    HW130905   3.140   0.718  11.455  1.9024 -2.6507 -1.7218
 6424SOL    HW230906   3.287   0.716  11.477  2.1876  3.1909 -0.9461
 6425SOL     OW30907   1.769   1.719   9.166  0.3558  0.5526 -0.6054
 6425SOL    HW130908   1.778   1.640   9.113  1.5524 -1.5334  2.7258
 6425SOL    HW230909   1.731   1.772   9.096 -2.0280 -0.0761  0.2276
 6426SOL     OW30910   2.679   3.795  14.054  0.6043 -0.1316 -0.4846
 6426SOL    HW130911   2.703   3.722  13.997 -0.5749  0.3183 -1.5610
 6426SOL    HW230912   2.746   3.860  14.034  0.3890  0.5072  0.8652
 6427SOL     OW30913   3.345   2.584  10.805 -0.1065 -0.0178  0.1749
 6427SOL    HW130914   3.373   2.646  10.738 -0.3007 -0.2603 -0.1296
 6427SOL    HW230915   3.395   2.612  10.882 -0.6398  1.4056  0.0016
 6428SOL     OW30916   4.667   3.802   4.881 -0.6412 -0.2836 -0.0935
 6428SOL    HW130917   4.579   3.814   4.918 -0.3526  1.7674 -0.0828
 6428SOL    HW230918   4.693   3.757   4.962 -0.0143 -2.0045 -1.2619
 6429SOL     OW30919   0.290   0.376   8.291 -0.4520 -0.4407 -0.6875
 6429SOL    HW130920   0.248   0.305   8.338  1.0269 -1.0455 -0.2617
 6429SOL    HW230921   0.302   0.443   8.359  0.8558 -0.5381 -0.8126
 6430SOL     OW30922   2.237   3.809   7.379 -0.6722  0.0857  0.2648
 6430SOL    HW130923   2.249   3.867   7.304  1.3594  0.6035  1.0041
 6430SOL    HW230924   2.322   3.764   7.384  0.5138  2.4804  1.6675
 6431SOL     OW30925   2.720   0.464  10.525 -0.3798 -0.1924  0.2097
 6431SOL    HW130926   2.809   0.447  10.493 -0.7363 -1.3572 -0.1522
 6431SOL    HW230927   2.682   0.451  10.438 -1.0642 -2.7667  0.8817
 6432SOL     OW30928   3.552   0.793   5.690 -0.2200 -1.0317  0.8225
 6432SOL    HW130929   3.535   0.713   5.641 -2.1458 -1.0525  1.5344
 6432SOL    HW230930   3.497   0.776   5.767 -1.3935  2.8380  0.8215
 6433SOL     OW30931   1.862   4.522  17.129  0.3258  0.7850  0.2596
 6433SOL    HW130932   1.896   4.493  17.044 -4.2125 -1.7575 -0.6696
 6433SOL    HW230933   1.805   4.450  17.155 -0.4692  1.0016 -0.9022
 6434SOL     OW30934   3.963   2.318  17.402 -0.7805 -0.0123 -0.6235
 6434SOL    HW130935   3.987   2.269  17.480 -0.0995  0.5629 -0.4772
 6434SOL    HW230936   4.051   2.314  17.363 -0.3079  2.2578  0.2408
 6435SOL     OW30937   2.326   2.144   7.831  0.1413 -0.0604  0.3910
 6435SOL    HW130938   2.232   2.127   7.830 -0.2204  1.7522  2.5092
 6435SOL    HW230939   2.358   2.054   7.832 -1.2942 -0.5654  1.2067
 6436SOL     OW30940   2.329   1.859   2.156  0.2399 -0.3991 -0.5412
 6436SOL    HW130941   2.254   1.880   2.101 -0.9538 -0.9417  0.8623
 6436SOL    HW230942   2.404   1.853   2.097  0.2654  0.4033 -0.5937
 6437SOL     OW30943   1.402   0.111  12.263 -0.3070 -0.9056 -0.0782
 6437SOL    HW130944   1.451   0.190  12.244  0.8829 -1.0219  2.4726
 6437SOL    HW230945   1.309   0.129  12.248 -0.1770 -1.1922 -1.2567
 6438SOL     OW30946   4.323   0.250   6.626 -0.1339  0.1040 -0.1961
 6438SOL    HW130947   4.344   0.291   6.710  1.6751  1.1580 -1.1374
 6438SOL    HW230948   4.410   0.217   6.603 -0.1911  1.3448 -2.1759
 6439SOL     OW30949   0.546   4.016   2.918 -0.2991  0.1518  0.5519
 6439SOL    HW130950   0.632   4.051   2.945  0.0858 -2.1707  2.3050
 6439SOL    HW230951   0.530   3.958   2.992  0.6426 -1.7724 -0.7570
 6440SOL     OW30952   2.079   2.196   9.061  0.3554 -0.2385 -0.2149
 6440SOL    HW130953   2.002   2.246   9.086  1.2374  0.3964  1.1861
 6440SOL    HW230954   2.042   2.117   9.022 -1.2578  0.5902 -0.3562
 6441SOL     OW30955   2.800   2.848   8.549  0.2694 -0.0880  0.2615
 6441SOL    HW130956   2.742   2.771   8.544 -1.0292  0.8203  1.2491
 6441SOL    HW230957   2.763   2.901   8.478  1.6868  1.3910  0.6416
 6442SOL     OW30958   2.644   1.510   6.400  0.2245 -0.3025  0.3230
 6442SOL    HW130959   2.650   1.415   6.411 -3.4321 -0.4881  0.6260
 6442SOL    HW230960   2.722   1.541   6.446  1.0449  0.0312 -1.2779
 6443SOL     OW30961   2.169   1.250   3.963 -0.1075 -0.6606  0.2303
 6443SOL    HW130962   2.210   1.257   3.877 -1.8920 -1.5275 -0.7024
 6443SOL    HW230963   2.237   1.218   4.023 -0.7434 -0.5826  0.9963
 6444SOL     OW30964   0.345   4.224   6.859  0.2663 -0.3490 -0.1044
 6444SOL    HW130965   0.309   4.149   6.810 -0.5096 -0.4536  0.6252
 6444SOL    HW230966   0.274   4.242   6.921  0.3826 -0.7940  0.1597
 6445SOL     OW30967   0.270   0.304   9.999  0.4255 -0.4705 -0.2003
 6445SOL    HW130968   0.227   0.239  10.054  0.3982  0.1686  0.5376
 6445SOL    HW230969   0.329   0.344  10.063 -0.9603 -0.9739  1.3922
 6446SOL     OW30970   2.576   1.821   2.541  0.2324  0.3175  0.3053
 6446SOL    HW130971   2.545   1.821   2.631  0.8242 -0.7057  0.5203
 6446SOL    HW230972   2.594   1.731   2.514  1.5232  1.2921 -2.1276
 6447SOL     OW30973   0.613   3.328   4.368  0.3958 -0.0803  0.3694
 6447SOL    HW130974   0.567   3.259   4.321  1.8819  0.3434 -1.7173
 6447SOL    HW230975   0.606   3.409   4.316  1.7248 -0.1857  0.0248
 6448SOL     OW30976   1.858   1.412   6.084  0.3088 -0.5278 -0.2514
 6448SOL    HW130977   1.833   1.339   6.027 -1.1663  1.1245 -1.6933
 6448SOL    HW230978   1.939   1.372   6.117  1.9823 -0.9498 -4.8402
 6449SOL     OW30979   3.589   4.616  13.825 -0.4396  0.1422 -0.3248
 6449SOL    HW130980   3.513   4.592  13.878  1.2983 -3.3990  0.5785
 6449SOL    HW230981   3.638   4.534  13.817 -0.1506  0.1574  1.3799
 6450SOL     OW30982   0.808   4.152  14.205 -0.1689  0.3450 -0.2599
 6450SOL    HW130983   0.864   4.099  14.147 -0.5386  1.1095 -1.3258
 6450SOL    HW230984   0.872   4.181  14.270  0.2249 -0.6684 -0.1857
 6451SOL     OW30985   2.334   4.374  14.582  0.2211  0.3079 -0.1814
 6451SOL    HW130986   2.360   4.412  14.498  0.8280 -0.0527 -0.1583
 6451SOL    HW230987   2.329   4.449  14.642  0.3741  0.3789 -0.2566
 6452SOL     OW30988   3.829   0.245   3.315  0.0868 -0.5702 -0.5411
 6452SOL    HW130989   3.781   0.292   3.246 -0.3501  2.2638  1.7041
 6452SOL    HW230990   3.771   0.171   3.331 -0.0361 -0.1776  0.8117
 6453SOL     OW30991   2.489   1.353   6.745 -0.1481 -0.2749  0.9242
 6453SOL    HW130992   2.518   1.441   6.765  2.2787 -0.9385  0.3062
 6453SOL    HW230993   2.425   1.368   6.675  1.8169  2.7468 -0.2409
 6454SOL     OW30994   1.319   2.627   5.183  0.7041 -0.0813  0.2218
 6454SOL    HW130995   1.339   2.689   5.254 -3.1942 -0.1861  1.4020
 6454SOL    HW230996   1.329   2.690   5.111  2.7964 -2.2300 -1.3871
 6455SOL     OW30997   0.095   0.837   1.740  0.2508 -0.6737 -0.1999
 6455SOL    HW130998   0.169   0.858   1.797  0.6967 -3.6407  0.2746
 6455SOL    HW230999   0.063   0.753   1.772 -1.4790 -0.0477 -0.2610
 6456SOL     OW31000   2.785   0.710   8.993  0.0473  0.3011 -0.3778
 6456SOL    HW131001   2.695   0.708   9.024 -0.6833  0.9241 -2.4324
 6456SOL    HW231002   2.777   0.657   8.913  0.6827  0.0123 -0.2557
 6457SOL     OW31003   0.154   0.140   3.725  0.4569  0.1738 -0.5677
 6457SOL    HW131004   0.221   0.074   3.744  1.1868  0.6079 -1.6476
 6457SOL    HW231005   0.205   0.216   3.698 -0.6243  1.1395  0.1165
 6458SOL     OW31006   3.762   1.368   3.526  0.2040  0.1891 -0.5139
 6458SOL    HW131007   3.688   1.375   3.466  1.5278 -2.2004 -2.4362
 6458SOL    HW231008   3.809   1.289   3.498  0.7030  1.9478 -4.5147
 6459SOL     OW31009   3.504   0.695  16.057 -0.5728  0.0140 -0.7277
 6459SOL    HW131010   3.445   0.626  16.087 -0.3373  0.5820  1.0004
 6459SOL    HW231011   3.506   0.747  16.137 -0.4946  0.0786 -0.7711
 6460SOL     OW31012   4.376   3.463   7.401  0.0615  0.5161 -0.7327
 6460SOL    HW131013   4.421   3.539   7.437  0.2112 -0.8354  1.8953
 6460SOL    HW231014   4.330   3.435   7.480  2.1905 -1.5008 -0.2310
 6461SOL     OW31015   2.181   2.210  16.838 -0.1160 -0.1883 -0.5330
 6461SOL    HW131016   2.125   2.183  16.911 -1.1594 -0.8883 -1.5893
 6461SOL    HW231017   2.267   2.191  16.876 -1.2592  0.1053  2.1518
 6462SOL     OW31018   4.529   3.167   5.746  0.8633  0.1980 -0.5833
 6462SOL    HW131019   4.544   3.177   5.840 -0.9121 -1.1348 -0.1442
 6462SOL    HW231020   4.520   3.072   5.756  1.1714  0.4695  2.3074
 6463SOL     OW31021   0.550   0.110   3.906 -0.3108 -0.0410 -0.4429
 6463SOL    HW131022   0.559   0.203   3.887  0.3664  0.5640  2.7645
 6463SOL    HW231023   0.643   0.087   3.900  0.3604  2.7250 -0.5195
 6464SOL     OW31024   0.523   1.490  16.382  0.1273 -0.9010 -0.3734
 6464SOL    HW131025   0.500   1.572  16.427  2.7423 -0.6307  0.4419
 6464SOL    HW231026   0.505   1.423  16.448  0.0099 -0.5416 -0.0389
 6465SOL     OW31027   4.177   2.849   6.640 -0.7548 -0.0735 -0.1688
 6465SOL    HW131028   4.176   2.757   6.613  1.1157 -0.3410  0.6425
 6465SOL    HW231029   4.136   2.846   6.726 -0.4950 -0.9622 -0.0781
 6466SOL     OW31030   3.142   0.362   3.255 -0.2729  0.4872  0.2799
 6466SOL    HW131031   3.132   0.444   3.206 -1.0439 -0.6305 -1.4128
 6466SOL    HW231032   3.177   0.309   3.183 -1.1562 -0.7796  0.7931
 6467SOL     OW31033   1.317   4.148   6.475 -0.2846 -0.1926 -0.2033
 6467SOL    HW131034   1.398   4.148   6.424 -0.3477  3.1313 -0.2922
 6467SOL    HW231035   1.356   4.142   6.562 -0.4252  1.8369 -0.0025
 6468SOL     OW31036   3.425   0.835   0.404  0.0598 -0.0569 -0.0372
 6468SOL    HW131037   3.520   0.838   0.391 -0.2175  0.2243 -2.0586
 6468SOL    HW231038   3.384   0.867   0.324  3.1068  1.9146 -0.7973
 6469SOL     OW31039   3.037   3.888  13.069 -0.3252  0.5450  1.1394
 6469SOL    HW131040   2.993   3.907  12.986  0.0077 -0.1236  0.8084
 6469SOL    HW231041   3.046   3.980  13.095 -0.7287  0.7172  0.6805
 6470SOL     OW31042   2.688   1.117   2.499  0.1178  0.2772  0.2338
 6470SOL    HW131043   2.770   1.108   2.449 -0.7306 -2.3680 -0.6766
 6470SOL    HW231044   2.731   1.152   2.576 -1.7061  1.7647  0.5727
 6471SOL     OW31045   1.207   0.121   5.492  0.5223 -0.4391  0.6113
 6471SOL    HW131046   1.122   0.087   5.522  0.6356 -1.1034  0.1679
 6471SOL    HW231047   1.261   0.044   5.508  0.1247 -1.3062 -2.3932
 6472SOL     OW31048   3.167   3.765   8.473 -0.3149  0.6538 -0.4819
 6472SOL    HW131049   3.191   3.752   8.565 -1.9478  1.9641  0.1213
 6472SOL    HW231050   3.255   3.779   8.437 -0.4776 -1.1076 -1.5387
 6473SOL     OW31051   3.896   1.199   3.061 -0.0798 -0.3532 -0.6793
 6473SOL    HW131052   3.912   1.286   3.099 -1.0451 -0.5795  0.2505
 6473SOL    HW231053   3.961   1.150   3.112  0.1040  0.7140  0.1248
 6474SOL     OW31054   2.628   2.324   2.974  0.1280 -0.1486  0.2780
 6474SOL    HW131055   2.651   2.358   3.060 -0.4386 -1.0073  0.7721
 6474SOL    HW231056   2.579   2.393   2.929 -2.8210 -0.6876  2.7493
 6475SOL     OW31057   3.635   1.938  12.322 -0.3543 -0.1153 -0.3474
 6475SOL    HW131058   3.721   1.900  12.340  0.4328  1.2795 -1.0717
 6475SOL    HW231059   3.575   1.884  12.372 -0.1102  0.0424  0.1128
 6476SOL     OW31060   1.629   0.780   5.606  0.0745  0.3180 -0.0140
 6476SOL    HW131061   1.576   0.774   5.526  0.9503 -0.3810 -0.5398
 6476SOL    HW231062   1.714   0.743   5.581  0.3339  0.9308 -0.0503
 6477SOL     OW31063   3.279   1.672   2.532  0.2739 -0.2747 -0.0813
 6477SOL    HW131064   3.234   1.721   2.463  0.0118 -2.6219 -1.5655
 6477SOL    HW231065   3.205   1.614   2.548 -1.5299  1.9290 -0.4092
 6478SOL     OW31066   0.182   1.385   2.604 -0.1724 -0.1805 -0.3234
 6478SOL    HW131067   0.241   1.459   2.616 -1.7696  1.1200 -0.6591
 6478SOL    HW231068   0.095   1.425   2.602  0.4858  1.2435 -0.0639
 6479SOL     OW31069   0.442   2.547   8.590  0.3448  0.4294  0.2682
 6479SOL    HW131070   0.388   2.624   8.573  1.0611  0.5459 -1.5978
 6479SOL    HW231071   0.405   2.483   8.528 -0.7734  0.5439  0.8373
 6480SOL     OW31072   1.304   0.087   1.341 -0.5992  0.0518 -0.5426
 6480SOL    HW131073   1.308   4.725   1.357  0.4239  0.1429 -0.2664
 6480SOL    HW231074   1.382   0.115   1.388 -0.6305  0.9451 -1.0198
 6481SOL     OW31075   1.283   1.524  15.536  0.5542 -0.0509  1.0228
 6481SOL    HW131076   1.350   1.462  15.506 -0.5195 -0.8151  0.2404
 6481SOL    HW231077   1.256   1.482  15.617  1.6765  0.3526  1.6170
 6482SOL     OW31078   4.043   1.185   4.012 -0.0825  0.6641  0.3821
 6482SOL    HW131079   4.027   1.101   4.056  1.5668  0.3953  0.4558
 6482SOL    HW231080   4.095   1.152   3.940 -0.0371  3.9937 -1.1084
 6483SOL     OW31081   1.077   3.472   9.597 -1.3197 -0.3840 -0.0163
 6483SOL    HW131082   1.160   3.492   9.555 -1.5205 -2.6582 -1.5084
 6483SOL    HW231083   1.098   3.400   9.656 -1.9639  1.2888  2.2272
 6484SOL     OW31084   0.093   3.661   7.667 -0.5808 -0.0035 -0.8367
 6484SOL    HW131085   0.125   3.596   7.604  1.0077  1.2971 -1.3461
 6484SOL    HW231086   0.175   3.710   7.668 -0.4064 -0.2923 -0.8241
 6485SOL     OW31087   4.402   3.013  12.064  0.2506 -0.4694  0.3548
 6485SOL    HW131088   4.465   3.082  12.089  1.5480 -1.3214 -0.5370
 6485SOL    HW231089   4.441   2.932  12.096  0.7662 -0.1361  0.5881
 6486SOL     OW31090   1.907   2.446  13.716 -0.0776  0.0604 -0.8073
 6486SOL    HW131091   1.929   2.430  13.808 -1.6470  1.2661 -0.2247
 6486SOL    HW231092   1.824   2.400  13.704  1.5561 -3.6224  1.8705
 6487SOL     OW31093   2.346   4.006   2.008  0.2206  0.0522 -0.1291
 6487SOL    HW131094   2.308   3.919   2.007  0.0912  0.1121 -0.5617
 6487SOL    HW231095   2.427   3.992   2.058  1.1702  1.6700 -1.1804
 6488SOL     OW31096   4.713   1.653  14.502  0.2528 -0.4240 -0.3304
 6488SOL    HW131097   4.732   1.590  14.571  0.1825 -0.4709 -0.3543
 6488SOL    HW231098   0.071   1.676  14.478 -0.3856  2.0447 -0.4136
 6489SOL     OW31099   4.229   4.410   6.905  0.0802 -0.3182  0.2953
 6489SOL    HW131100   4.264   4.322   6.922 -1.3937 -0.5605  2.0346
 6489SOL    HW231101   4.142   4.401   6.944 -1.2102 -0.5596 -2.6165
 6490SOL     OW31102   4.192   0.838  12.605 -0.4432  0.4252  0.1769
 6490SOL    HW131103   4.178   0.743  12.604 -0.1748  0.4453 -4.0754
 6490SOL    HW231104   4.280   0.840  12.567 -0.7056 -3.8132 -0.6403
 6491SOL     OW31105   1.225   0.880   6.401 -0.1567 -0.1126  0.0551
 6491SOL    HW131106   1.210   0.962   6.448  0.3103 -0.2771  0.4911
 6491SOL    HW231107   1.136   0.847   6.403  0.2966 -1.3105  0.9215
 6492SOL     OW31108   3.906   3.498  10.052 -0.1393  0.5243 -0.5623
 6492SOL    HW131109   3.987   3.501  10.102 -1.1022 -1.7040  1.1295
 6492SOL    HW231110   3.914   3.407  10.023  1.0151  0.1837  0.8200
 6493SOL     OW31111   0.039   4.532   9.607 -0.3412  0.2079  0.6163
 6493SOL    HW131112   0.047   4.487   9.691 -0.2915  2.2035  1.6798
 6493SOL    HW231113   0.116   4.503   9.557  0.2154  1.9049  0.4817
 6494SOL     OW31114   0.288   3.977   6.671 -0.4651  0.2356 -0.4259
 6494SOL    HW131115   0.281   3.896   6.620 -1.4568 -0.0611  0.1950
 6494SOL    HW231116   0.195   4.000   6.677 -0.7442 -1.5529  2.2886
 6495SOL     OW31117   4.587   3.067   4.933 -0.8207  0.9661  0.4406
 6495SOL    HW131118   4.593   2.972   4.939 -0.7905  1.0766  1.9808
 6495SOL    HW231119   4.571   3.084   5.025  0.0291 -1.2222  0.9912
 6496SOL     OW31120   1.975   3.348   7.047  0.3918 -0.3472 -0.9112
 6496SOL    HW131121   2.071   3.342   7.055  0.6054  0.9664 -2.4960
 6496SOL    HW231122   1.955   3.257   7.029  0.0113 -1.2715  4.2239
 6497SOL     OW31123   4.147   4.128   8.313 -0.6675 -0.1053 -0.4061
 6497SOL    HW131124   4.160   4.214   8.352 -2.1324 -0.8377  1.7142
 6497SOL    HW231125   4.069   4.110   8.365 -1.1295  0.9216 -0.7511
 6498SOL     OW31126   4.571   2.345   9.374 -0.0092  0.5450 -0.6033
 6498SOL    HW131127   4.628   2.385   9.308  0.9960  1.2726  0.6958
 6498SOL    HW231128   4.580   2.255   9.345 -1.2562  0.5149 -0.8915
 6499SOL     OW31129   2.992   4.675   6.102 -0.3088 -0.7133 -0.0592
 6499SOL    HW131130   2.976   4.671   6.196 -0.9175  2.8171 -0.0142
 6499SOL    HW231131   3.084   4.651   6.094  0.3452  2.5709 -2.7441
 6500SOL     OW31132   0.816   2.421   4.269 -0.3910 -0.2162 -0.0125
 6500SOL    HW131133   0.784   2.507   4.296 -0.8060 -0.7562  1.2414
 6500SOL    HW231134   0.812   2.379   4.355 -1.8209 -2.4947 -1.1653
 6501SOL     OW31135   1.369   2.081   8.550 -0.0105 -0.2010 -0.1703
 6501SOL    HW131136   1.399   2.116   8.466  1.1182 -1.1759 -0.1772
 6501SOL    HW231137   1.378   1.988   8.531  2.0614  0.2744 -1.5732
 6502SOL     OW31138   1.362   3.582   2.960 -0.0661  0.1075  0.0282
 6502SOL    HW131139   1.432   3.546   3.014  0.6752 -0.1262 -1.0914
 6502SOL    HW231140   1.285   3.537   2.995  0.7977 -1.0700  0.4033
 6503SOL     OW31141   1.640   3.281  11.059 -0.1330 -0.0189 -0.1983
 6503SOL    HW131142   1.710   3.261  11.122  1.3786  1.3842 -1.4081
 6503SOL    HW231143   1.667   3.214  10.995  1.6165 -0.3939  0.9223
 6504SOL     OW31144   3.591   0.805   3.016 -0.0887 -0.2999  0.2433
 6504SOL    HW131145   3.511   0.858   3.014 -0.2434 -0.6541 -2.8133
 6504SOL    HW231146   3.591   0.793   3.111  0.5697  0.6435  0.3558
 6505SOL     OW31147   0.017   2.803  13.772 -0.4977 -0.3713  0.5300
 6505SOL    HW131148   0.069   2.814  13.851  0.0195  2.2236 -0.1853
 6505SOL    HW231149   4.720   2.712  13.784 -2.2004 -0.2259 -2.5006
 6506SOL     OW31150   0.438   2.017   3.716  0.7937 -0.3193  0.0474
 6506SOL    HW131151   0.395   1.946   3.668 -1.0242 -0.2396  1.6059
 6506SOL    HW231152   0.472   2.071   3.645 -1.2899 -0.3300 -0.9578
 6507SOL     OW31153   2.767   0.724   3.863  0.2284  0.0673 -0.2465
 6507SOL    HW131154   2.740   0.807   3.823 -1.8443 -0.0266  0.9579
 6507SOL    HW231155   2.728   0.727   3.950  0.4017 -0.2187 -0.1581
 6508SOL     OW31156   1.245   1.148   9.213 -0.4574  0.3506  0.7125
 6508SOL    HW131157   1.308   1.153   9.285 -0.2834 -0.9402  0.6519
 6508SOL    HW231158   1.188   1.225   9.220 -1.0313  0.0736 -0.8652
 6509SOL     OW31159   2.114   2.946  13.476 -0.4494  0.3107  0.5576
 6509SOL    HW131160   2.162   3.019  13.436  0.6569 -0.4626  0.4695
 6509SOL    HW231161   2.160   2.933  13.559 -0.8673 -1.5328  0.5005
 6510SOL     OW31162   4.070   0.840  12.023  0.2338 -0.1604  0.4791
 6510SOL    HW131163   4.046   0.926  12.057 -0.7378 -0.5048  0.6670
 6510SOL    HW231164   4.056   0.860  11.930 -1.1861  0.8611  0.9099
 6511SOL     OW31165   1.060   4.090   5.059 -0.1031  0.1437 -0.4253
 6511SOL    HW131166   1.152   4.073   5.039  0.1332  1.4560 -0.4808
 6511SOL    HW231167   1.063   4.060   5.149  2.0583  1.1535 -0.1719
 6512SOL     OW31168   2.525   3.888   4.328  0.4900  0.1715  0.2666
 6512SOL    HW131169   2.508   3.915   4.418 -0.9034  0.6527 -0.1377
 6512SOL    HW231170   2.617   3.863   4.334  0.6685  1.6501  3.3106
 6513SOL     OW31171   3.115   3.420   8.230  0.7016 -0.0586  0.2886
 6513SOL    HW131172   3.060   3.389   8.159  0.0195  1.9808 -0.0769
 6513SOL    HW231173   3.110   3.515   8.215  0.0217 -0.4655 -2.0215
 6514SOL     OW31174   1.980   2.903   8.021 -0.6962  0.3600 -0.2985
 6514SOL    HW131175   2.027   2.825   8.050  0.9834  1.6071  0.3103
 6514SOL    HW231176   2.024   2.961   8.082 -0.1743 -0.0704 -0.2651
 6515SOL     OW31177   1.105   2.189   2.745  0.1604  0.3125 -0.2607
 6515SOL    HW131178   1.158   2.132   2.689  0.2608 -0.3641  0.5305
 6515SOL    HW231179   1.027   2.202   2.690 -0.8329  1.2769  1.3670
 6516SOL     OW31180   3.932   1.090  12.067  0.1821 -0.0139  0.1680
 6516SOL    HW131181   3.867   1.070  12.135 -1.4534  0.2411 -1.3417
 6516SOL    HW231182   3.933   1.186  12.062  0.1645 -0.1089 -1.4250
 6517SOL     OW31183   4.198   1.769  15.874  0.1968 -0.2536 -0.4050
 6517SOL    HW131184   4.163   1.816  15.798 -3.1692  2.1074  2.5827
 6517SOL    HW231185   4.221   1.692  15.823 -1.6140 -0.6845 -0.5661
 6518SOL     OW31186   3.398   2.138   6.494 -0.4368 -0.0765  0.2854
 6518SOL    HW131187   3.308   2.148   6.523 -0.5425  2.9754 -1.0420
 6518SOL    HW231188   3.419   2.050   6.526 -0.4143 -0.2642 -0.2337
 6519SOL     OW31189   4.590   1.499   3.068 -0.4043  0.1134  0.1855
 6519SOL    HW131190   4.652   1.533   3.133 -2.1851  1.5268  1.1433
 6519SOL    HW231191   4.630   1.413   3.055 -2.6351 -1.1749  1.7492
 6520SOL     OW31192   1.713   4.352   6.243  0.6139  1.3440 -0.3397
 6520SOL    HW131193   1.751   4.415   6.303 -2.7876  1.4869  1.6720
 6520SOL    HW231194   1.628   4.391   6.219  0.8099  2.7150  1.2161
 6521SOL     OW31195   1.063   0.571   7.122 -0.2842 -0.3596 -0.0163
 6521SOL    HW131196   1.156   0.583   7.101 -0.5571  0.4877 -0.7630
 6521SOL    HW231197   1.062   0.608   7.210  1.0617 -1.2535  0.3822
 6522SOL     OW31198   4.349   1.601  14.768 -0.0021  0.4234 -0.0741
 6522SOL    HW131199   4.370   1.520  14.813  0.0026  1.7579  2.3204
 6522SOL    HW231200   4.421   1.656  14.798 -0.3700  1.7897 -1.6766
 6523SOL     OW31201   3.118   0.571   4.839  0.3241 -0.3293  0.2721
 6523SOL    HW131202   3.065   0.644   4.805 -1.0848 -1.5725 -0.2140
 6523SOL    HW231203   3.164   0.606   4.914  0.7597  2.6319 -1.3927
 6524SOL     OW31204   3.985   4.543   4.417  0.0587  0.2347 -0.0533
 6524SOL    HW131205   3.973   4.607   4.347  0.1576 -0.1085 -0.3805
 6524SOL    HW231206   4.060   4.496   4.380 -0.2837  0.3628 -0.9061
 6525SOL     OW31207   1.190   0.833   4.152  0.1769  0.1007  0.0575
 6525SOL    HW131208   1.180   0.833   4.057 -0.7819 -1.1845  0.1537
 6525SOL    HW231209   1.179   0.738   4.164 -2.5985  0.4373  0.3082
 6526SOL     OW31210   3.998   1.972  17.405  1.0662  0.4432  0.2142
 6526SOL    HW131211   4.034   1.887  17.430 -1.4280 -0.0899  2.0033
 6526SOL    HW231212   4.043   1.982  17.321 -2.1694  1.3050 -1.4293
 6527SOL     OW31213   1.366   1.420   2.778 -0.0074  0.6049 -0.4901
 6527SOL    HW131214   1.389   1.415   2.871  1.5671  0.8341 -0.8604
 6527SOL    HW231215   1.271   1.410   2.782  0.0370  0.0348 -0.8826
 6528SOL     OW31216   0.707   3.287   7.520 -0.1853  0.6621 -0.4385
 6528SOL    HW131217   0.639   3.221   7.523 -0.0000  0.6213  2.7687
 6528SOL    HW231218   0.775   3.259   7.581 -0.4409  3.9376  1.3620
 6529SOL     OW31219   2.151   2.410  10.330 -0.2167  0.4772 -0.1721
 6529SOL    HW131220   2.083   2.447  10.387 -0.3663 -0.8424  0.5117
 6529SOL    HW231221   2.134   2.317  10.341 -4.0164  0.9189 -1.9898
 6530SOL     OW31222   2.053   2.212  11.947  0.3167  0.4511 -0.3192
 6530SOL    HW131223   2.046   2.129  11.900 -0.1905  0.2356  0.1366
 6530SOL    HW231224   1.994   2.204  12.022  1.4529  0.3226  0.5566
 6531SOL     OW31225   1.226   3.941   3.578 -0.1655  0.4919 -0.1561
 6531SOL    HW131226   1.277   4.021   3.567  2.7027 -1.1213  1.2772
 6531SOL    HW231227   1.208   3.920   3.486 -0.0237  1.2678 -0.3606
 6532SOL     OW31228   4.286   2.872   8.038  0.1624  1.0027  0.1177
 6532SOL    HW131229   4.193   2.850   8.043  0.3525  0.2647  0.3517
 6532SOL    HW231230   4.284   2.967   8.044 -1.1223  0.9421  0.6192
 6533SOL     OW31231   3.296   2.400   8.380  0.3953  0.0927  0.2032
 6533SOL    HW131232   3.349   2.339   8.432 -0.4686  0.3460  1.3752
 6533SOL    HW231233   3.374   2.435   8.336 -0.5105  3.4243  1.2778
 6534SOL     OW31234   4.504   0.447  16.137  0.7768 -0.8503 -1.0873
 6534SOL    HW131235   4.492   0.539  16.114 -0.3588 -1.3405 -2.4485
 6534SOL    HW231236   4.467   0.403  16.061 -0.9319  2.1480 -2.0244
 6535SOL     OW31237   1.660   2.612   5.032 -0.4943 -0.6368  0.2624
 6535SOL    HW131238   1.651   2.555   5.109  2.8651 -1.3165  0.1726
 6535SOL    HW231239   1.617   2.560   4.965 -1.1227 -0.3195  0.4218
 6536SOL     OW31240   4.458   4.264   3.214  0.3583  0.2409  0.1831
 6536SOL    HW131241   4.491   4.308   3.293 -1.3066  0.3530  0.8172
 6536SOL    HW231242   4.517   4.189   3.216 -1.3903 -1.0929  1.8729
 6537SOL     OW31243   1.823   3.912   7.587 -0.2102  0.0768 -0.0939
 6537SOL    HW131244   1.790   3.916   7.497 -0.6174 -0.2654  0.0401
 6537SOL    HW231245   1.919   3.908   7.585 -0.2951 -1.1495 -1.2595
 6538SOL     OW31246   4.284   1.304   4.909  0.1533  0.1009 -0.3923
 6538SOL    HW131247   4.336   1.224   4.921  1.5886  0.9798 -0.6802
 6538SOL    HW231248   4.301   1.350   4.991 -2.7389 -0.0685  0.2841
 6539SOL     OW31249   0.168   1.590   6.973  0.2593 -0.5469 -0.1050
 6539SOL    HW131250   0.138   1.571   7.062 -1.4775  1.3130 -0.2952
 6539SOL    HW231251   0.230   1.517   6.971  2.5332  1.3939 -0.7299
 6540SOL     OW31252   2.595   0.160  12.794  0.0021 -0.2276  0.0853
 6540SOL    HW131253   2.602   0.182  12.701 -1.3989  0.8508  0.2284
 6540SOL    HW231254   2.622   0.244  12.832 -1.8419  0.0482  0.7876
 6541SOL     OW31255   3.488   0.783  15.790  0.4675  0.2473  0.6848
 6541SOL    HW131256   3.482   0.878  15.803  2.1155  0.0124  3.1246
 6541SOL    HW231257   3.478   0.760  15.882  0.5008  0.0504  0.6394
 6542SOL     OW31258   3.582   2.583   5.117 -0.0286 -0.2429  0.3976
 6542SOL    HW131259   3.636   2.511   5.149  0.5948  0.7552  1.6413
 6542SOL    HW231260   3.515   2.538   5.067  0.5796  1.0358 -1.5804
 6543SOL     OW31261   2.777   3.443   6.460 -0.2497  0.1453  0.2438
 6543SOL    HW131262   2.709   3.476   6.518  0.1310 -2.2745  2.0986
 6543SOL    HW231263   2.757   3.493   6.381 -0.2113  1.0163  0.7909
 6544SOL     OW31264   1.964   4.520   7.119  0.2969  0.0237  0.3338
 6544SOL    HW131265   1.902   4.585   7.087  0.2963 -1.0938 -1.9616
 6544SOL    HW231266   1.990   4.474   7.039  2.4448  0.0601  1.0048
 6545SOL     OW31267   3.745   2.262   8.292  0.9365  0.4934  0.0326
 6545SOL    HW131268   3.790   2.344   8.311  0.7751  0.2545  1.3955
 6545SOL    HW231269   3.813   2.194   8.286 -1.5926 -1.9194 -1.5180
 6546SOL     OW31270   0.759   4.158   6.800 -0.2651 -0.2010 -0.4367
 6546SOL    HW131271   0.712   4.148   6.883 -2.6376 -0.7322 -1.8126
 6546SOL    HW231272   0.722   4.087   6.747 -1.2636 -1.7576  2.3556
 6547SOL     OW31273   0.199   1.191   2.418 -0.1669  0.0931 -0.1698
 6547SOL    HW131274   0.196   1.254   2.491 -1.3151  0.7963 -0.8329
 6547SOL    HW231275   0.192   1.246   2.340 -2.2628  1.5852  1.0706
 6548SOL     OW31276   3.859   0.003   3.954 -0.1499 -0.2742 -0.2137
 6548SOL    HW131277   3.779   4.715   4.002 -0.6113  2.4987  0.1925
 6548SOL    HW231278   3.826   4.694   3.875 -1.9706  0.0501  0.3913
 6549SOL     OW31279   1.685   1.049  13.250 -0.4328 -0.2745  0.3830
 6549SOL    HW131280   1.765   1.054  13.303  0.6544 -3.1537 -0.9501
 6549SOL    HW231281   1.688   1.144  13.236  3.7219 -0.3768  0.5003
 6550SOL     OW31282   3.749   4.237   7.751  0.4893 -0.0317  0.4856
 6550SOL    HW131283   3.827   4.197   7.791  2.3116 -0.3131 -3.3550
 6550SOL    HW231284   3.710   4.278   7.829 -2.1206 -1.8185  0.1177
 6551SOL     OW31285   0.970   4.181   3.649  0.1018  0.4465 -0.1860
 6551SOL    HW131286   1.011   4.212   3.730 -0.8143  0.0748  0.4185
 6551SOL    HW231287   1.017   4.242   3.592  0.5853  0.8017  0.5970
 6552SOL     OW31288   1.015   0.477   0.929 -0.3978  0.0624 -0.3894
 6552SOL    HW131289   0.978   0.507   1.012 -1.5104 -1.2287 -0.4215
 6552SOL    HW231290   1.020   0.562   0.887  0.1136  1.5036  2.5746
 6553SOL     OW31291   0.896   0.116   9.972  0.2140 -0.2370 -0.3896
 6553SOL    HW131292   0.989   0.117   9.992  0.7476  0.5527 -2.9479
 6553SOL    HW231293   0.905   0.144   9.881 -0.7638 -0.6800 -0.6313
 6554SOL     OW31294   0.153   3.912   5.484 -0.0713 -0.0780  0.3350
 6554SOL    HW131295   0.100   3.932   5.561 -2.8633  2.8199 -2.3600
 6554SOL    HW231296   0.240   3.911   5.523 -0.8876  0.1815  2.1316
 6555SOL     OW31297   3.697   0.098   6.465 -0.0230 -0.1322 -0.1787
 6555SOL    HW131298   3.712   0.159   6.392 -0.1708 -0.0409 -0.1318
 6555SOL    HW231299   3.785   0.059   6.468 -1.1885 -2.7131  0.3644
 6556SOL     OW31300   0.288   0.654   6.761  0.1400  0.4671  0.2477
 6556SOL    HW131301   0.373   0.685   6.729 -1.5662  2.6915 -2.1699
 6556SOL    HW231302   0.243   0.618   6.684  1.9764  1.5192 -1.3290
 6557SOL     OW31303   0.591   0.004   3.278 -0.3166 -0.3321  0.2290
 6557SOL    HW131304   0.544   0.017   3.360  2.0668 -2.7736  2.0229
 6557SOL    HW231305   0.535   4.678   3.226  0.3729 -1.4072  0.6868
 6558SOL     OW31306   3.260   1.582   7.688  0.0049 -0.2000 -0.4104
 6558SOL    HW131307   3.311   1.590   7.608  3.1915  1.2323  1.7615
 6558SOL    HW231308   3.251   1.486   7.693 -1.0547 -0.1709 -1.9319
 6559SOL     OW31309   1.027   0.518   7.475 -0.0287  0.2833  0.2749
 6559SOL    HW131310   1.069   0.477   7.551  1.5629  1.2144 -0.0976
 6559SOL    HW231311   1.072   0.601   7.461  0.5514 -0.3330 -1.4873
 6560SOL     OW31312   0.180   4.031   9.990 -0.0281  0.3831 -0.5832
 6560SOL    HW131313   0.113   4.035  10.059 -0.8771 -3.3129 -1.1844
 6560SOL    HW231314   0.133   4.037   9.907 -0.7268  0.6350 -0.1803
 6561SOL     OW31315   3.103   1.710  17.351 -0.3158 -0.7051  0.5677
 6561SOL    HW131316   3.024   1.759  17.332  0.0555 -0.5541 -0.6081
 6561SOL    HW231317   3.068   1.642  17.408 -2.0870  1.1102  1.6278
 6562SOL     OW31318   3.979   4.199  12.307  0.1213  0.3034 -0.4945
 6562SOL    HW131319   3.921   4.123  12.296  2.8879 -1.8270 -0.1363
 6562SOL    HW231320   4.035   4.180  12.233 -0.4984  0.7169 -1.0695
 6563SOL     OW31321   0.424   1.795   7.961  0.2093  0.2789 -0.3108
 6563SOL    HW131322   0.491   1.758   7.904  0.3109 -0.3645  0.2342
 6563SOL    HW231323   0.467   1.778   8.044  0.2710  1.7872 -0.0277
 6564SOL     OW31324   3.740   3.590  12.911 -0.0367 -0.1082 -0.5470
 6564SOL    HW131325   3.820   3.615  12.957 -0.6302  2.4873 -0.8946
 6564SOL    HW231326   3.736   3.668  12.855 -0.1069 -0.0266 -0.4268
 6565SOL     OW31327   2.232   0.708   5.550  0.5034  0.3153  0.3396
 6565SOL    HW131328   2.311   0.670   5.588 -0.1744 -1.4595 -0.0222
 6565SOL    HW231329   2.223   0.792   5.595  0.1028 -0.0708  0.9695
 6566SOL     OW31330   0.523   1.046  12.578 -0.5680  0.4950 -0.5321
 6566SOL    HW131331   0.594   1.003  12.625 -1.2082  0.5148  0.4376
 6566SOL    HW231332   0.447   0.993  12.600  0.2726  0.3415  1.9277
 6567SOL     OW31333   3.423   4.336  17.422 -0.5391 -0.2337  0.6180
 6567SOL    HW131334   3.405   4.296  17.337  0.4713  0.9260 -0.1640
 6567SOL    HW231335   3.518   4.328  17.431 -0.4346 -1.7963 -1.8336
 6568SOL     OW31336   2.812   3.335  13.438  0.3915 -0.0161 -0.4599
 6568SOL    HW131337   2.809   3.427  13.414  3.2012  0.5241  1.2073
 6568SOL    HW231338   2.861   3.346  13.519 -2.2334  0.6676  1.0158
 6569SOL     OW31339   1.513   0.222   2.176  0.0438 -0.3786  0.1855
 6569SOL    HW131340   1.549   0.301   2.215  0.2795  0.2831 -1.3666
 6569SOL    HW231341   1.539   0.232   2.084 -0.9332 -2.7121 -0.3365
 6570SOL     OW31342   0.452   4.195  11.877  0.2323 -0.1903  0.5255
 6570SOL    HW131343   0.385   4.160  11.936 -1.7875 -0.9550 -2.1965
 6570SOL    HW231344   0.479   4.260  11.942  0.9246  0.8187 -0.7642
 6571SOL     OW31345   1.461   1.569  12.055  0.7371 -0.1612  0.5526
 6571SOL    HW131346   1.476   1.487  12.007 -0.3324  0.4652 -0.8523
 6571SOL    HW231347   1.368   1.563  12.077  0.5559 -0.9812 -0.4036
 6572SOL     OW31348   1.266   2.229   4.878 -0.1360  0.3226 -0.1995
 6572SOL    HW131349   1.255   2.285   4.955 -1.0873 -1.0442  0.6715
 6572SOL    HW231350   1.181   2.226   4.834 -0.3844  0.8665  0.2488
 6573SOL     OW31351   2.989   3.467   5.900 -0.1160  0.0706  0.7556
 6573SOL    HW131352   3.053   3.399   5.921 -0.7087 -0.4821  0.7840
 6573SOL    HW231353   3.022   3.501   5.817 -1.0092  0.9527  0.7713
 6574SOL     OW31354   1.737   4.723   9.840 -0.3169 -0.4349  0.0861
 6574SOL    HW131355   1.804   0.035   9.893 -0.7445  0.6904 -0.3042
 6574SOL    HW231356   1.709   4.664   9.910  0.8082 -1.5501 -0.4276
 6575SOL     OW31357   2.749   2.203  14.158  0.1090  0.5091 -0.0263
 6575SOL    HW131358   2.814   2.255  14.110 -0.6325  0.8680 -0.6644
 6575SOL    HW231359   2.757   2.124  14.104  2.3143  0.4145  0.4677
 6576SOL     OW31360   3.661   3.254   0.116 -0.2365 -0.2931 -0.3702
 6576SOL    HW131361   3.586   3.195   0.123 -0.4341 -0.1366 -1.1339
 6576SOL    HW231362   3.733   3.190   0.111  1.3343  1.5382 -1.1517
 6577SOL     OW31363   3.891   1.954   8.348  0.1949 -0.0859 -0.2685
 6577SOL    HW131364   3.940   2.009   8.410 -0.5435  0.6496 -0.3278
 6577SOL    HW231365   3.820   1.934   8.409  0.5304  1.6009  0.6896
 6578SOL     OW31366   0.108   1.897   5.322  0.2996  0.2695 -0.1193
 6578SOL    HW131367   0.196   1.867   5.299  0.6058  0.1503  1.1896
 6578SOL    HW231368   0.066   1.873   5.240 -0.9787  0.1054  0.5975
 6579SOL     OW31369   0.935   3.116   7.767  0.2693 -1.0298  0.4661
 6579SOL    HW131370   0.934   3.147   7.858  2.2977  1.0696 -0.2408
 6579SOL    HW231371   0.873   3.043   7.772 -0.3934 -0.6692 -2.8824
 6580SOL     OW31372   4.343   3.054   7.126  0.0912  0.2331  0.2528
 6580SOL    HW131373   4.428   3.097   7.118  0.1234 -0.0643 -0.9315
 6580SOL    HW231374   4.292   3.132   7.101 -0.5500  0.1010  1.1379
 6581SOL     OW31375   1.198   4.204   7.497 -0.2161 -0.2973  0.2229
 6581SOL    HW131376   1.167   4.114   7.482 -0.5814  0.0747 -1.1607
 6581SOL    HW231377   1.133   4.246   7.442 -0.4011 -1.1788 -0.2363
 6582SOL     OW31378   1.502   2.446   3.202  0.4517 -0.0791 -0.1614
 6582SOL    HW131379   1.562   2.409   3.137 -0.2821 -1.0898 -0.2536
 6582SOL    HW231380   1.439   2.485   3.141  0.2810 -0.1050  0.0012
 6583SOL     OW31381   3.102   0.484   7.489  0.1352  0.4791  0.1153
 6583SOL    HW131382   3.043   0.548   7.449  1.0793  1.5914  0.5088
 6583SOL    HW231383   3.125   0.435   7.410  1.0355  0.3112  0.4812
 6584SOL     OW31384   3.512   4.115   7.691  0.4291 -0.2302 -0.0863
 6584SOL    HW131385   3.462   4.174   7.747 -1.5919 -0.7081 -1.4115
 6584SOL    HW231386   3.598   4.150   7.713  0.4129  0.6909 -1.4935
 6585SOL     OW31387   3.702   3.505  13.645  0.1689 -0.0542  0.6215
 6585SOL    HW131388   3.719   3.596  13.672  1.7424 -0.0445 -0.4245
 6585SOL    HW231389   3.620   3.512  13.596  1.7727  1.1225 -1.8306
 6586SOL     OW31390   0.963   1.904   9.642 -0.2255  0.1260  0.0745
 6586SOL    HW131391   0.899   1.832   9.640 -1.8169  1.5965 -1.2876
 6586SOL    HW231392   0.926   1.960   9.710  0.1988  1.2362 -0.6135
 6587SOL     OW31393   2.461   0.463   6.527  0.0609 -0.0342 -0.0143
 6587SOL    HW131394   2.514   0.383   6.528 -0.8986 -0.6784 -1.8948
 6587SOL    HW231395   2.438   0.459   6.434 -1.8345 -0.0498  0.4551
 6588SOL     OW31396   0.864   4.177  16.826  0.0170 -0.0760 -0.0800
 6588SOL    HW131397   0.811   4.236  16.773 -0.5222 -1.3255 -0.9311
 6588SOL    HW231398   0.921   4.238  16.873  0.2093  0.3167 -0.8266
 6589SOL     OW31399   1.370   2.451   8.451 -0.1935 -0.0623  0.1100
 6589SOL    HW131400   1.364   2.474   8.359  0.3671  1.0805  0.3646
 6589SOL    HW231401   1.295   2.392   8.458  0.0537 -0.4255 -0.3066
 6590SOL     OW31402   3.954   2.975   9.363  0.3595 -0.5982  0.5357
 6590SOL    HW131403   3.974   2.988   9.270  0.5823  1.9560  0.9431
 6590SOL    HW231404   3.929   2.882   9.363  0.5518 -0.6490  1.0448
 6591SOL     OW31405   0.870   1.115   2.347  0.6090  0.5184 -0.4153
 6591SOL    HW131406   0.867   1.090   2.254 -1.9847 -0.3134 -0.0954
 6591SOL    HW231407   0.889   1.209   2.344  3.5764 -0.0247  1.4413
 6592SOL     OW31408   3.297   3.818  14.622  0.1560  0.0433 -0.0057
 6592SOL    HW131409   3.382   3.789  14.590  0.0160  0.2442 -0.5483
 6592SOL    HW231410   3.255   3.845  14.540 -0.0164  1.4581  0.5511
 6593SOL     OW31411   0.814   0.708  10.965  0.3785  0.0729 -0.0060
 6593SOL    HW131412   0.860   0.627  10.986  0.6461 -0.1623 -1.5284
 6593SOL    HW231413   0.829   0.721  10.871 -1.8459 -0.8853 -0.4918
 6594SOL     OW31414   1.674   0.334   4.990  0.2529 -0.4218 -0.1194
 6594SOL    HW131415   1.626   0.253   4.977  2.9462 -1.7730 -1.4094
 6594SOL    HW231416   1.649   0.367   5.077 -0.6108 -1.1951 -0.0720
 6595SOL     OW31417   0.950   2.750   6.750  0.1595  0.1579  0.9874
 6595SOL    HW131418   0.878   2.757   6.688 -1.7964 -1.9635  2.9926
 6595SOL    HW231419   0.920   2.673   6.799 -1.3782 -0.2012 -0.5078
 6596SOL     OW31420   3.746   1.084   9.992 -0.1991 -0.1586 -0.3729
 6596SOL    HW131421   3.688   1.105   9.918  1.0196  1.2365 -0.9427
 6596SOL    HW231422   3.825   1.135   9.972  0.1218 -0.2928  0.5972
 6597SOL     OW31423   3.683   1.787   0.379 -0.1629 -0.4171  0.1451
 6597SOL    HW131424   3.758   1.821   0.332 -0.5968  1.5607  0.9147
 6597SOL    HW231425   3.621   1.859   0.369  1.1553  0.6308 -0.3582
 6598SOL     OW31426   0.544   3.244  12.520  0.1324  0.9208 -0.2324
 6598SOL    HW131427   0.574   3.176  12.581 -1.8545  0.6837  0.4678
 6598SOL    HW231428   0.561   3.325  12.567 -2.5491  1.5569 -0.3834
 6599SOL     OW31429   0.575   2.671  15.963  0.3124  0.0394 -0.3920
 6599SOL    HW131430   0.642   2.724  15.920  0.1943 -0.6697 -1.4473
 6599SOL    HW231431   0.577   2.596  15.904  1.2982  0.9212 -1.4802
 6600SOL     OW31432   3.952   2.546   7.941 -0.1899  0.1391  0.0850
 6600SOL    HW131433   3.857   2.544   7.929  0.0616  1.0310 -2.1723
 6600SOL    HW231434   3.981   2.458   7.917  1.1841  1.0251 -1.5606
 6601SOL     OW31435   2.275   0.334   8.421 -0.6159  0.3436  0.7301
 6601SOL    HW131436   2.219   0.365   8.350 -0.5357  0.7667  0.8482
 6601SOL    HW231437   2.221   0.257   8.437 -1.2298  0.8203  0.9783
 6602SOL     OW31438   4.092   1.996   6.373 -0.7228  0.1926  0.2897
 6602SOL    HW131439   4.133   2.063   6.319 -1.4658  0.4840  0.0945
 6602SOL    HW231440   4.060   2.038   6.453 -3.3076 -1.7104  0.2812
 6603SOL     OW31441   2.232   2.312   7.128  0.6427 -0.0554  0.2433
 6603SOL    HW131442   2.255   2.245   7.193  0.3297 -1.9938 -1.6517
 6603SOL    HW231443   2.289   2.384   7.154  0.5318 -0.2707  1.1134
 6604SOL     OW31444   0.395   0.863   3.200  0.7490 -0.5261 -0.1489
 6604SOL    HW131445   0.440   0.895   3.278 -0.5217 -0.9278  0.7602
 6604SOL    HW231446   0.382   0.773   3.228 -1.7670 -1.0067 -2.7708
 6605SOL     OW31447   1.484   2.256   3.887 -0.4865 -0.1471  0.6426
 6605SOL    HW131448   1.457   2.321   3.823  1.7493  1.7448  1.6293
 6605SOL    HW231449   1.398   2.235   3.922 -0.3239 -0.4948  0.8359
 6606SOL     OW31450   1.393   3.096   3.047 -0.0896 -0.0383  0.1022
 6606SOL    HW131451   1.426   3.051   3.124  2.3649  0.9010 -0.3762
 6606SOL    HW231452   1.471   3.113   2.993  0.2885 -2.5297 -0.1148
 6607SOL     OW31453   1.327   4.061   5.039 -0.3234  0.0736 -0.0808
 6607SOL    HW131454   1.346   4.002   4.966 -1.3160 -0.0268 -0.2602
 6607SOL    HW231455   1.414   4.100   5.049 -0.0810 -0.1015 -1.4720
 6608SOL     OW31456   4.293   1.924  16.266  0.1183  0.5339 -0.6318
 6608SOL    HW131457   4.347   1.980  16.210  4.0407 -1.6180  0.9872
 6608SOL    HW231458   4.293   1.974  16.348 -0.1685  0.4287 -0.5679
 6609SOL     OW31459   4.685   2.180   7.425  0.7735 -0.5033  0.6459
 6609SOL    HW131460   4.732   2.105   7.461  0.5262 -0.2705  1.4711
 6609SOL    HW231461   0.011   2.201   7.352 -0.5863  0.9036 -0.0220
 6610SOL     OW31462   1.849   3.235   4.591 -0.1947 -0.4465 -0.0304
 6610SOL    HW131463   1.808   3.322   4.587 -0.1462 -0.3227  2.5715
 6610SOL    HW231464   1.872   3.226   4.683 -0.3577 -1.2921 -0.0724
 6611SOL     OW31465   3.317   0.738   7.158 -0.4583 -0.9182 -0.0023
 6611SOL    HW131466   3.404   0.760   7.192 -1.3235 -0.5923  2.0143
 6611SOL    HW231467   3.272   0.810   7.203  1.1213 -0.7087  1.2274
 6612SOL     OW31468   0.076   1.698   8.936  0.1184  0.3483  0.5797
 6612SOL    HW131469   4.724   1.676   8.895  1.2022  0.7087 -1.8603
 6612SOL    HW231470   0.063   1.666   9.026  0.2671  1.2767  0.9270
 6613SOL     OW31471   2.298   3.382  13.224 -0.1094 -0.0500 -0.1758
 6613SOL    HW131472   2.257   3.426  13.150 -2.6175 -0.3952  1.0021
 6613SOL    HW231473   2.336   3.454  13.274  0.2748 -0.1360 -0.3418
 6614SOL     OW31474   0.153   2.599   8.729 -0.0878  0.0920  0.3293
 6614SOL    HW131475   0.174   2.648   8.649 -1.8962  0.2908 -0.0214
 6614SOL    HW231476   0.164   2.510   8.695 -0.9676 -0.4142  1.3825
 6615SOL     OW31477   2.203   2.044   6.614  0.0417  0.4304 -0.3784
 6615SOL    HW131478   2.196   2.063   6.707  0.2400 -1.7448  0.0865
 6615SOL    HW231479   2.148   2.116   6.581 -1.5945 -0.5576  0.1677
 6616SOL     OW31480   2.597   4.319  13.884  0.0297  0.4566 -0.0064
 6616SOL    HW131481   2.606   4.224  13.891  2.0525  0.5727 -0.7818
 6616SOL    HW231482   2.509   4.332  13.850 -0.8484 -0.3898  1.9679
 6617SOL     OW31483   1.621   2.855   7.515  0.4382 -0.4140  0.0144
 6617SOL    HW131484   1.600   2.800   7.590  0.1050  2.8696  2.3416
 6617SOL    HW231485   1.710   2.871   7.548 -0.3014  1.7213  0.9766
 6618SOL     OW31486   4.520   4.724  11.317 -0.0666 -0.4616 -0.2188
 6618SOL    HW131487   4.447   0.009  11.257 -0.0840 -1.3248 -0.4545
 6618SOL    HW231488   4.569   0.073  11.310 -0.1685 -0.1378  2.8722
 6619SOL     OW31489   2.329   4.201   7.325  0.1772  0.2346 -0.2930
 6619SOL    HW131490   2.409   4.252   7.337  0.1191  0.0483  0.8459
 6619SOL    HW231491   2.275   4.249   7.388  0.6189  2.9872 -2.0145
 6620SOL     OW31492   4.702   3.540  12.671  0.0358 -0.0433 -0.5412
 6620SOL    HW131493   4.666   3.533  12.759 -2.1530  1.7364 -1.3023
 6620SOL    HW231494   4.644   3.604  12.630 -1.1713 -0.7946  0.0033
 6621SOL     OW31495   0.046   3.331   1.186  0.0550  0.0321 -0.9404
 6621SOL    HW131496   4.708   3.268   1.167  0.2788  0.4780 -3.3254
 6621SOL    HW231497   0.119   3.282   1.148  0.3569 -1.1981  1.2295
 6622SOL     OW31498   0.802   4.541  15.626 -0.2405 -0.0834  0.2155
 6622SOL    HW131499   0.803   4.630  15.590 -0.1369 -0.8231 -1.6351
 6622SOL    HW231500   0.858   4.506  15.557  0.5702 -1.1147  1.3967
 6623SOL     OW31501   2.962   2.558   9.040  0.1167 -0.3201 -0.2607
 6623SOL    HW131502   2.911   2.491   9.084 -0.9001 -1.2963 -2.9391
 6623SOL    HW231503   2.890   2.610   9.004 -0.0668 -1.0973 -1.0013
 6624SOL     OW31504   0.154   0.694  17.622  0.1641  0.3449 -0.2792
 6624SOL    HW131505   0.240   0.733  17.606  1.5226 -1.7393  1.9289
 6624SOL    HW231506   0.179   0.602  17.613  0.3407  0.4343 -0.6910
 6625SOL     OW31507   0.524   3.989   7.800 -0.3172 -0.2588 -0.0583
 6625SOL    HW131508   0.605   4.041   7.797  0.7897 -1.9705  0.1230
 6625SOL    HW231509   0.546   3.913   7.745 -0.9035  0.0036 -0.6559
 6626SOL     OW31510   2.793   0.291   5.781 -0.0475 -0.2234  0.0897
 6626SOL    HW131511   2.811   0.208   5.825  2.6752  0.6855  0.6896
 6626SOL    HW231512   2.858   0.346   5.826  1.4650 -2.3125  0.4681
 6627SOL     OW31513   3.267   0.950   8.933 -0.9595  0.1777  0.0153
 6627SOL    HW131514   3.183   0.908   8.953 -0.7824  0.6894  1.7554
 6627SOL    HW231515   3.320   0.896   8.992 -2.8644 -0.8703  0.7394
 6628SOL     OW31516   3.351   0.991   2.390 -0.0884 -0.3750  0.4817
 6628SOL    HW131517   3.354   0.964   2.298 -1.0615  1.1232  0.0185
 6628SOL    HW231518   3.364   1.086   2.383  3.3277 -1.0277 -2.1979
 6629SOL     OW31519   4.082   1.699   2.967 -0.0113 -0.0227 -0.0558
 6629SOL    HW131520   4.045   1.617   2.933 -1.9886  1.4537 -1.4629
 6629SOL    HW231521   4.173   1.674   2.984  0.2704  1.3664  0.4394
 6630SOL     OW31522   2.900   0.069   4.902  0.1654  0.5910  0.0550
 6630SOL    HW131523   2.961   0.141   4.892  0.7202  0.2188  0.7316
 6630SOL    HW231524   2.931   0.045   4.990  0.7973  0.0829 -0.3072
 6631SOL     OW31525   4.015   3.786  12.098  0.1054 -0.3327  0.4144
 6631SOL    HW131526   3.948   3.718  12.092 -0.5335  0.1072  2.5461
 6631SOL    HW231527   4.022   3.781  12.193  1.4105  0.7803  0.3781
 6632SOL     OW31528   3.577   0.007   9.362 -0.6445 -0.1946 -0.1128
 6632SOL    HW131529   3.658   0.049   9.332  0.4406  0.2837  3.5519
 6632SOL    HW231530   3.535   0.090   9.383 -2.1311 -0.4704 -1.9390
 6633SOL     OW31531   0.308   2.057   7.937  0.1282 -0.8929 -0.3219
 6633SOL    HW131532   0.219   2.038   7.908 -0.0164  3.1984 -2.5822
 6633SOL    HW231533   0.341   1.975   7.974 -1.4711 -0.7177  1.5103
 6634SOL     OW31534   3.482   4.164   9.053  0.2705  0.4673 -0.1928
 6634SOL    HW131535   3.435   4.081   9.060  2.4584 -0.5944  1.9505
 6634SOL    HW231536   3.552   4.149   9.116  0.0711 -0.1457 -0.1185
 6635SOL     OW31537   4.642   2.652   2.436 -0.6570  0.3308  0.2009
 6635SOL    HW131538   4.663   2.683   2.348  0.2735 -0.4226  0.1632
 6635SOL    HW231539   4.710   2.698   2.485  2.0333  0.2652 -3.4794
 6636SOL     OW31540   2.988   1.347   8.415 -0.4715 -0.2758 -0.6571
 6636SOL    HW131541   2.926   1.334   8.343 -1.8551 -1.2066  0.6920
 6636SOL    HW231542   2.974   1.437   8.445 -3.1187 -1.8795  2.8419
 6637SOL     OW31543   2.097   3.621   2.534  0.7224  0.0988  0.7073
 6637SOL    HW131544   2.022   3.679   2.543  0.8127  0.5572 -1.6196
 6637SOL    HW231545   2.062   3.561   2.468 -0.0717  0.9113  0.3996
 6638SOL     OW31546   3.164   3.546   5.704  0.0579  0.6589  0.2928
 6638SOL    HW131547   3.192   3.457   5.687 -0.6031  0.2543  1.2773
 6638SOL    HW231548   3.222   3.599   5.650  0.3473 -0.9160 -0.9281
 6639SOL     OW31549   2.275   3.739   0.570  0.6810  0.6052  0.0679
 6639SOL    HW131550   2.305   3.741   0.661 -1.7664  2.8745  0.8298
 6639SOL    HW231551   2.293   3.645   0.560  1.4100  0.5600  1.7814
 6640SOL     OW31552   2.652   3.717  10.230  0.4874 -0.3968 -0.0739
 6640SOL    HW131553   2.683   3.652  10.294  1.2404 -0.8595 -0.9145
 6640SOL    HW231554   2.592   3.770  10.283  0.4180 -0.1613 -0.3893
 6641SOL     OW31555   0.844   1.311   0.086 -0.0995 -0.0144 -0.3805
 6641SOL    HW131556   0.852   1.406   0.073 -1.3162  0.1806  0.2351
 6641SOL    HW231557   0.901   1.279   0.017  0.6457 -0.3858  0.4058
 6642SOL     OW31558   0.924   3.264   3.313 -0.0997  0.4523  0.1173
 6642SOL    HW131559   1.000   3.234   3.263  1.4933 -0.0897  2.8651
 6642SOL    HW231560   0.967   3.337   3.357  1.1367 -0.5567  0.5813
 6643SOL     OW31561   4.196   2.301   6.803  0.4111 -0.2078  0.1887
 6643SOL    HW131562   4.164   2.391   6.807 -0.6467 -0.3569 -4.2835
 6643SOL    HW231563   4.218   2.289   6.895  1.5206 -0.7477 -0.1509
 6644SOL     OW31564   3.964   0.704  14.869 -0.2761 -0.0803 -0.1791
 6644SOL    HW131565   3.987   0.790  14.903 -0.1806  0.1727 -0.8818
 6644SOL    HW231566   3.959   0.657  14.952 -0.3347 -3.5660 -2.1732
 6645SOL     OW31567   3.185   1.022   5.994 -0.2799  0.3414  0.0218
 6645SOL    HW131568   3.212   1.032   5.903 -0.1085  0.0710  0.0434
 6645SOL    HW231569   3.106   1.076   5.988  1.0998  2.0104 -3.1251
 6646SOL     OW31570   0.013   1.227   5.541 -0.2981  0.4377 -0.2590
 6646SOL    HW131571   0.047   1.244   5.453 -1.0477 -2.4599 -1.1119
 6646SOL    HW231572   0.019   1.131   5.548  2.0430  0.5859 -0.1485
 6647SOL     OW31573   0.272   3.145  13.960 -0.0721 -0.8732 -0.6660
 6647SOL    HW131574   0.297   3.102  13.878 -1.3466  0.0453 -1.5286
 6647SOL    HW231575   0.351   3.148  14.014  0.1640  1.3011 -1.1478
 6648SOL     OW31576   2.093   2.813  17.021  0.7035  0.2663  0.1727
 6648SOL    HW131577   2.071   2.725  16.990  3.2660 -1.2729  2.7229
 6648SOL    HW231578   2.171   2.838  16.972  1.1660 -1.9191 -0.2181
 6649SOL     OW31579   0.821   3.143   1.978 -0.3004 -0.1463 -0.1758
 6649SOL    HW131580   0.890   3.206   1.997 -1.3053  0.8249  0.2741
 6649SOL    HW231581   0.843   3.126   1.886  0.4909 -1.5573  0.2828
 6650SOL     OW31582   4.504   4.361   2.520  0.0773  0.3811  0.1870
 6650SOL    HW131583   4.516   4.451   2.491 -1.1019  0.3601 -0.3672
 6650SOL    HW231584   4.471   4.316   2.441  0.6134 -3.0461  1.9331
 6651SOL     OW31585   2.711   1.061   1.988 -0.1344 -0.6958  0.6326
 6651SOL    HW131586   2.791   1.094   2.029  0.7064 -0.2210 -1.3819
 6651SOL    HW231587   2.676   1.004   2.056  0.8154 -1.4101  0.5357
 6652SOL     OW31588   0.845   2.097  13.858  0.1806 -0.3681 -0.2067
 6652SOL    HW131589   0.880   2.042  13.929  0.4191 -0.4364 -0.3742
 6652SOL    HW231590   0.927   2.112  13.810 -1.0286  2.7576 -1.2855
 6653SOL     OW31591   2.172   0.266   5.798  0.4470  0.1822 -0.3388
 6653SOL    HW131592   2.141   0.225   5.879  0.8315  0.2704 -0.1475
 6653SOL    HW231593   2.231   0.339   5.816 -1.5812  2.2972 -2.3220
 6654SOL     OW31594   4.029   4.439   2.655 -0.0053 -0.2000 -0.3099
 6654SOL    HW131595   3.989   4.439   2.568  0.4695  3.6077 -0.5614
 6654SOL    HW231596   4.063   4.350   2.658 -1.7181 -0.9234 -2.1576
 6655SOL     OW31597   0.421   0.792  13.311 -0.5519 -0.2861 -0.8026
 6655SOL    HW131598   0.485   0.832  13.253  0.1928 -1.1866 -0.6120
 6655SOL    HW231599   0.476   0.742  13.372  0.3931  1.3108 -0.3498
 6656SOL     OW31600   4.248   1.201   7.739  0.6185  0.1541  0.7628
 6656SOL    HW131601   4.201   1.118   7.749  0.0800  0.4362  0.5614
 6656SOL    HW231602   4.172   1.258   7.751  0.4580  0.1043 -0.0325
 6657SOL     OW31603   0.821   1.380  17.183 -0.8501 -0.3114 -0.1901
 6657SOL    HW131604   0.815   1.284  17.185 -0.6781 -0.2992  1.0042
 6657SOL    HW231605   0.875   1.383  17.262 -3.2944 -2.1695  1.5618
 6658SOL     OW31606   3.983   3.610  13.033 -0.4173  0.0002  0.8299
 6658SOL    HW131607   4.010   3.551  13.103  0.7230  0.6974  0.9789
 6658SOL    HW231608   4.057   3.671  13.039  0.3117 -0.7368 -0.7870
 6659SOL     OW31609   1.293   3.425   4.150  0.1832 -0.1807 -0.4412
 6659SOL    HW131610   1.260   3.497   4.097  1.1138 -0.9177 -2.0181
 6659SOL    HW231611   1.226   3.359   4.133 -1.3681  0.7997  1.9188
 6660SOL     OW31612   4.703   1.684   7.791 -0.0815  0.4948 -0.1727
 6660SOL    HW131613   0.003   1.621   7.726  0.8032  0.3345  0.4222
 6660SOL    HW231614   4.654   1.637   7.858 -1.4282 -0.1832 -1.6322
 6661SOL     OW31615   4.303   1.927   3.152  0.6482  0.2713  0.0868
 6661SOL    HW131616   4.327   1.851   3.097  1.0009  1.0287 -0.8054
 6661SOL    HW231617   4.386   1.946   3.195  0.3937  3.4838 -0.8445
 6662SOL     OW31618   1.815   1.156   3.771 -0.1408  0.7893  0.4845
 6662SOL    HW131619   1.761   1.107   3.710  0.9487  0.9079 -0.5784
 6662SOL    HW231620   1.776   1.131   3.855  3.2303 -0.1724  1.7559
 6663SOL     OW31621   2.917   3.927  10.016 -0.0249 -0.2601  0.2331
 6663SOL    HW131622   2.979   3.855  10.014 -1.8701 -1.7097 -4.3662
 6663SOL    HW231623   2.938   3.963   9.930 -0.0450 -2.3471 -0.6441
 6664SOL     OW31624   1.652   4.188   3.265  0.5367  0.1183 -0.3920
 6664SOL    HW131625   1.702   4.133   3.326  0.6724  1.2043  0.4785
 6664SOL    HW231626   1.630   4.125   3.196  0.6777 -0.8606  0.4420
 6665SOL     OW31627   2.823   3.408   7.567 -0.5364 -1.0441  0.5965
 6665SOL    HW131628   2.761   3.465   7.613 -0.1243 -0.1420  0.0560
 6665SOL    HW231629   2.806   3.440   7.478  0.2462 -2.1907  0.0438
 6666SOL     OW31630   4.615   1.047  17.656  0.3226 -1.0524 -0.0836
 6666SOL    HW131631   4.556   1.072  17.727  0.5789  0.4954 -0.4167
 6666SOL    HW231632   4.699   1.080  17.685  1.0622 -1.4944 -1.7285
 6667SOL     OW31633   3.815   3.169   4.678 -0.1199 -0.2004  0.1262
 6667SOL    HW131634   3.797   3.117   4.600  2.5488 -2.4436  1.0009
 6667SOL    HW231635   3.873   3.102   4.714 -1.0256 -1.2469 -0.3818
 6668SOL     OW31636   2.259   0.375  10.565  0.3087 -0.3531 -0.1841
 6668SOL    HW131637   2.215   0.431  10.628 -0.2094  1.0269 -1.7780
 6668SOL    HW231638   2.288   0.305  10.624 -0.8227  0.5445  1.4395
 6669SOL     OW31639   1.316   0.475   0.889 -0.1538  0.5903 -0.3254
 6669SOL    HW131640   1.222   0.458   0.888  0.2081 -1.4013 -0.9294
 6669SOL    HW231641   1.338   0.428   0.969  0.6360  1.5354  0.0128
 6670SOL     OW31642   4.261   1.262   8.981 -0.1452  0.0459 -0.3123
 6670SOL    HW131643   4.324   1.231   9.045 -1.3764 -3.1616 -0.6473
 6670SOL    HW231644   4.224   1.179   8.951 -0.6093  0.7269 -1.6270
 6671SOL     OW31645   0.560   3.930   3.789 -0.3027  0.1964 -0.5787
 6671SOL    HW131646   0.582   4.020   3.762 -0.8866  1.1835  2.2796
 6671SOL    HW231647   0.473   3.927   3.750  0.2135  0.5721 -1.7807
 6672SOL     OW31648   1.679   0.015  15.330 -0.1391  0.0448  0.3379
 6672SOL    HW131649   1.668   0.103  15.366 -3.2027  0.5136 -1.7668
 6672SOL    HW231650   1.594   4.706  15.343 -0.8364  1.7615  1.1361
 6673SOL     OW31651   3.369   4.318   7.822  0.4521  0.0105 -0.0543
 6673SOL    HW131652   3.319   4.320   7.903 -3.8577  1.2736 -2.7628
 6673SOL    HW231653   3.305   4.363   7.767  0.9133 -0.1069 -0.6894
 6674SOL     OW31654   1.313   0.490   0.613 -0.0218  0.1204  0.2194
 6674SOL    HW131655   1.303   0.484   0.708 -0.0885  0.1837  0.2166
 6674SOL    HW231656   1.262   0.409   0.602 -2.1231  1.1399  2.4674
 6675SOL     OW31657   2.606   2.832  13.660  0.0965  0.0730  0.0073
 6675SOL    HW131658   2.544   2.771  13.702 -1.2976  0.9186 -0.8452
 6675SOL    HW231659   2.649   2.770  13.601  2.3031 -0.2995  2.0119
 6676SOL     OW31660   4.531   1.658   6.637  0.1089  0.5082  0.3687
 6676SOL    HW131661   4.561   1.742   6.672  3.1591 -0.1445 -0.6894
 6676SOL    HW231662   4.499   1.680   6.549 -0.0469 -0.3212  0.2162
 6677SOL     OW31663   4.637   4.407   2.916 -0.5568  0.1567  0.5928
 6677SOL    HW131664   4.570   4.446   2.973  1.4304  2.0026  1.6477
 6677SOL    HW231665   4.716   4.431   2.964  0.5420 -2.4808  0.0887
 6678SOL     OW31666   2.278   4.344   6.066 -0.3489 -0.4002 -0.0653
 6678SOL    HW131667   2.261   4.251   6.056 -1.8337 -0.0826 -0.4232
 6678SOL    HW231668   2.204   4.368   6.121  0.2486  0.0685  0.5390
 6679SOL     OW31669   3.597   3.852  16.870  0.4981  0.2573 -0.1189
 6679SOL    HW131670   3.636   3.796  16.937 -1.2026  0.1341  0.7534
 6679SOL    HW231671   3.557   3.783  16.818  0.5202  1.0367 -1.1731
 6680SOL     OW31672   2.322   3.344   5.135 -0.6650 -0.4180  0.4392
 6680SOL    HW131673   2.345   3.384   5.219  1.2510  0.3770 -0.4591
 6680SOL    HW231674   2.239   3.385   5.113 -0.8085 -1.9927 -2.0043
 6681SOL     OW31675   1.293   0.382   5.445 -0.2119  0.5762  0.4606
 6681SOL    HW131676   1.249   0.302   5.474  0.6229 -1.0314 -2.6160
 6681SOL    HW231677   1.218   0.441   5.438  0.9076  1.9985  0.4298
 6682SOL     OW31678   2.675   0.669  11.781  0.3161  0.2268 -0.1778
 6682SOL    HW131679   2.663   0.725  11.858  2.0656 -0.5966  0.7001
 6682SOL    HW231680   2.752   0.721  11.756  0.6005 -0.2352 -0.2514
 6683SOL     OW31681   0.409   3.556   8.904 -0.0157 -0.2826 -0.4753
 6683SOL    HW131682   0.388   3.466   8.930  0.2401 -0.5275 -1.1144
 6683SOL    HW231683   0.380   3.576   8.815 -0.5133 -1.4814 -0.5732
 6684SOL     OW31684   2.137   1.863  16.064  0.1665 -0.1819  0.5648
 6684SOL    HW131685   2.078   1.788  16.076  1.0492 -1.2654 -1.7810
 6684SOL    HW231686   2.074   1.935  16.058  1.4886  0.8982 -0.1376
 6685SOL     OW31687   0.639   2.783   6.541  0.3296 -0.3639 -0.1922
 6685SOL    HW131688   0.600   2.734   6.614 -1.0018 -1.3298 -1.5658
 6685SOL    HW231689   0.583   2.861   6.540 -0.3337 -0.8425 -0.4057
 6686SOL     OW31690   3.675   3.520   3.717  0.4446  0.8194 -0.7939
 6686SOL    HW131691   3.629   3.601   3.741 -1.6163 -1.1872  2.0862
 6686SOL    HW231692   3.724   3.514   3.799 -0.9021  2.4744  0.1474
 6687SOL     OW31693   2.868   3.140   4.501  0.3399 -0.6616  0.4315
 6687SOL    HW131694   2.823   3.165   4.582 -0.8183  0.6273 -0.6271
 6687SOL    HW231695   2.886   3.048   4.517  0.5466 -0.7358 -0.2508
 6688SOL     OW31696   4.155   1.007  14.975  0.0575  0.0362 -0.2325
 6688SOL    HW131697   4.220   1.073  14.951  1.6236 -0.5645  2.3264
 6688SOL    HW231698   4.202   0.937  15.019 -1.4959 -0.9388 -0.1380
 6689SOL     OW31699   0.554   1.396   0.472  0.0317 -0.0991  0.0263
 6689SOL    HW131700   0.549   1.429   0.561 -1.0060 -0.5559  0.1351
 6689SOL    HW231701   0.464   1.407   0.441  0.4887 -0.0329 -1.2769
 6690SOL     OW31702   3.027   1.824   6.181 -0.6912 -0.2226  0.7924
 6690SOL    HW131703   2.935   1.800   6.191 -0.2714 -2.2422 -0.2614
 6690SOL    HW231704   3.015   1.900   6.124 -0.1255 -0.3458  0.5090
 6691SOL     OW31705   3.674   0.533   5.871  0.1525 -0.2239 -0.4452
 6691SOL    HW131706   3.586   0.533   5.834 -0.9313  0.8430  2.1778
 6691SOL    HW231707   3.685   0.626   5.890  3.0293 -0.7487  0.5724
 6692SOL     OW31708   2.744   1.568   8.803 -0.3475  0.1214  0.4807
 6692SOL    HW131709   2.663   1.595   8.845  0.4939  0.0607  2.1661
 6692SOL    HW231710   2.786   1.530   8.881 -1.4463 -0.2954  0.8604
 6693SOL     OW31711   3.859   3.506   9.700 -0.2637 -0.3580 -0.6788
 6693SOL    HW131712   3.920   3.564   9.654  0.1470  0.2484  0.6358
 6693SOL    HW231713   3.916   3.437   9.733  1.6213  2.2497  1.4487
 6694SOL     OW31714   3.725   2.606   5.667  0.0702  0.5342 -0.8928
 6694SOL    HW131715   3.673   2.659   5.605 -1.1449  1.2778  0.7545
 6694SOL    HW231716   3.702   2.643   5.752 -0.7885  0.2144 -0.9858
 6695SOL     OW31717   4.576   2.869   6.859 -0.2589  0.1166 -0.3585
 6695SOL    HW131718   4.653   2.819   6.832 -2.6389 -1.9865 -3.2273
 6695SOL    HW231719   4.511   2.800   6.841 -1.6382  0.6292  2.7108
 6696SOL     OW31720   0.750   0.244  14.210 -0.1323 -0.3894  0.4388
 6696SOL    HW131721   0.740   0.162  14.162  0.0931  0.6211 -1.3512
 6696SOL    HW231722   0.670   0.242  14.262 -0.0134  0.1372  0.6394
 6697SOL     OW31723   2.042   1.420   8.002 -0.1769 -0.6294 -0.4998
 6697SOL    HW131724   2.004   1.354   8.058 -0.0602  1.3305  1.8725
 6697SOL    HW231725   2.106   1.363   7.959  0.8222 -1.6208  2.3447
 6698SOL     OW31726   3.393   0.780   2.538 -0.5325  0.2754 -0.3354
 6698SOL    HW131727   3.365   0.865   2.503  0.9244  1.0377  0.3534
 6698SOL    HW231728   3.476   0.783   2.491  0.8995 -0.2626  2.1950
 6699SOL     OW31729   0.630   0.934   3.988  0.2016 -0.1884 -0.1631
 6699SOL    HW131730   0.686   0.858   4.004  1.2959  1.1360  2.2807
 6699SOL    HW231731   0.697   1.003   3.992  1.7341 -1.6812 -0.2917
 6700SOL     OW31732   1.331   2.928  12.762 -0.5426  0.3247  0.2561
 6700SOL    HW131733   1.244   2.890  12.752 -1.1587  2.4285 -2.3622
 6700SOL    HW231734   1.367   2.909  12.675  0.6311 -1.9724  1.2349
 6701SOL     OW31735   2.193   2.155   6.875 -0.3030  0.1154 -0.0803
 6701SOL    HW131736   2.235   2.230   6.834  2.6026 -0.9218  1.0550
 6701SOL    HW231737   2.156   2.191   6.956  0.6300  1.1689 -0.1268
 6702SOL     OW31738   2.622   3.524   3.445  0.0906 -0.2474  0.1031
 6702SOL    HW131739   2.562   3.486   3.382 -0.7338  1.2743 -0.0235
 6702SOL    HW231740   2.583   3.611   3.447 -1.0572 -0.7678  0.0158
 6703SOL     OW31741   3.523   0.645   4.997 -0.0545 -0.0690  0.6710
 6703SOL    HW131742   3.498   0.585   4.927 -1.7907  3.3389 -1.5598
 6703SOL    HW231743   3.490   0.604   5.077 -0.7037 -1.6630 -0.4146
 6704SOL     OW31744   1.632   3.794   5.059 -0.1602 -0.0268  0.1628
 6704SOL    HW131745   1.705   3.852   5.083  1.6385 -1.2725 -2.3550
 6704SOL    HW231746   1.563   3.834   5.112 -2.3776  0.1001 -2.8218
 6705SOL     OW31747   0.899   1.455   1.527  0.3056  0.1935 -0.0372
 6705SOL    HW131748   0.880   1.542   1.493  0.6310  0.5032  0.5869
 6705SOL    HW231749   0.848   1.396   1.470  0.6649  0.7223 -0.8996
 6706SOL     OW31750   2.835   4.442  16.595 -0.1722  0.3218 -0.6019
 6706SOL    HW131751   2.902   4.508  16.576  2.3969 -1.4454  2.3025
 6706SOL    HW231752   2.763   4.488  16.553 -1.7466 -1.1084  0.5540
 6707SOL     OW31753   4.297   1.530   1.324 -0.1024  0.7978 -0.6498
 6707SOL    HW131754   4.342   1.446   1.311 -0.3122  0.0646  3.3334
 6707SOL    HW231755   4.339   1.594   1.267  3.5654 -0.3012  0.8004
 6708SOL     OW31756   3.869   0.925   6.650  0.0495  0.2268 -0.1342
 6708SOL    HW131757   3.963   0.924   6.669  0.1683  1.2384 -0.6602
 6708SOL    HW231758   3.852   0.832   6.636 -1.7756  0.7195 -1.0896
 6709SOL     OW31759   4.667   4.500   8.381  0.1421  0.3281 -0.2365
 6709SOL    HW131760   4.654   4.406   8.394  0.4375  0.3276  0.0617
 6709SOL    HW231761   4.618   4.530   8.458 -0.3602  0.4966 -0.6238
 6710SOL     OW31762   3.540   0.088   2.976  0.1234 -0.1915  0.0276
 6710SOL    HW131763   3.590   0.138   2.911  2.5104 -1.0678  1.2061
 6710SOL    HW231764   3.519   0.008   2.928 -0.0184 -0.7915  1.1106
 6711SOL     OW31765   0.496   1.889   6.956 -0.1977 -0.0242  0.0208
 6711SOL    HW131766   0.499   1.896   6.861 -0.0870 -0.4010 -0.0034
 6711SOL    HW231767   0.498   1.982   6.976  0.5263  0.3735 -1.8960
 6712SOL     OW31768   1.462   2.603   4.487 -0.5590  0.8681 -0.0352
 6712SOL    HW131769   1.409   2.563   4.556 -0.2723 -2.6874 -1.8612
 6712SOL    HW231770   1.483   2.691   4.516  1.5166  0.3671  0.0051
 6713SOL     OW31771   2.271   1.515   6.618 -0.5777 -0.2234 -0.2445
 6713SOL    HW131772   2.209   1.587   6.616 -1.7400 -1.1262  3.0010
 6713SOL    HW231773   2.322   1.531   6.539  0.9265 -1.0242  0.5609
 6714SOL     OW31774   2.842   4.475   8.333  0.3659  0.2455 -0.2779
 6714SOL    HW131775   2.906   4.472   8.404 -2.2218  0.9288  2.0648
 6714SOL    HW231776   2.831   4.381   8.321  0.9493 -0.0241  1.3121
 6715SOL     OW31777   3.131   2.489   2.566  0.3135 -0.0626  0.0989
 6715SOL    HW131778   3.222   2.503   2.592  0.0289 -0.5204  1.3696
 6715SOL    HW231779   3.144   2.441   2.484  0.3310  1.7911 -0.9734
 6716SOL     OW31780   2.697   0.025   3.162 -0.0036 -0.5071 -0.3500
 6716SOL    HW131781   2.679   0.116   3.183  4.8935  0.3914  0.0250
 6716SOL    HW231782   2.738   4.729   3.244  0.7774  0.9702 -0.2431
 6717SOL     OW31783   1.640   3.921   6.401  0.2221 -0.6606 -0.4400
 6717SOL    HW131784   1.568   3.871   6.440 -1.1685  1.5466 -0.2069
 6717SOL    HW231785   1.625   4.008   6.437  1.7497 -0.8899  0.7415
 6718SOL     OW31786   2.299   0.891   4.045 -0.2247 -0.0361 -0.2989
 6718SOL    HW131787   2.223   0.916   3.992 -0.2935 -1.3330 -0.8219
 6718SOL    HW231788   2.274   0.801   4.069  1.6108 -0.0710  1.4735
 6719SOL     OW31789   0.698   4.231  13.440  0.1500 -0.1130  0.2191
 6719SOL    HW131790   0.667   4.252  13.527 -0.0004 -0.9416  0.3705
 6719SOL    HW231791   0.620   4.191  13.402  1.5128 -1.5645 -1.0866
 6720SOL     OW31792   4.368   3.423   9.582 -0.1072 -0.3959 -0.1402
 6720SOL    HW131793   4.437   3.381   9.632  0.7914  1.3874  0.1468
 6720SOL    HW231794   4.349   3.502   9.633  0.7249 -0.7326  0.6785
 6721SOL     OW31795   1.276   1.655   9.448  0.1994 -0.4911 -0.2095
 6721SOL    HW131796   1.278   1.702   9.531  0.6821  1.6406 -1.4484
 6721SOL    HW231797   1.300   1.569   9.483  0.1651 -0.9277 -1.2531
 6722SOL     OW31798   0.397   2.927   5.508 -0.7977  0.4506  0.1347
 6722SOL    HW131799   0.407   2.848   5.455  0.1256  1.0054 -0.5269
 6722SOL    HW231800   0.472   2.979   5.478 -1.3293  0.6340 -0.8630
 6723SOL     OW31801   0.616   1.616   6.146  0.5554 -0.7336 -0.3502
 6723SOL    HW131802   0.575   1.604   6.060  0.4321 -1.5150 -0.1884
 6723SOL    HW231803   0.697   1.652   6.112  0.3155 -1.2893 -1.5060
 6724SOL     OW31804   4.319   3.067   4.641 -0.0306  0.0453 -0.1795
 6724SOL    HW131805   4.249   3.133   4.640  1.7452  1.9263 -1.0721
 6724SOL    HW231806   4.399   3.119   4.634  0.0661  0.0917  1.2834
 6725SOL     OW31807   0.315   4.160   8.713 -0.4476 -0.1499  0.9809
 6725SOL    HW131808   0.235   4.108   8.718  0.1951 -1.0533  1.8843
 6725SOL    HW231809   0.383   4.100   8.682  0.1576  2.0681 -1.9137
 6726SOL     OW31810   3.574   1.260   4.567  0.0132 -0.1755  0.1859
 6726SOL    HW131811   3.542   1.331   4.622 -0.1729 -0.8721  0.9718
 6726SOL    HW231812   3.620   1.299   4.493 -0.2928  0.9850  0.6044
 6727SOL     OW31813   0.320   3.376   5.348  0.1587  0.1951  0.0626
 6727SOL    HW131814   0.375   3.352   5.274 -0.6080  3.9605 -1.7549
 6727SOL    HW231815   0.378   3.349   5.419 -0.3969 -0.1900  0.3748
 6728SOL     OW31816   0.596   2.738  12.740 -0.3242  0.4042  0.2415
 6728SOL    HW131817   0.510   2.698  12.757  0.2033 -1.4443 -1.3224
 6728SOL    HW231818   0.652   2.660  12.740 -1.3592 -0.3567 -2.0949
 6729SOL     OW31819   1.141   1.952  14.727  0.3829 -0.5235 -0.4445
 6729SOL    HW131820   1.199   1.880  14.753  0.1341 -0.5038  0.1504
 6729SOL    HW231821   1.142   1.946  14.631 -1.9176  0.2088 -0.5113
 6730SOL     OW31822   0.142   2.190   7.181 -0.6147  0.3435  0.0765
 6730SOL    HW131823   0.186   2.120   7.133 -1.4030  0.0150 -0.1621
 6730SOL    HW231824   0.215   2.218   7.236 -0.9367 -0.0367  0.6882
 6731SOL     OW31825   2.461   0.434   4.220  0.3931  0.1253 -0.1720
 6731SOL    HW131826   2.547   0.406   4.188  0.1752 -0.1747 -0.4971
 6731SOL    HW231827   2.419   0.470   4.142 -0.3766 -1.3268 -0.4271
 6732SOL     OW31828   3.880   1.500   5.712  0.3114 -0.1597 -0.4575
 6732SOL    HW131829   3.943   1.504   5.783  0.8941 -0.8849 -0.9289
 6732SOL    HW231830   3.810   1.447   5.751  1.0676  0.8360  2.2024
 6733SOL     OW31831   2.637   1.597   2.454  0.5699  0.4228 -0.3573
 6733SOL    HW131832   2.724   1.565   2.430  0.0255  0.2759 -2.0789
 6733SOL    HW231833   2.582   1.536   2.405 -2.5541 -0.2939  3.9474
 6734SOL     OW31834   4.228   4.720   7.364 -0.1104 -0.2713  0.8139
 6734SOL    HW131835   4.161   0.012   7.300  0.6465 -3.1646 -1.0773
 6734SOL    HW231836   4.235   0.065   7.420  0.4049 -0.0572  0.4575
 6735SOL     OW31837   2.964   1.810  12.163  0.4383 -0.0696  0.9335
 6735SOL    HW131838   2.969   1.749  12.236  3.6877  2.2091  2.5957
 6735SOL    HW231839   2.870   1.826  12.152  0.5927  1.6264  2.0920
 6736SOL     OW31840   2.948   1.579  11.904 -0.4448 -0.2950  0.2549
 6736SOL    HW131841   2.930   1.640  11.976 -0.1816  0.1751 -0.0806
 6736SOL    HW231842   2.994   1.509  11.949  1.0479  0.9497  0.6726
 6737SOL     OW31843   0.743   0.698   0.942  0.1973 -0.4854 -0.7666
 6737SOL    HW131844   0.655   0.735   0.948 -1.0634 -3.6798  0.0773
 6737SOL    HW231845   0.737   0.666   1.032 -0.4290 -0.2355 -0.7166
 6738SOL     OW31846   0.888   3.172   6.383  0.5893 -0.1566  0.0763
 6738SOL    HW131847   0.809   3.225   6.370  1.2566  0.9653  0.6047
 6738SOL    HW231848   0.950   3.245   6.381 -0.6298  0.8728 -0.3032
 6739SOL     OW31849   0.398   2.362  17.681  0.3703  0.1629 -0.1867
 6739SOL    HW131850   0.356   2.381   0.037  1.1280  0.2106  0.1792
 6739SOL    HW231851   0.432   2.275  17.701 -0.4663  0.0131  0.6081
 6740SOL     OW31852   0.689   0.131   5.079  0.1613  0.0596 -0.0991
 6740SOL    HW131853   0.673   0.078   5.000 -2.9202 -0.0414  0.5782
 6740SOL    HW231854   0.771   0.098   5.115 -0.3443 -2.2402 -1.0102
 6741SOL     OW31855   3.832   0.354   3.795 -0.5129  0.1643  0.1846
 6741SOL    HW131856   3.915   0.401   3.794  0.4490 -1.5882 -2.1605
 6741SOL    HW231857   3.810   0.368   3.887 -0.9454  0.0387  0.1010
 6742SOL     OW31858   2.100   4.346   6.924 -0.3232  0.2375 -0.3124
 6742SOL    HW131859   2.194   4.340   6.940 -0.0098  0.8952 -2.0129
 6742SOL    HW231860   2.093   4.397   6.844  2.2804  0.5410 -0.3500
 6743SOL     OW31861   0.939   1.229   4.817  0.3005  0.0590 -0.2634
 6743SOL    HW131862   0.961   1.211   4.908 -2.5191  1.5320  0.7152
 6743SOL    HW231863   0.869   1.294   4.825  1.3204  0.9332  1.5261
 6744SOL     OW31864   3.469   4.104   4.087 -0.5965  0.0885  0.2215
 6744SOL    HW131865   3.430   4.041   4.147 -0.4865 -0.8242 -0.6575
 6744SOL    HW231866   3.403   4.174   4.086  0.8533  1.4373  0.4942
 6745SOL     OW31867   2.571   3.775   5.347  0.2596  0.1457 -0.1457
 6745SOL    HW131868   2.587   3.790   5.254 -0.1244 -0.9805 -0.3823
 6745SOL    HW231869   2.662   3.767   5.377 -0.0029 -1.5878  0.1891
 6746SOL     OW31870   0.272   1.970   9.184  0.0606  0.4256  0.2470
 6746SOL    HW131871   0.324   1.891   9.169  1.2758  0.9501  1.7347
 6746SOL    HW231872   0.295   1.997   9.273 -2.4376  0.4201  0.9015
 6747SOL     OW31873   1.331   4.193   3.484 -0.0824 -0.7563  0.5331
 6747SOL    HW131874   1.348   4.176   3.391  1.0085  0.5199  0.5092
 6747SOL    HW231875   1.265   4.260   3.468  0.4055 -0.0813  1.3750
 6748SOL     OW31876   4.310   1.691   3.451 -0.1789 -0.1221 -0.4839
 6748SOL    HW131877   4.359   1.646   3.383  1.9714 -0.8152  1.5421
 6748SOL    HW231878   4.267   1.624   3.504  0.2136  0.7295  0.9086
 6749SOL     OW31879   3.874   1.532   4.199  0.2585  0.6162  0.1151
 6749SOL    HW131880   3.885   1.627   4.200  1.2096  0.4909  1.5764
 6749SOL    HW231881   3.950   1.496   4.153  1.0220 -0.4216  2.2021
 6750SOL     OW31882   1.186   0.248   8.731  0.2758  0.4345 -0.2161
 6750SOL    HW131883   1.150   0.239   8.642 -1.1239 -0.5213  0.4355
 6750SOL    HW231884   1.165   0.161   8.764  0.0564  1.3445  2.0113
 6751SOL     OW31885   0.473   4.409  13.999 -0.3734  0.0586  0.2331
 6751SOL    HW131886   0.472   4.500  14.027 -4.8549 -0.8401  3.0700
 6751SOL    HW231887   0.566   4.386  14.005 -0.6036 -0.7439  0.7141
 6752SOL     OW31888   4.304   2.846   3.114 -0.2379 -0.9307 -0.4912
 6752SOL    HW131889   4.395   2.817   3.105  0.5265  0.9047  1.5016
 6752SOL    HW231890   4.249   2.771   3.090  1.2099 -2.1117 -0.0943
 6753SOL     OW31891   3.304   4.016  17.388  0.0251 -0.2982  0.2331
 6753SOL    HW131892   3.381   4.038  17.441  1.0238  0.0653 -1.3731
 6753SOL    HW231893   3.273   4.101  17.359 -0.8677 -0.4882  0.6459
 6754SOL     OW31894   2.211   3.128  15.649 -0.0447  0.1740 -0.1893
 6754SOL    HW131895   2.148   3.058  15.665  0.6542 -0.5326 -0.5116
 6754SOL    HW231896   2.297   3.087  15.649  0.3303  0.9494  0.0161
 6755SOL     OW31897   4.713   1.170   0.924  0.0873 -0.1427  0.3037
 6755SOL    HW131898   0.046   1.106   0.953 -0.5402 -0.4699  0.9669
 6755SOL    HW231899   4.713   1.143   0.832  2.0761 -1.2762  0.6330
 6756SOL     OW31900   3.273   2.734   1.207 -0.2024 -0.3971 -0.1709
 6756SOL    HW131901   3.352   2.694   1.243  1.1658  0.5348 -2.1118
 6756SOL    HW231902   3.295   2.725   1.114 -0.4504  0.1975 -0.2867
 6757SOL     OW31903   2.532   2.979   7.460 -0.0085 -0.0512  0.9409
 6757SOL    HW131904   2.515   3.015   7.373  1.5343 -1.7535 -0.0575
 6757SOL    HW231905   2.581   2.899   7.441 -0.7123 -0.8331  2.4254
 6758SOL     OW31906   0.484   2.690   9.069 -0.9480 -0.3108  0.2840
 6758SOL    HW131907   0.472   2.635   8.991 -2.6474 -2.4446  2.0471
 6758SOL    HW231908   0.532   2.632   9.128 -0.5631  0.2133  0.4868
 6759SOL     OW31909   2.605   0.963   0.192 -0.4697  0.0943 -0.4173
 6759SOL    HW131910   2.596   0.871   0.217  1.6331  0.3731  1.3324
 6759SOL    HW231911   2.679   0.949   0.134 -0.6635 -0.6733 -0.4808
 6760SOL     OW31912   1.222   1.177   4.706 -0.6420 -0.4859 -0.0998
 6760SOL    HW131913   1.161   1.111   4.672 -0.7150  0.2225 -1.3381
 6760SOL    HW231914   1.159   1.241   4.739  1.9440  1.1534  1.6544
 6761SOL     OW31915   2.479   3.971   7.945  0.8386 -0.1090  0.3055
 6761SOL    HW131916   2.496   4.050   7.996 -0.0813 -1.1059  2.1413
 6761SOL    HW231917   2.495   3.905   8.012 -0.0634 -0.2622  0.3643
 6762SOL     OW31918   0.439   4.722   1.704 -0.2678  0.3505 -0.4348
 6762SOL    HW131919   0.352   4.695   1.674  0.6117 -1.8227 -1.0190
 6762SOL    HW231920   0.419   0.070   1.753 -0.2444 -0.9801  1.7755
 6763SOL     OW31921   1.891   2.673   4.399  0.4408 -0.1163  0.0328
 6763SOL    HW131922   1.820   2.612   4.380 -2.6490  2.6542  2.8329
 6763SOL    HW231923   1.845   2.754   4.375  0.9683 -0.4729 -2.1347
 6764SOL     OW31924   1.990   2.927   4.472  0.3396 -0.9229  0.0103
 6764SOL    HW131925   2.075   2.957   4.440  0.0827  0.2599  0.4450
 6764SOL    HW231926   2.013   2.902   4.562 -1.5139  0.1787  0.7965
 6765SOL     OW31927   0.755   2.491   7.947  0.0900 -0.4125 -0.3706
 6765SOL    HW131928   0.698   2.422   7.980 -1.0273  0.3087 -0.8227
 6765SOL    HW231929   0.735   2.561   8.009  0.4886 -1.5503  1.0412
 6766SOL     OW31930   2.131   2.243  12.283 -0.0312  0.2293  0.3890
 6766SOL    HW131931   2.096   2.284  12.362  0.0718 -0.1102  0.6130
 6766SOL    HW231932   2.060   2.211  12.227  0.5216 -0.1528 -0.0886
 6767SOL     OW31933   0.315   0.260  16.442 -0.0686  0.8848 -0.1249
 6767SOL    HW131934   0.372   0.320  16.393  0.5506 -2.1478 -3.0669
 6767SOL    HW231935   0.233   0.307  16.426 -1.0449 -0.8702 -0.2438
 6768SOL     OW31936   4.477   3.698   1.961 -0.0965  0.5040 -0.3875
 6768SOL    HW131937   4.479   3.792   1.979 -1.0449  0.6912 -1.2805
 6768SOL    HW231938   4.515   3.685   1.874 -1.6666  0.6087 -1.0828
 6769SOL     OW31939   3.678   2.076   3.517 -0.7166  0.4027 -0.3753
 6769SOL    HW131940   3.732   2.067   3.439  0.5627 -0.1993  0.5763
 6769SOL    HW231941   3.666   2.171   3.508  0.0049  0.4169 -1.2218
 6770SOL     OW31942   0.735   2.537   5.022  0.1561 -0.2620  0.3121
 6770SOL    HW131943   0.743   2.627   5.054 -2.0799 -0.1055  0.4057
 6770SOL    HW231944   0.667   2.500   5.078  0.6204  1.7473  2.2106
 6771SOL     OW31945   1.531   0.267  10.684 -1.0642  0.0008  0.1963
 6771SOL    HW131946   1.589   0.339  10.660 -0.4940  0.1266  1.9858
 6771SOL    HW231947   1.536   0.259  10.779 -0.8686  1.4925  0.3000
 6772SOL     OW31948   2.528   2.194   2.162 -0.3919  0.2528  0.4984
 6772SOL    HW131949   2.463   2.229   2.101 -1.7279 -1.0472  1.1921
 6772SOL    HW231950   2.488   2.194   2.248 -1.4970  0.0876 -0.0157
 6773SOL     OW31951   3.206   2.441   9.160 -0.1816  0.1782  0.5034
 6773SOL    HW131952   3.233   2.362   9.114 -3.5770  0.3991 -1.8974
 6773SOL    HW231953   3.124   2.464   9.116  0.5474 -1.9820 -1.9652
 6774SOL     OW31954   0.496   0.855  17.250 -0.3413 -0.2223  0.4113
 6774SOL    HW131955   0.477   0.766  17.281  1.0265 -1.3988 -2.1049
 6774SOL    HW231956   0.414   0.904  17.258  0.1296  0.8340 -1.2109
 6775SOL     OW31957   0.187   2.562   2.167 -0.2235  0.0065 -0.8168
 6775SOL    HW131958   0.105   2.584   2.211  0.2672  0.5847 -0.1912
 6775SOL    HW231959   0.194   2.466   2.172 -0.1370  0.1194  1.6189
 6776SOL     OW31960   2.749   0.997   4.250 -0.0025 -0.0908 -0.2056
 6776SOL    HW131961   2.767   0.923   4.308  2.1153  1.3106  0.9374
 6776SOL    HW231962   2.740   1.078   4.301  0.9378 -0.8027  1.0819
 6777SOL     OW31963   1.459   0.465   6.875 -0.1426 -0.0647 -0.6070
 6777SOL    HW131964   1.383   0.507   6.915  0.7761  0.2398  0.8207
 6777SOL    HW231965   1.516   0.541   6.863  0.6796 -0.5832  0.0227
 6778SOL     OW31966   0.191   4.094   3.991  0.6452  0.5262  0.0834
 6778SOL    HW131967   0.193   4.025   3.925 -0.2660  0.9358 -0.3812
 6778SOL    HW231968   0.250   4.064   4.060  1.7755  0.1939 -1.0202
 6779SOL     OW31969   1.372   0.803   2.214 -0.0635  0.2661  0.1150
 6779SOL    HW131970   1.369   0.880   2.271  3.1428  1.2432 -1.0136
 6779SOL    HW231971   1.424   0.832   2.138  1.2534 -0.7949  0.6007
 6780SOL     OW31972   0.537   4.190  14.296  0.0866  0.0180 -0.5127
 6780SOL    HW131973   0.487   4.140  14.232 -0.5385  0.5405 -0.4322
 6780SOL    HW231974   0.624   4.178  14.260 -0.6757  1.3608 -2.7670
 6781SOL     OW31975   3.092   0.512   5.229 -0.6611  0.1883 -0.4009
 6781SOL    HW131976   3.068   0.444   5.292  1.2768  0.1623  0.3142
 6781SOL    HW231977   3.009   0.524   5.183 -1.0564  1.4515  0.6536
 6782SOL     OW31978   2.352   4.409   7.967 -0.2788  0.0186 -0.7213
 6782SOL    HW131979   2.288   4.420   7.898 -0.1730  0.6117 -0.7219
 6782SOL    HW231980   2.351   4.492   8.015 -2.4238 -0.6452  0.3786
 6783SOL     OW31981   1.524   0.812  10.038 -0.2208  0.1607  0.3071
 6783SOL    HW131982   1.491   0.722  10.048 -2.9867  1.1271 -0.4646
 6783SOL    HW231983   1.479   0.841   9.959  1.2880 -1.2859 -1.0964
 6784SOL     OW31984   0.702   0.574  15.330  0.3154  0.4614  0.0573
 6784SOL    HW131985   0.796   0.571  15.347  0.5395  2.5050 -0.8775
 6784SOL    HW231986   0.694   0.503  15.266  0.7110 -0.1722  0.7089
 6785SOL     OW31987   0.518   1.398   1.892 -0.4275 -0.7224 -0.4564
 6785SOL    HW131988   0.423   1.406   1.897 -0.5091 -0.5114 -2.2753
 6785SOL    HW231989   0.521   1.303   1.901 -2.3145 -0.9955 -2.6908
 6786SOL     OW31990   3.120   3.069   8.411  0.1791  0.0182 -0.3101
 6786SOL    HW131991   3.192   3.114   8.367  0.1175 -0.1996 -0.6338
 6786SOL    HW231992   3.139   3.084   8.504  0.6328 -0.4248 -0.3308
 6787SOL     OW31993   3.023   2.150   9.463  0.3807  0.0793  0.1213
 6787SOL    HW131994   3.043   2.241   9.443 -1.1884  0.8690  2.1560
 6787SOL    HW231995   2.950   2.138   9.403  1.9771 -0.5130 -1.7267
 6788SOL     OW31996   3.841   1.348   6.381  0.2015  0.0995 -0.6840
 6788SOL    HW131997   3.935   1.361   6.373 -0.1037  1.2269 -2.4893
 6788SOL    HW231998   3.805   1.428   6.343  0.3165  0.3801 -0.2083
 6789SOL     OW31999   1.714   0.035   9.294 -0.7397  0.2219  0.4209
 6789SOL    HW132000   1.674   4.717   9.223  1.4222  0.8186 -1.1859
 6789SOL    HW232001   1.806   0.013   9.284 -0.5843  0.3893  1.4548
 6790SOL     OW32002   0.903   1.986   0.368  0.2112  0.0092  0.1493
 6790SOL    HW132003   0.825   1.975   0.422  0.0500 -0.2574 -0.1351
 6790SOL    HW232004   0.917   2.081   0.374  0.4927 -0.1747  2.1373
 6791SOL     OW32005   3.077   2.316   6.365 -0.6873  0.3721 -0.1496
 6791SOL    HW132006   3.120   2.232   6.349 -1.7378 -0.1951 -0.0200
 6791SOL    HW232007   3.145   2.372   6.402  1.5717 -3.3514  1.2866
 6792SOL     OW32008   4.694   4.593   5.640 -0.2474  0.3631  0.2222
 6792SOL    HW132009   4.692   4.547   5.724 -0.4785 -0.6072 -0.3188
 6792SOL    HW232010   4.649   4.531   5.582  2.7142 -1.0604 -0.5369
 6793SOL     OW32011   3.939   1.799  17.108  0.3443  0.0356 -0.3197
 6793SOL    HW132012   4.015   1.836  17.153  0.1808 -0.0844  0.0519
 6793SOL    HW232013   3.868   1.859  17.132 -0.6956 -1.4092  0.1655
 6794SOL     OW32014   1.016   3.285   2.075  0.1479  0.1565  0.7928
 6794SOL    HW132015   1.059   3.357   2.121  1.2243  0.0110  0.0048
 6794SOL    HW232016   1.083   3.217   2.063 -1.5836 -1.3367 -0.5281
 6795SOL     OW32017   2.102   4.427   8.233 -0.0904 -0.3780 -0.6862
 6795SOL    HW132018   2.016   4.429   8.275 -0.6668 -0.9313 -1.8419
 6795SOL    HW232019   2.142   4.499   8.282  0.3269 -0.5008 -0.8449
 6796SOL     OW32020   4.058   3.445   7.845  0.2950 -0.1810 -0.4371
 6796SOL    HW132021   4.038   3.352   7.856 -2.0212  0.3950  0.2560
 6796SOL    HW232022   4.064   3.461   7.939 -1.0828 -1.9321 -0.0376
 6797SOL     OW32023   1.525   3.427   0.557  0.3543  0.2727 -0.0565
 6797SOL    HW132024   1.597   3.403   0.499 -0.1144  0.4999 -0.7298
 6797SOL    HW232025   1.529   3.350   0.614 -1.4429 -0.1511 -0.5079
 6798SOL     OW32026   2.323   3.241   6.746  0.3615 -0.3555  0.5873
 6798SOL    HW132027   2.290   3.302   6.679 -1.4559 -0.4511  1.3836
 6798SOL    HW232028   2.379   3.187   6.690  1.9393  0.4744  1.3703
 6799SOL     OW32029   2.273   0.801   8.565  0.4106 -0.0920  0.5702
 6799SOL    HW132030   2.214   0.819   8.491  1.3177 -1.9016 -0.5744
 6799SOL    HW232031   2.352   0.770   8.521  0.3235  0.5098 -0.0219
 6800SOL     OW32032   3.420   2.391   7.634  0.4185  0.4462  0.0593
 6800SOL    HW132033   3.431   2.486   7.630  0.8799  0.3899  0.0440
 6800SOL    HW232034   3.473   2.357   7.562 -1.6170 -0.0479 -1.2006
 6801SOL     OW32035   4.616   1.303  11.047 -0.4238  0.1136  0.1350
 6801SOL    HW132036   4.590   1.308  10.955  0.3947 -2.2886 -0.2084
 6801SOL    HW232037   4.658   1.388  11.062  0.5726 -0.4033  0.2562
 6802SOL     OW32038   3.534   1.174   5.238 -0.1921 -0.1100  0.3874
 6802SOL    HW132039   3.479   1.114   5.187 -0.1656  0.6836 -0.5649
 6802SOL    HW232040   3.469   1.243   5.247 -0.0139  0.1816 -0.5801
 6803SOL     OW32041   0.270   2.981  12.637  0.1133  0.3324 -0.3515
 6803SOL    HW132042   0.175   2.968  12.641  0.0782  0.5349 -0.5679
 6803SOL    HW232043   0.284   2.939  12.552 -2.5044 -1.3101  0.0251
 6804SOL     OW32044   3.905   1.511  12.539 -0.2530  0.0898 -0.1853
 6804SOL    HW132045   3.817   1.524  12.504  0.3889 -0.9921 -2.2056
 6804SOL    HW232046   3.878   1.509  12.631  1.4781  0.9742  0.3405
 6805SOL     OW32047   0.772   3.054   3.259 -0.1494  0.4883 -0.3354
 6805SOL    HW132048   0.806   3.141   3.281  1.3983  0.3317 -2.0809
 6805SOL    HW232049   0.733   3.073   3.174  0.1818 -1.5556 -0.9585
 6806SOL     OW32050   2.584   4.553   4.191  0.4631 -0.1417 -0.6750
 6806SOL    HW132051   2.652   4.579   4.129  2.6110  0.4125  1.8727
 6806SOL    HW232052   2.519   4.621   4.176  2.4395  2.1895  1.3325
 6807SOL     OW32053   3.769   2.294  15.791 -0.4705 -0.1477 -0.5829
 6807SOL    HW132054   3.790   2.226  15.854 -0.1077  0.4108 -0.1037
 6807SOL    HW232055   3.725   2.250  15.718  2.1048 -2.0053 -0.9988
 6808SOL     OW32056   1.509   1.336   6.598 -0.2271  0.1392 -0.1464
 6808SOL    HW132057   1.549   1.310   6.515  1.5267 -0.6448  0.9662
 6808SOL    HW232058   1.586   1.327   6.653  0.5670  1.3156 -1.0682
 6809SOL     OW32059   0.258   3.514   5.854 -0.3598  0.4853 -0.2684
 6809SOL    HW132060   0.333   3.462   5.885  0.5951  0.7248 -2.1967
 6809SOL    HW232061   0.298   3.592   5.817  0.0240  0.3180 -0.2088
 6810SOL     OW32062   3.334   2.088   9.216  0.0412  0.5424  0.0435
 6810SOL    HW132063   3.370   2.157   9.272  0.5014  0.1833  0.1904
 6810SOL    HW232064   3.286   2.137   9.150  0.4533 -1.3220 -1.6245
 6811SOL     OW32065   3.399   2.295   2.423  0.0471 -0.4400 -0.2851
 6811SOL    HW132066   3.472   2.305   2.486 -1.5875 -1.2783  1.7596
 6811SOL    HW232067   3.422   2.218   2.372 -0.0858 -0.4246 -0.3673
 6812SOL     OW32068   3.362   2.784   2.387  0.0915 -0.0213  0.1768
 6812SOL    HW132069   3.303   2.734   2.332  1.9348  0.3034 -2.0777
 6812SOL    HW232070   3.410   2.838   2.323 -1.9775  1.9494  0.2926
 6813SOL     OW32071   2.044   4.077   4.833 -0.3292 -0.3022 -0.3496
 6813SOL    HW132072   2.079   4.166   4.828  2.0166 -1.1780  0.4754
 6813SOL    HW232073   1.957   4.111   4.855  0.6036  2.0536 -0.2933
 6814SOL     OW32074   1.416   1.827  14.538 -0.1330 -0.0724 -0.5581
 6814SOL    HW132075   1.352   1.886  14.498 -0.6423 -0.3985 -0.2376
 6814SOL    HW232076   1.369   1.793  14.614 -0.6761 -0.8713 -1.2542
 6815SOL     OW32077   4.573   0.180   9.105  0.2094 -0.4024 -0.2830
 6815SOL    HW132078   4.641   0.161   9.169 -0.8984 -0.0480  1.0047
 6815SOL    HW232079   4.493   0.141   9.141 -0.8352 -0.0230 -2.1974
 6816SOL     OW32080   3.848   3.465   4.962  0.0809 -0.1691 -0.1361
 6816SOL    HW132081   3.803   3.437   4.883  0.3338 -1.1232  0.0640
 6816SOL    HW232082   3.808   3.550   4.981  0.6696 -0.1778  1.1750
 6817SOL     OW32083   1.551   2.972   2.232 -0.8337 -0.8110 -0.3931
 6817SOL    HW132084   1.633   2.950   2.188 -1.3306  0.5388 -2.0016
 6817SOL    HW232085   1.579   2.987   2.323 -2.2914  0.3354 -0.1332
 6818SOL     OW32086   1.298   0.183   5.986  0.4220 -0.2510  0.6145
 6818SOL    HW132087   1.238   0.239   6.036  1.5364  2.8338 -1.5799
 6818SOL    HW232088   1.255   0.180   5.901  0.4841  0.0139  0.5761
 6819SOL     OW32089   0.403   4.100  10.360  0.0577  0.1011  0.7489
 6819SOL    HW132090   0.476   4.160  10.345 -0.6039  0.7684  0.2209
 6819SOL    HW232091   0.435   4.012  10.338  1.8561  0.8260  0.4703
 6820SOL     OW32092   2.517   4.249   4.994  0.1076 -0.2651 -0.0779
 6820SOL    HW132093   2.609   4.268   4.976 -0.7120  2.3245 -1.5310
 6820SOL    HW232094   2.525   4.218   5.085 -1.0135  0.8453  0.4010
 6821SOL     OW32095   1.814   3.659   8.061  0.4496 -0.1404 -0.5747
 6821SOL    HW132096   1.760   3.580   8.071  0.9417 -0.1328  2.1313
 6821SOL    HW232097   1.845   3.652   7.971  0.9677  0.0202 -0.4094
 6822SOL     OW32098   2.317   1.290   2.188 -0.8809  0.5242  0.0868
 6822SOL    HW132099   2.345   1.248   2.107 -1.6605  1.1646 -0.5178
 6822SOL    HW232100   2.402   1.309   2.229 -0.8865  2.3068 -0.7271
 6823SOL     OW32101   1.416   2.080   7.826  0.2115 -0.6762  0.0352
 6823SOL    HW132102   1.509   2.101   7.820 -0.1211  0.5960 -0.6383
 6823SOL    HW232103   1.409   2.031   7.744  1.4392 -1.9287  0.6736
 6824SOL     OW32104   2.165   1.097   1.321  0.1065  0.0295  0.4924
 6824SOL    HW132105   2.193   1.049   1.242  0.5041 -1.3312  1.4538
 6824SOL    HW232106   2.166   1.030   1.389 -2.4832 -0.6404 -0.1300
 6825SOL     OW32107   2.625   2.325   8.293  0.6369  0.2963 -0.1183
 6825SOL    HW132108   2.638   2.242   8.248 -0.0176  0.1327 -0.0025
 6825SOL    HW232109   2.617   2.298   8.385  0.8744  0.0474 -0.1707
 6826SOL     OW32110   3.392   3.943   5.063 -0.1863 -0.1434  0.4321
 6826SOL    HW132111   3.428   3.857   5.083 -1.0743 -0.5611  0.2395
 6826SOL    HW232112   3.391   3.954   4.968 -0.5620  2.3118  0.7207
 6827SOL     OW32113   2.036   1.664   7.100 -0.7754 -0.3918 -0.8889
 6827SOL    HW132114   2.005   1.754   7.107 -0.3053 -0.2489 -0.5870
 6827SOL    HW232115   2.081   1.674   7.016 -0.9273 -1.1998 -1.0644
 6828SOL     OW32116   1.818   2.764   4.742  0.8385  0.1140  0.1997
 6828SOL    HW132117   1.797   2.850   4.778 -0.1006  0.7349 -1.8353
 6828SOL    HW232118   1.734   2.744   4.702  0.5448 -0.2435  0.9885
 6829SOL     OW32119   3.337   1.228   9.117 -0.2770  0.1942 -0.4651
 6829SOL    HW132120   3.336   1.168   9.043  0.4143  0.0619 -0.3738
 6829SOL    HW232121   3.244   1.222   9.137 -0.2148  1.0897  0.1124
 6830SOL     OW32122   1.978   3.400  14.868  0.3402  0.0786 -0.3087
 6830SOL    HW132123   1.982   3.371  14.777 -1.3124 -0.5339 -0.1871
 6830SOL    HW232124   2.056   3.452  14.886 -0.5829  1.3954 -0.0708
 6831SOL     OW32125   0.252   4.414   8.659 -0.2953 -0.5299  0.4494
 6831SOL    HW132126   0.182   4.404   8.595 -0.3780 -0.7509  0.5747
 6831SOL    HW232127   0.296   4.329   8.650 -0.1859 -0.4757  0.4741
 6832SOL     OW32128   2.557   0.869   6.706  0.2692  0.2492  0.1487
 6832SOL    HW132129   2.581   0.958   6.681  3.1182 -0.2310  1.1320
 6832SOL    HW232130   2.567   0.815   6.628  2.8069  0.1988  0.5155
 6833SOL     OW32131   0.667   3.956   6.651  0.2112 -0.2808 -0.2420
 6833SOL    HW132132   0.742   3.911   6.688  0.8383 -1.4330 -2.9118
 6833SOL    HW232133   0.628   3.880   6.606 -0.0508 -0.9815  1.1694
 6834SOL     OW32134   2.998   0.307   5.369 -0.6660  0.1709 -0.2173
 6834SOL    HW132135   2.911   0.316   5.409 -1.3794  0.0425 -1.7384
 6834SOL    HW232136   2.974   0.235   5.312  0.2752 -0.6780  0.4574
 6835SOL     OW32137   2.918   3.898   8.398  0.2876  0.2576  0.0896
 6835SOL    HW132138   2.986   3.837   8.425  1.2270  1.4464  0.3838
 6835SOL    HW232139   2.837   3.855   8.425  1.6553 -2.1982  0.2672
 6836SOL     OW32140   0.370   0.623   4.908 -0.3413  1.1892 -0.0098
 6836SOL    HW132141   0.351   0.640   4.816 -0.4494 -1.8721 -0.5766
 6836SOL    HW232142   0.463   0.611   4.926 -0.5214  0.3595  0.3789
 6837SOL     OW32143   4.175   0.554   3.421 -0.3935  0.1130  0.2792
 6837SOL    HW132144   4.265   0.532   3.398  0.4454  2.5964  1.2334
 6837SOL    HW232145   4.146   0.462   3.423  2.3241 -0.7569 -0.7154
 6838SOL     OW32146   2.879   1.560   9.134 -0.2438 -0.8248 -0.2562
 6838SOL    HW132147   2.869   1.629   9.069  3.8123 -0.8036 -0.8665
 6838SOL    HW232148   2.937   1.599   9.199  1.3081 -1.5509 -1.1958
 6839SOL     OW32149   0.865   2.593   1.592  0.2378 -0.5821 -0.0064
 6839SOL    HW132150   0.821   2.536   1.655  0.1871 -0.9621 -0.3800
 6839SOL    HW232151   0.878   2.531   1.520  0.4909  0.6047 -0.9847
 6840SOL     OW32152   2.434   3.495  10.269 -0.8266  0.2479  0.5246
 6840SOL    HW132153   2.352   3.544  10.267 -1.1989 -0.3961 -0.6053
 6840SOL    HW232154   2.440   3.484  10.174  1.5704  0.6216  0.6566
 6841SOL     OW32155   1.833   1.909  17.547  0.0571 -0.6077 -0.5339
 6841SOL    HW132156   1.800   1.850  17.479  0.8335 -1.4980 -0.1302
 6841SOL    HW232157   1.768   1.980  17.550 -2.2933 -2.7702  0.2464
 6842SOL     OW32158   0.175   3.457   7.200  0.2284  0.6635 -0.4222
 6842SOL    HW132159   0.110   3.438   7.133 -0.0124 -0.6967  0.1882
 6842SOL    HW232160   0.229   3.514   7.147  0.6997 -0.0343 -0.6886
 6843SOL     OW32161   4.663   3.319   4.578  0.3393 -0.5496 -0.3620
 6843SOL    HW132162   4.647   3.226   4.592 -1.1036 -0.2033  0.3116
 6843SOL    HW232163   4.673   3.347   4.669  0.1450 -0.2072 -0.4443
 6844SOL     OW32164   1.029   1.443  15.701  0.1460  0.0130  0.0495
 6844SOL    HW132165   1.028   1.531  15.739 -0.3536  0.1574 -0.2955
 6844SOL    HW232166   1.031   1.387  15.779 -0.0673  0.9136  0.7091
 6845SOL     OW32167   2.400   4.589  10.567 -0.2238 -0.2384  0.5399
 6845SOL    HW132168   2.467   4.582  10.634  1.6692  2.1792 -1.0693
 6845SOL    HW232169   2.379   4.496  10.556  0.1445 -0.3346  0.6768
 6846SOL     OW32170   3.091   4.460   5.912 -0.0141  0.4924  0.1916
 6846SOL    HW132171   3.078   4.370   5.943 -0.5282  0.3845 -0.3279
 6846SOL    HW232172   3.172   4.481   5.957  0.9435 -0.8993 -0.8396
 6847SOL     OW32173   2.166   0.435   8.003 -0.2337  0.1708 -0.3623
 6847SOL    HW132174   2.238   0.498   8.006  1.5595 -1.8672 -0.4295
 6847SOL    HW232175   2.131   0.434   8.092  0.8178  1.0122  0.0581
 6848SOL     OW32176   2.324   3.922   6.354 -0.0892 -0.1792  0.7061
 6848SOL    HW132177   2.276   4.002   6.373  0.9835  0.7060 -0.3508
 6848SOL    HW232178   2.377   3.948   6.279 -0.1587 -0.0971  0.6848
 6849SOL     OW32179   1.327   1.076   6.615 -0.3046  0.4457 -0.3788
 6849SOL    HW132180   1.400   1.137   6.616 -0.4115  0.6249 -2.2215
 6849SOL    HW232181   1.263   1.144   6.635 -1.4100 -0.3100 -1.2925
 6850SOL     OW32182   1.096   4.380   8.398 -0.3286  0.7480 -0.3262
 6850SOL    HW132183   1.102   4.292   8.437 -3.0028  1.2443  1.1503
 6850SOL    HW232184   1.001   4.383   8.401 -0.3468 -0.8120  0.7946
 6851SOL     OW32185   1.288   0.270  11.940  0.6462  0.2282  0.3253
 6851SOL    HW132186   1.238   0.318  11.874 -0.2767  0.2494  1.0389
 6851SOL    HW232187   1.374   0.295  11.906 -0.8169  2.3533 -1.7859
 6852SOL     OW32188   3.224   4.368   7.234 -0.1511 -0.0674  0.0858
 6852SOL    HW132189   3.184   4.449   7.268 -0.3267  0.7154 -2.0296
 6852SOL    HW232190   3.140   4.327   7.210 -1.2079  1.9539  0.3116
 6853SOL     OW32191   0.302   0.149   6.794  0.1500  0.2769  0.0805
 6853SOL    HW132192   0.271   0.059   6.804  1.2156  0.0043  1.0358
 6853SOL    HW232193   0.367   0.134   6.725  0.3552  3.5382 -0.4317
 6854SOL     OW32194   2.767   2.466   5.410  0.1436  0.6310 -0.4189
 6854SOL    HW132195   2.813   2.464   5.494  0.7062  1.4724 -0.7138
 6854SOL    HW232196   2.789   2.556   5.387  2.2204  0.7532  2.0762
 6855SOL     OW32197   2.328   2.296   9.540 -0.0170 -0.2420  0.2799
 6855SOL    HW132198   2.274   2.273   9.464 -1.2167 -0.5026  1.2059
 6855SOL    HW232199   2.284   2.232   9.597 -0.2295  0.1619  0.5744
 6856SOL     OW32200   3.273   1.204   8.794  1.0569 -0.3617 -0.1369
 6856SOL    HW132201   3.268   1.114   8.824 -1.9263 -0.7516 -1.8693
 6856SOL    HW232202   3.207   1.203   8.725  0.6673 -0.7958  0.2503
 6857SOL     OW32203   3.593   3.260   9.049  0.0795 -0.2426 -0.5139
 6857SOL    HW132204   3.543   3.179   9.057  0.8252 -0.8614 -2.1146
 6857SOL    HW232205   3.638   3.249   8.966  2.1981 -1.2529  0.7786
 6858SOL     OW32206   3.122   2.459   5.627 -0.4066 -0.1196  0.3920
 6858SOL    HW132207   3.108   2.413   5.709  1.9151 -1.8813 -0.1918
 6858SOL    HW232208   3.046   2.517   5.627 -0.9277 -0.8244  2.0738
 6859SOL     OW32209   0.725   3.095   2.977 -0.0338  0.2694 -0.4781
 6859SOL    HW132210   0.736   3.185   3.009  0.1793  0.1478 -0.2071
 6859SOL    HW232211   0.658   3.098   2.909  0.6676  0.8247 -1.1516
 6860SOL     OW32212   3.915   1.821  12.279  0.1389 -0.2314  0.8425
 6860SOL    HW132213   3.973   1.890  12.311  1.6103 -1.3490  0.5443
 6860SOL    HW232214   3.890   1.847  12.190 -1.2225 -0.6622  1.0864
 6861SOL     OW32215   1.460   2.081  12.100  0.1898  0.1510 -0.0780
 6861SOL    HW132216   1.421   2.030  12.029 -0.3976  0.7978 -0.2168
 6861SOL    HW232217   1.525   2.139  12.061  0.0043  0.3967 -0.0207
 6862SOL     OW32218   0.125   2.245   8.752 -0.0036  0.4075 -0.4131
 6862SOL    HW132219   0.045   2.281   8.791 -1.0273 -2.7399  0.3552
 6862SOL    HW232220   0.155   2.191   8.825 -2.5399  0.8148  0.9331
 6863SOL     OW32221   3.924   2.545   4.937  0.4776  0.3525 -0.2916
 6863SOL    HW132222   3.911   2.512   4.848  0.2989  0.9711 -0.4941
 6863SOL    HW232223   4.016   2.567   4.923  0.6193 -2.3222 -3.6931
 6864SOL     OW32224   3.885   2.229   2.738 -0.2384  0.6106 -0.1798
 6864SOL    HW132225   3.821   2.207   2.806 -1.8531  0.0488 -1.8946
 6864SOL    HW232226   3.933   2.300   2.781  0.3599 -0.5578  1.0992
 6865SOL     OW32227   3.862   3.024   6.764 -0.0452 -0.0298 -0.5321
 6865SOL    HW132228   3.890   3.080   6.691 -0.5577  1.0582  0.1056
 6865SOL    HW232229   3.767   3.022   6.752 -0.2863 -0.1010  1.4753
 6866SOL     OW32230   1.228   0.730  15.378 -0.3850 -0.5967  0.4291
 6866SOL    HW132231   1.260   0.643  15.357  1.0868  0.4815 -1.8324
 6866SOL    HW232232   1.311   0.778  15.378 -1.4344  1.2524  6.2428
 6867SOL     OW32233   4.361   3.926   7.836 -0.4267  0.3089  0.3320
 6867SOL    HW132234   4.357   4.021   7.842  0.9073  0.4634 -1.2821
 6867SOL    HW232235   4.305   3.912   7.760 -1.3595 -0.7893  1.2281
 6868SOL     OW32236   4.654   3.508   1.625  0.3705  0.1201 -0.3132
 6868SOL    HW132237   4.663   3.478   1.534 -1.8292 -0.7410 -0.2427
 6868SOL    HW232238   4.629   3.601   1.624  1.6291  0.4480 -1.8564
 6869SOL     OW32239   2.855   4.504   9.004 -0.5367 -0.1351 -0.0562
 6869SOL    HW132240   2.811   4.563   9.065  0.9054  2.1826 -1.2099
 6869SOL    HW232241   2.939   4.496   9.049 -0.5279  1.4794  0.2188
 6870SOL     OW32242   0.758   1.240   8.035  0.3346  0.0180  0.8581
 6870SOL    HW132243   0.793   1.151   8.027  1.9103  0.7210  0.0448
 6870SOL    HW232244   0.775   1.274   7.947  1.4942  2.6152  2.0902
 6871SOL     OW32245   2.382   1.084   9.491 -0.1184 -0.1379 -0.4206
 6871SOL    HW132246   2.310   1.146   9.481 -0.6685 -0.9870 -1.6977
 6871SOL    HW232247   2.455   1.142   9.515 -0.8781  0.2037  1.0446
 6872SOL     OW32248   2.211   0.552   4.433 -0.4579  0.0232  0.0220
 6872SOL    HW132249   2.209   0.629   4.490 -3.2243  0.3151 -0.4681
 6872SOL    HW232250   2.127   0.507   4.442 -0.0211 -0.9699 -0.9471
 6873SOL     OW32251   3.603   1.136   1.928  0.3373  0.0021 -0.0764
 6873SOL    HW132252   3.661   1.066   1.957 -0.1822 -0.5940 -0.4760
 6873SOL    HW232253   3.665   1.205   1.902  2.2286 -0.4559  3.2544
 6874SOL     OW32254   2.862   2.847   5.538 -1.1869 -0.1419 -0.2366
 6874SOL    HW132255   2.771   2.875   5.544 -0.5894  1.6076  0.5049
 6874SOL    HW232256   2.910   2.925   5.565  0.5925 -1.2932 -0.0670
 6875SOL     OW32257   1.907   0.939   6.983  0.2320  0.0030  0.6883
 6875SOL    HW132258   1.906   0.844   6.969 -0.0513  0.2859 -1.1810
 6875SOL    HW232259   1.832   0.962   7.038 -0.5071 -2.1948  0.5832
 6876SOL     OW32260   4.560   2.719   3.109  0.5498 -0.2754  0.1623
 6876SOL    HW132261   4.637   2.693   3.159  0.7509 -1.7139 -0.9129
 6876SOL    HW232262   4.599   2.693   3.026  0.0106 -0.9501  0.1212
 6877SOL     OW32263   4.542   2.096   8.308 -0.3141  0.7591  0.0922
 6877SOL    HW132264   4.462   2.043   8.311 -0.4786  1.1515  2.4552
 6877SOL    HW232265   4.584   2.033   8.250 -0.8481 -0.3405  0.9007
 6878SOL     OW32266   4.007   1.202   9.911  0.8200  0.0186 -0.2797
 6878SOL    HW132267   3.987   1.294   9.931  3.4147 -0.0307  2.5632
 6878SOL    HW232268   4.102   1.195   9.921  0.8848  0.1021 -0.8446
 6879SOL     OW32269   3.267   1.880  14.451 -0.3285  0.0573 -0.0717
 6879SOL    HW132270   3.226   1.794  14.457 -0.8512  0.2755 -0.5082
 6879SOL    HW232271   3.268   1.897  14.545  1.7593 -2.1285  0.3052
 6880SOL     OW32272   2.658   4.130   8.511 -1.2863 -0.0967 -0.0018
 6880SOL    HW132273   2.567   4.135   8.542 -1.0659  0.4321  0.5515
 6880SOL    HW232274   2.654   4.200   8.446  0.0183 -1.2303 -1.2820
 6881SOL     OW32275   0.880   4.088   5.739  0.6826  0.1129  0.2247
 6881SOL    HW132276   0.805   4.059   5.687 -0.2368 -0.2922  1.7862
 6881SOL    HW232277   0.840   4.086   5.826  1.9897 -1.8662  0.7752
 6882SOL     OW32278   0.412   2.187   3.073 -0.1377  0.0697 -0.2255
 6882SOL    HW132279   0.397   2.164   2.981  0.0232  0.1009 -0.2586
 6882SOL    HW232280   0.486   2.246   3.079  1.0335 -1.4050 -0.1006
 6883SOL     OW32281   3.803   4.426   2.846  0.1536 -0.0511 -0.6585
 6883SOL    HW132282   3.807   4.498   2.783  1.7917  0.8560  0.4688
 6883SOL    HW232283   3.792   4.349   2.791  1.7350 -1.1021  0.5082
 6884SOL     OW32284   3.476   1.567   5.437  0.0547  0.5536  0.3407
 6884SOL    HW132285   3.567   1.579   5.464  0.9752 -1.1764 -2.0464
 6884SOL    HW232286   3.438   1.560   5.525  1.7610 -0.9785  0.9792
 6885SOL     OW32287   0.545   3.295  16.685  0.4793  0.0877 -0.1744
 6885SOL    HW132288   0.624   3.242  16.699 -0.1650 -0.8931 -0.2650
 6885SOL    HW232289   0.546   3.369  16.745  0.0830  1.1896 -1.5170
 6886SOL     OW32290   0.124   0.681  10.431 -0.2502  0.1651  0.0532
 6886SOL    HW132291   0.033   0.694  10.405 -0.7241 -0.7438  1.2680
 6886SOL    HW232292   0.123   0.630  10.512  0.0073  0.6101  0.3363
 6887SOL     OW32293   2.221   1.855   8.154  0.0406 -0.4710 -0.0924
 6887SOL    HW132294   2.206   1.798   8.080 -0.8705  0.7820 -0.8672
 6887SOL    HW232295   2.228   1.784   8.218 -0.8052  0.1836  0.7338
 6888SOL     OW32296   0.254   0.265   4.183  0.1398 -0.1285 -0.2739
 6888SOL    HW132297   0.170   0.233   4.150 -0.5339  0.8714  0.4861
 6888SOL    HW232298   0.249   0.268   4.278  0.2145  0.1240 -0.2771
 6889SOL     OW32299   2.883   2.396   2.647  0.5155 -0.5609  0.2314
 6889SOL    HW132300   2.812   2.437   2.598  2.0340 -0.0265 -1.5270
 6889SOL    HW232301   2.958   2.411   2.589 -0.3050  1.5913 -0.2588
 6890SOL     OW32302   1.453   3.506   6.974  0.2713  0.3776 -0.0655
 6890SOL    HW132303   1.502   3.509   6.892 -0.5868 -0.1964 -0.6044
 6890SOL    HW232304   1.367   3.482   6.940  1.1468 -0.5440 -1.6239
 6891SOL     OW32305   0.306   4.581   7.812 -0.0472 -0.0134  0.1802
 6891SOL    HW132306   0.228   4.632   7.835  0.7548  0.3685  2.0504
 6891SOL    HW232307   0.322   4.590   7.718 -0.9550 -1.0683 -0.0750
 6892SOL     OW32308   2.185   3.904   3.369 -0.2072  0.3462 -0.3705
 6892SOL    HW132309   2.193   3.998   3.349 -1.2187  1.2911  3.5950
 6892SOL    HW232310   2.117   3.908   3.437  1.0220  0.8803  0.8398
 6893SOL     OW32311   0.079   0.682   9.911 -0.3690 -0.4112  0.3657
 6893SOL    HW132312   0.090   0.693  10.005 -0.2840  0.6619  0.2341
 6893SOL    HW232313   0.045   0.593   9.922  0.6598 -0.8702 -0.1044
 6894SOL     OW32314   1.237   3.502  16.935 -0.2592 -0.0069 -0.0183
 6894SOL    HW132315   1.285   3.569  16.985 -0.5444  0.8577 -0.8963
 6894SOL    HW232316   1.163   3.559  16.912  0.3507  1.5823  1.9355
 6895SOL     OW32317   4.620   3.078   4.624  0.0019 -0.4145 -0.1605
 6895SOL    HW132318   4.628   2.984   4.607  0.3389 -0.6946  1.5622
 6895SOL    HW232319   4.608   3.070   4.718 -0.5496 -0.3758 -0.2297
 6896SOL     OW32320   0.410   0.592   0.089  0.7480  0.3741 -0.4093
 6896SOL    HW132321   0.371   0.551   0.011  0.4842  1.8705 -1.0737
 6896SOL    HW232322   0.502   0.565   0.083  0.3038 -1.2072 -0.1512
 6897SOL     OW32323   4.661   1.848   2.085 -0.2624  0.2936  0.1781
 6897SOL    HW132324   4.652   1.934   2.127 -1.5083 -1.1032  2.7491
 6897SOL    HW232325   4.644   1.872   1.994 -2.6265  0.0502  0.5774
 6898SOL     OW32326   0.078   3.746   6.709  0.0560  0.3011  0.0541
 6898SOL    HW132327   0.122   3.668   6.674 -0.8273 -0.0626 -0.2373
 6898SOL    HW232328   4.721   3.743   6.675  0.4225  1.1096 -0.9592
 6899SOL     OW32329   3.821   0.445  14.981 -0.1866 -0.1501 -0.3015
 6899SOL    HW132330   3.764   0.369  14.996  1.8037 -1.3874  0.9100
 6899SOL    HW232331   3.765   0.500  14.926  0.1071 -0.8394 -1.2635
 6900SOL     OW32332   0.977   1.541   2.838 -0.4334 -0.2446 -0.4227
 6900SOL    HW132333   0.881   1.536   2.842 -0.4803  2.2852  1.7926
 6900SOL    HW232334   0.996   1.486   2.763  0.5059  1.8113 -1.7102
 6901SOL     OW32335   1.148   3.294   0.853  0.1563 -0.5408 -0.5515
 6901SOL    HW132336   1.146   3.336   0.939 -0.9610 -1.5601 -0.0861
 6901SOL    HW232337   1.068   3.340   0.828 -0.0264 -1.0660 -0.9403
 6902SOL     OW32338   1.517   2.668   8.590 -0.6919  0.0297 -0.0499
 6902SOL    HW132339   1.450   2.661   8.657 -1.0539  0.3231 -0.3831
 6902SOL    HW232340   1.463   2.644   8.514 -0.9003  0.8278 -0.1530
 6903SOL     OW32341   0.891   4.706   6.192 -0.1262  1.0846 -0.2508
 6903SOL    HW132342   0.851   0.050   6.150 -0.1016  1.0158 -0.3979
 6903SOL    HW232343   0.937   0.004   6.270  0.9507 -3.7445  0.9624
 6904SOL     OW32344   4.072   2.495  11.413 -0.2285 -0.0486 -0.1983
 6904SOL    HW132345   3.983   2.519  11.388 -0.6223 -0.9553  0.3707
 6904SOL    HW232346   4.107   2.579  11.442 -1.3215  1.0150 -1.9074
 6905SOL     OW32347   4.200   0.317   1.775  0.0632  0.1061 -0.1968
 6905SOL    HW132348   4.181   0.257   1.848 -1.7739  0.6756 -0.2244
 6905SOL    HW232349   4.210   0.254   1.704 -0.2879 -0.5586  0.3467
 6906SOL     OW32350   0.813   4.481  12.136  0.3652 -0.0533  0.4617
 6906SOL    HW132351   0.789   4.534  12.212 -1.2599 -0.0589 -0.0405
 6906SOL    HW232352   0.865   4.551  12.095  1.1775 -0.3639  0.9725
 6907SOL     OW32353   2.227   0.364   8.815 -0.9196  0.3935 -0.3238
 6907SOL    HW132354   2.299   0.350   8.753  0.1704 -1.2596  1.3215
 6907SOL    HW232355   2.281   0.403   8.884  0.4165 -1.4593 -0.3170
 6908SOL     OW32356   1.133   0.629  17.390  0.4890  0.1582  0.7166
 6908SOL    HW132357   1.070   0.615  17.320 -0.3407  0.0338  1.4803
 6908SOL    HW232358   1.204   0.573  17.359  0.5565  1.8364 -2.1065
 6909SOL     OW32359   4.664   4.093   2.227  0.3420  0.3029  0.0900
 6909SOL    HW132360   4.664   3.998   2.214  0.6946  0.2081  0.7869
 6909SOL    HW232361   4.703   4.096   2.314  0.6280  1.3894 -0.0792
 6910SOL     OW32362   1.809   3.177   7.835  0.2757 -0.1730 -0.1167
 6910SOL    HW132363   1.850   3.092   7.820 -0.8446 -0.2999 -2.5339
 6910SOL    HW232364   1.867   3.239   7.792 -0.7873  1.7580  1.2429
 6911SOL     OW32365   3.219   2.891   4.314 -0.0436 -0.2817  0.0423
 6911SOL    HW132366   3.133   2.867   4.350  0.0306 -0.2556  0.2371
 6911SOL    HW232367   3.201   2.889   4.220 -2.5382 -0.7521  0.5296
 6912SOL     OW32368   2.289   0.822   3.560 -0.1412  0.3311 -0.4692
 6912SOL    HW132369   2.327   0.763   3.495  1.3420  1.0595 -0.2813
 6912SOL    HW232370   2.199   0.829   3.529 -0.0586  0.7130 -0.6203
 6913SOL     OW32371   4.552   3.705   9.824  0.2329  0.5071 -0.5719
 6913SOL    HW132372   4.566   3.786   9.775 -0.7142  1.2091  0.3119
 6913SOL    HW232373   4.508   3.651   9.759 -1.5051  1.0938  0.1304
 6914SOL     OW32374   0.434   3.575   1.573  0.5004  0.3190 -0.1371
 6914SOL    HW132375   0.522   3.539   1.569  1.1720  2.1099 -1.7587
 6914SOL    HW232376   0.381   3.510   1.527 -0.1610  0.2461  0.7203
 6915SOL     OW32377   3.700   2.817   3.495  0.4571  0.3166 -0.8925
 6915SOL    HW132378   3.760   2.888   3.471  0.2604  0.3625 -1.2466
 6915SOL    HW232379   3.694   2.770   3.413  0.7122  1.0107 -1.3107
 6916SOL     OW32380   2.930   2.258   3.470  0.4851  0.1872 -0.2092
 6916SOL    HW132381   2.903   2.167   3.456  1.5643  0.0153 -1.1991
 6916SOL    HW232382   2.969   2.287   3.387  0.3940 -0.0720 -0.3444
 6917SOL     OW32383   3.048   1.897   2.121 -0.0604  0.1259 -0.2404
 6917SOL    HW132384   3.029   1.818   2.070  0.4464  0.6784 -1.2814
 6917SOL    HW232385   2.962   1.933   2.143  0.7339  2.5834 -1.2223
 6918SOL     OW32386   1.465   3.720  13.495  0.1926 -0.5303  0.7116
 6918SOL    HW132387   1.550   3.702  13.536  0.5792 -1.6758 -0.6089
 6918SOL    HW232388   1.408   3.694  13.568  1.2039  1.2895  2.1477
 6919SOL     OW32389   2.466   4.013   3.290 -0.0066  0.5533 -0.1270
 6919SOL    HW132390   2.506   4.089   3.247 -0.4048 -0.0612 -1.5976
 6919SOL    HW232391   2.375   4.042   3.292 -0.3666 -0.6852  1.4186
 6920SOL     OW32392   0.641   1.744  15.150  0.4247 -0.0108  0.1183
 6920SOL    HW132393   0.707   1.796  15.197 -0.1693  1.7080 -0.9544
 6920SOL    HW232394   0.654   1.771  15.059  2.0546  0.1652  0.3968
 6921SOL     OW32395   0.526   3.826   4.581  0.0489 -0.3575  0.9942
 6921SOL    HW132396   0.588   3.792   4.516  1.0917  0.8616  1.3483
 6921SOL    HW232397   0.461   3.869   4.526  0.3214  1.1480  1.8483
 6922SOL     OW32398   0.674   1.796   2.821 -0.2912 -0.4320  0.6544
 6922SOL    HW132399   0.696   1.704   2.809  1.1222  0.1578 -1.4260
 6922SOL    HW232400   0.750   1.842   2.785 -1.0721  1.3295  1.2182
 6923SOL     OW32401   0.087   1.765   0.269  0.1530  0.4295  1.0296
 6923SOL    HW132402   0.174   1.763   0.309  0.2259  2.8489  1.0358
 6923SOL    HW232403   0.110   1.758   0.176  0.2703  1.1553  1.0037
 6924SOL     OW32404   3.025   1.041   1.191 -0.5548  0.2907 -0.1045
 6924SOL    HW132405   2.972   1.068   1.266 -0.4706  1.4265 -0.4596
 6924SOL    HW232406   3.080   0.970   1.224 -0.9599 -1.2441 -2.7449
 6925SOL     OW32407   3.729   0.599   1.995 -0.5813  0.2815 -0.4678
 6925SOL    HW132408   3.709   0.558   1.910 -2.8767 -0.0824  0.2287
 6925SOL    HW232409   3.818   0.629   1.979 -0.7673  0.4908 -1.1075
 6926SOL     OW32410   2.720   2.229   5.240  0.3056 -0.6188  0.3964
 6926SOL    HW132411   2.725   2.177   5.320 -1.4148 -0.3992  0.6497
 6926SOL    HW232412   2.720   2.319   5.272 -0.8588 -0.1723 -0.8736
 6927SOL     OW32413   2.814   4.033   2.922 -0.3516  0.1230 -0.0977
 6927SOL    HW132414   2.825   4.089   2.845 -0.9668 -0.8649 -0.8972
 6927SOL    HW232415   2.756   3.967   2.884 -0.0217  0.8970 -1.9246
 6928SOL     OW32416   3.611   4.038   9.998 -0.3235 -0.1156 -0.3234
 6928SOL    HW132417   3.700   4.072   9.987 -0.7801  1.2552  0.2526
 6928SOL    HW232418   3.560   4.118  10.005 -0.0958  0.1301 -1.4731
 6929SOL     OW32419   1.127   1.803   7.548  0.4695  0.3151  0.0980
 6929SOL    HW132420   1.189   1.732   7.531  1.3032  0.5946  2.0437
 6929SOL    HW232421   1.060   1.772   7.486  0.8676 -3.1630  1.3996
 6930SOL     OW32422   1.976   1.579   8.713  0.0045 -0.1494  0.3152
 6930SOL    HW132423   1.992   1.673   8.705 -0.6111 -0.1660 -1.1415
 6930SOL    HW232424   2.048   1.543   8.660 -1.4373 -3.2104  0.4698
 6931SOL     OW32425   2.673   0.928   3.761 -0.2383  0.1637 -0.2399
 6931SOL    HW132426   2.578   0.939   3.754 -0.1531  0.9991 -0.0067
 6931SOL    HW232427   2.709   1.012   3.735  0.1709 -0.4452 -1.6361
 6932SOL     OW32428   0.670   0.377   6.873  0.1321  0.3747 -0.0030
 6932SOL    HW132429   0.634   0.407   6.790  0.5922  0.5745 -0.1282
 6932SOL    HW232430   0.668   0.456   6.928  1.1238 -0.1757  0.8117
 6933SOL     OW32431   4.536   2.050   0.032 -0.1242 -0.1206 -0.0731
 6933SOL    HW132432   4.547   1.956   0.023  2.3270  0.3676 -2.1620
 6933SOL    HW232433   4.560   2.056   0.125  1.3723 -0.9781 -0.4044
 6934SOL     OW32434   0.082   0.249   5.013  0.3924 -0.5415 -0.4601
 6934SOL    HW132435   0.147   0.191   5.052 -0.4197 -0.6994  0.6667
 6934SOL    HW232436   4.729   0.208   5.030  0.3208  0.0814  0.6592
 6935SOL     OW32437   2.158   3.926  15.147 -0.0759  0.4327 -0.4462
 6935SOL    HW132438   2.128   4.016  15.147  0.6455  0.6829  1.0577
 6935SOL    HW232439   2.249   3.938  15.118 -1.0616  0.4091 -3.5214
 6936SOL     OW32440   0.145   1.769   5.581 -0.0061  0.6241 -0.2247
 6936SOL    HW132441   0.119   1.826   5.509 -0.7675  1.0052  0.3553
 6936SOL    HW232442   0.065   1.735   5.622  0.9363  0.8349  1.7935
 6937SOL     OW32443   1.240   1.873   2.304  0.0651 -0.0581  1.0087
 6937SOL    HW132444   1.148   1.862   2.280 -0.3816  1.6030  1.9218
 6937SOL    HW232445   1.263   1.780   2.306  0.3437  0.0008  0.3015
 6938SOL     OW32446   2.933   1.940   0.105  0.1449 -0.2402 -0.5673
 6938SOL    HW132447   2.874   2.015   0.101 -1.3817 -1.4980 -1.8836
 6938SOL    HW232448   2.899   1.900   0.185 -1.4340  1.6393 -0.3145
 6939SOL     OW32449   0.306   0.031  11.745 -0.3148 -0.1848  0.4952
 6939SOL    HW132450   0.223   0.057  11.706 -1.4991 -4.5672  0.1529
 6939SOL    HW232451   0.292   4.668  11.748 -1.4314 -0.0559 -0.6674
 6940SOL     OW32452   3.294   4.314   3.270  0.2480 -0.2992 -0.5083
 6940SOL    HW132453   3.228   4.284   3.207  1.2195 -3.1231 -0.1966
 6940SOL    HW232454   3.368   4.265   3.234  1.5244  0.1539  1.4726
 6941SOL     OW32455   2.240   1.186  16.980  0.0484 -0.4532 -0.6658
 6941SOL    HW132456   2.318   1.133  16.965  0.0300 -1.5398  3.1085
 6941SOL    HW232457   2.216   1.181  16.887 -1.2572 -2.6772 -0.2007
 6942SOL     OW32458   4.314   2.172   6.589 -0.2731 -0.3014 -0.1545
 6942SOL    HW132459   4.257   2.218   6.529 -0.3999  1.4691  1.3283
 6942SOL    HW232460   4.276   2.208   6.669  0.6335 -0.1860  0.2244
 6943SOL     OW32461   2.956   4.627  15.528 -0.8322 -0.0710  0.2473
 6943SOL    HW132462   3.041   4.589  15.505  0.7991  2.0766  2.8006
 6943SOL    HW232463   2.947   4.588  15.615 -0.0313  1.2938  0.9336
 6944SOL     OW32464   3.440   4.635   1.564  0.5001  0.2944 -0.7281
 6944SOL    HW132465   3.524   4.656   1.525  0.4453  0.4648 -0.7525
 6944SOL    HW232466   3.427   4.545   1.535  0.1402  0.3842 -0.8528
 6945SOL     OW32467   1.017   2.492   8.420 -0.5754 -0.1787 -0.2416
 6945SOL    HW132468   1.068   2.422   8.378 -1.6792 -0.7524 -0.6554
 6945SOL    HW232469   0.960   2.434   8.470 -0.4447 -0.2457 -0.1691
 6946SOL     OW32470   1.458   3.368   5.876  0.4974  0.1759  0.4445
 6946SOL    HW132471   1.466   3.445   5.933 -1.8083  1.2455 -0.6834
 6946SOL    HW232472   1.402   3.410   5.811  0.1468 -0.2553  0.4638
 6947SOL     OW32473   1.252   2.353  11.165  0.1568  0.1961  0.3382
 6947SOL    HW132474   1.298   2.399  11.236  0.5244 -0.6192  0.6331
 6947SOL    HW232475   1.161   2.365  11.190 -1.0031 -1.3955 -3.2793
 6948SOL     OW32476   2.212   1.913  11.642  0.7399 -0.0703 -0.3962
 6948SOL    HW132477   2.278   1.881  11.704  2.3781  2.0558 -1.0290
 6948SOL    HW232478   2.192   1.837  11.588 -0.0198  0.5257 -0.9512
 6949SOL     OW32479   3.139   3.655   8.745  0.5896 -0.1151 -0.3296
 6949SOL    HW132480   3.101   3.732   8.787 -3.7005 -1.8493 -0.9775
 6949SOL    HW232481   3.066   3.594   8.732  0.6698  0.0092 -1.4166
 6950SOL     OW32482   2.755   4.394   5.776 -0.2877  0.0761  0.4372
 6950SOL    HW132483   2.711   4.474   5.749  0.2104  0.3445  0.4258
 6950SOL    HW232484   2.695   4.323   5.751  1.3885 -1.5670  1.0670
 6951SOL     OW32485   1.160   0.220   3.991 -0.3399 -0.0793  0.3138
 6951SOL    HW132486   1.210   0.243   3.912  0.0227  2.9589  1.4578
 6951SOL    HW232487   1.102   0.295   3.996  1.9098  1.5321  2.0052
 6952SOL     OW32488   2.694   0.713   1.181 -0.4059  0.0361 -0.4163
 6952SOL    HW132489   2.603   0.717   1.152 -0.7776  0.5820  0.8288
 6952SOL    HW232490   2.703   0.789   1.238 -1.3178  2.0868 -2.9866
 6953SOL     OW32491   2.542   0.056   3.631 -0.4872  0.5909 -0.0317
 6953SOL    HW132492   2.496   0.096   3.557  1.7804  0.2249 -1.6405
 6953SOL    HW232493   2.632   0.052   3.600 -0.9909 -1.8634 -1.1842
 6954SOL     OW32494   0.428   1.291   1.251  0.5517  0.2484  0.1955
 6954SOL    HW132495   0.374   1.357   1.294 -1.3758 -1.0670 -0.1808
 6954SOL    HW232496   0.357   1.234   1.223  2.1838 -1.8341  0.2821
 6955SOL     OW32497   2.088   1.995  17.270  0.2755 -0.4133 -0.0073
 6955SOL    HW132498   2.054   1.996  17.180  2.1886 -0.3939 -0.7270
 6955SOL    HW232499   2.019   2.041  17.317  0.6830 -0.0891  0.2738
 6956SOL     OW32500   1.789   3.164   9.377  0.3343 -1.1742  0.2065
 6956SOL    HW132501   1.832   3.085   9.410  0.3363 -1.6948 -1.0500
 6956SOL    HW232502   1.821   3.168   9.287  0.3451  4.8975  0.4634
 6957SOL     OW32503   1.734   1.388   1.361 -0.2415  0.0770 -0.2301
 6957SOL    HW132504   1.761   1.298   1.382  1.3153  0.6836  0.3330
 6957SOL    HW232505   1.755   1.389   1.268 -1.8096 -0.6344 -0.5895
 6958SOL     OW32506   1.219   0.914   6.840 -0.7986  0.0908  0.1239
 6958SOL    HW132507   1.138   0.963   6.845 -1.1441 -0.4741  0.0850
 6958SOL    HW232508   1.271   0.966   6.778  0.2666  0.1579  1.0809
 6959SOL     OW32509   4.629   3.193  12.388  0.1486 -1.0261  0.4932
 6959SOL    HW132510   4.699   3.223  12.445 -0.0892 -0.9101  0.7229
 6959SOL    HW232511   4.641   3.098  12.386  0.5086 -0.9483 -1.4423
 6960SOL     OW32512   3.207   4.300   1.548  0.1610  0.2827  0.1107
 6960SOL    HW132513   3.125   4.273   1.507 -0.1666  0.0537  0.9164
 6960SOL    HW232514   3.238   4.349   1.472  2.0603 -1.4134 -0.2188
 6961SOL     OW32515   2.987   0.206   6.107 -0.5504 -0.4579  0.1374
 6961SOL    HW132516   2.972   0.112   6.101 -0.9606 -0.4731  1.3564
 6961SOL    HW232517   2.939   0.231   6.186  1.1850  0.3338  0.9274
 6962SOL     OW32518   2.355   4.438   4.848  0.5998 -0.2887 -0.4041
 6962SOL    HW132519   2.417   4.404   4.912 -1.4665 -0.6501  1.4356
 6962SOL    HW232520   2.334   4.522   4.889 -0.8000 -1.0521  0.4502
 6963SOL     OW32521   4.443   3.577   9.066  0.1060 -0.2425  0.3794
 6963SOL    HW132522   4.355   3.569   9.031  0.2728  0.4003 -0.1614
 6963SOL    HW232523   4.497   3.620   9.000  0.3276 -0.3763  0.4709
 6964SOL     OW32524   2.453   3.731  11.133  0.3306 -0.1350 -0.0199
 6964SOL    HW132525   2.533   3.683  11.111  0.2646  0.7240 -2.0731
 6964SOL    HW232526   2.465   3.732  11.228 -1.9195 -0.4645  0.2597
 6965SOL     OW32527   3.144   1.195   7.535 -0.0324  0.6837  0.6999
 6965SOL    HW132528   3.067   1.196   7.478  0.5235 -0.6887 -0.0662
 6965SOL    HW232529   3.137   1.104   7.562  2.0457  0.4556  0.4170
 6966SOL     OW32530   1.042   0.228   7.397  0.7967 -0.0721 -0.1689
 6966SOL    HW132531   1.020   0.321   7.401 -0.0545 -0.2193 -1.4752
 6966SOL    HW232532   0.956   0.191   7.416  0.1696  0.1512 -2.5884
 6967SOL     OW32533   4.489   4.244   1.449 -0.4757  0.8826 -0.4271
 6967SOL    HW132534   4.581   4.237   1.475 -0.3722  0.6606 -0.8572
 6967SOL    HW232535   4.474   4.160   1.405  0.2937 -0.2236  1.4283
 6968SOL     OW32536   1.362   1.286   6.298  0.2591 -0.3191 -0.7163
 6968SOL    HW132537   1.398   1.197   6.303 -0.2310 -0.3408  2.4374
 6968SOL    HW232538   1.416   1.317   6.225  0.3460  0.9673 -0.1163
 6969SOL     OW32539   2.622   2.178  17.428 -0.7891 -0.0254  0.1693
 6969SOL    HW132540   2.690   2.136  17.481 -1.2577 -1.3028 -0.2268
 6969SOL    HW232541   2.633   2.131  17.345  2.3842  0.8178  0.1011
 6970SOL     OW32542   4.677   0.082   6.825  0.2141  0.1687  0.2074
 6970SOL    HW132543   0.028   0.046   6.857 -0.8306  0.0852  2.7470
 6970SOL    HW232544   4.642   0.018   6.764  3.0871  1.0421 -2.4170
 6971SOL     OW32545   1.845   1.202   3.227 -0.3147 -0.0415  0.0259
 6971SOL    HW132546   1.886   1.192   3.313 -2.2422  1.4432  1.1162
 6971SOL    HW232547   1.806   1.285   3.256 -2.8946 -1.0899 -0.4599
 6972SOL     OW32548   4.182   3.933  10.485  0.2375  0.1950  0.2915
 6972SOL    HW132549   4.086   3.930  10.481  0.2242  0.8351  0.1183
 6972SOL    HW232550   4.204   3.953  10.394 -0.1194 -2.3503 -0.3732
 6973SOL     OW32551   3.396   4.688   2.341 -0.1335  0.0585 -0.1731
 6973SOL    HW132552   3.457   0.017   2.381 -0.6382  1.6485 -1.7955
 6973SOL    HW232553   3.318   4.720   2.387  0.8086  1.6271  0.3136
 6974SOL     OW32554   4.493   3.296  11.433  0.0578  0.5789 -0.6247
 6974SOL    HW132555   4.486   3.365  11.499 -0.5003  0.4421 -0.5417
 6974SOL    HW232556   4.429   3.230  11.460  1.6001 -0.6774 -0.0409
 6975SOL     OW32557   0.964   0.341   3.764 -0.3714  0.2867 -0.4225
 6975SOL    HW132558   0.930   0.396   3.835 -0.5832  0.3485 -0.5701
 6975SOL    HW232559   1.026   0.404   3.728 -0.8514  1.3389  0.5911
 6976SOL     OW32560   1.355   2.818   4.979  0.1243 -0.4170 -0.1841
 6976SOL    HW132561   1.274   2.855   4.945 -0.6595 -0.7127  1.3204
 6976SOL    HW232562   1.426   2.863   4.934  0.4385 -0.5425  0.1892
 6977SOL     OW32563   1.754   1.318  10.731 -0.2481 -0.2194 -0.2303
 6977SOL    HW132564   1.712   1.258  10.793 -0.7889  0.4198  0.0203
 6977SOL    HW232565   1.693   1.392  10.725  0.1618  0.1782  0.5461
 6978SOL     OW32566   1.143   3.163   3.176  0.1831 -0.2875 -0.1728
 6978SOL    HW132567   1.237   3.159   3.159  0.2588  0.8434  0.0083
 6978SOL    HW232568   1.110   3.175   3.087 -0.5836  0.4305  0.2111
 6979SOL     OW32569   0.153   2.565   1.144 -0.1835  0.0835  0.5509
 6979SOL    HW132570   0.091   2.530   1.080 -0.4771  3.4515 -0.9811
 6979SOL    HW232571   0.092   2.566   1.217  0.1472 -2.4807  0.8831
 6980SOL     OW32572   4.684   0.496   2.158  0.3006  0.5987 -0.0038
 6980SOL    HW132573   4.685   0.401   2.170 -0.6849  0.5293 -0.4245
 6980SOL    HW232574   4.666   0.514   2.250  0.1436  0.4414 -0.0025
 6981SOL     OW32575   1.053   3.400  11.765  0.1846 -0.6440 -0.2421
 6981SOL    HW132576   0.983   3.359  11.714 -1.4277 -0.3660  1.7597
 6981SOL    HW232577   1.000   3.444  11.831  2.0144  2.2341 -0.7004
 6982SOL     OW32578   2.105   1.943   5.535 -0.0962 -0.5623  0.4918
 6982SOL    HW132579   2.075   2.031   5.514 -1.6448 -0.8951  1.3445
 6982SOL    HW232580   2.199   1.958   5.528 -0.1060  0.1615  1.9179
 6983SOL     OW32581   2.385   1.364   8.319 -0.0052  0.0375 -0.3170
 6983SOL    HW132582   2.313   1.368   8.255  1.9943 -1.4473 -2.6653
 6983SOL    HW232583   2.440   1.428   8.274 -0.9700  1.3207  0.3366
 6984SOL     OW32584   0.290   3.563   4.925 -0.1802  0.0358  0.2385
 6984SOL    HW132585   0.261   3.473   4.909  1.0400 -0.3175  0.0204
 6984SOL    HW232586   0.374   3.549   4.968 -1.1351  0.5519  2.2747
 6985SOL     OW32587   3.789   3.363   8.298  0.4312  0.0690  0.7161
 6985SOL    HW132588   3.728   3.436   8.302  0.4245  0.2602 -2.7406
 6985SOL    HW232589   3.802   3.342   8.391 -3.9805 -0.8255  1.1306
 6986SOL     OW32590   4.102   2.137   4.019 -0.8179  0.0818 -0.3562
 6986SOL    HW132591   4.068   2.123   4.107 -0.7664 -1.5422 -0.5942
 6986SOL    HW232592   4.058   2.216   3.987 -1.2165  0.1855  0.4583
 6987SOL     OW32593   4.236   2.128   2.150  1.0443 -0.0111 -0.2150
 6987SOL    HW132594   4.288   2.156   2.226 -0.3780  1.8200  0.0841
 6987SOL    HW232595   4.150   2.125   2.192  0.5457 -2.0425 -1.3941
 6988SOL     OW32596   0.218   3.698  10.034  0.1210  0.4568  0.6311
 6988SOL    HW132597   0.271   3.730   9.961 -1.1843 -0.0852 -0.5567
 6988SOL    HW232598   0.139   3.658   9.997  0.2256  1.1408 -0.3257
 6989SOL     OW32599   1.823   0.821   9.039 -0.0809 -0.1207  0.1870
 6989SOL    HW132600   1.776   0.850   9.117  0.8286  1.1687  0.2631
 6989SOL    HW232601   1.911   0.821   9.076 -0.0605 -2.2415  0.1382
 6990SOL     OW32602   3.346   1.615   2.196 -0.0310  0.1149 -0.0922
 6990SOL    HW132603   3.402   1.575   2.261  0.3555  0.6892 -0.0698
 6990SOL    HW232604   3.368   1.707   2.209  0.0244  0.3029 -1.4267
 6991SOL     OW32605   2.505   1.639  16.299  0.2992  0.1102  0.0448
 6991SOL    HW132606   2.477   1.701  16.232  0.9416 -0.0078 -0.3402
 6991SOL    HW232607   2.549   1.705  16.353 -2.1765  1.0199  0.9504
 6992SOL     OW32608   3.523   4.159   3.478 -0.1224  0.3403 -0.7258
 6992SOL    HW132609   3.509   4.143   3.384 -1.5694 -1.2641 -0.2389
 6992SOL    HW232610   3.618   4.160   3.480 -0.1516  1.2003  0.1966
 6993SOL     OW32611   0.386   2.441   8.011 -0.0572 -0.4262  0.2632
 6993SOL    HW132612   0.470   2.400   7.992  1.1201  0.6497  3.0820
 6993SOL    HW232613   0.409   2.521   8.058  0.0693 -0.9607  1.1080
 6994SOL     OW32614   0.072   2.190   9.810  0.5464  0.5199  0.1803
 6994SOL    HW132615   0.029   2.242   9.742  1.5425  1.0356 -0.0524
 6994SOL    HW232616   0.008   2.120   9.822  2.1827 -0.8728  0.8206
 6995SOL     OW32617   4.311   2.133  16.465 -0.0127 -0.2046  0.2598
 6995SOL    HW132618   4.399   2.138  16.502  0.7838 -0.4651 -1.5817
 6995SOL    HW232619   4.294   2.225  16.445 -0.1300  0.1003  1.7616
 6996SOL     OW32620   2.310   1.634   2.882  0.2719 -0.0917  0.1585
 6996SOL    HW132621   2.234   1.678   2.844  0.6832 -1.2954 -2.0360
 6996SOL    HW232622   2.284   1.628   2.974  0.0973  0.2970  0.1339
 6997SOL     OW32623   2.837   1.410   5.878 -0.0911 -0.4894 -0.0665
 6997SOL    HW132624   2.861   1.498   5.908  0.8381 -0.2003 -1.6395
 6997SOL    HW232625   2.917   1.390   5.828  0.3187 -1.4743  0.9787
 6998SOL     OW32626   4.272   4.694   6.995 -0.5263  0.4966  0.4722
 6998SOL    HW132627   4.257   0.052   6.969 -2.9012  0.6114  2.2562
 6998SOL    HW232628   4.195   4.668   7.045  0.2358  0.0930  1.4431
 6999SOL     OW32629   1.613   0.649   8.024  0.2968  0.0989  0.0528
 6999SOL    HW132630   1.621   0.744   8.030 -0.4316  0.1603  0.0758
 6999SOL    HW232631   1.686   0.624   8.080  0.0479  1.5071  0.9934
 7000SOL     OW32632   4.264   1.464   6.993  0.0237 -0.6625 -0.2405
 7000SOL    HW132633   4.181   1.464   6.946 -0.0321  0.1698 -0.1412
 7000SOL    HW232634   4.293   1.390   6.940 -2.0786 -0.0988 -2.1796
 7001SOL     OW32635   0.435   0.642   0.378 -0.2713  0.3836  0.0946
 7001SOL    HW132636   0.351   0.681   0.353 -0.8452 -1.0956 -0.2600
 7001SOL    HW232637   0.451   0.612   0.289 -0.5099  0.3397  0.0666
 7002SOL     OW32638   0.655   4.412   1.364  0.1121 -0.0587  0.4076
 7002SOL    HW132639   0.570   4.379   1.393 -1.4319  3.8613  0.3956
 7002SOL    HW232640   0.673   4.480   1.429  0.7747 -1.2445  1.4661
 7003SOL     OW32641   4.648   3.019   2.309  0.0232  0.4485  0.5316
 7003SOL    HW132642   4.721   2.963   2.285 -0.3702 -0.0910  0.5916
 7003SOL    HW232643   4.672   3.105   2.273  0.1330  0.7270  1.2601
 7004SOL     OW32644   3.751   3.783  13.693 -0.3253  0.1460  0.2986
 7004SOL    HW132645   3.696   3.858  13.673  1.8392  2.3065  2.5210
 7004SOL    HW232646   3.836   3.805  13.655 -1.4433  2.7371 -0.7079
 7005SOL     OW32647   0.037   0.058   8.907 -0.4713 -0.3562  0.2848
 7005SOL    HW132648   4.691   0.075   8.959 -1.0042  0.0954 -0.6690
 7005SOL    HW232649   0.042   4.694   8.904  0.3828 -0.2411 -1.9002
 7006SOL     OW32650   4.159   4.697   3.422 -0.1092 -0.3262  0.9550
 7006SOL    HW132651   4.083   4.671   3.371 -0.0056  1.1693  0.0598
 7006SOL    HW232652   4.148   4.661   3.511 -1.0238 -1.6794  0.2948
 7007SOL     OW32653   2.751   1.152   1.737  0.1949 -0.2263 -0.5351
 7007SOL    HW132654   2.679   1.208   1.708  0.6726  0.2604 -0.7638
 7007SOL    HW232655   2.724   1.131   1.826  1.3341  1.6231  0.2277
 7008SOL     OW32656   2.151   4.469   2.993  0.0607  0.3675  0.1065
 7008SOL    HW132657   2.109   4.461   2.908 -0.6262 -0.5692  0.5321
 7008SOL    HW232658   2.240   4.492   2.967 -0.1513  0.9608 -0.0834
 7009SOL     OW32659   0.378   1.820   4.101 -0.2115 -0.3584 -0.2421
 7009SOL    HW132660   0.312   1.800   4.167 -1.9529  1.0881 -1.5347
 7009SOL    HW232661   0.442   1.750   4.109  0.6698  0.4500 -0.0993
 7010SOL     OW32662   4.205   4.416  12.130  0.1297  0.1764  0.2937
 7010SOL    HW132663   4.241   4.327  12.131 -0.0791  0.0848 -0.5950
 7010SOL    HW232664   4.126   4.414  12.076  0.2062 -0.3855  0.2023
 7011SOL     OW32665   1.524   4.258   5.359 -0.0620 -0.0464  0.4008
 7011SOL    HW132666   1.496   4.182   5.410  2.0822  0.4321  2.2581
 7011SOL    HW232667   1.580   4.300   5.424  2.2515  0.2787 -1.7995
 7012SOL     OW32668   3.445   0.472   3.631 -0.0138 -0.1281 -1.2192
 7012SOL    HW132669   3.475   0.440   3.546 -1.3780  0.5667 -1.9669
 7012SOL    HW232670   3.351   0.463   3.616 -0.4837  1.2163  0.9792
 7013SOL     OW32671   4.097   2.851   3.517  0.2981  0.0083 -0.7408
 7013SOL    HW132672   4.020   2.867   3.571 -0.0757 -3.4940 -0.2297
 7013SOL    HW232673   4.096   2.928   3.460  2.7741 -0.2397 -1.1297
 7014SOL     OW32674   3.629   4.534  17.060  0.3347 -0.2510 -0.1171
 7014SOL    HW132675   3.549   4.576  17.030 -0.7262 -1.7735  0.6181
 7014SOL    HW232676   3.632   4.469  16.990  1.7517 -1.0275  0.6510
 7015SOL     OW32677   4.662   0.937   7.156 -0.0724 -0.1526 -0.5621
 7015SOL    HW132678   4.651   0.863   7.096 -0.5933 -3.8773  4.1167
 7015SOL    HW232679   4.579   0.984   7.149 -0.0622  0.1468  1.2700
 7016SOL     OW32680   2.286   4.000   7.736 -0.4485  0.1051  0.0120
 7016SOL    HW132681   2.345   4.052   7.681  0.2592 -0.2544  0.4358
 7016SOL    HW232682   2.347   3.975   7.805 -0.0282 -0.3456 -0.5274
 7017SOL     OW32683   2.414   2.785   6.175  0.8218 -0.0685  0.6894
 7017SOL    HW132684   2.358   2.714   6.143  0.8883  0.4192 -0.5110
 7017SOL    HW232685   2.387   2.791   6.267  0.8892 -0.0101  0.7059
 7018SOL     OW32686   0.569   1.475   9.179  0.2843  0.3934  0.1610
 7018SOL    HW132687   0.485   1.459   9.136 -1.1013  1.5266  2.4337
 7018SOL    HW232688   0.609   1.533   9.114  1.7682 -1.6174 -0.7281
 7019SOL     OW32689   3.477   3.666  17.236  0.1514 -0.3588 -0.3060
 7019SOL    HW132690   3.429   3.670  17.319 -2.5053  0.0272 -1.8713
 7019SOL    HW232691   3.476   3.755  17.200 -0.9126 -0.5548 -0.7388
 7020SOL     OW32692   4.434   1.664   3.892 -0.4837  0.0103 -0.0532
 7020SOL    HW132693   4.355   1.616   3.868  0.0616 -0.2988 -1.2375
 7020SOL    HW232694   4.503   1.612   3.851 -1.8037 -1.4694 -0.3938
 7021SOL     OW32695   4.677   2.261   7.855  0.1735 -0.4234  0.0813
 7021SOL    HW132696   4.678   2.267   7.951 -0.4242 -3.4878  0.2795
 7021SOL    HW232697   0.006   2.333   7.839  0.5924 -0.5561  1.0933
 7022SOL     OW32698   2.444   1.960   8.965  0.4961 -0.0256  0.5774
 7022SOL    HW132699   2.372   1.897   8.972 -0.2875  0.6943 -0.8769
 7022SOL    HW232700   2.431   2.006   9.048 -1.4295  0.3563  0.0629
 7023SOL     OW32701   0.315   2.912   9.085  0.5071 -0.3614  0.0330
 7023SOL    HW132702   0.227   2.876   9.078  0.3939 -0.0383 -0.2071
 7023SOL    HW232703   0.365   2.830   9.078  3.2387  1.1309  1.8615
 7024SOL     OW32704   0.821   2.661  10.588  0.0738 -0.6618 -0.3594
 7024SOL    HW132705   0.745   2.716  10.568  0.6489 -0.4523 -1.9434
 7024SOL    HW232706   0.812   2.640  10.681  1.4015  0.4169 -0.0016
 7025SOL     OW32707   0.253   1.552   5.763  0.7988 -0.7685  0.8235
 7025SOL    HW132708   0.205   1.473   5.738 -1.0614  0.7609 -0.5157
 7025SOL    HW232709   0.237   1.615   5.693 -1.4232 -2.3904 -0.1425
 7026SOL     OW32710   0.359   2.298   3.370  0.2112 -0.3405 -0.6231
 7026SOL    HW132711   0.383   2.278   3.280  2.6606  0.1943 -0.0711
 7026SOL    HW232712   0.401   2.222   3.411  2.0051 -0.3350 -2.4789
 7027SOL     OW32713   0.372   4.417   3.380  0.1134 -0.3582  0.0940
 7027SOL    HW132714   0.377   4.509   3.406 -1.5295 -0.9638  2.5450
 7027SOL    HW232715   0.459   4.409   3.341  0.3197 -1.2201  0.7355
 7028SOL     OW32716   2.075   1.689   0.362 -0.2407 -0.5627 -0.5059
 7028SOL    HW132717   1.992   1.658   0.399 -0.3328  1.1256  0.6833
 7028SOL    HW232718   2.058   1.783   0.355  0.0369 -0.4529  0.3653
 7029SOL     OW32719   2.506   2.082   3.073  0.3131  0.3259 -0.1391
 7029SOL    HW132720   2.531   2.131   2.994 -2.3251  1.0511 -0.5266
 7029SOL    HW232721   2.413   2.074   3.052  0.7711  0.1337 -2.1366
 7030SOL     OW32722   2.410   2.142  16.946 -0.0555  0.3806 -0.6756
 7030SOL    HW132723   2.359   2.062  16.949 -0.1277  0.5336  2.1421
 7030SOL    HW232724   2.491   2.105  16.980 -0.3738 -1.1447 -1.5979
 7031SOL     OW32725   0.008   0.476   7.506 -0.6385 -0.4164 -0.0297
 7031SOL    HW132726   4.681   0.423   7.452  0.5766 -1.0238 -0.7613
 7031SOL    HW232727   0.077   0.497   7.443 -0.9053 -0.7883 -0.4479
 7032SOL     OW32728   2.103   3.487   8.023 -0.1662 -0.1209 -0.3381
 7032SOL    HW132729   2.149   3.405   8.003  0.4411  0.2038 -0.2457
 7032SOL    HW232730   2.021   3.448   8.055  0.9226  0.8155  3.6253
 7033SOL     OW32731   3.063   2.114   3.165  0.4446 -0.0859  0.6462
 7033SOL    HW132732   3.030   2.193   3.123 -1.3583 -1.0872  0.1635
 7033SOL    HW232733   3.154   2.119   3.137  0.0088  2.1369 -0.3078
 7034SOL     OW32734   3.446   2.209   4.020  0.3929 -0.3125  0.5598
 7034SOL    HW132735   3.368   2.258   3.994  0.6747 -0.0249  0.2633
 7034SOL    HW232736   3.515   2.235   3.959 -1.4483  1.4634 -0.7447
 7035SOL     OW32737   1.812   0.461   7.527  0.0369  0.3767 -0.0987
 7035SOL    HW132738   1.750   0.402   7.483  0.4871  1.9849 -2.8478
 7035SOL    HW232739   1.800   0.454   7.622  0.7718 -0.0427 -0.0388
 7036SOL     OW32740   1.924   4.475  10.952 -0.3091  0.0328 -0.2313
 7036SOL    HW132741   1.937   4.473  11.046  3.0034  2.1583 -0.6196
 7036SOL    HW232742   1.838   4.435  10.951 -0.6848  0.8561 -2.0284
 7037SOL     OW32743   0.903   1.549   2.196  0.2894  0.7010 -0.2313
 7037SOL    HW132744   0.810   1.526   2.204  0.4042 -0.4545 -2.1151
 7037SOL    HW232745   0.922   1.510   2.111 -2.2552 -0.5318 -0.2312
 7038SOL     OW32746   3.964   4.140  11.981 -0.3693  0.2385 -0.5526
 7038SOL    HW132747   3.991   4.226  11.947  1.2822 -1.0558 -2.5627
 7038SOL    HW232748   3.872   4.163  11.990 -0.2206  1.8915 -2.9869
 7039SOL     OW32749   0.662   1.275  15.305  0.2502 -0.1382 -0.3083
 7039SOL    HW132750   0.629   1.365  15.311 -0.3927 -0.3834 -0.2492
 7039SOL    HW232751   0.589   1.222  15.274  0.8389 -1.5973  0.8119
 7040SOL     OW32752   2.706   1.666   5.656 -0.1413  0.7321  0.2065
 7040SOL    HW132753   2.776   1.601   5.647  0.0971  1.2693 -1.7404
 7040SOL    HW232754   2.759   1.745   5.666 -1.7335  1.1311  5.6181
 7041SOL     OW32755   3.211   0.676   3.623  0.1375  0.1653 -0.2544
 7041SOL    HW132756   3.126   0.652   3.658  0.0873  1.7161  0.6877
 7041SOL    HW232757   3.205   0.624   3.543  2.7753 -0.2284 -0.1918
 7042SOL     OW32758   0.341   3.285   4.534  0.3245 -0.1797  0.0888
 7042SOL    HW132759   0.354   3.373   4.497  0.0768 -0.1303  0.1183
 7042SOL    HW232760   0.321   3.304   4.625 -1.0233  1.0643 -0.4671
 7043SOL     OW32761   4.396   4.546  12.279  1.1246 -0.1645  0.4404
 7043SOL    HW132762   4.313   4.513  12.246  1.5478  1.6716 -2.4048
 7043SOL    HW232763   4.463   4.503  12.225  0.3908  0.6996 -1.1446
 7044SOL     OW32764   0.869   2.590   3.489  0.3949 -0.1641  0.7353
 7044SOL    HW132765   0.836   2.655   3.426  1.0976  1.8849  2.4899
 7044SOL    HW232766   0.843   2.508   3.448 -0.4261  1.1198 -1.3321
 7045SOL     OW32767   1.129   1.686   0.118 -0.2144  0.5375 -0.3802
 7045SOL    HW132768   1.147   1.615   0.180  1.4455  0.6833 -0.6813
 7045SOL    HW232769   1.034   1.685   0.109  0.0639  0.6555 -3.5364
 7046SOL     OW32770   4.411   0.193   2.904  0.0061 -0.1620 -0.6286
 7046SOL    HW132771   4.354   0.185   2.980  0.8255 -1.9959 -0.2060
 7046SOL    HW232772   4.478   0.127   2.925 -0.9145 -0.7599  0.4086
 7047SOL     OW32773   1.887   1.543  17.396 -0.8399 -0.2487 -0.2167
 7047SOL    HW132774   1.890   1.473  17.461  0.3130  0.3778  0.4240
 7047SOL    HW232775   1.795   1.544  17.370 -1.2064 -0.1076  1.0680
 7048SOL     OW32776   0.377   2.866  10.537  1.0770  0.7262  0.0420
 7048SOL    HW132777   0.434   2.794  10.511 -0.1237  0.0555 -0.6962
 7048SOL    HW232778   0.420   2.888  10.620  1.8482 -0.2278 -0.1150
 7049SOL     OW32779   2.363   1.961  17.204  0.4925  0.1712  0.1245
 7049SOL    HW132780   2.327   1.894  17.146 -0.1117  0.2164  0.4433
 7049SOL    HW232781   2.281   1.991  17.244 -0.3078 -0.3651 -1.1058
 7050SOL     OW32782   0.443   3.577   2.150  0.7806  0.1816  0.3178
 7050SOL    HW132783   0.417   3.550   2.061  0.9611  0.5461  0.1555
 7050SOL    HW232784   0.474   3.662   2.118  2.2511 -0.7802 -0.8236
 7051SOL     OW32785   4.471   3.415   0.942  0.6129 -0.0498 -0.0098
 7051SOL    HW132786   4.532   3.487   0.925 -1.2442  1.7423  0.8563
 7051SOL    HW232787   4.388   3.457   0.917  0.1416 -0.0196  1.6044
 7052SOL     OW32788   4.610   1.797  11.873 -0.4594  0.2804  0.4071
 7052SOL    HW132789   4.583   1.853  11.801  3.5243  0.7751 -0.7088
 7052SOL    HW232790   4.692   1.841  11.898 -0.2883  0.7362 -0.9537
 7053SOL     OW32791   3.487   0.373  11.279  0.1117  0.0176 -0.3968
 7053SOL    HW132792   3.394   0.355  11.287  0.6017 -1.4563  1.9536
 7053SOL    HW232793   3.517   0.284  11.262  0.1577  0.0688 -0.5923
 7054SOL     OW32794   1.277   2.357   5.139 -0.4535  0.5068 -0.0591
 7054SOL    HW132795   1.276   2.451   5.159 -0.2657  0.5617 -0.3244
 7054SOL    HW232796   1.319   2.317   5.215  0.7727 -0.8668 -1.4773
 7055SOL     OW32797   4.074   3.960  16.635  0.1921  0.0623 -0.7912
 7055SOL    HW132798   4.099   4.037  16.586  1.9515  0.9040  1.3914
 7055SOL    HW232799   4.130   3.902  16.583 -1.0159 -0.5210 -1.4365
 7056SOL     OW32800   3.608   4.444   4.508  0.3570 -0.1238  0.1001
 7056SOL    HW132801   3.595   4.529   4.466 -1.1480 -1.8789 -3.0071
 7056SOL    HW232802   3.703   4.438   4.512  0.2161 -1.4922  1.3852
 7057SOL     OW32803   2.387   0.429   2.547 -0.3069  0.3211 -0.3657
 7057SOL    HW132804   2.360   0.367   2.481  1.5181  0.1312 -0.9427
 7057SOL    HW232805   2.359   0.394   2.632  1.9331 -0.2581  0.1374
 7058SOL     OW32806   3.764   1.010   2.355  0.2240 -0.1207 -0.0117
 7058SOL    HW132807   3.717   1.083   2.315  1.5354  0.3782 -0.6457
 7058SOL    HW232808   3.760   1.043   2.445  1.0798  0.9710 -0.3752
 7059SOL     OW32809   2.358   3.520   8.655 -0.6428 -0.0708  0.4430
 7059SOL    HW132810   2.329   3.611   8.665  0.2369  0.7346 -4.1837
 7059SOL    HW232811   2.292   3.470   8.702 -1.0003 -0.6397 -0.6745
 7060SOL     OW32812   1.097   1.586  17.251  0.4913  0.0899 -0.3024
 7060SOL    HW132813   1.124   1.513  17.306 -1.4781 -1.2164 -1.0947
 7060SOL    HW232814   1.002   1.576  17.246  0.5952 -1.0681  0.1492
 7061SOL     OW32815   4.256   1.463   8.081  0.6684 -0.3164 -0.1891
 7061SOL    HW132816   4.327   1.528   8.085  1.9168 -1.7322  0.7250
 7061SOL    HW232817   4.269   1.419   7.996  1.6686 -0.1713 -0.1084
 7062SOL     OW32818   3.175   0.611  11.777  0.0346  0.0217  0.4082
 7062SOL    HW132819   3.124   0.537  11.810  0.7689 -0.3004  0.8042
 7062SOL    HW232820   3.267   0.591  11.792  0.2092  0.1582 -0.4591
 7063SOL     OW32821   0.156   3.858   6.944 -0.0147 -0.0347  0.3801
 7063SOL    HW132822   0.131   3.825   6.858  1.4072 -1.4527  0.5023
 7063SOL    HW232823   0.090   3.817   7.000  0.7684 -0.7993  0.7366
 7064SOL     OW32824   4.315   2.942   7.708 -0.0472 -0.1427 -0.0421
 7064SOL    HW132825   4.235   2.920   7.755 -1.0796  0.3041 -1.5981
 7064SOL    HW232826   4.324   2.867   7.649 -0.6259 -0.9915  0.9581
 7065SOL     OW32827   3.847   4.433  11.414 -0.3594  0.7208 -0.0496
 7065SOL    HW132828   3.859   4.522  11.381 -0.2689  0.6035 -0.3327
 7065SOL    HW232829   3.939   4.413  11.400 -1.2449 -2.6456 -1.0436
 7066SOL     OW32830   1.050   0.804   3.469 -0.3448  0.7792  0.3450
 7066SOL    HW132831   1.015   0.893   3.479  2.4276  1.6143  2.8604
 7066SOL    HW232832   1.120   0.793   3.533  0.4710  0.0395 -0.6689
 7067SOL     OW32833   1.986   4.499  12.198 -0.1043 -0.3221  0.4224
 7067SOL    HW132834   1.941   4.415  12.206 -1.1707  0.0832 -1.2739
 7067SOL    HW232835   2.035   4.495  12.280 -1.1868  1.6827  1.1403
 7068SOL     OW32836   4.367   0.021   9.189  0.2972 -0.4293  0.1005
 7068SOL    HW132837   4.302   4.722   9.126 -1.3163  0.4997  1.2982
 7068SOL    HW232838   4.311   0.039   9.265  0.6482  1.5062 -0.1208
 7069SOL     OW32839   3.103   2.794   4.979  0.0428 -0.2427  0.7005
 7069SOL    HW132840   3.153   2.872   5.001 -0.9113  1.0861 -1.7939
 7069SOL    HW232841   3.014   2.830   4.979  0.2044  0.1634 -0.7724
 7070SOL     OW32842   1.157   1.963   0.152 -0.1765 -0.4290  0.4237
 7070SOL    HW132843   1.066   1.939   0.139  0.4582 -2.5557 -0.1435
 7070SOL    HW232844   1.194   1.876   0.135 -0.2876 -0.4978  0.5386
 7071SOL     OW32845   0.008   2.569  10.045  0.1933  0.4667 -0.3172
 7071SOL    HW132846   4.721   2.551  10.137 -1.8459 -0.1576 -0.8528
 7071SOL    HW232847   0.056   2.488  10.026  0.0594  0.3987 -0.3688
 7072SOL     OW32848   2.421   2.169  11.343 -0.7585  0.6455 -0.7993
 7072SOL    HW132849   2.353   2.138  11.283 -1.3343 -0.2795  0.3305
 7072SOL    HW232850   2.375   2.159  11.427  1.0148  2.1067  0.3558
 7073SOL     OW32851   2.253   0.752  12.293  0.3499  0.1927  0.0242
 7073SOL    HW132852   2.268   0.844  12.273 -0.3392 -0.0937 -1.8115
 7073SOL    HW232853   2.159   0.748  12.310  0.5279 -0.2510  0.9089
 7074SOL     OW32854   1.589   3.517   7.901 -0.2086  0.1712 -0.0974
 7074SOL    HW132855   1.596   3.422   7.894 -2.2027  0.0773 -1.1185
 7074SOL    HW232856   1.548   3.537   7.985 -0.0627 -0.0146  0.0182
 7075SOL     OW32857   2.209   2.437   2.269  1.1992 -0.0406  0.1391
 7075SOL    HW132858   2.245   2.397   2.190 -1.3986 -0.8266 -0.6753
 7075SOL    HW232859   2.199   2.355   2.319  1.8727  0.6448  1.3957
 7076SOL     OW32860   4.119   3.449   4.913  0.0440 -0.4831  0.9847
 7076SOL    HW132861   4.132   3.438   4.819 -3.0426  1.9349  0.2637
 7076SOL    HW232862   4.024   3.438   4.921 -0.2593 -0.2254 -2.1935
 7077SOL     OW32863   3.120   0.067   6.958 -0.4910  0.5237  0.3363
 7077SOL    HW132864   3.183   0.082   7.029  0.2031 -4.4180  0.7751
 7077SOL    HW232865   3.188   0.090   6.895 -1.3210 -1.5493 -1.2935
 7078SOL     OW32866   3.523   2.278   2.098  0.1832 -0.4657  0.1190
 7078SOL    HW132867   3.510   2.195   2.143  0.4689 -0.1476  0.8038
 7078SOL    HW232868   3.602   2.254   2.049 -1.5872 -2.4265 -1.7697
 7079SOL     OW32869   4.303   3.103   9.815  0.6620  0.2709  0.5904
 7079SOL    HW132870   4.249   3.119   9.738 -0.3497 -4.1606  0.4132
 7079SOL    HW232871   4.250   3.036   9.858  2.1034 -0.4268  1.2876
 7080SOL     OW32872   4.118   3.782   3.175  0.7583  0.0626  0.4142
 7080SOL    HW132873   4.029   3.800   3.207  0.4009 -0.4247 -0.3030
 7080SOL    HW232874   4.184   3.815   3.235  3.1027 -1.3573 -1.3841
 7081SOL     OW32875   0.189   2.282  10.247 -0.1777 -0.1686 -0.3470
 7081SOL    HW132876   0.201   2.337  10.324 -1.1805 -1.8454  0.9778
 7081SOL    HW232877   0.125   2.220  10.280 -2.3990  1.9220 -0.7651
 7082SOL     OW32878   1.231   1.595  13.416 -0.3136 -0.2391  0.3939
 7082SOL    HW132879   1.184   1.514  13.435 -0.8340  0.3359  1.5814
 7082SOL    HW232880   1.202   1.615  13.327  1.8568 -0.3138 -0.3341
 7083SOL     OW32881   1.656   4.003   3.032 -0.4158  0.3040 -0.3838
 7083SOL    HW132882   1.587   3.938   3.046 -1.9157  1.9365 -0.2014
 7083SOL    HW232883   1.738   3.952   3.035 -0.8283 -0.3577 -0.3204
 7084SOL     OW32884   3.378   3.109   2.086 -0.1310 -0.0084 -0.6392
 7084SOL    HW132885   3.394   3.202   2.068 -0.3918 -0.2491 -2.0700
 7084SOL    HW232886   3.282   3.106   2.084 -0.0653 -1.0448 -1.8500
 7085SOL     OW32887   4.462   1.095   6.660 -0.5800  0.2412  0.5550
 7085SOL    HW132888   4.493   1.043   6.733  1.5738  0.9865  0.1565
 7085SOL    HW232889   4.530   1.158   6.637 -0.9529 -0.3466 -2.2510
 7086SOL     OW32890   3.618   4.340  10.485  0.1433  0.2301 -0.4777
 7086SOL    HW132891   3.596   4.302  10.400  0.6407  1.6336 -1.2350
 7086SOL    HW232892   3.549   4.301  10.539  1.5845 -0.8157  0.6179
 7087SOL     OW32893   1.297   0.727   5.196 -0.1054  0.1126  0.0874
 7087SOL    HW132894   1.323   0.723   5.288  0.1978 -2.6768 -0.1357
 7087SOL    HW232895   1.244   0.807   5.199 -0.6095 -0.2914  1.6808
 7088SOL     OW32896   2.086   4.078   7.522 -0.1120 -0.6424  0.4149
 7088SOL    HW132897   2.099   4.173   7.522  0.3164 -0.6949 -0.7156
 7088SOL    HW232898   2.173   4.045   7.540  0.5447  0.6214 -0.4300
 7089SOL     OW32899   4.025   4.305   8.743 -0.2541  0.1215  0.1279
 7089SOL    HW132900   4.066   4.278   8.825 -1.4013  1.9847  1.3180
 7089SOL    HW232901   3.940   4.262   8.749  1.1347 -2.3217  2.3364
 7090SOL     OW32902   1.647   1.131  14.686 -0.0901  0.0613 -0.0132
 7090SOL    HW132903   1.626   1.174  14.603 -2.1764  1.5377  1.2681
 7090SOL    HW232904   1.698   1.199  14.731  0.2011 -0.5076  0.5139
 7091SOL     OW32905   2.243   1.675   3.859  0.1710  1.2447 -0.0230
 7091SOL    HW132906   2.244   1.765   3.826  0.1512  1.2978  0.1231
 7091SOL    HW232907   2.156   1.647   3.830 -0.5114  3.6601 -0.2791
 7092SOL     OW32908   1.311   2.036   3.669 -0.0386  0.5135  0.4111
 7092SOL    HW132909   1.324   1.944   3.643 -2.9954 -0.2439  1.6483
 7092SOL    HW232910   1.387   2.078   3.630 -1.1039  0.2943 -1.9384
 7093SOL     OW32911   0.528   2.433   7.090  0.4883  0.0653  0.4019
 7093SOL    HW132912   0.580   2.452   7.168 -0.0357 -0.9291  0.9988
 7093SOL    HW232913   0.583   2.486   7.032  1.9421 -0.9468  0.8513
 7094SOL     OW32914   1.032   0.663   6.407 -0.7905 -0.0038  0.2878
 7094SOL    HW132915   1.111   0.631   6.450 -1.3359 -2.8950 -0.9009
 7094SOL    HW232916   0.975   0.587   6.402 -2.0408  1.0588 -1.8895
 7095SOL     OW32917   1.478   0.193   8.689  0.2681 -0.5310 -0.2807
 7095SOL    HW132918   1.385   0.175   8.704 -0.2646  2.0123 -0.5275
 7095SOL    HW232919   1.493   0.254   8.761  1.1409 -0.7055 -0.3191
 7096SOL     OW32920   2.435   1.720  11.635  0.0502 -0.2639 -0.0872
 7096SOL    HW132921   2.511   1.775  11.655 -0.9988  1.3204 -0.4698
 7096SOL    HW232922   2.443   1.646  11.694  1.0534  0.3335  0.5378
 7097SOL     OW32923   1.549   4.251   3.901  0.4936 -0.2774 -0.0536
 7097SOL    HW132924   1.487   4.323   3.915 -0.2304 -1.2715  1.8516
 7097SOL    HW232925   1.576   4.271   3.811  1.8916 -0.7380  0.2618
 7098SOL     OW32926   1.842   4.010  11.250 -0.3366 -0.4089  0.0587
 7098SOL    HW132927   1.781   3.949  11.208  0.1240 -0.1614 -0.9630
 7098SOL    HW232928   1.808   4.019  11.340 -0.9038 -0.6052 -0.1357
 7099SOL     OW32929   4.692   3.204  11.252  0.0582 -0.3022 -0.2104
 7099SOL    HW132930   4.717   3.158  11.332 -0.7109  1.7490  1.1927
 7099SOL    HW232931   4.620   3.255  11.288 -0.3267  0.6977 -2.3531
 7100SOL     OW32932   2.835   0.755   4.376 -0.5962  0.1555  0.0488
 7100SOL    HW132933   2.912   0.762   4.432 -1.0066  1.2053  0.4781
 7100SOL    HW232934   2.866   0.693   4.310  0.0744 -0.3626  0.8579
 7101SOL     OW32935   2.038   3.857  15.357 -0.3325  0.2321  0.1166
 7101SOL    HW132936   2.027   3.764  15.338 -0.3562  0.2406  0.0892
 7101SOL    HW232937   2.095   3.891  15.288  2.1729  1.5178  2.8081
 7102SOL     OW32938   0.188   0.119   3.391  0.3268  0.0587 -0.0945
 7102SOL    HW132939   0.127   0.093   3.322 -0.2307  0.5754  0.2064
 7102SOL    HW232940   0.126   0.170   3.444 -0.6342 -2.4532  1.1849
 7103SOL     OW32941   2.021   0.793  15.207  0.1679 -0.5456  0.2074
 7103SOL    HW132942   2.076   0.848  15.263  0.7460 -0.3910 -0.5100
 7103SOL    HW232943   1.969   0.866  15.173 -0.8960 -2.0902 -1.4985
 7104SOL     OW32944   2.289   1.479   6.953 -0.9684  0.5490 -0.4629
 7104SOL    HW132945   2.380   1.507   6.942 -1.0017  0.1652 -1.7321
 7104SOL    HW232946   2.287   1.421   6.877 -2.0927  1.3578 -1.0639
 7105SOL     OW32947   3.899   0.367  14.716  0.4106 -0.0824  0.1376
 7105SOL    HW132948   3.822   0.337  14.666  0.8243  0.9074 -1.1050
 7105SOL    HW232949   3.877   0.399  14.803  0.3871  1.3557 -0.4012
 7106SOL     OW32950   2.054   2.324  14.941  0.0232 -0.4519 -0.6257
 7106SOL    HW132951   1.965   2.358  14.933  0.1922 -0.4791 -2.5312
 7106SOL    HW232952   2.104   2.396  14.903  1.4413 -1.9133 -1.5101
 7107SOL     OW32953   0.613   4.005  14.000  0.6240 -0.2735  0.0945
 7107SOL    HW132954   0.554   3.982  14.072  0.3437  1.2345  0.3467
 7107SOL    HW232955   0.567   3.972  13.922  1.0326 -1.3354  0.2950
 7108SOL     OW32956   1.299   2.339   1.172  0.6027  0.1895  0.4057
 7108SOL    HW132957   1.385   2.312   1.140  0.0954 -0.1775 -0.6300
 7108SOL    HW232958   1.255   2.354   1.088  0.5250  2.0499  0.7601
 7109SOL     OW32959   1.012   3.540   4.499  0.8898 -0.6899  0.2899
 7109SOL    HW132960   0.965   3.614   4.460 -0.2510 -0.8028  1.4382
 7109SOL    HW232961   1.014   3.485   4.421 -0.5694  0.6737 -0.7127
 7110SOL     OW32962   2.785   3.161   7.676 -0.5624  0.0437  0.6536
 7110SOL    HW132963   2.765   3.133   7.587  0.3125  0.0846  0.4461
 7110SOL    HW232964   2.830   3.243   7.656 -0.3404 -0.0896  0.6019
 7111SOL     OW32965   2.649   0.840   9.586  0.2102  0.0918 -0.1354
 7111SOL    HW132966   2.564   0.841   9.542  0.3999 -0.0195 -0.5047
 7111SOL    HW232967   2.637   0.915   9.645 -0.7507 -0.4550  0.3526
 7112SOL     OW32968   0.665   3.770  16.301  0.0741  0.1877  0.7107
 7112SOL    HW132969   0.587   3.743  16.350 -0.5340 -0.1452 -0.4504
 7112SOL    HW232970   0.693   3.678  16.296  0.8196  0.4511 -0.0767
 7113SOL     OW32971   1.085   1.789   7.154  0.4402 -0.3207  0.6540
 7113SOL    HW132972   1.105   1.697   7.173  1.0378 -0.7409 -1.9896
 7113SOL    HW232973   1.090   1.787   7.058 -1.1181 -0.6333  0.5815
 7114SOL     OW32974   4.641   4.602   8.665  0.0835  0.3193 -0.0579
 7114SOL    HW132975   4.704   4.542   8.704  0.1320  0.7414  0.5280
 7114SOL    HW232976   4.557   4.571   8.698  0.5508 -1.4506 -0.5609
 7115SOL     OW32977   3.189   3.106   6.765  0.0782 -0.3404  0.1622
 7115SOL    HW132978   3.210   3.053   6.842 -0.1768 -0.0977  0.3980
 7115SOL    HW232979   3.244   3.062   6.700 -1.9648 -2.7172  0.0328
 7116SOL     OW32980   2.008   0.983   2.866 -0.1846 -0.2809 -0.0033
 7116SOL    HW132981   1.919   1.004   2.839 -0.9809 -0.9983  2.1221
 7116SOL    HW232982   2.012   0.888   2.875  0.1290 -0.2986 -0.3033
 7117SOL     OW32983   1.141   1.130   1.347  0.4984 -0.7136  0.2190
 7117SOL    HW132984   1.150   1.034   1.342 -2.5004 -1.0513  1.3736
 7117SOL    HW232985   1.094   1.146   1.265 -0.3793 -1.6540  0.5359
 7118SOL     OW32986   0.850   3.149   2.308  0.1885  0.5367  0.3740
 7118SOL    HW132987   0.887   3.186   2.228  1.4308  0.5742  0.9606
 7118SOL    HW232988   0.858   3.221   2.370 -1.3271  0.5680  0.5295
 7119SOL     OW32989   3.801   1.923   1.851  0.1651 -0.7692  0.3421
 7119SOL    HW132990   3.875   1.964   1.806  0.7288 -2.0490  0.1282
 7119SOL    HW232991   3.771   2.003   1.895 -2.2381 -1.7545  0.4932
 7120SOL     OW32992   3.878   0.219  17.550  0.6608 -0.0653  0.7176
 7120SOL    HW132993   3.963   0.262  17.557  1.9630 -2.3359 -0.9127
 7120SOL    HW232994   3.820   0.295  17.550  0.3245 -0.3009 -1.5085
 7121SOL     OW32995   1.551   1.806   5.011  0.5708 -0.4958  0.0701
 7121SOL    HW132996   1.501   1.757   5.076  0.0123 -0.1712 -0.1137
 7121SOL    HW232997   1.501   1.886   4.992  0.2414 -0.5832  0.5752
 7122SOL     OW32998   4.603   4.265   9.558 -0.0027  0.1779  0.2106
 7122SOL    HW132999   4.637   4.354   9.551 -0.5730  0.6598  3.3172
 7122SOL    HW233000   4.662   4.232   9.491 -2.1579  0.5080 -1.8329
 7123SOL     OW33001   4.718   3.547   9.944  0.8508  0.4018  0.1436
 7123SOL    HW133002   0.025   3.514   9.863 -0.7498  3.1096 -1.7067
 7123SOL    HW233003   4.651   3.604   9.906  1.0213  1.2465  1.1198
 7124SOL     OW33004   3.508   4.386   0.571  0.2910 -0.4186  0.3317
 7124SOL    HW133005   3.493   4.452   0.639  0.6831 -1.3101  1.2695
 7124SOL    HW233006   3.580   4.338   0.612 -0.3667 -1.1677  0.5933
 7125SOL     OW33007   0.103   0.045   6.288 -0.2561  0.4756  0.8560
 7125SOL    HW133008   0.149   4.716   6.346 -0.5893 -2.1959 -1.6967
 7125SOL    HW233009   0.017   0.002   6.290 -0.1340  0.2304  0.8403
 7126SOL     OW33010   2.641   2.558   1.866 -0.6761  0.2790 -0.6588
 7126SOL    HW133011   2.549   2.532   1.876 -1.3332  2.1268 -1.9065
 7126SOL    HW233012   2.637   2.601   1.781  1.2383 -0.3320 -1.0590
 7127SOL     OW33013   4.142   1.668   4.264  0.2275 -0.0666  0.4103
 7127SOL    HW133014   4.164   1.587   4.218 -0.2242 -1.5426  2.7929
 7127SOL    HW233015   4.225   1.691   4.306 -0.3906  0.7371  1.1927
 7128SOL     OW33016   1.030   0.935   8.843  0.5989 -0.0547  0.3343
 7128SOL    HW133017   1.043   0.893   8.928  2.6186  1.3983  0.7316
 7128SOL    HW233018   1.069   0.864   8.791  2.2935  1.0382  0.1290
 7129SOL     OW33019   1.827   1.486   2.782  0.0564  0.3875  0.7466
 7129SOL    HW133020   1.745   1.513   2.741  0.2665 -0.8118 -0.4524
 7129SOL    HW233021   1.887   1.531   2.723 -2.2128  0.7917 -1.2654
 7130SOL     OW33022   2.203   4.067   6.012 -0.3535 -0.0887  0.3515
 7130SOL    HW133023   2.217   4.055   5.918 -0.5537 -1.1398  0.4553
 7130SOL    HW233024   2.228   3.977   6.031 -0.5364 -0.1407  0.3451
 7131SOL     OW33025   1.419   1.016   5.253 -0.2401 -0.2624  0.5044
 7131SOL    HW133026   1.352   0.995   5.319 -1.2609  1.7692  0.1232
 7131SOL    HW233027   1.372   1.067   5.187 -2.2614 -0.7147  1.5971
 7132SOL     OW33028   1.836   1.575   1.567  0.0375  0.3416  0.2656
 7132SOL    HW133029   1.853   1.514   1.638 -2.7863  0.3817  0.9637
 7132SOL    HW233030   1.797   1.515   1.503 -0.3019  2.0167 -1.1170
 7133SOL     OW33031   4.623   4.373   9.248  0.0299 -0.3439  0.1724
 7133SOL    HW133032   4.606   4.451   9.301 -0.2714 -1.4376  1.6542
 7133SOL    HW233033   4.539   4.330   9.260 -0.9610  1.1487 -1.4115
 7134SOL     OW33034   4.306   4.065   9.521 -0.0517  0.5067  0.5287
 7134SOL    HW133035   4.334   4.003   9.588  0.7222 -1.3496 -1.5100
 7134SOL    HW233036   4.379   4.055   9.460 -0.7393  0.3591 -0.2742
 7135SOL     OW33037   1.263   0.530   4.693  0.5290  0.2310 -0.4564
 7135SOL    HW133038   1.175   0.492   4.699  0.9362 -0.6360 -0.0337
 7135SOL    HW233039   1.251   0.612   4.740 -1.4376 -0.7245  0.7083
 7136SOL     OW33040   0.858   3.759   3.860  0.2727 -0.2069 -0.3001
 7136SOL    HW133041   0.869   3.819   3.786  3.3307 -0.3315  0.0485
 7136SOL    HW233042   0.764   3.761   3.876  1.0648  1.4952  4.0560
 7137SOL     OW33043   4.102   2.764  10.044  0.3799  0.4417  0.7684
 7137SOL    HW133044   4.013   2.746  10.077 -0.1903 -1.1602 -1.6635
 7137SOL    HW233045   4.109   2.705   9.969 -0.5890  1.4607 -0.1188
 7138SOL     OW33046   1.258   0.122   2.007  0.3950  0.1598 -0.3093
 7138SOL    HW133047   1.354   0.122   2.011  0.3654 -2.2193  0.6086
 7138SOL    HW233048   1.231   0.209   1.980  0.5862  1.1183  2.5154
 7139SOL     OW33049   2.638   2.624  14.000 -0.4698 -0.0607  0.7575
 7139SOL    HW133050   2.603   2.695  14.053 -2.0068 -1.0536  1.0748
 7139SOL    HW233051   2.555   2.576  13.995 -0.3095 -0.1911 -0.6940
 7140SOL     OW33052   0.818   2.724   5.971 -0.8041 -0.2785 -0.3388
 7140SOL    HW133053   0.754   2.794   5.965 -1.2524 -0.7903 -1.5761
 7140SOL    HW233054   0.775   2.674   6.041 -2.1177  3.9140  1.7902
 7141SOL     OW33055   3.518   0.763   8.384 -0.3281  0.4432  0.1351
 7141SOL    HW133056   3.507   0.776   8.290 -0.4829 -0.9064 -0.0329
 7141SOL    HW233057   3.490   0.847   8.421 -0.3525 -0.5212  2.2931
 7142SOL     OW33058   3.429   3.382  10.601 -0.5350 -0.6348  0.2054
 7142SOL    HW133059   3.524   3.386  10.588 -0.2753 -1.6336  1.7496
 7142SOL    HW233060   3.431   3.425  10.687  0.9262 -1.1039  0.4119
 7143SOL     OW33061   3.404   2.412   5.815  0.1029 -0.1645  0.7055
 7143SOL    HW133062   3.478   2.374   5.862 -1.0097 -0.7995  1.9264
 7143SOL    HW233063   3.436   2.417   5.724 -1.3693 -1.1657  0.1366
 7144SOL     OW33064   0.403   2.702   4.592  0.2978 -0.1428 -0.4302
 7144SOL    HW133065   0.492   2.699   4.628 -0.6426  1.2800  1.9878
 7144SOL    HW233066   0.413   2.759   4.517 -1.8248 -0.0695 -0.6586
 7145SOL     OW33067   4.309   2.792  17.321  0.1200  0.1092 -0.0383
 7145SOL    HW133068   4.392   2.819  17.359  0.8808 -0.2815 -1.4327
 7145SOL    HW233069   4.265   2.877  17.313 -3.0344 -1.5937 -0.7195
 7146SOL     OW33070   0.902   3.440  16.664 -0.1463  0.2412 -0.2943
 7146SOL    HW133071   0.820   3.488  16.665 -0.0062  0.4753  0.0221
 7146SOL    HW233072   0.881   3.365  16.720  0.3076 -1.1922 -2.0149
 7147SOL     OW33073   2.330   3.409   7.243 -0.0207 -0.0165 -0.1524
 7147SOL    HW133074   2.304   3.363   7.164  0.0798 -0.8653  0.3158
 7147SOL    HW233075   2.310   3.336   7.301 -1.9662  0.8837  0.3104
 7148SOL     OW33076   1.288   0.647  17.631  0.0183  0.4103 -0.7294
 7148SOL    HW133077   1.349   0.721  17.634  2.0509 -1.2168 -1.5772
 7148SOL    HW233078   1.243   0.664  17.548  0.4943 -2.1040 -1.5016
 7149SOL     OW33079   1.780   3.927   3.342 -0.0754  0.1205 -0.1536
 7149SOL    HW133080   1.703   3.901   3.391  1.9651 -1.5728  2.1480
 7149SOL    HW233081   1.848   3.944   3.407  1.2542  0.9969 -1.7470
 7150SOL     OW33082   1.463   3.792   6.764  0.3797  0.0799 -0.5680
 7150SOL    HW133083   1.556   3.809   6.777  0.2658  1.5671 -1.6934
 7150SOL    HW233084   1.451   3.805   6.670  2.1777  1.6898 -0.5877
 7151SOL     OW33085   2.312   4.604   7.038 -0.5774  0.1825 -0.3390
 7151SOL    HW133086   2.321   4.517   6.998  1.9810  1.7796 -3.2213
 7151SOL    HW233087   2.395   4.648   7.021  0.0223 -0.1940  1.5750
 7152SOL     OW33088   4.089   4.320   7.642  0.4168 -0.3288 -0.5208
 7152SOL    HW133089   4.178   4.287   7.655 -0.4483 -2.4777 -0.1037
 7152SOL    HW233090   4.052   4.257   7.580 -2.0102  0.6605 -0.0658
 7153SOL     OW33091   4.519   2.075   5.611 -0.1587  0.4893 -0.0257
 7153SOL    HW133092   4.562   2.011   5.669  0.2376 -1.3863 -2.3711
 7153SOL    HW233093   4.590   2.105   5.554 -1.4038  2.6917 -0.4152
 7154SOL     OW33094   3.280   4.385  16.775  0.4753  0.5314 -0.2580
 7154SOL    HW133095   3.374   4.368  16.779  0.2316 -0.8971 -0.5151
 7154SOL    HW233096   3.244   4.379  16.863 -2.2126 -0.8178 -1.4333
 7155SOL     OW33097   4.045   2.559  10.964  0.0510  0.5443  0.0111
 7155SOL    HW133098   4.104   2.576  10.890  0.1583 -0.4890 -0.1350
 7155SOL    HW233099   4.016   2.647  10.990 -1.4134 -0.3256  1.2699
 7156SOL     OW33100   2.899   2.457   6.559  0.7050 -0.0870  0.0559
 7156SOL    HW133101   2.952   2.438   6.481  0.4272  0.9301 -0.3838
 7156SOL    HW233102   2.901   2.367   6.590  1.3451  0.0361  0.3620
 7157SOL     OW33103   2.150   2.381   7.859  0.5878  0.3662 -0.2155
 7157SOL    HW133104   2.157   2.416   7.770  0.1121  0.1631 -0.3320
 7157SOL    HW233105   2.236   2.340   7.867  1.6234  2.7064  0.9660
 7158SOL     OW33106   2.776   4.555   1.582 -0.1358  0.6625 -0.0249
 7158SOL    HW133107   2.714   4.508   1.527 -0.9401  0.5859  0.9545
 7158SOL    HW233108   2.816   4.612   1.516  0.2151 -0.8344 -1.0964
 7159SOL     OW33109   0.690   2.303  10.864 -0.4534 -0.2850  0.4454
 7159SOL    HW133110   0.727   2.387  10.891 -2.2669  0.9583 -0.9775
 7159SOL    HW233111   0.715   2.302  10.771  0.4175  0.1278  0.6720
 7160SOL     OW33112   3.575   4.231   3.209  0.5797 -0.0304 -0.2805
 7160SOL    HW133113   3.572   4.187   3.124  0.7316 -0.1793 -0.2088
 7160SOL    HW233114   3.638   4.298   3.183 -0.3454  1.3036  0.9221
 7161SOL     OW33115   0.242   2.945   2.639  0.1409  0.1340  0.3917
 7161SOL    HW133116   0.148   2.935   2.657  0.3959 -1.6150  0.7057
 7161SOL    HW233117   0.277   2.880   2.699  1.9978  0.8343  0.0601
 7162SOL     OW33118   0.211   4.719  13.719  0.1220  0.3872  0.1751
 7162SOL    HW133119   0.236   4.642  13.770  1.8355 -0.1399 -1.4550
 7162SOL    HW233120   0.188   4.675  13.637  1.1931 -0.0398  0.1110
 7163SOL     OW33121   0.815   4.617   1.258  0.0589 -0.1395 -0.4548
 7163SOL    HW133122   0.752   4.559   1.217 -0.3007  1.7650 -2.5669
 7163SOL    HW233123   0.837   4.574   1.341  1.5379 -0.4396 -0.9973
 7164SOL     OW33124   2.139   3.811   9.101 -0.1819 -0.1395  0.0574
 7164SOL    HW133125   2.173   3.810   9.190  1.9951  2.2503 -0.7680
 7164SOL    HW233126   2.079   3.736   9.096 -1.7298  0.9499  2.1864
 7165SOL     OW33127   2.071   0.772   2.163  0.1738  0.0486  0.2897
 7165SOL    HW133128   2.074   0.760   2.257 -1.7999  2.8273  0.7174
 7165SOL    HW233129   2.113   0.695   2.125  0.3060  0.4477 -0.3887
 7166SOL     OW33130   2.281   0.510   1.542 -0.2830 -0.3216  0.2298
 7166SOL    HW133131   2.259   0.572   1.612  3.2172 -2.2518  3.0739
 7166SOL    HW233132   2.376   0.514   1.553 -0.4072  0.5102  1.0632
 7167SOL     OW33133   3.131   1.151   9.368  0.3087  0.4469  0.0535
 7167SOL    HW133134   3.079   1.178   9.292 -1.4764  0.0549  1.1523
 7167SOL    HW233135   3.074   1.085   9.407  1.1216  0.4256  1.2012
 7168SOL     OW33136   1.225   1.586  14.243 -0.3885 -0.2125 -0.4753
 7168SOL    HW133137   1.144   1.637  14.244 -1.8034 -2.5133  1.7063
 7168SOL    HW233138   1.277   1.604  14.164  0.8179 -2.6562 -0.2480
 7169SOL     OW33139   3.230   4.254   6.760  0.1140 -0.2968  0.5377
 7169SOL    HW133140   3.293   4.326   6.750 -1.7321  1.0794 -1.2606
 7169SOL    HW233141   3.148   4.291   6.791  0.5942  0.7508  0.5730
 7170SOL     OW33142   2.840   3.942  16.650 -0.6074  0.2133  0.3020
 7170SOL    HW133143   2.865   4.026  16.613 -1.3397  0.1921 -0.2530
 7170SOL    HW233144   2.926   3.900  16.655 -0.4380  0.5129 -0.1120
 7171SOL     OW33145   0.808   3.044   1.534  0.0311  0.4305  0.2737
 7171SOL    HW133146   0.800   2.970   1.474 -1.0910  0.7856 -0.0070
 7171SOL    HW233147   0.753   3.025   1.609 -0.8239  0.1980 -0.4132
 7172SOL     OW33148   3.526   0.161   2.463  0.2069 -0.3350 -0.2861
 7172SOL    HW133149   3.525   0.224   2.535  0.4558 -2.2573  1.4303
 7172SOL    HW233150   3.579   0.095   2.509 -2.0589 -1.4596  0.7543
 7173SOL     OW33151   0.541   1.466   1.082 -0.1435 -0.0544  0.2920
 7173SOL    HW133152   0.492   1.407   1.139  2.5408  0.6091  3.3134
 7173SOL    HW233153   0.472   1.523   1.048 -0.2928  1.2515  2.7623
 7174SOL     OW33154   1.124   3.507   0.157 -0.5075  0.3524 -0.1584
 7174SOL    HW133155   1.181   3.556   0.097  1.5593 -3.0056 -0.9426
 7174SOL    HW233156   1.182   3.470   0.223 -2.5888 -1.2764  0.7156
 7175SOL     OW33157   4.394   3.676   6.073 -0.3368  0.0585 -0.7376
 7175SOL    HW133158   4.401   3.615   6.000  0.9115  1.3860 -1.7559
 7175SOL    HW233159   4.489   3.680   6.088 -0.8159  1.5876  1.9742
 7176SOL     OW33160   1.919   1.334  17.606 -0.1985 -0.4558 -0.2174
 7176SOL    HW133161   1.952   1.247  17.585 -0.2858 -0.5127 -0.1207
 7176SOL    HW233162   2.003   1.372  17.629 -0.1880 -0.8361  0.3775
 7177SOL     OW33163   3.224   0.205   8.368  0.0219  0.5874  0.0413
 7177SOL    HW133164   3.224   0.290   8.412  0.4651 -0.3638  1.8925
 7177SOL    HW233165   3.203   0.145   8.440 -0.9629  0.5004 -0.3114
 7178SOL     OW33166   3.466   3.451   9.452 -0.5135  0.6701  0.6013
 7178SOL    HW133167   3.506   3.367   9.475  1.5344  2.6982  4.4635
 7178SOL    HW233168   3.525   3.516   9.492  0.9274  0.0165 -0.4624
 7179SOL     OW33169   0.325   1.538   4.011  0.2326 -0.2800  0.1643
 7179SOL    HW133170   0.269   1.498   4.077  0.2389  0.7297  0.7820
 7179SOL    HW233171   0.258   1.569   3.951  0.9802  4.1625  1.6478
 7180SOL     OW33172   2.168   0.937   1.968 -0.6251 -0.2488  0.4524
 7180SOL    HW133173   2.141   0.869   2.030  0.4650 -1.1369 -0.0517
 7180SOL    HW233174   2.185   1.002   2.036  1.0984 -0.5500  0.3048
 7181SOL     OW33175   1.659   4.703   4.835  0.4442 -0.1284 -0.1225
 7181SOL    HW133176   1.741   0.013   4.809 -0.2695  0.0384 -2.0953
 7181SOL    HW233177   1.683   4.610   4.824  1.2190  0.2908 -1.9854
 7182SOL     OW33178   3.304   1.445  10.069 -0.7590  0.0704 -0.6413
 7182SOL    HW133179   3.357   1.521  10.093 -1.5477 -0.3631  2.4805
 7182SOL    HW233180   3.366   1.372  10.065 -0.0363  0.5609  1.6071
 7183SOL     OW33181   0.856   1.055   2.087  0.0276  0.6233  0.6221
 7183SOL    HW133182   0.834   1.096   2.003 -1.4258  0.9109  1.1356
 7183SOL    HW233183   0.844   0.963   2.064 -2.2459  0.4989  2.2526
 7184SOL     OW33184   0.883   1.683  17.570 -0.6353  0.3099 -0.3906
 7184SOL    HW133185   0.839   1.641  17.496  1.2559  2.1844 -2.6000
 7184SOL    HW233186   0.842   1.627  17.636  2.0875 -0.3223  0.7681
 7185SOL     OW33187   4.077   0.708  14.380  0.3793 -0.2945  0.3127
 7185SOL    HW133188   4.056   0.650  14.453 -2.0213 -3.1510 -2.6481
 7185SOL    HW233189   4.078   0.654  14.301  1.8227  0.2232 -0.0058
 7186SOL     OW33190   3.631   1.096  15.573 -0.1795  0.2939  0.1323
 7186SOL    HW133191   3.672   1.172  15.531 -2.8383  1.9094  0.4686
 7186SOL    HW233192   3.687   1.020  15.557 -1.4238 -1.1376  2.6677
 7187SOL     OW33193   4.221   3.994  10.234  0.1806  0.1683 -0.3798
 7187SOL    HW133194   4.298   4.019  10.184  0.6103  1.0435  0.7129
 7187SOL    HW233195   4.158   4.057  10.198 -1.2544 -0.8828  0.2845
 7188SOL     OW33196   3.013   1.668   8.897 -0.4090 -0.0637  0.7475
 7188SOL    HW133197   3.091   1.615   8.882 -0.9062 -0.6556  0.2451
 7188SOL    HW233198   3.010   1.732   8.826  2.3667  0.4134  1.0518
 7189SOL     OW33199   1.217   1.670   3.452  0.3158  0.4327  0.0594
 7189SOL    HW133200   1.150   1.713   3.400  0.1444 -2.0197 -1.7303
 7189SOL    HW233201   1.168   1.594   3.483  0.5097 -0.1022 -0.9522
 7190SOL     OW33202   4.002   3.317  12.225  0.1190  0.8525 -0.4197
 7190SOL    HW133203   4.038   3.260  12.293 -0.6814  0.6311 -0.1835
 7190SOL    HW233204   4.050   3.288  12.147 -1.6673  2.1262 -1.9900
 7191SOL     OW33205   0.114   0.500   6.912  0.0871 -0.0548  0.4432
 7191SOL    HW133206   0.057   0.567   6.951 -1.1785 -0.5519 -0.5568
 7191SOL    HW233207   0.187   0.550   6.876 -2.4382  3.1224 -0.2553
 7192SOL     OW33208   1.899   1.686   7.365  0.5947 -0.6351  0.2496
 7192SOL    HW133209   1.820   1.681   7.311 -0.7348  1.0708  2.0611
 7192SOL    HW233210   1.970   1.696   7.301  0.6928 -2.3560  0.1037
 7193SOL     OW33211   3.100   3.119   2.104  0.0637  0.4927  0.1725
 7193SOL    HW133212   3.069   3.044   2.156  1.3808  0.1767  0.5112
 7193SOL    HW233213   3.025   3.150   2.054 -0.2344 -2.0734 -0.9705
 7194SOL     OW33214   1.621   4.009   9.737 -0.2573  0.3003 -0.3833
 7194SOL    HW133215   1.598   4.092   9.778 -1.2655  0.1104 -0.5530
 7194SOL    HW233216   1.700   4.030   9.687  1.8534 -1.9332  2.0100
 7195SOL     OW33217   0.693   1.278   1.326  0.0999 -0.4400  0.0996
 7195SOL    HW133218   0.682   1.193   1.367  0.7011 -1.4258 -1.8172
 7195SOL    HW233219   0.606   1.303   1.294 -0.2931 -1.5793  0.2961
 7196SOL     OW33220   1.190   0.329   3.317 -0.1645 -0.1862 -0.3406
 7196SOL    HW133221   1.110   0.290   3.282  0.9763 -2.0405 -0.8636
 7196SOL    HW233222   1.249   0.254   3.308 -0.0023 -0.2208  1.0407
 7197SOL     OW33223   4.391   2.592   0.690  0.4052 -0.0484 -0.4625
 7197SOL    HW133224   4.355   2.663   0.637 -0.1166  0.1139  0.1121
 7197SOL    HW233225   4.422   2.631   0.772  0.8324 -0.8522 -0.2434
 7198SOL     OW33226   4.248   3.242   3.656 -0.3212 -0.3653  0.0258
 7198SOL    HW133227   4.237   3.337   3.665 -3.3858 -0.9099  1.8428
 7198SOL    HW233228   4.176   3.215   3.599 -0.9652  1.6189 -0.0987
 7199SOL     OW33229   3.534   2.211   5.220 -0.1052  0.2962  0.8625
 7199SOL    HW133230   3.612   2.204   5.164 -2.0605  1.3998 -1.9838
 7199SOL    HW233231   3.481   2.273   5.171  0.0329 -1.5853 -1.7192
 7200SOL     OW33232   2.547   2.550   5.779 -0.4264 -0.4552 -0.3790
 7200SOL    HW133233   2.533   2.483   5.712 -0.9610 -1.2158  0.4874
 7200SOL    HW233234   2.504   2.504   5.851 -1.1857  0.0937 -0.4926
 7201SOL     OW33235   2.186   2.572   1.439  0.1718 -0.1371 -0.5725
 7201SOL    HW133236   2.101   2.584   1.396  0.3581  0.1183 -0.8640
 7201SOL    HW233237   2.236   2.539   1.365 -1.1485 -0.7913 -1.1622
 7202SOL     OW33238   3.515   0.211   5.422 -0.3926 -0.1215 -0.0489
 7202SOL    HW133239   3.557   0.220   5.508  0.0494 -3.7254  0.1067
 7202SOL    HW233240   3.540   0.125   5.387 -0.8651 -1.2303  2.3099
 7203SOL     OW33241   3.086   3.991   7.221 -0.0167 -0.5335 -0.2628
 7203SOL    HW133242   3.170   4.013   7.181 -0.8529  1.3721 -0.9269
 7203SOL    HW233243   3.106   3.953   7.307 -2.0954  1.4311  1.0991
 7204SOL     OW33244   2.554   1.788   7.109  0.1101 -0.5842 -0.5652
 7204SOL    HW133245   2.491   1.772   7.179 -0.6450  0.6348 -0.9647
 7204SOL    HW233246   2.577   1.880   7.122 -0.5288 -0.5571  0.3905
 7205SOL     OW33247   3.509   0.381  17.634 -0.3761 -0.4489 -0.2405
 7205SOL    HW133248   3.471   0.294  17.650  1.2298 -1.2235 -0.6296
 7205SOL    HW233249   3.599   0.372  17.666 -0.2862  2.0531  0.1644
 7206SOL     OW33250   3.216   0.451   8.469  0.0769 -0.2695 -0.2275
 7206SOL    HW133251   3.271   0.509   8.522 -0.0477 -0.2866 -0.0780
 7206SOL    HW233252   3.197   0.504   8.391 -2.6767  2.2282  2.1114
 7207SOL     OW33253   0.939   0.899   5.596  0.0931  0.0884 -0.3906
 7207SOL    HW133254   0.860   0.857   5.562 -1.0954  2.2840 -0.3196
 7207SOL    HW233255   0.919   0.992   5.585  0.2920  0.2189  0.3347
 7208SOL     OW33256   1.135   3.171   4.490 -0.2029 -0.5866  0.5144
 7208SOL    HW133257   1.104   3.253   4.453  1.8603 -0.5178 -1.0917
 7208SOL    HW233258   1.081   3.173   4.569 -1.1544  0.1823 -0.1610
 7209SOL     OW33259   4.640   0.056   1.011 -0.0221  0.4358  0.1508
 7209SOL    HW133260   4.675   4.700   1.023  0.5816  0.5505 -0.6754
 7209SOL    HW233261   4.710   0.117   1.033  0.6344 -0.6826  1.1573
 7210SOL     OW33262   0.614   2.946  10.385  0.5221 -0.5253 -0.1556
 7210SOL    HW133263   0.582   2.949  10.475 -1.5993 -1.3007 -0.8727
 7210SOL    HW233264   0.529   2.963  10.344 -0.5370 -1.2635  1.7371
 7211SOL     OW33265   2.460   2.553   6.837  0.1733 -0.1804  0.0292
 7211SOL    HW133266   2.514   2.516   6.767 -0.9413 -0.7295 -0.5399
 7211SOL    HW233267   2.383   2.498   6.831  0.6261 -0.8086 -0.0720
 7212SOL     OW33268   1.346   0.795  17.111 -0.2171 -0.0591  0.3042
 7212SOL    HW133269   1.383   0.711  17.136 -0.8226 -0.5854 -0.5922
 7212SOL    HW233270   1.355   0.810  17.017  0.3777  0.5810  0.4641
 7213SOL     OW33271   4.250   2.424   9.021 -0.1005  0.4739  0.2007
 7213SOL    HW133272   4.318   2.490   9.031 -0.6882  1.1806 -0.4557
 7213SOL    HW233273   4.282   2.378   8.943  0.9187 -0.7387  1.3444
 7214SOL     OW33274   0.375   2.755   0.848 -0.2671  0.3677  0.2929
 7214SOL    HW133275   0.283   2.780   0.846 -0.5225 -0.4964  1.2447
 7214SOL    HW233276   0.399   2.775   0.758  1.8993  0.4987  0.8763
 7215SOL     OW33277   2.033   3.264   6.583 -0.3288  0.4045 -0.0991
 7215SOL    HW133278   2.050   3.339   6.640 -0.3731 -0.2617  0.7976
 7215SOL    HW233279   2.012   3.202   6.654 -1.4049  0.5126 -0.3259
 7216SOL     OW33280   4.261   3.696   8.890 -0.3769 -0.5476  0.5748
 7216SOL    HW133281   4.165   3.699   8.892 -0.4922 -2.7154 -1.8492
 7216SOL    HW233282   4.279   3.790   8.885  1.4981 -0.8605  1.5332
 7217SOL     OW33283   2.373   1.294   9.205 -0.0120  0.2088  0.0976
 7217SOL    HW133284   2.452   1.337   9.238  0.3261  1.5289 -2.4201
 7217SOL    HW233285   2.321   1.367   9.171  1.4788  1.7597  1.1106
 7218SOL     OW33286   1.725   1.658  15.118  0.4059 -0.2624 -0.4299
 7218SOL    HW133287   1.691   1.581  15.071  1.2999 -0.7509 -0.2753
 7218SOL    HW233288   1.740   1.724  15.050 -1.1429  2.6227  2.0680
 7219SOL     OW33289   3.758   2.206  11.541  0.2472  0.3440 -0.0558
 7219SOL    HW133290   3.668   2.199  11.511  0.0792  2.0989  0.0511
 7219SOL    HW233291   3.802   2.139  11.488 -0.1365  0.6364 -0.7467
 7220SOL     OW33292   2.660   3.242   0.459  0.5721 -0.0183  0.5717
 7220SOL    HW133293   2.724   3.304   0.424  0.3191 -0.6449 -0.9778
 7220SOL    HW233294   2.702   3.158   0.446 -1.0739 -0.7621  0.0409
 7221SOL     OW33295   4.258   0.716  11.112  0.0423  0.0520 -0.9330
 7221SOL    HW133296   4.252   0.649  11.181  1.5270  0.2696 -0.5855
 7221SOL    HW233297   4.352   0.728  11.125 -0.2651  0.0922  1.4155
 7222SOL     OW33298   0.717   1.040   3.239 -0.4181  0.4631 -0.6734
 7222SOL    HW133299   0.725   0.970   3.174  2.2720  0.6968 -0.6314
 7222SOL    HW233300   0.726   0.984   3.316 -0.1709  0.1225 -0.9503
 7223SOL     OW33301   2.981   2.524   3.914  0.0233  0.1424  0.5235
 7223SOL    HW133302   2.984   2.447   3.970 -0.1260 -0.2350  0.0024
 7223SOL    HW233303   2.982   2.483   3.828 -2.0254  0.5755  0.2799
 7224SOL     OW33304   0.289   0.241   6.328 -0.2387  0.8994  0.4002
 7224SOL    HW133305   0.309   0.211   6.240 -2.4692  0.7000 -0.0423
 7224SOL    HW233306   0.211   0.186   6.328 -0.4674  1.2227 -0.2135
 7225SOL     OW33307   1.140   0.476  11.838  0.1260 -0.0471 -0.0157
 7225SOL    HW133308   1.076   0.526  11.888  1.5108  1.9085 -0.1914
 7225SOL    HW233309   1.134   0.527  11.757 -1.4089  0.3029  0.3294
 7226SOL     OW33310   0.299   2.724   7.164 -0.0533 -0.0655  0.0603
 7226SOL    HW133311   0.256   2.639   7.171 -0.1846  0.1524  1.7680
 7226SOL    HW233312   0.263   2.761   7.083  0.5946 -0.3637 -0.3638
 7227SOL     OW33313   1.308   2.656   1.773 -0.4284 -0.0871 -0.0646
 7227SOL    HW133314   1.252   2.633   1.699 -1.2150  0.0694  0.4814
 7227SOL    HW233315   1.397   2.655   1.738 -0.8688 -1.1290 -1.1586
 7228SOL     OW33316   1.709   3.982   5.844 -0.0822 -0.3054 -0.0260
 7228SOL    HW133317   1.757   4.020   5.918  0.4085 -0.9848  0.0123
 7228SOL    HW233318   1.672   4.058   5.800  1.6585  0.6261  0.1247
 7229SOL     OW33319   1.307   0.561  12.039  0.3993  0.4187 -0.1418
 7229SOL    HW133320   1.271   0.524  11.958  1.5569  0.9210 -0.8938
 7229SOL    HW233321   1.385   0.506  12.049  0.8467  1.6097  2.7438
 7230SOL     OW33322   1.710   4.467   5.832  0.1952  0.4689 -0.4206
 7230SOL    HW133323   1.714   4.501   5.922  0.7685  2.1555 -1.0993
 7230SOL    HW233324   1.615   4.456   5.840  0.3425 -1.0527 -0.6932
 7231SOL     OW33325   0.285   1.630   2.644  0.0688  0.1135 -0.2803
 7231SOL    HW133326   0.260   1.722   2.650 -1.7309 -0.3434 -0.8207
 7231SOL    HW233327   0.349   1.646   2.574 -0.4108  0.5053 -0.6319
 7232SOL     OW33328   2.738   0.978   5.785  0.4818  0.2288  0.2306
 7232SOL    HW133329   2.691   1.061   5.791  0.4000  0.1734  0.3560
 7232SOL    HW233330   2.827   1.006   5.765  0.2246 -1.0958 -2.7370
 7233SOL     OW33331   4.489   2.699   0.946  0.3531 -0.3447  0.3322
 7233SOL    HW133332   4.401   2.728   0.970  0.5171  1.0107 -0.7109
 7233SOL    HW233333   4.541   2.698   1.027 -0.8757 -1.9728  1.0859
 7234SOL     OW33334   1.767   3.475   4.638 -0.0059 -0.2699  0.1697
 7234SOL    HW133335   1.683   3.521   4.641 -0.3725 -0.9041 -0.3402
 7234SOL    HW233336   1.777   3.440   4.726  1.3702 -2.1543 -0.7547
 7235SOL     OW33337   2.711   2.117   8.965  0.0256  0.0838  0.3935
 7235SOL    HW133338   2.632   2.072   8.934 -1.3767  1.9392  1.2530
 7235SOL    HW233339   2.781   2.070   8.921  0.5813  0.2614  1.0871
 7236SOL     OW33340   1.936   4.591   8.448 -0.0581 -0.3390 -0.0237
 7236SOL    HW133341   1.878   4.605   8.374  1.9530  0.4685 -1.4398
 7236SOL    HW233342   1.872   4.574   8.518 -2.2049 -0.0120 -1.9239
 7237SOL     OW33343   0.819   4.048  16.068  0.7594 -0.4318 -0.6681
 7237SOL    HW133344   0.801   4.099  15.990 -1.1728  2.2570  1.5416
 7237SOL    HW233345   0.739   4.000  16.085  0.3253  1.4317  2.5903
 7238SOL     OW33346   3.402   1.326  12.554  0.0765  0.3877  0.5484
 7238SOL    HW133347   3.393   1.291  12.465 -0.9974  3.1464 -0.4386
 7238SOL    HW233348   3.490   1.305  12.583  0.2614 -0.0725 -0.3534
 7239SOL     OW33349   1.009   4.681   4.754 -0.3576  0.0351 -0.3406
 7239SOL    HW133350   1.086   4.726   4.790 -1.4174  0.7651  1.0046
 7239SOL    HW233351   1.026   4.588   4.771  0.8916 -0.0001 -1.7296
 7240SOL     OW33352   1.634   0.761   9.297  0.0776  0.1975 -0.2626
 7240SOL    HW133353   1.568   0.806   9.349  0.2022  1.5522 -1.2852
 7240SOL    HW233354   1.688   0.726   9.367  2.7252 -0.7921 -2.7975
 7241SOL     OW33355   2.500   4.640   9.614  0.0205 -0.2491 -0.1870
 7241SOL    HW133356   2.474   4.553   9.583 -0.8679 -0.2542  0.5848
 7241SOL    HW233357   2.544   4.617   9.696 -0.1518 -1.7497 -0.5225
 7242SOL     OW33358   3.197   2.064   6.698  0.3617 -0.7644 -0.3710
 7242SOL    HW133359   3.136   2.137   6.711  0.9163 -0.6103  1.4005
 7242SOL    HW233360   3.237   2.059   6.785 -1.0829 -0.5996  0.3057
 7243SOL     OW33361   1.456   2.241   1.386  0.2684  0.3960 -0.0145
 7243SOL    HW133362   1.416   2.156   1.399 -0.0207  0.3666 -1.0810
 7243SOL    HW233363   1.400   2.280   1.319 -2.3993 -2.7129  0.4254
 7244SOL     OW33364   3.584   2.705   6.538 -0.0891  0.1441 -0.3631
 7244SOL    HW133365   3.519   2.700   6.609  0.4298  2.9122  0.3038
 7244SOL    HW233366   3.627   2.791   6.540  1.1787 -0.5269  1.2709
 7245SOL     OW33367   4.214   3.498   3.695  0.6722  0.1712 -0.3384
 7245SOL    HW133368   4.182   3.575   3.741 -0.7519 -1.2598  1.0611
 7245SOL    HW233369   4.240   3.535   3.611 -0.7893 -1.3295 -1.4516
 7246SOL     OW33370   2.669   3.013   8.398 -0.1320  0.5025 -0.0349
 7246SOL    HW133371   2.599   3.060   8.351  1.2162  0.7019 -1.8231
 7246SOL    HW233372   2.742   3.023   8.337  0.9054 -0.3157  1.0812
 7247SOL     OW33373   1.343   2.800  16.308 -0.1647  0.2113  0.1900
 7247SOL    HW133374   1.314   2.712  16.335 -0.0265  1.0115  2.9456
 7247SOL    HW233375   1.419   2.802  16.366  1.0808 -0.2097 -1.4600
 7248SOL     OW33376   0.207   4.606  12.453 -0.1255  0.2072 -0.0906
 7248SOL    HW133377   0.176   4.621  12.543 -0.7048  1.9683 -0.5882
 7248SOL    HW233378   0.284   4.662  12.444 -0.8950  1.0104 -1.6572
 7249SOL     OW33379   4.268   1.117   8.191  0.0407  0.4260 -0.9125
 7249SOL    HW133380   4.353   1.141   8.228  0.2189 -0.2925 -0.8514
 7249SOL    HW233381   4.304   1.097   8.104  0.9220 -0.1850 -0.4087
 7250SOL     OW33382   4.466   3.814   5.669  0.7094  0.3106  0.3600
 7250SOL    HW133383   4.480   3.728   5.708 -0.9827 -0.2816 -0.3494
 7250SOL    HW233384   4.494   3.809   5.578 -1.4405  1.7610 -0.3875
 7251SOL     OW33385   4.625   4.163   4.901  0.2909  0.5365  0.1439
 7251SOL    HW133386   4.535   4.171   4.931  0.5140 -1.0354  1.2445
 7251SOL    HW233387   4.678   4.152   4.980 -2.2649 -1.5999  1.5763
 7252SOL     OW33388   3.848   3.973   9.276 -0.3968 -0.2543 -0.5361
 7252SOL    HW133389   3.802   3.890   9.286 -1.1727  0.0627 -1.3897
 7252SOL    HW233390   3.897   3.983   9.357 -0.6521 -1.0630 -0.2792
 7253SOL     OW33391   0.461   1.789   2.963  0.2165 -0.1000  0.0487
 7253SOL    HW133392   0.542   1.801   2.914 -1.0516  2.1600 -1.4642
 7253SOL    HW233393   0.448   1.694   2.963 -0.5448 -0.0029 -2.4072
 7254SOL     OW33394   1.239   4.266   1.359 -0.7231 -0.6247  0.4553
 7254SOL    HW133395   1.230   4.180   1.318  0.1619 -0.4014 -0.2059
 7254SOL    HW233396   1.305   4.249   1.426 -0.2427  0.5080  0.2723
 7255SOL     OW33397   4.260   4.376   4.072 -0.8053 -0.2248  0.1768
 7255SOL    HW133398   4.212   4.459   4.064 -2.0271 -0.8343  1.0972
 7255SOL    HW233399   4.330   4.386   4.008 -0.8928  0.1417  0.1382
 7256SOL     OW33400   4.403   3.276   9.364 -0.0700 -0.8250  0.1511
 7256SOL    HW133401   4.388   3.327   9.443  0.3850  2.1748 -1.7131
 7256SOL    HW233402   4.421   3.191   9.403 -0.2057 -0.3423  1.2536
 7257SOL     OW33403   0.924   4.279   7.442 -0.7679 -0.0666  0.3457
 7257SOL    HW133404   0.898   4.369   7.458 -0.5304  0.2046 -0.8080
 7257SOL    HW233405   0.850   4.226   7.472 -0.2442  0.4459  2.5534
 7258SOL     OW33406   3.695   1.032   4.957 -0.5941 -0.8289  0.3854
 7258SOL    HW133407   3.679   1.038   4.863 -0.6293 -2.1408  0.3195
 7258SOL    HW233408   3.657   1.116   4.985 -2.2916 -1.6919  0.6515
 7259SOL     OW33409   1.045   3.911  17.722 -0.2313 -0.4592 -0.1979
 7259SOL    HW133410   1.102   3.877  17.653 -1.2774 -5.0292  1.1626
 7259SOL    HW233411   1.088   3.886   0.076 -0.1247 -1.5035 -0.5725
 7260SOL     OW33412   4.555   1.005   2.206 -0.0108 -0.1443  0.1501
 7260SOL    HW133413   4.627   0.975   2.150  0.4480 -0.8166  1.1001
 7260SOL    HW233414   4.597   1.004   2.292  0.9701 -2.3770 -0.3419
 7261SOL     OW33415   0.505   3.866   9.022 -0.4463  0.6279  0.5693
 7261SOL    HW133416   0.586   3.889   8.977  0.5997 -1.6350  1.3093
 7261SOL    HW233417   0.529   3.834   9.109  0.9387 -0.5145 -0.2225
 7262SOL     OW33418   4.631   4.276  15.262  0.4405 -0.3869 -0.6798
 7262SOL    HW133419   4.582   4.326  15.195 -0.0903  0.6872  0.5077
 7262SOL    HW233420   4.713   4.320  15.284  0.4983 -1.5031  1.3273
 7263SOL     OW33421   4.111   4.556   3.681 -0.4295  0.0259 -0.2813
 7263SOL    HW133422   4.093   4.478   3.735  2.5540 -0.2529  0.3181
 7263SOL    HW233423   4.022   4.589   3.670 -1.4654 -2.2190  1.3437
 7264SOL     OW33424   3.272   3.573   7.532 -0.4730  0.0615  0.3715
 7264SOL    HW133425   3.366   3.578   7.519 -0.1624 -2.2608  1.6417
 7264SOL    HW233426   3.280   3.548   7.624  0.5363 -0.5243  0.1168
 7265SOL     OW33427   2.580   0.471  15.086  0.0309 -0.9363 -0.1507
 7265SOL    HW133428   2.648   0.455  15.020  1.3664 -0.8473  1.1932
 7265SOL    HW233429   2.597   0.400  15.147  1.4776 -1.4533 -1.1524
 7266SOL     OW33430   2.359   1.780  12.886  0.3631 -0.2134 -0.0594
 7266SOL    HW133431   2.426   1.835  12.926 -1.0539  1.7701 -0.4247
 7266SOL    HW233432   2.307   1.857  12.861  0.3854 -1.4969 -4.0823
 7267SOL     OW33433   3.496   3.609  16.428  0.1975  0.6010 -0.6769
 7267SOL    HW133434   3.569   3.600  16.490 -2.6889  3.3490  3.1426
 7267SOL    HW233435   3.472   3.702  16.435  0.7721  0.5643  1.7578
 7268SOL     OW33436   2.908   1.849   3.024  0.3143 -0.2077  0.3981
 7268SOL    HW133437   2.940   1.920   3.080  0.3502 -0.0736  0.2064
 7268SOL    HW233438   2.953   1.863   2.941 -1.9509 -2.4718 -1.1739
 7269SOL     OW33439   3.685   0.955   6.168  0.2654  0.2032 -0.2732
 7269SOL    HW133440   3.722   1.009   6.238 -1.1744  0.0005  0.6311
 7269SOL    HW233441   3.604   0.924   6.209  1.0094 -2.2094 -0.6014
 7270SOL     OW33442   3.518   2.852   6.092  0.1526 -0.5768 -0.4350
 7270SOL    HW133443   3.464   2.774   6.080  0.4328 -1.0372  1.2843
 7270SOL    HW233444   3.476   2.895   6.167  3.5372  3.3319 -0.7703
 7271SOL     OW33445   1.363   3.364   7.540  0.3381 -0.3829  0.6202
 7271SOL    HW133446   1.322   3.414   7.611  1.3433 -1.3325  1.8959
 7271SOL    HW233447   1.317   3.282   7.557  1.2743 -1.1641 -0.6142
 7272SOL     OW33448   3.145   3.759   3.840  0.9124 -0.5009 -0.1149
 7272SOL    HW133449   3.091   3.687   3.808 -0.8753  0.4411  0.8382
 7272SOL    HW233450   3.106   3.771   3.926 -0.7424  0.0444 -0.9560
 7273SOL     OW33451   2.250   0.934   3.003 -0.6112  0.3967 -0.3508
 7273SOL    HW133452   2.164   0.949   2.963 -0.7630 -1.3271 -0.6370
 7273SOL    HW233453   2.257   0.999   3.073 -1.8744  1.3780 -1.1309
 7274SOL     OW33454   2.473   2.077   2.791  0.4735  0.2654 -0.6283
 7274SOL    HW133455   2.420   2.003   2.760 -0.3162  0.5157  0.1269
 7274SOL    HW233456   2.557   2.030   2.797  0.7682  1.0045  0.9832
 7275SOL     OW33457   4.178   3.809   2.730  0.1448  0.2085 -0.4259
 7275SOL    HW133458   4.110   3.795   2.795  0.2917  0.4493 -0.2195
 7275SOL    HW233459   4.249   3.753   2.762  0.5224  0.5723 -0.6254
 7276SOL     OW33460   2.394   0.757   2.679  0.4064  0.2663  0.3466
 7276SOL    HW133461   2.348   0.838   2.698  2.2218  0.9129  1.9993
 7276SOL    HW233462   2.323   0.692   2.678 -0.1319  0.8073  3.0764
 7277SOL     OW33463   3.565   0.669   3.304 -0.1379 -0.2092  0.3713
 7277SOL    HW133464   3.575   0.578   3.277  1.8355 -0.1763  0.9576
 7277SOL    HW233465   3.480   0.667   3.349  0.4470  0.9517  1.5312
 7278SOL     OW33466   3.842   3.904  11.237 -0.1044  0.1091 -0.3486
 7278SOL    HW133467   3.833   3.814  11.269  0.3519  0.5326  0.9506
 7278SOL    HW233468   3.756   3.923  11.199  1.1810  1.7849 -2.4091
 7279SOL     OW33469   1.321   3.701   2.696 -0.2294 -0.1357 -0.2275
 7279SOL    HW133470   1.327   3.671   2.786  1.3466 -0.8291 -0.5679
 7279SOL    HW233471   1.409   3.734   2.680  0.0367 -0.2444  1.0102
 7280SOL     OW33472   4.404   1.588   2.407  0.1906 -0.1514 -0.0829
 7280SOL    HW133473   4.445   1.651   2.465  0.1995  1.1130 -1.4821
 7280SOL    HW233474   4.366   1.649   2.345  0.9138  1.4746  1.0791
 7281SOL     OW33475   4.146   3.966   2.975 -0.2763  0.4498 -0.5250
 7281SOL    HW133476   4.236   3.996   2.963  0.2358 -1.4161 -1.3715
 7281SOL    HW233477   4.149   3.901   3.045 -1.1070 -0.1401 -1.0283
 7282SOL     OW33478   4.619   1.036   5.361  0.4706  0.6381  0.2377
 7282SOL    HW133479   4.570   0.955   5.380  1.5372  0.6940  3.1693
 7282SOL    HW233480   4.701   0.999   5.328 -0.9846 -0.5582 -2.0970
 7283SOL     OW33481   0.139   3.741  11.537  0.3593 -0.2700 -0.3564
 7283SOL    HW133482   0.205   3.689  11.584  1.9399  2.1771  0.1283
 7283SOL    HW233483   0.128   3.696  11.453 -0.1153 -0.7006 -0.0690
 7284SOL     OW33484   2.826   3.892   7.457 -0.4947  0.4252  0.1275
 7284SOL    HW133485   2.889   3.828   7.490 -1.5219 -2.3426 -3.2428
 7284SOL    HW233486   2.803   3.858   7.370 -0.7192 -2.9239  1.4959
 7285SOL     OW33487   2.458   1.212   6.162 -0.1997  0.9715  0.2041
 7285SOL    HW133488   2.479   1.281   6.099  0.6774 -1.6743 -2.4302
 7285SOL    HW233489   2.425   1.142   6.106 -2.1813  1.6286  0.5210
 7286SOL     OW33490   0.131   3.109   6.397 -0.5439 -0.6971  0.1986
 7286SOL    HW133491   0.063   3.115   6.330 -0.2841 -1.6414 -0.1458
 7286SOL    HW233492   0.140   3.016   6.416 -0.9258 -0.6429  0.6347
 7287SOL     OW33493   4.338   2.316   5.551 -0.1061 -0.5643 -0.1311
 7287SOL    HW133494   4.384   2.243   5.591  1.8014  0.6689 -0.0447
 7287SOL    HW233495   4.393   2.391   5.576 -0.4392  0.1344 -1.4741
 7288SOL     OW33496   2.473   0.490  10.457 -0.1334 -0.4898  0.1307
 7288SOL    HW133497   2.554   0.482  10.508 -0.5156 -1.6029  0.5535
 7288SOL    HW233498   2.419   0.416  10.485  1.3387 -1.4251  0.5237
 7289SOL     OW33499   4.670   0.433   8.730 -0.6446  0.3092  0.1999
 7289SOL    HW133500   4.691   0.341   8.718  3.1634  1.1429  0.5140
 7289SOL    HW233501   0.026   0.456   8.757 -0.3150 -0.3145 -0.3595
 7290SOL     OW33502   0.059   0.869   0.757 -0.3447 -0.1618 -0.4461
 7290SOL    HW133503   0.143   0.899   0.790 -0.3065 -0.6724 -0.0691
 7290SOL    HW233504   0.015   0.834   0.835  1.8425 -1.1511  0.3269
 7291SOL     OW33505   0.205   4.345  12.708 -0.1080  0.4415  0.6564
 7291SOL    HW133506   0.233   4.436  12.703  0.6084  0.2446  0.9514
 7291SOL    HW233507   0.111   4.336  12.717 -0.1430  1.2020  1.0202
 7292SOL     OW33508   0.961   3.220  17.184 -0.0240  0.0532  0.6203
 7292SOL    HW133509   0.970   3.246  17.275  0.6107 -1.2198  0.9054
 7292SOL    HW233510   1.018   3.144  17.187 -1.1485 -0.7352  1.7601
 7293SOL     OW33511   0.430   0.875   7.360  0.1819 -0.1801  0.1709
 7293SOL    HW133512   0.496   0.933   7.397 -1.8519  1.7475  0.8121
 7293SOL    HW233513   0.478   0.792   7.355 -0.0098 -0.2845  0.0350
 7294SOL     OW33514   4.529   3.507   2.507 -0.0627 -0.1601  0.0974
 7294SOL    HW133515   4.612   3.538   2.542 -0.5429  1.4967 -0.2153
 7294SOL    HW233516   4.527   3.540   2.418 -1.5591  1.0659  0.5765
 7295SOL     OW33517   4.699   3.659  13.023  0.3300 -0.4567  0.1073
 7295SOL    HW133518   4.675   3.705  13.103  0.0012  0.7749 -0.7060
 7295SOL    HW233519   4.630   3.674  12.958  2.1728 -0.9816 -1.9913
 7296SOL     OW33520   0.253   1.539   9.343  0.7651  0.0522 -0.0947
 7296SOL    HW133521   0.256   1.477   9.270 -0.9417 -1.6139  1.2388
 7296SOL    HW233522   0.259   1.467   9.406  0.6050  0.3781  0.2937
 7297SOL     OW33523   2.613   0.274   9.276 -0.3861 -0.2288  0.3844
 7297SOL    HW133524   2.637   0.214   9.347  2.3375  1.9581  1.3163
 7297SOL    HW233525   2.649   0.356   9.309 -3.1483  1.1650 -0.1595
 7298SOL     OW33526   3.370   0.016   5.929  1.0150  0.4005 -0.1790
 7298SOL    HW133527   3.330   0.098   5.959  0.8483 -0.1540  1.1102
 7298SOL    HW233528   3.328   0.005   5.844 -1.6730  0.0882  1.2100
 7299SOL     OW33529   2.527   1.520   9.852  0.3946  0.5556  0.1093
 7299SOL    HW133530   2.620   1.533   9.873  0.2831  0.5667  0.5790
 7299SOL    HW233531   2.482   1.552   9.930 -1.2281  1.4534 -1.2078
 7300SOL     OW33532   4.000   2.954   7.447 -0.4479 -0.7171  0.7497
 7300SOL    HW133533   3.918   2.984   7.487  0.1140  0.4666  1.0072
 7300SOL    HW233534   4.062   3.026   7.459 -1.6740  0.3474  0.6065
 7301SOL     OW33535   0.752   2.036   2.317 -0.4441  0.3330 -0.0116
 7301SOL    HW133536   0.693   1.966   2.343  3.1613 -2.3108  1.1052
 7301SOL    HW233537   0.813   1.989   2.260  0.2662 -2.4188  3.0671
 7302SOL     OW33538   4.275   4.508  15.641 -0.6056 -0.1062  0.3841
 7302SOL    HW133539   4.241   4.435  15.589  0.8237  0.6956 -1.6744
 7302SOL    HW233540   4.292   4.451  15.716 -1.6126  1.2351  1.6172
 7303SOL     OW33541   2.920   1.697   2.010  0.7152  0.6492 -0.1154
 7303SOL    HW133542   2.833   1.727   1.984  0.3147 -0.0216  0.4825
 7303SOL    HW233543   2.913   1.612   1.968  1.2876  1.1813 -1.3193
 7304SOL     OW33544   1.418   3.701   7.301  0.3080 -0.2296 -0.6989
 7304SOL    HW133545   1.510   3.710   7.275  0.6225  1.4115  1.0076
 7304SOL    HW233546   1.369   3.690   7.219 -0.1600 -0.5421 -0.3722
 7305SOL     OW33547   3.919   0.369   9.113 -0.1101 -0.1857 -0.5138
 7305SOL    HW133548   3.832   0.328   9.110 -1.3310  2.1654  2.7437
 7305SOL    HW233549   3.978   0.293   9.114 -0.0356 -0.0878  1.6993
 7306SOL     OW33550   2.502   0.353   5.804 -0.2500 -0.6374 -0.1524
 7306SOL    HW133551   2.590   0.322   5.823  1.0862  2.9273 -0.3975
 7306SOL    HW233552   2.467   0.282   5.750  0.0257  0.3279 -1.6125
 7307SOL     OW33553   3.787   2.734   8.265 -0.5933 -0.0830  0.3069
 7307SOL    HW133554   3.716   2.686   8.223 -0.3868 -1.4738  1.5316
 7307SOL    HW233555   3.750   2.822   8.268 -0.0372  0.1517  0.3376
 7308SOL     OW33556   2.875   4.292  10.258  0.1255 -0.0756 -0.5376
 7308SOL    HW133557   2.785   4.310  10.287 -0.1757 -2.4238 -0.0565
 7308SOL    HW233558   2.868   4.207  10.214  2.7365 -0.5103 -0.0859
 7309SOL     OW33559   1.743   3.000  13.276 -0.2957  0.0818 -0.0066
 7309SOL    HW133560   1.762   2.918  13.322  1.1869 -0.0368 -0.8525
 7309SOL    HW233561   1.717   3.057  13.349 -3.7568  0.3348 -1.4263
 7310SOL     OW33562   0.689   3.558  14.804 -0.2600 -0.2494  0.1082
 7310SOL    HW133563   0.725   3.473  14.829 -0.0042 -0.5977 -1.4374
 7310SOL    HW233564   0.599   3.542  14.778 -0.9009 -0.4173  2.4904
 7311SOL     OW33565   0.680   0.850   5.488 -0.6606 -0.0912  0.1005
 7311SOL    HW133566   0.709   0.843   5.397  1.0379  1.4003  0.5356
 7311SOL    HW233567   0.585   0.834   5.489 -0.5314 -1.0690 -3.5278
 7312SOL     OW33568   1.802   0.222   8.978  0.3149 -0.4708  0.0402
 7312SOL    HW133569   1.721   0.247   8.935  1.2425  1.5955 -0.5384
 7312SOL    HW233570   1.826   0.307   9.016 -1.0480 -0.2265  0.3465
 7313SOL     OW33571   0.309   4.503   4.492  0.3185 -0.7369  0.6560
 7313SOL    HW133572   0.266   4.468   4.569 -1.2435  0.2851  0.2431
 7313SOL    HW233573   0.251   4.471   4.423  0.5622  0.7336 -0.2433
 7314SOL     OW33574   4.160   1.831   8.715  0.1021  0.0047  0.3259
 7314SOL    HW133575   4.212   1.817   8.636 -1.8628  1.8673 -1.2599
 7314SOL    HW233576   4.086   1.772   8.701  1.3615 -1.8786  1.6246
 7315SOL     OW33577   4.574   3.605  11.285  0.1835 -0.5800  0.6479
 7315SOL    HW133578   4.564   3.537  11.219  0.2641 -0.2741  0.3210
 7315SOL    HW233579   4.659   3.581  11.321  0.3139 -0.1070  0.6483
 7316SOL     OW33580   1.328   1.380   9.493 -0.0531 -0.7140 -0.5667
 7316SOL    HW133581   1.390   1.317   9.456 -1.7467 -0.8339 -3.2296
 7316SOL    HW233582   1.245   1.332   9.485 -0.8531  0.6487 -0.2926
 7317SOL     OW33583   0.738   0.850  14.504  0.6973 -0.2326  0.3618
 7317SOL    HW133584   0.749   0.765  14.461  0.1503 -0.5385  0.8316
 7317SOL    HW233585   0.727   0.907  14.428 -0.1617  0.4888  1.0376
 7318SOL     OW33586   1.699   1.868  15.508  0.8396  0.1675 -0.7795
 7318SOL    HW133587   1.604   1.864  15.497  0.6346  0.6252  0.7940
 7318SOL    HW233588   1.720   1.775  15.513 -0.2468 -0.0656 -0.5757
 7319SOL     OW33589   3.192   3.691   7.063  0.3450  0.5255 -0.1288
 7319SOL    HW133590   3.155   3.679   7.151  2.5802  0.5078  0.8104
 7319SOL    HW233591   3.188   3.786   7.056  0.3474  0.6194  1.0842
 7320SOL     OW33592   1.224   1.800  13.884 -0.2164 -0.2664  0.3555
 7320SOL    HW133593   1.159   1.740  13.848  0.2617 -0.4300 -0.2276
 7320SOL    HW233594   1.286   1.805  13.811  0.3186 -1.9153  0.7080
 7321SOL     OW33595   2.888   0.669   3.320 -0.0822 -0.3280  0.0869
 7321SOL    HW133596   2.972   0.633   3.348 -0.4596 -0.9540  0.4198
 7321SOL    HW233597   2.855   0.714   3.397  0.6197 -2.6762  1.7639
 7322SOL     OW33598   0.891   0.627   9.818  0.6513  0.0852 -0.1814
 7322SOL    HW133599   0.952   0.671   9.877 -0.6868 -2.3142  2.9641
 7322SOL    HW233600   0.851   0.692   9.760 -0.1892  0.3705  0.7167
 7323SOL     OW33601   0.753   3.506   2.124  0.3121 -0.1647 -0.8416
 7323SOL    HW133602   0.688   3.440   2.100 -3.1477  3.0154 -0.3488
 7323SOL    HW233603   0.819   3.469   2.182  1.0544 -1.0354 -2.2353
 7324SOL     OW33604   3.438   3.369   2.075  0.1690  0.6319 -0.5744
 7324SOL    HW133605   3.475   3.425   2.143  1.6837 -0.1467 -0.7337
 7324SOL    HW233606   3.389   3.427   2.016  0.5144  0.6217 -0.8792
 7325SOL     OW33607   2.114   1.325  15.018 -0.1704 -0.1387  0.1711
 7325SOL    HW133608   2.181   1.266  15.054  1.5540  0.4267 -2.1079
 7325SOL    HW233609   2.115   1.401  15.076 -1.6672 -0.5126  0.6771
 7326SOL     OW33610   0.944   1.238   4.531 -0.6735  0.7394 -0.2944
 7326SOL    HW133611   0.921   1.227   4.623 -1.7416  1.1708 -0.5150
 7326SOL    HW233612   0.959   1.150   4.495  1.3567  1.4387 -1.1876
 7327SOL     OW33613   4.312   4.374   9.143 -0.3169 -0.0215 -0.0042
 7327SOL    HW133614   4.287   4.337   9.227 -2.1905 -0.4199 -0.7341
 7327SOL    HW233615   4.249   4.442   9.118 -0.8877 -0.4066  0.3756
 7328SOL     OW33616   3.164   2.393   7.898 -0.1738  0.5619  0.0624
 7328SOL    HW133617   3.139   2.400   7.990  0.7699  0.0783  0.3556
 7328SOL    HW233618   3.256   2.419   7.897 -0.0465  0.1164  0.1238
 7329SOL     OW33619   1.166   1.662  13.142 -0.1971  0.1209  0.4709
 7329SOL    HW133620   1.107   1.672  13.067  0.4408  1.7808  0.1914
 7329SOL    HW233621   1.223   1.587  13.126 -0.1317  0.4234 -0.7495
 7330SOL     OW33622   3.232   1.934  13.018  0.5621  0.2132  0.3426
 7330SOL    HW133623   3.221   1.853  12.970 -2.3272  0.6006  0.3504
 7330SOL    HW233624   3.194   1.906  13.101 -2.0744  1.2118 -0.5167
 7331SOL     OW33625   0.828   3.527   8.319  0.8165 -0.2017 -0.0622
 7331SOL    HW133626   0.735   3.550   8.318  1.3616  2.0576  0.6225
 7331SOL    HW233627   0.827   3.443   8.273 -0.0391 -0.8487  1.1163
 7332SOL     OW33628   2.296   1.248  11.830  0.2447 -0.1931  0.4179
 7332SOL    HW133629   2.309   1.159  11.797  2.8422 -0.6057  2.5583
 7332SOL    HW233630   2.325   1.239  11.921  0.2201  0.0930  0.4538
 7333SOL     OW33631   0.040   0.444   7.785 -0.1900  0.1524  0.3478
 7333SOL    HW133632   0.009   0.456   7.696  0.1439 -0.4903  0.1447
 7333SOL    HW233633   0.119   0.499   7.783 -0.2165  0.1896  0.3212
 7334SOL     OW33634   0.197   4.632   6.849  0.8370 -0.2119 -0.3557
 7334SOL    HW133635   0.208   4.599   6.938 -0.1783 -0.7698 -0.4339
 7334SOL    HW233636   0.136   4.570   6.809 -1.4969  0.8966  1.4407
 7335SOL     OW33637   1.516   2.741   3.189 -0.6910  0.0668  0.0377
 7335SOL    HW133638   1.538   2.832   3.211 -2.5383  0.6256 -0.4492
 7335SOL    HW233639   1.590   2.720   3.131 -2.3812  0.9696 -2.4227
 7336SOL     OW33640   2.306   2.531   0.375 -0.3626  0.0296 -0.6493
 7336SOL    HW133641   2.287   2.592   0.446  2.0931 -0.2559  0.2549
 7336SOL    HW233642   2.264   2.458   0.419 -1.4062  2.0494  1.6564
 7337SOL     OW33643   1.664   0.947   7.130  0.1829 -0.0084 -0.0095
 7337SOL    HW133644   1.642   0.928   7.221  1.7521  0.5385  0.4902
 7337SOL    HW233645   1.592   1.004   7.101 -1.0164 -1.1275  0.7873
 7338SOL     OW33646   2.260   3.213   7.046 -0.0347  0.0141  0.9306
 7338SOL    HW133647   2.312   3.217   6.966 -0.9951  0.0213  0.3136
 7338SOL    HW233648   2.270   3.119   7.063  0.6416  0.1336  1.1911
 7339SOL     OW33649   1.740   0.671   2.154  0.5233  0.7089 -0.5994
 7339SOL    HW133650   1.772   0.622   2.079  2.2061  0.5169  0.2410
 7339SOL    HW233651   1.702   0.751   2.116 -1.0659  0.6987  0.9896
 7340SOL     OW33652   0.008   2.625   7.373  0.2649 -0.0381 -0.4715
 7340SOL    HW133653   0.023   2.699   7.313  2.9628 -1.2894 -1.3368
 7340SOL    HW233654   4.652   2.604   7.341  0.5643 -0.9344 -0.6976
 7341SOL     OW33655   3.833   4.158   9.923  0.5572 -0.6203  0.7088
 7341SOL    HW133656   3.828   4.252   9.908 -1.4489 -0.9245 -0.4323
 7341SOL    HW233657   3.832   4.122   9.835 -0.4714  0.7953  0.1459
 7342SOL     OW33658   2.845   2.163   2.811 -0.0755  0.1215 -0.3691
 7342SOL    HW133659   2.854   2.244   2.762  0.9576  1.6101  2.2755
 7342SOL    HW233660   2.753   2.164   2.835  0.1719  0.4501  0.5787
 7343SOL     OW33661   3.043   1.389  12.080  0.5831 -0.0245  0.1075
 7343SOL    HW133662   3.062   1.445  12.155 -0.4853  1.7198 -0.9174
 7343SOL    HW233663   2.984   1.324  12.118 -0.1520  0.4651 -0.2037
 7344SOL     OW33664   1.508   0.463   3.643  0.1467 -0.1024 -0.3046
 7344SOL    HW133665   1.468   0.484   3.559  3.2347 -0.2501 -1.8167
 7344SOL    HW233666   1.579   0.408   3.609  3.0147  3.2496  0.2860
 7345SOL     OW33667   2.570   1.325   2.336 -0.0802  0.0804  0.4018
 7345SOL    HW133668   2.572   1.267   2.412  2.3498 -1.1239 -0.5672
 7345SOL    HW233669   2.661   1.320   2.307 -0.5987  0.2388 -1.2733
 7346SOL     OW33670   4.014   4.364   9.485  0.1459  0.3515 -0.4793
 7346SOL    HW133671   4.034   4.451   9.518  3.9741 -0.2661 -1.1151
 7346SOL    HW233672   4.036   4.298   9.550  1.2288  0.3863 -0.8117
 7347SOL     OW33673   3.867   1.136   3.427  0.6311 -0.0318  0.5384
 7347SOL    HW133674   3.883   1.077   3.501  0.7683 -0.7489 -0.0716
 7347SOL    HW233675   3.944   1.120   3.372 -0.3700 -1.1269 -0.5187
 7348SOL     OW33676   3.160   0.641   6.967  0.0422  0.2312 -0.2329
 7348SOL    HW133677   3.208   0.667   7.045 -0.8749 -1.9915  1.0794
 7348SOL    HW233678   3.163   0.719   6.913 -0.6260  2.2117  2.6122
 7349SOL     OW33679   2.165   1.449  10.365  0.1990 -0.1737 -0.6740
 7349SOL    HW133680   2.160   1.370  10.420  1.3899  1.7752  2.2072
 7349SOL    HW233681   2.113   1.514  10.412 -1.5736 -0.7824 -1.7665
 7350SOL     OW33682   3.196   0.738   5.086  0.0257  0.1812  0.3187
 7350SOL    HW133683   3.150   0.822   5.093  1.0285  0.9430 -2.1299
 7350SOL    HW233684   3.145   0.683   5.145 -1.4078  0.5517 -0.5615
 7351SOL     OW33685   4.009   2.953   2.830  0.6853  0.4912 -0.2112
 7351SOL    HW133686   4.066   2.935   2.755 -0.7924  0.7224 -1.3874
 7351SOL    HW233687   4.077   2.992   2.886 -0.3951  1.4530  0.4262
 7352SOL     OW33688   1.626   4.200   4.523  0.0963 -0.6724  0.1308
 7352SOL    HW133689   1.638   4.164   4.435 -0.5006  1.7883 -0.9560
 7352SOL    HW233690   1.707   4.154   4.545  0.2049 -1.1393 -1.2504
 7353SOL     OW33691   0.629   1.818   9.442  0.2641 -0.0271 -0.0304
 7353SOL    HW133692   0.691   1.782   9.378  0.5904 -1.5018  1.1106
 7353SOL    HW233693   0.678   1.795   9.521  1.4231  0.2860 -0.6615
 7354SOL     OW33694   4.512   2.654  11.196 -0.1348  0.5504  0.0699
 7354SOL    HW133695   4.418   2.638  11.205 -0.5765  2.0948 -1.7177
 7354SOL    HW233696   4.543   2.575  11.152  0.6880  0.5674  0.6241
 7355SOL     OW33697   0.484   1.620  17.469  0.9058 -0.0589  0.2767
 7355SOL    HW133698   0.426   1.600  17.396  2.4619  0.1632 -1.0205
 7355SOL    HW233699   0.571   1.624  17.429  1.6871 -1.4269  1.7967
 7356SOL     OW33700   2.953   0.169   2.187  0.2325  0.7827 -0.0839
 7356SOL    HW133701   2.967   0.178   2.093 -0.7624 -0.7909 -0.3680
 7356SOL    HW233702   3.034   0.198   2.229 -1.1516  3.0663  0.9798
 7357SOL     OW33703   2.313   1.426   8.851 -0.0312 -0.0680  0.8926
 7357SOL    HW133704   2.290   1.416   8.759  0.3241 -0.4997  0.8495
 7357SOL    HW233705   2.330   1.334   8.873 -0.5790 -0.8988 -2.0945
 7358SOL     OW33706   0.411   1.176  10.701  0.6365 -0.7403  0.1584
 7358SOL    HW133707   0.372   1.253  10.660  2.5921  0.1877  0.0342
 7358SOL    HW233708   0.469   1.150  10.629  0.2934 -2.0343  0.3465
 7359SOL     OW33709   2.891   0.232   6.847 -0.0331 -0.1351  0.2447
 7359SOL    HW133710   2.960   0.205   6.907  1.5974  1.9460 -0.6976
 7359SOL    HW233711   2.861   0.308   6.898  1.9115 -0.3774  1.7459
 7360SOL     OW33712   2.604   4.214   3.131 -0.2737 -0.5558 -0.5936
 7360SOL    HW133713   2.588   4.282   3.065  2.3169  2.3819  1.8488
 7360SOL    HW233714   2.694   4.184   3.115  1.0954  3.0230  0.5549
 7361SOL     OW33715   3.521   4.259   6.700 -0.0257 -0.4398 -0.4456
 7361SOL    HW133716   3.471   4.340   6.707  0.3575 -0.2282 -0.1527
 7361SOL    HW233717   3.460   4.187   6.715 -1.5927  0.8944 -0.5039
 7362SOL     OW33718   1.327   4.131   8.051  0.4577  0.4807  0.4655
 7362SOL    HW133719   1.411   4.174   8.067  0.9383 -0.2209 -0.1479
 7362SOL    HW233720   1.266   4.205   8.054  1.8125  1.6261 -0.3199
 7363SOL     OW33721   0.875   4.220  12.178  0.0018  0.3981  0.3299
 7363SOL    HW133722   0.868   4.312  12.152  1.0876  1.0625  2.3974
 7363SOL    HW233723   0.817   4.207  12.253  2.0057 -0.8191  1.6712
 7364SOL     OW33724   3.413   3.853   6.498 -0.3155  0.4585 -0.3345
 7364SOL    HW133725   3.385   3.942   6.474  2.8498  1.2389 -1.0899
 7364SOL    HW233726   3.350   3.828   6.565  1.4031 -2.3492  0.1994
 7365SOL     OW33727   1.354   2.969   6.256  0.2844 -0.0563 -0.5545
 7365SOL    HW133728   1.351   3.039   6.190  1.1498  1.5032  1.0350
 7365SOL    HW233729   1.267   2.989   6.291 -0.2385  0.5865 -2.1902
 7366SOL     OW33730   2.855   4.623   7.514 -0.3579  0.1910 -0.0788
 7366SOL    HW133731   2.848   4.717   7.532  2.9261  0.0930  1.6847
 7366SOL    HW233732   2.861   4.586   7.602 -0.8600 -1.0989 -0.5863
 7367SOL     OW33733   1.445   3.472  11.429  0.0949 -0.1962 -0.3356
 7367SOL    HW133734   1.510   3.420  11.476  0.6585  0.3835 -0.4771
 7367SOL    HW233735   1.382   3.490  11.499 -0.1325  0.5402 -0.7280
 7368SOL     OW33736   3.243   4.551   2.154 -0.1906  0.4401 -0.2652
 7368SOL    HW133737   3.196   4.605   2.091 -0.7637 -0.6678 -0.8003
 7368SOL    HW233738   3.288   4.611   2.213 -0.8263  1.3031 -0.6590
 7369SOL     OW33739   4.343   4.040   7.397  0.0343 -0.2903  0.6765
 7369SOL    HW133740   4.339   4.131   7.425 -2.3368 -0.1230 -0.1868
 7369SOL    HW233741   4.405   4.047   7.324 -1.1643  0.0050 -0.3102
 7370SOL     OW33742   4.471   4.110   4.081 -0.2065 -1.0209 -0.0744
 7370SOL    HW133743   4.417   4.073   4.151 -0.6316 -1.8594 -0.8289
 7370SOL    HW233744   4.411   4.108   4.006 -0.0265  1.5557 -0.2759
 7371SOL     OW33745   4.661   0.795   8.042  0.6744 -0.6675 -0.1373
 7371SOL    HW133746   4.593   0.775   8.106  1.4992 -0.5739  0.7609
 7371SOL    HW233747   4.686   0.886   8.060 -1.7059 -0.1865  0.8086
 7372SOL     OW33748   4.232   1.384  10.075 -0.0471  0.5235 -0.2457
 7372SOL    HW133749   4.276   1.316  10.023 -1.3316 -0.0590 -0.5937
 7372SOL    HW233750   4.153   1.397  10.021  0.4186  0.7086 -0.8753
 7373SOL     OW33751   1.874   0.537   1.954 -0.2563  0.7071 -0.0758
 7373SOL    HW133752   1.949   0.507   2.005  0.8621 -2.2480 -3.4688
 7373SOL    HW233753   1.869   0.461   1.896 -3.4801 -0.8545  2.2266
 7374SOL     OW33754   0.482   4.506   8.819  0.0951 -0.4428  0.3745
 7374SOL    HW133755   0.541   4.542   8.753  1.3211 -0.9052  1.2201
 7374SOL    HW233756   0.407   4.476   8.767  1.1812 -1.9866 -0.3206
 7375SOL     OW33757   1.262   4.105   6.939 -0.2233 -0.3753 -0.7501
 7375SOL    HW133758   1.258   4.010   6.950  0.6968 -0.4611 -1.1585
 7375SOL    HW233759   1.325   4.114   6.868 -0.8800  0.5141 -1.2148
 7376SOL     OW33760   3.562   4.314   6.107  0.4978 -0.4281 -0.1944
 7376SOL    HW133761   3.647   4.330   6.147  0.4397 -0.6142  0.0056
 7376SOL    HW233762   3.522   4.271   6.182  0.6466 -0.6889 -0.2662
 7377SOL     OW33763   1.138   0.647   5.863 -0.2708  0.1318 -0.1131
 7377SOL    HW133764   1.204   0.599   5.914  1.3945  0.7954 -1.6461
 7377SOL    HW233765   1.074   0.581   5.835 -1.1686  0.9620  0.0039
 7378SOL     OW33766   1.955   1.059  17.041  0.2771 -0.1895  0.1090
 7378SOL    HW133767   1.983   1.004  17.114 -0.7914 -0.6262  0.1898
 7378SOL    HW233768   2.029   1.048  16.982  1.0384  1.4073  0.7460
 7379SOL     OW33769   0.875   1.140   5.497  0.4713 -0.3266 -0.4647
 7379SOL    HW133770   0.787   1.136   5.461  0.1680 -1.8606  0.4608
 7379SOL    HW233771   0.893   1.229   5.466 -1.6708  0.2559  0.0148
 7380SOL     OW33772   4.704   2.533  13.808  0.1295  0.4392  0.2991
 7380SOL    HW133773   0.063   2.510  13.825  0.1276 -0.1411 -0.4685
 7380SOL    HW233774   4.655   2.502  13.883  0.2796 -2.3790 -0.7847
 7381SOL     OW33775   0.288   2.847   4.984 -0.0725 -0.2489 -0.3376
 7381SOL    HW133776   0.287   2.784   4.912 -2.5724 -2.8736  2.0631
 7381SOL    HW233777   0.222   2.816   5.045 -1.1754  0.5533 -1.1246
 7382SOL     OW33778   1.046   0.290   5.025 -0.3480 -0.1761  0.0663
 7382SOL    HW133779   1.104   0.361   5.050  0.3887 -1.0181  0.7351
 7382SOL    HW233780   1.089   0.260   4.945 -1.9364 -0.1498 -0.8119
 7383SOL     OW33781   3.852   2.490   8.386  0.0888  0.0092 -0.2102
 7383SOL    HW133782   3.788   2.498   8.457  1.2823  0.5032  0.8188
 7383SOL    HW233783   3.855   2.577   8.346 -0.7023 -1.2356 -2.9469
 7384SOL     OW33784   2.543   1.741   9.151 -0.0143  0.3364  0.3362
 7384SOL    HW133785   2.563   1.653   9.184 -2.4080  0.0984  1.1990
 7384SOL    HW233786   2.626   1.766   9.111  0.2790 -0.5883  0.3767
 7385SOL     OW33787   0.390   1.727   9.237 -0.0372  0.2796 -0.0471
 7385SOL    HW133788   0.453   1.736   9.309 -0.8080 -0.9536  0.7857
 7385SOL    HW233789   0.319   1.686   9.288  2.1687 -3.6704 -0.1140
 7386SOL     OW33790   2.595   4.239   8.191  0.3754  0.6700  0.1760
 7386SOL    HW133791   2.687   4.213   8.196  0.5749  0.5223 -4.5099
 7386SOL    HW233792   2.602   4.286   8.108  2.9320  1.8842  1.0591
 7387SOL     OW33793   0.847   2.090   5.726  0.5734 -0.2483 -0.0123
 7387SOL    HW133794   0.875   2.009   5.683 -2.4161 -1.6898  0.7213
 7387SOL    HW233795   0.751   2.079   5.727  0.2326  2.8556 -0.3175
 7388SOL     OW33796   0.290   3.268   8.826  0.6852 -0.3442 -0.3763
 7388SOL    HW133797   0.312   3.238   8.915  1.8474  1.5108 -0.0414
 7388SOL    HW233798   0.277   3.183   8.784 -2.9745  0.1238 -0.1920
 7389SOL     OW33799   3.070   0.657   4.511 -0.1625 -0.3088 -0.6167
 7389SOL    HW133800   3.126   0.730   4.537  2.0824 -2.7470  1.3413
 7389SOL    HW233801   3.005   0.670   4.580  1.2079 -1.0874  0.8097
 7390SOL     OW33802   3.895   0.408   2.304 -0.1326 -0.0304  0.7642
 7390SOL    HW133803   3.884   0.323   2.261  1.5403  0.3435 -0.4413
 7390SOL    HW233804   3.912   0.378   2.393 -1.6260 -1.0784  0.6964
 7391SOL     OW33805   2.681   4.176   1.497  0.1549 -0.0454  0.3058
 7391SOL    HW133806   2.643   4.133   1.574 -0.2962  0.1834  0.2135
 7391SOL    HW233807   2.636   4.261   1.498  0.7148  0.2736 -1.1716
 7392SOL     OW33808   2.514   1.912   3.699  0.0253  0.1146  0.3531
 7392SOL    HW133809   2.600   1.954   3.689 -0.7819  1.4388 -1.1593
 7392SOL    HW233810   2.533   1.842   3.637 -1.5739 -1.2901  1.4775
 7393SOL     OW33811   0.668   3.881   3.330 -0.3326  0.3219  0.2024
 7393SOL    HW133812   0.755   3.901   3.296  0.7007 -2.0277  1.5104
 7393SOL    HW233813   0.617   3.950   3.286 -0.0608  0.0689 -0.5052
 7394SOL     OW33814   1.228   3.236  15.133  0.0444  0.4601  1.1160
 7394SOL    HW133815   1.252   3.328  15.125 -1.4110  0.9075  1.9578
 7394SOL    HW233816   1.147   3.238  15.185 -1.0002  1.6757 -0.5512
 7395SOL     OW33817   2.069   1.170   5.680 -1.4249 -0.0376 -0.0418
 7395SOL    HW133818   1.978   1.149   5.698 -2.1707  2.1051 -1.2522
 7395SOL    HW233819   2.079   1.258   5.717 -0.5606 -1.3362  2.8177
 7396SOL     OW33820   3.809   1.022   0.921  0.0843  0.0431  0.2903
 7396SOL    HW133821   3.878   1.002   0.858 -0.5435  0.9111 -0.6716
 7396SOL    HW233822   3.730   0.982   0.883 -0.5046  1.3269  0.1563
 7397SOL     OW33823   0.001   2.102  10.380 -0.5811  0.6191  0.3804
 7397SOL    HW133824   4.681   2.130  10.455 -0.2760  0.0010  0.8232
 7397SOL    HW233825   4.720   2.007  10.375  0.7509  0.3829  1.2228
 7398SOL     OW33826   4.268   3.892   0.492  0.1507 -0.3392 -0.3354
 7398SOL    HW133827   4.322   3.920   0.565  1.6619  0.5259 -1.7845
 7398SOL    HW233828   4.181   3.912   0.526  1.5115  0.2978  2.7192
 7399SOL     OW33829   4.146   4.704  13.110 -0.1775 -0.0206 -0.0645
 7399SOL    HW133830   4.090   4.635  13.145  0.5793 -1.1552 -1.1010
 7399SOL    HW233831   4.129   0.033  13.182 -1.2152 -0.1466 -0.1994
 7400SOL     OW33832   2.600   1.426   5.735  0.4766 -0.1726 -0.5798
 7400SOL    HW133833   2.691   1.399   5.746  0.2879  0.1336  1.7770
 7400SOL    HW233834   2.613   1.520   5.723  1.4954 -0.3335 -0.7059
 7401SOL     OW33835   3.189   4.264  10.098  0.1560  0.3535 -0.7445
 7401SOL    HW133836   3.149   4.290  10.181  1.4298 -0.8222  0.2408
 7401SOL    HW233837   3.244   4.200  10.142 -1.2963 -1.1941 -1.1932
 7402SOL     OW33838   1.405   1.504   8.886  0.5456  0.4858  0.5008
 7402SOL    HW133839   1.313   1.522   8.905  0.8907  2.2327  0.5681
 7402SOL    HW233840   1.425   1.435   8.949  1.2130 -1.0560 -1.4230
 7403SOL     OW33841   4.212   0.573  12.312  0.2206 -0.1837 -0.1907
 7403SOL    HW133842   4.247   0.504  12.257  1.3266  1.1010 -1.0960
 7403SOL    HW233843   4.132   0.585  12.261 -0.9530  1.7600  2.0553
 7404SOL     OW33844   3.513   1.470   1.837 -0.8435 -0.5659 -0.5522
 7404SOL    HW133845   3.585   1.529   1.858 -1.3283 -0.0523 -0.3202
 7404SOL    HW233846   3.456   1.528   1.786 -0.9327  1.2982  1.6564
 7405SOL     OW33847   0.058   0.561  10.997 -0.2620  0.8247  0.1448
 7405SOL    HW133848   0.086   0.470  11.000  0.1919  1.0034  1.4109
 7405SOL    HW233849   0.126   0.608  11.045 -0.6201  2.3529 -0.8442
 7406SOL     OW33850   1.565   3.175   0.724 -0.3538 -0.0435  0.1028
 7406SOL    HW133851   1.506   3.105   0.752  0.9466 -0.9915  0.4942
 7406SOL    HW233852   1.647   3.158   0.771 -0.3618  0.6124  0.3562
 7407SOL     OW33853   1.814   0.120   3.131 -0.0147  0.2849 -0.0845
 7407SOL    HW133854   1.762   0.045   3.157 -0.6514  0.5868 -0.5015
 7407SOL    HW233855   1.902   0.086   3.111 -0.1294 -1.0321  1.6224
 7408SOL     OW33856   1.987   2.583   2.659 -0.5269 -0.5240 -0.4159
 7408SOL    HW133857   2.035   2.659   2.692  0.5521 -1.9753  1.3350
 7408SOL    HW233858   2.053   2.525   2.696 -1.2051 -1.8048 -1.2023
 7409SOL     OW33859   4.648   0.607   1.910  0.5358 -0.1657 -0.0809
 7409SOL    HW133860   4.557   0.583   1.891 -0.0537  0.8352  1.5178
 7409SOL    HW233861   4.646   0.569   1.998  0.4204 -2.1550 -0.9370
 7410SOL     OW33862   3.709   2.323   7.115  0.2067  0.4951 -0.2336
 7410SOL    HW133863   3.651   2.398   7.131 -0.1206 -0.2510  2.0938
 7410SOL    HW233864   3.639   2.259   7.106  1.1259 -0.5199 -0.0480
 7411SOL     OW33865   3.681   2.042   8.684  0.5469  0.0429 -0.0063
 7411SOL    HW133866   3.695   1.979   8.613 -0.2714  2.0469 -1.9919
 7411SOL    HW233867   3.722   1.988   8.751  1.4008  1.4087  0.5561
 7412SOL     OW33868   4.062   4.183  10.708  0.0619 -0.1394  0.1062
 7412SOL    HW133869   4.101   4.111  10.658 -0.5612 -0.2039 -0.2922
 7412SOL    HW233870   4.140   4.235  10.727 -0.0467 -0.5604  1.6919
 7413SOL     OW33871   3.241   0.265   6.482  0.3439 -0.2649 -0.0901
 7413SOL    HW133872   3.275   0.238   6.397 -1.7309  0.8324 -1.2551
 7413SOL    HW233873   3.204   0.180   6.505  3.2106 -2.0969 -2.2364
 7414SOL     OW33874   0.557   3.473  12.672 -0.0551 -0.3719  0.0600
 7414SOL    HW133875   0.559   3.560  12.631  0.2074 -0.0964  0.6595
 7414SOL    HW233876   0.606   3.487  12.753  0.4311  1.3330 -0.5282
 7415SOL     OW33877   0.793   3.685   5.285 -0.4770  0.2107  0.0530
 7415SOL    HW133878   0.779   3.592   5.304  0.4956  0.2866  1.1090
 7415SOL    HW233879   0.881   3.686   5.247  0.6897  2.0051  2.8222
 7416SOL     OW33880   0.845   1.261   0.862  0.6782  0.0661  0.4123
 7416SOL    HW133881   0.807   1.248   0.775  2.4203 -1.8253 -0.0781
 7416SOL    HW233882   0.800   1.190   0.909  2.6646 -0.9277  0.8116
 7417SOL     OW33883   1.105   4.164   0.861  0.0312 -0.2835 -0.1282
 7417SOL    HW133884   1.178   4.200   0.912  1.0653 -3.2251  0.4193
 7417SOL    HW233885   1.038   4.212   0.911  2.1388  2.0359  0.5035
 7418SOL     OW33886   4.284   2.691   5.900 -0.3961 -0.1784 -0.1142
 7418SOL    HW133887   4.337   2.622   5.861 -0.6056 -0.7783  0.6485
 7418SOL    HW233888   4.283   2.764   5.839  0.7928  0.0995  0.2137
 7419SOL     OW33889   3.215   2.320   4.496 -0.0339  0.1176 -0.4319
 7419SOL    HW133890   3.123   2.295   4.485  0.0118  0.2262 -1.0621
 7419SOL    HW233891   3.262   2.237   4.500 -1.8089 -0.8897 -0.3002
 7420SOL     OW33892   0.185   4.599   5.334  0.1765 -0.3413 -0.5227
 7420SOL    HW133893   0.091   4.592   5.314 -0.0544  2.4358 -0.3760
 7420SOL    HW233894   0.217   4.509   5.326  2.8765  0.2206  4.2784
 7421SOL     OW33895   1.613   0.106   4.206  0.3548  0.1842 -0.5481
 7421SOL    HW133896   1.610   0.109   4.301 -1.9484  1.0056 -0.6515
 7421SOL    HW233897   1.526   0.141   4.187  0.1489  1.7095  3.2445
 7422SOL     OW33898   2.205   3.293   7.663  0.2421  0.9310  0.0440
 7422SOL    HW133899   2.198   3.271   7.756  0.4201  1.6739  0.2326
 7422SOL    HW233900   2.251   3.377   7.667  1.7412  0.0882  0.6891
 7423SOL     OW33901   1.384   1.111   8.945 -0.4166 -0.6258  0.6406
 7423SOL    HW133902   1.450   1.104   9.014  0.5562 -2.0712 -0.4383
 7423SOL    HW233903   1.305   1.116   8.998 -0.8156  0.3538 -0.0470
 7424SOL     OW33904   1.564   2.126   6.706 -0.3294 -0.4065  0.0442
 7424SOL    HW133905   1.571   2.055   6.642  1.5171  2.1035 -2.5126
 7424SOL    HW233906   1.557   2.075   6.787  0.7944  0.3853  0.6438
 7425SOL     OW33907   4.592   0.319   6.682  0.0225 -0.2438  0.1958
 7425SOL    HW133908   4.627   0.249   6.738  1.1220  0.0443 -0.1303
 7425SOL    HW233909   4.681   0.353   6.669  0.6615 -2.0342 -0.0364
 7426SOL     OW33910   2.651   2.776   4.825 -0.5728 -0.9867  0.2768
 7426SOL    HW133911   2.617   2.866   4.825 -0.8402 -1.0875 -0.3515
 7426SOL    HW233912   2.691   2.776   4.738  0.4593  1.9368  0.7664
 7427SOL     OW33913   3.786   3.633  11.252 -0.0549 -0.7178 -0.1304
 7427SOL    HW133914   3.697   3.599  11.250 -0.0589 -0.8118  1.5429
 7427SOL    HW233915   3.824   3.582  11.181 -1.2817 -1.0602 -0.5366
 7428SOL     OW33916   0.415   2.663   1.102 -0.5644 -0.1229 -0.1013
 7428SOL    HW133917   0.420   2.685   1.009  1.5017 -3.1229 -0.7170
 7428SOL    HW233918   0.329   2.621   1.102 -1.1118  0.9589 -1.1119
 7429SOL     OW33919   2.314   4.203   3.916 -0.0016  0.6163  0.1722
 7429SOL    HW133920   2.383   4.137   3.914 -1.8540 -1.3387 -0.3528
 7429SOL    HW233921   2.346   4.250   3.839  1.2745  0.9162  0.8997
 7430SOL     OW33922   2.246   4.022   0.808  0.0720  0.4988 -0.2612
 7430SOL    HW133923   2.325   4.029   0.756  0.3502  0.8876  0.2145
 7430SOL    HW233924   2.284   4.019   0.896 -0.6008  2.2674  0.0895
 7431SOL     OW33925   0.405   3.638  16.065  0.2377  0.1587  0.0136
 7431SOL    HW133926   0.436   3.576  15.999 -2.1269 -0.3937 -0.5931
 7431SOL    HW233927   0.454   3.613  16.143 -1.1139 -1.3572  0.3579
 7432SOL     OW33928   1.925   4.713   6.171  0.5107 -0.1655  0.1529
 7432SOL    HW133929   1.876   4.674   6.098  0.0837  1.0301 -0.2035
 7432SOL    HW233930   1.862   4.721   6.243  0.5421  1.5606 -0.0164
 7433SOL     OW33931   1.232   2.933   2.883 -0.6549  0.1551 -0.4921
 7433SOL    HW133932   1.139   2.957   2.885 -0.3997  1.2050 -0.9754
 7433SOL    HW233933   1.272   2.980   2.956 -0.6411 -1.7725  0.7332
 7434SOL     OW33934   3.490   1.449   8.213 -0.2239  0.2386  0.4341
 7434SOL    HW133935   3.563   1.508   8.233  0.3202  0.2569 -1.5579
 7434SOL    HW233936   3.420   1.515   8.211 -0.7150 -0.3665 -1.8123
 7435SOL     OW33937   4.031   0.781   7.890  0.5311  0.1793  0.3257
 7435SOL    HW133938   3.990   0.805   7.973  0.5931  1.6964 -0.0761
 7435SOL    HW233939   3.960   0.730   7.851  0.1631  0.4720  0.6049
 7436SOL     OW33940   4.101   4.238   4.392 -0.1963 -0.5357  0.2317
 7436SOL    HW133941   4.087   4.168   4.328 -1.8884 -1.0730  1.1772
 7436SOL    HW233942   4.026   4.222   4.449 -0.6154 -1.0462 -0.4716
 7437SOL     OW33943   4.353   3.950   6.033 -0.4757  0.0234 -0.1478
 7437SOL    HW133944   4.440   3.986   6.052  0.5878 -2.1447 -0.9555
 7437SOL    HW233945   4.359   3.858   6.056  1.5229 -0.2441 -1.7388
 7438SOL     OW33946   2.447   2.853  13.298  0.0892  0.4125  0.1311
 7438SOL    HW133947   2.437   2.923  13.362  1.7122  1.2314 -0.5228
 7438SOL    HW233948   2.479   2.900  13.221 -2.9905 -0.0476 -1.4299
 7439SOL     OW33949   2.037   1.510   2.610  0.1453 -0.2771  0.2451
 7439SOL    HW133950   2.100   1.473   2.549 -0.3776 -1.8781  0.6925
 7439SOL    HW233951   2.032   1.440   2.674 -1.3165 -1.4709 -1.1643
 7440SOL     OW33952   3.197   2.705   8.973 -0.1779 -0.0767 -0.1586
 7440SOL    HW133953   3.274   2.666   8.932  0.7507 -0.1688  1.6674
 7440SOL    HW233954   3.140   2.638   9.010  0.0915  0.3534  1.0290
 7441SOL     OW33955   1.676   2.316   4.135 -0.6982 -0.1356  0.1113
 7441SOL    HW133956   1.702   2.227   4.111  1.6429  0.1096  1.8469
 7441SOL    HW233957   1.756   2.356   4.102 -0.6401  0.3695  0.8804
 7442SOL     OW33958   0.009   4.197   6.095  0.0916  0.7644  0.3600
 7442SOL    HW133959   4.649   4.224   6.104  0.1366  0.4494  1.8118
 7442SOL    HW233960   0.046   4.252   6.164 -0.2523  2.4065 -0.7538
 7443SOL     OW33961   3.868   1.941   9.307 -0.1586  0.3594  0.2260
 7443SOL    HW133962   3.873   1.921   9.214  0.7891  1.1121  0.1118
 7443SOL    HW233963   3.774   1.930   9.321 -0.4201  1.9622 -0.2469
 7444SOL     OW33964   3.665   3.964  14.584 -0.1027 -0.2523 -0.1360
 7444SOL    HW133965   3.760   3.958  14.569 -0.1305 -1.4565  0.2171
 7444SOL    HW233966   3.643   3.886  14.633 -2.0095  0.7005  0.5303
 7445SOL     OW33967   3.278   0.663   7.620  0.1553 -0.0372 -0.3684
 7445SOL    HW133968   3.244   0.665   7.709  1.0699  4.0214 -0.1342
 7445SOL    HW233969   3.216   0.600   7.581 -0.1211 -0.6311  1.0344
 7446SOL     OW33970   4.720   3.707   7.103  0.3857 -0.0340 -0.4328
 7446SOL    HW133971   0.036   3.708   7.185 -0.4334 -0.3574  0.0450
 7446SOL    HW233972   4.633   3.708   7.141  1.8720  2.1860  2.8703
 7447SOL     OW33973   4.382   2.757   1.437 -0.1307 -0.3280 -0.4279
 7447SOL    HW133974   4.426   2.736   1.354  0.9890 -0.1765  0.1308
 7447SOL    HW233975   4.325   2.680   1.433 -0.7866  0.2058 -1.5592
 7448SOL     OW33976   0.000   4.103  11.902 -0.4269  0.3020  0.0297
 7448SOL    HW133977   0.024   4.028  11.847  1.2618  0.3548  0.6796
 7448SOL    HW233978   0.076   4.104  11.961  0.2429  1.0609 -0.8426
 7449SOL     OW33979   3.500   3.918   9.436  0.3770 -0.7408  0.3467
 7449SOL    HW133980   3.433   3.871   9.386 -2.6535  3.3090  0.6826
 7449SOL    HW233981   3.573   3.856   9.440  0.9570  0.0255  1.5915
 7450SOL     OW33982   3.836   0.491   5.539  0.1263  0.8253 -0.1398
 7450SOL    HW133983   3.793   0.462   5.459  1.2641 -0.5098 -0.2735
 7450SOL    HW233984   3.900   0.550   5.498  1.3498  1.4659  2.6425
 7451SOL     OW33985   4.331   4.328   6.591  0.1347  0.1849  0.5905
 7451SOL    HW133986   4.377   4.296   6.669 -0.9919 -0.1678  1.1017
 7451SOL    HW233987   4.258   4.373   6.633 -0.3539  0.7997 -0.9191
 7452SOL     OW33988   4.177   2.008   5.304  0.4695 -0.5652  0.0881
 7452SOL    HW133989   4.106   1.985   5.244 -0.8604  0.2796  1.3202
 7452SOL    HW233990   4.154   2.094   5.339 -1.5187 -1.5069  1.1036
 7453SOL     OW33991   2.909   4.078   3.157 -0.1047 -0.3421 -0.1728
 7453SOL    HW133992   2.854   4.053   3.082 -0.4899 -0.6270  0.2021
 7453SOL    HW233993   2.881   4.013   3.221  0.2877 -1.5863 -1.2588
 7454SOL     OW33994   3.429   1.026   4.578  0.5118 -0.3019 -0.1103
 7454SOL    HW133995   3.524   1.027   4.570  0.4850 -1.6737 -0.6023
 7454SOL    HW233996   3.404   1.115   4.551  0.1280 -0.2679  0.3590
 7455SOL     OW33997   3.630   0.237   4.676 -0.0839 -0.2834 -0.0780
 7455SOL    HW133998   3.595   0.326   4.669  2.1997  0.3617 -2.9687
 7455SOL    HW233999   3.550   0.186   4.660 -0.4690  0.6080 -0.9879
 7456SOL     OW34000   2.545   1.718   4.621 -0.3559 -0.5010 -0.2906
 7456SOL    HW134001   2.540   1.704   4.526 -0.5974  0.8824 -0.4777
 7456SOL    HW234002   2.616   1.782   4.619 -0.7991 -0.0374 -0.9584
 7457SOL     OW34003   0.183   1.062   6.619  0.2766  0.2315  0.1031
 7457SOL    HW134004   0.127   1.088   6.692  0.6364  0.6165  0.2423
 7457SOL    HW234005   0.262   1.042   6.668 -1.1117 -1.4741  1.6557
 7458SOL     OW34006   4.247   4.149  15.737  0.4634 -0.4742  0.3739
 7458SOL    HW134007   4.286   4.138  15.651 -1.9209  0.3768 -0.8289
 7458SOL    HW234008   4.194   4.226  15.716  0.8266 -0.7033 -1.3787
 7459SOL     OW34009   4.580   0.514   5.757  0.7138  0.1613 -0.1671
 7459SOL    HW134010   4.545   0.432   5.722 -1.7412  0.2675  1.9929
 7459SOL    HW234011   4.534   0.517   5.842 -0.9683 -1.0713 -1.0385
 7460SOL     OW34012   4.327   1.388  13.396  0.0243 -0.3317  0.1804
 7460SOL    HW134013   4.413   1.420  13.424  0.4743 -2.8064  1.5559
 7460SOL    HW234014   4.328   1.390  13.300  0.7412  1.0512  0.2152
 7461SOL     OW34015   2.269   3.317   8.285  0.0071  0.0160 -0.0816
 7461SOL    HW134016   2.253   3.411   8.293 -0.4851 -0.0526 -0.2487
 7461SOL    HW234017   2.181   3.280   8.295 -0.5328  1.1142 -0.6563
 7462SOL     OW34018   0.691   3.882  17.321 -0.5112 -0.0674 -0.1026
 7462SOL    HW134019   0.627   3.904  17.253  0.0333  0.6586 -0.3748
 7462SOL    HW234020   0.741   3.962  17.337 -1.2887  0.2584  0.7056
 7463SOL     OW34021   1.499   0.958   8.755  0.5910  0.5274 -0.5059
 7463SOL    HW134022   1.451   0.877   8.765  1.0566  0.1565 -1.2205
 7463SOL    HW234023   1.459   1.002   8.830  2.4313  0.8994  0.2604
 7464SOL     OW34024   0.776   2.743   5.211 -0.3001  0.0611 -0.1404
 7464SOL    HW134025   0.804   2.831   5.235  1.1492 -0.1582 -1.0381
 7464SOL    HW234026   0.862   2.701   5.217 -0.7576 -0.7905  0.5461
 7465SOL     OW34027   1.392   0.504   8.071  0.1918 -1.2031  0.4418
 7465SOL    HW134028   1.389   0.435   8.004  1.1538  0.8242 -1.6672
 7465SOL    HW234029   1.473   0.552   8.053 -0.1655 -0.9465 -0.4485
 7466SOL     OW34030   3.959   4.539  14.459 -0.1579  0.0433  0.0076
 7466SOL    HW134031   4.022   4.562  14.391 -1.0343 -2.5922 -1.6776
 7466SOL    HW234032   3.942   4.625  14.499  1.6317  0.7212 -0.6879
 7467SOL     OW34033   1.540   0.815   7.365  1.1147  0.6703  0.1990
 7467SOL    HW134034   1.536   0.745   7.300  1.7613 -0.4388  1.3519
 7467SOL    HW234035   1.502   0.782   7.446  1.6500 -1.0594 -0.2642
 7468SOL     OW34036   0.143   0.778  13.356 -0.2691 -0.0165  0.0804
 7468SOL    HW134037   0.103   0.865  13.346  1.6599  0.6230 -2.1400
 7468SOL    HW234038   0.233   0.802  13.336  0.2613 -0.9216  1.4231
 7469SOL     OW34039   1.698   1.889   8.916  0.5434 -0.2456 -0.1115
 7469SOL    HW134040   1.731   1.920   8.832 -0.6594 -1.8750 -1.1821
 7469SOL    HW234041   1.648   1.814   8.884 -1.5217  0.9394  0.3974
 7470SOL     OW34042   1.206   3.676  10.185 -0.3224 -0.0727 -0.2448
 7470SOL    HW134043   1.203   3.768  10.160 -2.2817  0.1035  0.6217
 7470SOL    HW234044   1.114   3.650  10.189 -0.7056  1.3921  0.4470
 7471SOL     OW34045   2.751   3.551  13.937 -0.0597 -0.2438 -0.7244
 7471SOL    HW134046   2.697   3.534  13.860 -0.5706 -1.8808  0.0036
 7471SOL    HW234047   2.756   3.466  13.980  0.0410 -0.4068 -1.0559
 7472SOL     OW34048   0.142   3.802  12.176  0.1916  0.5470 -0.3404
 7472SOL    HW134049   0.121   3.755  12.257 -1.0489  1.1384 -0.3171
 7472SOL    HW234050   0.233   3.775  12.165 -0.3940 -1.7426  0.5104
 7473SOL     OW34051   1.571   0.272   1.924  0.3018  0.5833 -0.0466
 7473SOL    HW134052   1.565   0.360   1.887 -0.5604  0.6034  0.1486
 7473SOL    HW234053   1.654   0.238   1.890 -0.5371 -1.5277 -0.0315
 7474SOL     OW34054   2.329   2.782  12.784  0.6021 -0.0063 -0.3819
 7474SOL    HW134055   2.289   2.864  12.812 -1.8426 -1.8555  1.4998
 7474SOL    HW234056   2.271   2.720  12.828  0.4811  0.6934  0.4422
 7475SOL     OW34057   4.270   0.874   6.875 -0.5614  0.3753  0.0044
 7475SOL    HW134058   4.262   0.965   6.904 -0.4959  0.7772 -1.2291
 7475SOL    HW234059   4.344   0.840   6.925 -0.4369 -1.9813 -1.7633
 7476SOL     OW34060   2.291   2.906   4.838  0.2153  0.3784  0.1728
 7476SOL    HW134061   2.243   2.958   4.773 -1.2144  1.3992  2.0495
 7476SOL    HW234062   2.224   2.869   4.896 -0.8363  0.3220 -1.0596
 7477SOL     OW34063   4.289   0.397   0.689 -0.4948 -0.2716  0.8194
 7477SOL    HW134064   4.228   0.375   0.759 -1.4315  2.6630  0.9471
 7477SOL    HW234065   4.314   0.486   0.717  1.2324 -0.1976 -0.9504
 7478SOL     OW34066   1.476   3.567  15.533  0.8962  0.1275  0.8012
 7478SOL    HW134067   1.561   3.558  15.577  0.7362 -0.8469  0.9000
 7478SOL    HW234068   1.493   3.514  15.455  1.0167 -0.4002  1.1921
 7479SOL     OW34069   4.033   2.837   0.178  0.0651 -0.3483  0.7386
 7479SOL    HW134070   4.054   2.745   0.159  2.8030  0.5560 -0.6184
 7479SOL    HW234071   3.980   2.820   0.256 -0.7275 -1.8185 -0.1236
 7480SOL     OW34072   2.983   1.269   6.987  0.4781  0.2587 -0.0132
 7480SOL    HW134073   2.972   1.227   7.073  0.2003  1.3974  0.4985
 7480SOL    HW234074   2.895   1.301   6.967  0.0860  0.2113  1.6051
 7481SOL     OW34075   3.539   1.680  17.219  0.4201  0.0972  0.5380
 7481SOL    HW134076   3.526   1.591  17.186  1.0672  0.8543 -1.8201
 7481SOL    HW234077   3.461   1.689  17.273  1.2140  0.7061  1.5825
 7482SOL     OW34078   3.644   3.342   4.798 -0.2306  0.2222  0.6247
 7482SOL    HW134079   3.602   3.267   4.840 -0.0223 -0.8521 -1.0695
 7482SOL    HW234080   3.703   3.290   4.743 -1.3979 -0.8547  0.3834
 7483SOL     OW34081   2.869   4.709   9.330  0.3662  0.2733  0.3342
 7483SOL    HW134082   2.836   0.051   9.380 -0.6518  1.4649 -2.0756
 7483SOL    HW234083   2.806   4.695   9.258 -1.8529 -2.4164  2.7938
 7484SOL     OW34084   3.901   0.289   7.285  0.0728  0.4849 -0.0137
 7484SOL    HW134085   3.827   0.343   7.313 -0.3342 -0.2690  0.3576
 7484SOL    HW234086   3.934   0.348   7.217  1.9486  1.0076  1.3469
 7485SOL     OW34087   2.287   0.788   6.650 -0.0512  0.4561  0.3216
 7485SOL    HW134088   2.379   0.798   6.675 -0.0182  0.9097  0.0122
 7485SOL    HW234089   2.248   0.756   6.732  0.3795  1.0003  0.7392
 7486SOL     OW34090   1.721   2.649   6.013  0.4544 -0.4033 -0.4500
 7486SOL    HW134091   1.810   2.684   6.017 -0.4345  2.0528 -1.6712
 7486SOL    HW234092   1.672   2.717   6.060 -1.3037 -0.8832 -1.5728
 7487SOL     OW34093   3.412   0.394   7.220 -0.2200  0.0388 -0.5485
 7487SOL    HW134094   3.444   0.399   7.310 -0.8627  0.7496 -0.3493
 7487SOL    HW234095   3.345   0.462   7.207 -2.1643 -1.8004 -0.2585
 7488SOL     OW34096   3.738   0.009   7.331  0.2559 -0.4706 -0.1279
 7488SOL    HW134097   3.755   0.029   7.423  0.2688  0.5597 -0.3609
 7488SOL    HW234098   3.657   0.050   7.304 -0.2062  0.6315  2.9669
 7489SOL     OW34099   0.603   4.418   3.252 -0.2422  0.0350  0.7012
 7489SOL    HW134100   0.680   4.397   3.305  0.6358 -0.9628 -0.9971
 7489SOL    HW234101   0.643   4.453   3.172  0.3762 -1.5211  0.3365
 7490SOL     OW34102   1.585   0.950   0.326  0.0626 -0.3449  0.3937
 7490SOL    HW134103   1.655   1.015   0.316  0.5371 -1.0546 -0.8547
 7490SOL    HW234104   1.542   0.995   0.399  1.7083  0.2090  1.0273
 7491SOL     OW34105   4.378   2.438   1.909 -0.7090  0.1446 -0.4074
 7491SOL    HW134106   4.427   2.482   1.978  0.9735  0.7989 -2.0192
 7491SOL    HW234107   4.451   2.384   1.877  0.1857  0.9874  0.2330
 7492SOL     OW34108   2.642   2.682  13.419 -0.0349 -0.5564 -0.2159
 7492SOL    HW134109   2.588   2.748  13.375  0.5353  0.7173  1.0205
 7492SOL    HW234110   2.665   2.627  13.344  0.5742 -0.0682 -0.3908
 7493SOL     OW34111   4.361   4.647   2.778  0.3599 -0.9992 -0.0991
 7493SOL    HW134112   4.393   4.605   2.698  1.0105  0.5029 -0.6388
 7493SOL    HW234113   4.286   4.698   2.747  0.4585  0.2043  1.6695
 7494SOL     OW34114   2.441   1.991  12.686  0.3528  0.0189  0.2443
 7494SOL    HW134115   2.471   1.955  12.769 -0.5932 -1.1360  0.0885
 7494SOL    HW234116   2.520   1.983  12.633 -0.6469 -2.4311 -0.8573
 7495SOL     OW34117   2.925   4.635   3.054  0.5579  0.0142 -0.2681
 7495SOL    HW134118   2.839   4.673   3.072  0.5703 -1.2749  2.5759
 7495SOL    HW234119   2.896   4.544   3.059 -0.8571  0.5672  1.5172
 7496SOL     OW34120   0.170   1.480   0.062 -0.4374  0.2460  0.1465
 7496SOL    HW134121   0.238   1.437   0.011 -0.8942 -1.4927  0.9980
 7496SOL    HW234122   0.168   1.565   0.018  0.1984  1.0494  1.6439
 7497SOL     OW34123   4.284   3.669   4.404 -0.1783 -0.1691  0.4225
 7497SOL    HW134124   4.345   3.595   4.401  1.5459  1.2207  1.0894
 7497SOL    HW234125   4.218   3.636   4.343  1.5677 -2.5500 -0.1772
 7498SOL     OW34126   3.173   0.051   2.454  0.4580  0.0731 -0.0431
 7498SOL    HW134127   3.097   0.108   2.467 -0.6391 -1.2517 -0.6195
 7498SOL    HW234128   3.136   4.701   2.423 -0.7337  0.6703 -0.2190
 7499SOL     OW34129   3.707   0.222   2.800 -0.5153 -0.0329  0.2581
 7499SOL    HW134130   3.777   0.284   2.779 -1.5993  1.7080  1.8532
 7499SOL    HW234131   3.631   0.264   2.761 -0.3159  1.0443  1.0508
 7500SOL     OW34132   4.413   0.199   8.205 -0.1160  0.4308 -0.1466
 7500SOL    HW134133   4.474   0.208   8.133 -0.4934 -2.1776 -0.8216
 7500SOL    HW234134   4.328   0.209   8.163 -0.0722  0.1682 -0.2962
 7501SOL     OW34135   1.353   0.153   4.182 -0.2457 -0.2967  0.1717
 7501SOL    HW134136   1.316   0.170   4.269 -0.0366  0.6226  0.0788
 7501SOL    HW234137   1.292   0.201   4.127 -0.7588 -1.5180 -0.3350
 7502SOL     OW34138   2.768   3.543   5.642 -0.2474  0.0103  0.2731
 7502SOL    HW134139   2.835   3.482   5.611 -1.5483 -1.2552 -0.0293
 7502SOL    HW234140   2.823   3.614   5.675 -1.0166  1.0386 -0.6447
 7503SOL     OW34141   4.506   4.547  11.008  0.9117  0.1512  0.3041
 7503SOL    HW134142   4.474   4.531  11.096  1.6667  1.5597  0.8459
 7503SOL    HW234143   4.420   4.567  10.971  1.4337  1.1968 -0.3357
 7504SOL     OW34144   1.549   3.005   3.276 -0.3077 -0.2444 -0.2025
 7504SOL    HW134145   1.591   2.970   3.355 -2.9106 -0.2794  1.1934
 7504SOL    HW234146   1.567   3.098   3.294  0.1962 -0.3568 -0.1326
 7505SOL     OW34147   1.383   0.188   2.921  0.0246 -0.9916 -0.0047
 7505SOL    HW134148   1.456   0.226   2.970 -1.8179  1.0364  1.1896
 7505SOL    HW234149   1.408   0.225   2.837 -1.2362 -0.5069 -0.1645
 7506SOL     OW34150   1.273   1.732   2.982 -0.3820 -0.1212 -0.2783
 7506SOL    HW134151   1.182   1.745   2.955 -0.1584  1.5984 -0.1947
 7506SOL    HW234152   1.258   1.682   3.062  0.8725 -1.2774 -0.7844
 7507SOL     OW34153   1.831   0.994   1.773 -0.7096  0.1295  0.4214
 7507SOL    HW134154   1.869   0.906   1.776  0.9270  0.8946  2.9146
 7507SOL    HW234155   1.784   0.982   1.691 -1.3918 -0.2313  0.8634
 7508SOL     OW34156   0.919   3.884  13.873  0.1785 -0.3693 -0.2986
 7508SOL    HW134157   0.835   3.840  13.858  0.3535 -1.0561  0.6978
 7508SOL    HW234158   0.978   3.813  13.847 -1.1745 -2.0909  1.2171
 7509SOL     OW34159   2.183   0.366  13.223  0.0152 -0.4575 -0.1720
 7509SOL    HW134160   2.106   0.413  13.193 -0.1913 -0.4485  0.3663
 7509SOL    HW234161   2.257   0.427  13.214 -0.7967  0.6155  0.3545
 7510SOL     OW34162   2.754   0.422   3.853  0.2343 -0.0047 -0.0197
 7510SOL    HW134163   2.815   0.405   3.781  1.1487 -0.6861  0.9163
 7510SOL    HW234164   2.705   0.496   3.817  0.2367 -2.0533 -4.2519
 7511SOL     OW34165   2.821   2.969   6.037 -0.5026 -0.2081 -0.7478
 7511SOL    HW134166   2.751   2.915   5.999  0.4608 -0.2838 -2.4015
 7511SOL    HW234167   2.872   2.985   5.958 -0.4183  0.8735 -0.4772
 7512SOL     OW34168   3.823   1.841   9.563 -0.3380  0.1799  0.5016
 7512SOL    HW134169   3.737   1.813   9.533 -0.6365  2.6151 -0.9383
 7512SOL    HW234170   3.853   1.875   9.479  2.1470 -0.1627  1.2500
 7513SOL     OW34171   3.819   3.251   2.964 -0.2034  0.0196  0.4747
 7513SOL    HW134172   3.819   3.278   2.872  0.4368 -0.6168  0.2898
 7513SOL    HW234173   3.743   3.195   2.951  0.7503 -1.8240  2.8839
 7514SOL     OW34174   0.064   1.754   1.608  0.8628 -0.0050  0.2174
 7514SOL    HW134175   0.115   1.813   1.552  0.6629 -0.8716 -0.8587
 7514SOL    HW234176   4.705   1.778   1.594  0.5432 -1.7687 -0.5857
 7515SOL     OW34177   2.246   2.294   1.693 -0.2626  0.0302 -0.6820
 7515SOL    HW134178   2.328   2.317   1.736 -0.7227 -0.9883  0.7453
 7515SOL    HW234179   2.191   2.348   1.749  0.8849  0.1987  0.2837
 7516SOL     OW34180   1.616   2.207   7.422 -0.2925 -0.3530 -0.1390
 7516SOL    HW134181   1.707   2.179   7.415  0.0017  0.9399 -1.4025
 7516SOL    HW234182   1.573   2.125   7.398 -1.0992  0.1905 -0.5613
 7517SOL     OW34183   2.812   4.154   7.505  0.2083 -0.5682 -0.1673
 7517SOL    HW134184   2.807   4.063   7.473 -1.1715 -0.4234 -0.3665
 7517SOL    HW234185   2.798   4.151   7.599 -1.3734 -1.7236 -0.4306
 7518SOL     OW34186   0.584   1.191   7.006  0.2484 -0.0520  0.3343
 7518SOL    HW134187   0.624   1.239   6.933  0.7997 -0.7149  0.1939
 7518SOL    HW234188   0.650   1.121   7.007 -1.1764 -1.3846  0.0522
 7519SOL     OW34189   2.397   4.232   2.235  0.1700 -0.2661 -0.3995
 7519SOL    HW134190   2.306   4.246   2.263 -0.1125  0.4350 -1.6527
 7519SOL    HW234191   2.413   4.318   2.197 -0.4462 -0.2719 -0.6784
 7520SOL     OW34192   4.393   0.559  12.645  0.6720 -0.3004 -0.4882
 7520SOL    HW134193   4.373   0.576  12.737  1.7230  0.2875 -0.3612
 7520SOL    HW234194   4.382   0.465  12.630 -0.8234 -0.1448 -0.3716
 7521SOL     OW34195   0.647   1.251   7.583  0.0268  0.9719 -0.3287
 7521SOL    HW134196   0.561   1.292   7.592 -1.4699 -1.9221 -1.5454
 7521SOL    HW234197   0.682   1.310   7.516 -1.4915  1.9542 -0.2403
 7522SOL     OW34198   3.052   0.980   5.123 -0.1158  0.0415 -0.0127
 7522SOL    HW134199   3.031   1.071   5.102 -1.0149 -0.1375  0.1013
 7522SOL    HW234200   3.025   0.985   5.215  0.8954  0.4382  0.2615
 7523SOL     OW34201   4.444   2.029   6.042 -0.9870  0.1051 -0.3022
 7523SOL    HW134202   4.402   1.960   5.991  0.3232  1.3480 -3.0672
 7523SOL    HW234203   4.437   1.997   6.132  0.4790 -3.0046 -1.2964
 7524SOL     OW34204   0.525   3.238  13.610  0.1741 -0.3124  0.4375
 7524SOL    HW134205   0.525   3.211  13.702  0.0780  1.0403  0.8364
 7524SOL    HW234206   0.547   3.330  13.617 -0.1328 -0.1927 -0.1495
 7525SOL     OW34207   4.120   4.609   4.022 -0.0169 -0.3829  0.2700
 7525SOL    HW134208   4.175   4.677   3.983 -3.5750  1.0606 -2.1810
 7525SOL    HW234209   4.027   4.627   4.011  0.1422 -1.1308 -2.1401
 7526SOL     OW34210   2.176   2.346   3.135 -1.0947  0.0660  0.3984
 7526SOL    HW134211   2.169   2.436   3.103  1.6232 -0.0235 -0.5204
 7526SOL    HW234212   2.112   2.297   3.084  2.1321  0.0219 -3.6929
 7527SOL     OW34213   3.668   1.856   3.201  0.8249 -0.3432 -0.1241
 7527SOL    HW134214   3.734   1.834   3.135 -0.7233  0.1817 -1.8539
 7527SOL    HW234215   3.630   1.769   3.210  0.8785 -0.2137  1.2765
 7528SOL     OW34216   1.765   1.149   9.410  0.4656  0.3860  0.0392
 7528SOL    HW134217   1.753   1.119   9.501 -1.4793 -3.3795 -1.4716
 7528SOL    HW234218   1.775   1.243   9.425  1.0566  0.2531  0.4639
 7529SOL     OW34219   3.698   3.856   4.350 -0.3521 -0.4089  0.2409
 7529SOL    HW134220   3.620   3.857   4.294 -0.3964  2.9213  0.3576
 7529SOL    HW234221   3.694   3.937   4.401 -0.2093 -0.6806  0.6816
 7530SOL     OW34222   0.444   1.023   2.118 -0.3082  0.1609 -0.0726
 7530SOL    HW134223   0.353   1.044   2.099  0.2162  1.1333 -1.4944
 7530SOL    HW234224   0.489   1.039   2.035 -0.8263  0.0385 -0.3739
 7531SOL     OW34225   2.540   3.151  17.585 -0.3010  0.4191 -0.2190
 7531SOL    HW134226   2.458   3.197  17.605 -0.9983 -1.6289  1.5965
 7531SOL    HW234227   2.609   3.204  17.624 -1.0294 -1.0847  3.1209
 7532SOL     OW34228   2.946   4.462   1.219 -0.3999  0.3924  0.0968
 7532SOL    HW134229   2.851   4.473   1.212 -0.7853 -2.5981  0.7887
 7532SOL    HW234230   2.946   4.532   1.284 -0.0650  1.1478 -0.7130
 7533SOL     OW34231   3.261   1.043   5.460  0.1659  0.0683  0.3380
 7533SOL    HW134232   3.267   0.963   5.408  0.3244 -0.4211  1.0966
 7533SOL    HW234233   3.347   1.050   5.500  1.4196  0.9454 -2.5784
 7534SOL     OW34234   4.606   4.346   7.886 -0.0766  0.4167  0.6383
 7534SOL    HW134235   4.570   4.342   7.974  1.4606 -1.7211  1.2004
 7534SOL    HW234236   4.665   4.421   7.892  0.1297  0.2076  1.2218
 7535SOL     OW34237   2.005   3.948   3.832  0.0693 -0.1165  0.5696
 7535SOL    HW134238   2.009   4.036   3.869  1.9103 -0.1551  0.4771
 7535SOL    HW234239   2.068   3.902   3.888  1.3355  0.1242 -0.6593
 7536SOL     OW34240   3.722   2.289  11.204 -0.6816 -0.7933 -0.2240
 7536SOL    HW134241   3.633   2.261  11.180  0.4881 -1.7711 -3.4334
 7536SOL    HW234242   3.759   2.206  11.234  1.5591  0.4219  0.3058
 7537SOL     OW34243   0.321   3.736   1.134 -0.2512 -0.8101 -0.3865
 7537SOL    HW134244   0.319   3.640   1.136 -1.3434 -0.7722  0.0595
 7537SOL    HW234245   0.350   3.752   1.044  1.0380 -0.5989  0.0575
 7538SOL     OW34246   3.290   3.558   3.302  0.2272 -0.1976 -0.6969
 7538SOL    HW134247   3.372   3.551   3.351 -0.1042 -1.7264 -0.3878
 7538SOL    HW234248   3.226   3.555   3.373 -1.3553 -1.0286 -2.1794
 7539SOL     OW34249   1.381   4.601   8.374 -0.1513  0.8479 -0.0669
 7539SOL    HW134250   1.434   4.563   8.304 -0.7998  4.6394 -2.6224
 7539SOL    HW234251   1.304   4.601   8.317 -0.1790 -1.7009 -0.0354
 7540SOL     OW34252   1.489   2.015  16.928  0.3224  0.3108  0.0781
 7540SOL    HW134253   1.491   1.931  16.882 -1.4863  0.4450 -0.2367
 7540SOL    HW234254   1.433   2.064  16.869  1.0618 -0.4062 -1.2156
 7541SOL     OW34255   0.894   3.497  11.984  0.0758 -0.7289  0.1108
 7541SOL    HW134256   0.851   3.580  12.006  0.3706 -0.3268 -0.8178
 7541SOL    HW234257   0.890   3.448  12.066 -0.8078 -1.6459 -0.4868
 7542SOL     OW34258   4.538   3.762  12.589  0.1529  0.3534 -0.3641
 7542SOL    HW134259   4.514   3.791  12.501  0.8099 -0.1681 -0.7136
 7542SOL    HW234260   4.600   3.832  12.613  0.5043  0.5109 -1.6963
 7543SOL     OW34261   3.741   3.685  17.238 -0.2651  0.2667  0.4534
 7543SOL    HW134262   3.738   3.777  17.265  0.1829  0.2220  0.6670
 7543SOL    HW234263   3.650   3.656  17.245  0.1108 -1.0112  0.1469
 7544SOL     OW34264   4.592   3.739  16.612 -0.3130 -0.2445  0.0546
 7544SOL    HW134265   4.625   3.821  16.649 -1.9409  1.0438 -1.3384
 7544SOL    HW234266   4.590   3.758  16.518 -1.6636 -1.1744 -0.1061
 7545SOL     OW34267   2.645   0.487   7.419 -0.0323  0.1214  0.0517
 7545SOL    HW134268   2.677   0.425   7.485 -1.7274  0.6681  1.3801
 7545SOL    HW234269   2.588   0.430   7.367 -0.2463  0.0240  0.3867
 7546SOL     OW34270   2.489   4.616  15.653  0.1242 -0.5258 -0.4131
 7546SOL    HW134271   2.445   4.546  15.606  0.4070 -0.2082 -1.1579
 7546SOL    HW234272   2.513   4.668  15.576 -0.5963  1.9762  1.0491
 7547SOL     OW34273   0.834   2.214   0.827 -0.2647 -0.3404  0.9161
 7547SOL    HW134274   0.854   2.231   0.735  0.1925 -0.2769  1.0234
 7547SOL    HW234275   0.921   2.207   0.866  0.3203  2.2142  0.0558
 7548SOL     OW34276   1.980   1.002  11.257  0.0575  0.5036  0.5985
 7548SOL    HW134277   2.066   1.039  11.276  0.0912  1.3219 -1.1330
 7548SOL    HW234278   1.956   0.929  11.315  1.1716 -1.5019 -1.4684
 7549SOL     OW34279   0.020   2.092   2.303  0.1904 -0.7370  0.7055
 7549SOL    HW134280   4.712   2.020   2.352  0.4601 -0.9257  0.6516
 7549SOL    HW234281   0.058   2.139   2.377 -0.8637  1.2066  0.0289
 7550SOL     OW34282   1.464   2.161   1.023  0.0529 -0.0282 -0.0935
 7550SOL    HW134283   1.553   2.189   1.044 -0.6779  1.3558  1.1697
 7550SOL    HW234284   1.474   2.136   0.931  1.5000 -0.3944  0.1696
 7551SOL     OW34285   2.771   0.163   7.467  0.2367  0.1679  0.4044
 7551SOL    HW134286   2.681   0.194   7.470 -0.9864 -3.3898  0.3781
 7551SOL    HW234287   2.812   0.240   7.506  0.1303 -0.1884  1.2107
 7552SOL     OW34288   2.813   1.484   5.029 -0.0978 -0.1968 -0.4125
 7552SOL    HW134289   2.878   1.545   4.993 -0.5822  0.5027 -0.1021
 7552SOL    HW234290   2.731   1.518   4.992 -0.7870  0.4389  1.7234
 7553SOL     OW34291   0.839   1.212   5.138 -0.9690  0.0282  0.1011
 7553SOL    HW134292   0.928   1.245   5.149 -1.0522  0.8002 -1.4727
 7553SOL    HW234293   0.792   1.267   5.200  0.8577  2.0412 -0.2968
 7554SOL     OW34294   1.077   3.270  16.948 -0.4675 -0.1301  0.1707
 7554SOL    HW134295   1.164   3.309  16.941 -0.2303 -0.6459  0.1842
 7554SOL    HW234296   1.061   3.285  17.041 -1.9979  0.7353 -0.2223
 7555SOL     OW34297   1.689   1.903   5.917 -0.2207  0.1498  0.5714
 7555SOL    HW134298   1.603   1.942   5.903  0.1594  0.8951  0.2865
 7555SOL    HW234299   1.733   1.970   5.970 -1.0204  0.1201  1.2681
 7556SOL     OW34300   4.670   2.498  10.797  0.0765 -0.2701 -0.3125
 7556SOL    HW134301   0.025   2.513  10.832 -0.8587 -0.2510  1.9573
 7556SOL    HW234302   4.688   2.519  10.705 -2.5517 -0.5690 -0.9124
 7557SOL     OW34303   3.912   0.214   6.930 -0.4062 -0.7140 -0.5559
 7557SOL    HW134304   3.920   0.221   6.835  1.1376  0.5117 -0.3276
 7557SOL    HW234305   3.824   0.175   6.933 -0.7568  0.2076  1.2331
 7558SOL     OW34306   0.027   1.511   7.584 -0.4605  0.6511 -0.4926
 7558SOL    HW134307   4.685   1.482   7.530  0.0543 -0.8364 -0.3970
 7558SOL    HW234308   0.089   1.448   7.548 -0.0419 -0.2323  1.7819
 7559SOL     OW34309   2.351   4.459   4.469 -0.1558 -0.1579 -0.2467
 7559SOL    HW134310   2.273   4.414   4.500 -0.9822  0.9340 -0.7605
 7559SOL    HW234311   2.334   4.494   4.382  0.9339 -0.2908 -0.5133
 7560SOL     OW34312   1.173   0.369   6.149  0.2147 -0.2448  0.3488
 7560SOL    HW134313   1.179   0.355   6.243 -1.1228 -1.6163  0.2221
 7560SOL    HW234314   1.094   0.422   6.145  2.2945  2.8676  0.2029
 7561SOL     OW34315   3.509   0.384   3.398  0.2205 -0.0737 -0.0046
 7561SOL    HW134316   3.588   0.412   3.444  0.6985  0.1633 -0.9816
 7561SOL    HW234317   3.536   0.294   3.378 -1.3083 -0.5921  0.2598
 7562SOL     OW34318   0.655   1.637  11.829  0.1115  0.7970  0.1501
 7562SOL    HW134319   0.716   1.590  11.772  0.1991 -0.0083  0.9137
 7562SOL    HW234320   0.586   1.654  11.765  1.6700 -0.9602 -1.9895
 7563SOL     OW34321   3.773   2.246   1.964 -0.5322 -1.3108  0.5330
 7563SOL    HW134322   3.830   2.280   2.033 -0.2989 -2.2370  0.8016
 7563SOL    HW234323   3.820   2.279   1.887 -0.3942 -2.6946  0.0297
 7564SOL     OW34324   1.066   4.436   1.232 -0.2031  0.4731 -0.0932
 7564SOL    HW134325   1.037   4.495   1.300 -0.8420 -0.8191  0.7538
 7564SOL    HW234326   1.094   4.364   1.288  2.9383 -0.0108 -2.2408
 7565SOL     OW34327   1.534   1.678   2.940  0.7352  0.0075  0.2388
 7565SOL    HW134328   1.443   1.706   2.931  0.1545 -1.4521  1.5322
 7565SOL    HW234329   1.521   1.584   2.957 -0.6122  0.1818  0.2331
 7566SOL     OW34330   0.486   1.644  14.124  0.0421 -0.5220  0.3426
 7566SOL    HW134331   0.506   1.682  14.038 -1.5162  0.1490  0.2661
 7566SOL    HW234332   0.414   1.590  14.093 -1.2551  1.9555 -1.0103
 7567SOL     OW34333   4.105   3.813   9.913 -0.2875  0.3783  0.3983
 7567SOL    HW134334   4.151   3.888   9.876 -0.7724  1.7771  2.6454
 7567SOL    HW234335   4.172   3.786   9.976 -0.5196  0.4736  0.6869
 7568SOL     OW34336   1.103   2.411   7.302 -0.2758  0.0982  0.1620
 7568SOL    HW134337   1.178   2.359   7.273 -1.4726 -1.1061 -0.7233
 7568SOL    HW234338   1.136   2.501   7.309  0.5760  0.0645 -3.5271
 7569SOL     OW34339   1.858   3.783   3.132 -0.9129 -0.0899 -0.0622
 7569SOL    HW134340   1.837   3.839   3.207  1.7564 -1.1256  1.4286
 7569SOL    HW234341   1.952   3.794   3.141 -0.4456 -1.8034 -2.9598
 7570SOL     OW34342   2.315   3.740   0.863  0.1940  0.2372  0.7030
 7570SOL    HW134343   2.245   3.686   0.900  0.8757 -0.7011  0.6172
 7570SOL    HW234344   2.272   3.825   0.859 -1.2730 -0.4323  2.0613
 7571SOL     OW34345   1.024   2.281  16.779  1.1116 -0.7457 -0.3480
 7571SOL    HW134346   0.957   2.341  16.745 -0.3165 -1.9675  0.2777
 7571SOL    HW234347   1.011   2.205  16.722 -0.3999 -1.3395  0.7772
 7572SOL     OW34348   2.805   0.165   6.326 -0.6009 -0.5637 -0.1194
 7572SOL    HW134349   2.842   0.246   6.361 -2.5257  0.6126 -0.8062
 7572SOL    HW234350   2.840   0.094   6.380  2.2636 -1.6697 -3.4110
 7573SOL     OW34351   2.296   1.131  17.617  0.5502  0.1971 -0.1024
 7573SOL    HW134352   2.251   1.085  17.687  1.0987  1.5286  1.1286
 7573SOL    HW234353   2.247   1.214  17.616 -0.6688 -0.5262 -2.1145
 7574SOL     OW34354   4.568   2.447   3.856 -0.0618  0.6137  0.2011
 7574SOL    HW134355   4.622   2.409   3.926  0.3628 -0.7829 -0.8979
 7574SOL    HW234356   4.495   2.385   3.854  0.9938 -0.5170 -2.6088
 7575SOL     OW34357   4.416   2.143   1.277 -0.5855  0.6936  0.2352
 7575SOL    HW134358   4.330   2.108   1.253  0.5550 -2.0091  0.1433
 7575SOL    HW234359   4.462   2.095   1.208 -1.1819  0.5321 -0.0521
 7576SOL     OW34360   3.561   1.419   4.076 -0.3987  0.1174  0.5208
 7576SOL    HW134361   3.601   1.351   4.130 -1.0537 -0.9788 -0.3473
 7576SOL    HW234362   3.602   1.401   3.991  1.2239  0.3031  1.2660
 7577SOL     OW34363   0.459   2.330   2.618 -0.3946 -0.4772 -0.1749
 7577SOL    HW134364   0.546   2.329   2.579 -0.7068  0.2063 -0.8861
 7577SOL    HW234365   0.437   2.423   2.607  1.4998 -0.0143  0.0847
 7578SOL     OW34366   1.930   0.575   7.944 -0.0294  0.0495  0.2427
 7578SOL    HW134367   2.017   0.537   7.937  0.4170  0.7534  1.8873
 7578SOL    HW234368   1.885   0.497   7.911  1.2112 -0.1458 -0.9825
 7579SOL     OW34369   1.344   3.610  10.729 -0.8512  0.4809  0.0770
 7579SOL    HW134370   1.377   3.691  10.766  0.2430  1.1265 -2.2611
 7579SOL    HW234371   1.388   3.545  10.784 -0.5847  0.4548 -0.1684
 7580SOL     OW34372   0.304   4.066   4.790  0.5566 -0.1027  0.6482
 7580SOL    HW134373   0.210   4.064   4.772  0.9604  0.8060 -1.5276
 7580SOL    HW234374   0.325   3.983   4.834 -1.2155 -1.6616 -1.4068
 7581SOL     OW34375   4.502   2.619   6.204 -0.1013  0.2866  0.9070
 7581SOL    HW134376   4.565   2.685   6.232 -0.5259  1.2597 -0.4253
 7581SOL    HW234377   4.433   2.679   6.175  0.0102  0.4967  1.0772
 7582SOL     OW34378   0.864   0.219   2.374 -0.6367  0.3513  0.1401
 7582SOL    HW134379   0.784   0.258   2.411 -0.2859  0.2809  0.9773
 7582SOL    HW234380   0.928   0.265   2.428  1.0234 -1.9441  0.0917
 7583SOL     OW34381   3.194   1.537   3.477 -0.2424  0.2047 -0.1655
 7583SOL    HW134382   3.239   1.603   3.423 -0.4954  1.4641  1.1408
 7583SOL    HW234383   3.109   1.579   3.473 -0.6026 -0.3780  1.6623
 7584SOL     OW34384   1.607   3.248   5.108 -0.2573  0.0685  0.1245
 7584SOL    HW134385   1.699   3.236   5.086  0.0557 -0.9654  2.0044
 7584SOL    HW234386   1.597   3.338   5.078  3.0754  0.5663  0.5095
 7585SOL     OW34387   3.776   4.498   5.512  0.0833  0.0042 -0.1309
 7585SOL    HW134388   3.854   4.553   5.515 -0.6982  1.1986 -1.1204
 7585SOL    HW234389   3.724   4.546   5.447  1.6312 -0.3004 -1.5948
 7586SOL     OW34390   2.268   3.684   3.717 -0.1978 -0.1792  0.1656
 7586SOL    HW134391   2.214   3.614   3.681  0.9069 -0.3462 -1.1865
 7586SOL    HW234392   2.349   3.675   3.666 -0.9007 -1.1516 -0.7804
 7587SOL     OW34393   1.663   2.935  11.408 -0.5684 -0.1576 -0.7369
 7587SOL    HW134394   1.589   2.884  11.441  0.4485 -0.9950  0.2263
 7587SOL    HW234395   1.668   3.009  11.467  0.2324  0.4423 -1.5600
 7588SOL     OW34396   2.055   0.855   3.420  0.5997  0.1478  0.0579
 7588SOL    HW134397   1.998   0.806   3.361  1.2777  0.1050 -0.5541
 7588SOL    HW234398   2.022   0.944   3.406  2.0948  0.7036  0.0719
 7589SOL     OW34399   1.486   3.941   2.792 -0.4844  0.6599  0.1906
 7589SOL    HW134400   1.477   3.907   2.881 -0.8589  0.7371  0.1814
 7589SOL    HW234401   1.578   3.917   2.775 -0.4655  1.3580 -0.6938
 7590SOL     OW34402   3.553   3.003   7.767  0.4638  0.0783  0.4139
 7590SOL    HW134403   3.552   2.987   7.861  0.2361  1.0729  0.5744
 7590SOL    HW234404   3.532   2.910   7.754  1.8065  0.1486 -2.3091
 7591SOL     OW34405   2.427   0.879  13.295 -0.2097  0.1433  0.7366
 7591SOL    HW134406   2.501   0.835  13.338  0.5228 -0.2314 -0.8939
 7591SOL    HW234407   2.389   0.802  13.252 -1.7582  1.0520  0.4933
 7592SOL     OW34408   2.049   2.527  14.332  0.3959 -0.3285 -0.9309
 7592SOL    HW134409   2.102   2.493  14.260  1.3613  1.2189 -0.9620
 7592SOL    HW234410   1.976   2.559  14.278  0.3258  0.7114 -0.2122
 7593SOL     OW34411   4.389   2.566   3.298 -0.0156  0.4694  0.3743
 7593SOL    HW134412   4.440   2.644   3.272 -0.9306  0.8880 -0.1433
 7593SOL    HW234413   4.320   2.569   3.233  0.1121 -1.4426  0.1632
 7594SOL     OW34414   2.805   2.087   5.522  0.5402 -0.4649 -0.1443
 7594SOL    HW134415   2.715   2.074   5.551  0.7988  1.0373  1.2927
 7594SOL    HW234416   2.855   2.130   5.590 -1.7496  2.0331 -0.0562
 7595SOL     OW34417   2.283   3.309   6.486 -0.1180 -0.1598 -0.9933
 7595SOL    HW134418   2.193   3.285   6.507  0.5745 -0.3836  1.6858
 7595SOL    HW234419   2.282   3.290   6.392 -0.2879 -0.8031 -0.8577
 7596SOL     OW34420   2.080   4.070   9.104 -0.5676 -0.2704 -0.1513
 7596SOL    HW134421   2.111   3.980   9.102  0.9219  0.2275  0.4466
 7596SOL    HW234422   2.075   4.110   9.017 -0.7005 -1.1136 -0.5267
 7597SOL     OW34423   3.852   4.361   4.565  0.8966  0.4125  0.8030
 7597SOL    HW134424   3.923   4.418   4.535  1.5956 -0.3086  1.0730
 7597SOL    HW234425   3.878   4.346   4.656 -0.5241 -3.7404  0.5085
 7598SOL     OW34426   4.140   0.788   0.766  0.0277  0.1803  0.5537
 7598SOL    HW134427   4.170   0.860   0.710  0.8588  0.2543  1.0920
 7598SOL    HW234428   4.050   0.775   0.736  0.6476 -1.9317 -0.3500
 7599SOL     OW34429   0.032   3.075  11.473 -0.4586  0.0522 -0.5019
 7599SOL    HW134430   0.022   2.988  11.513 -1.3768 -0.0509 -0.9758
 7599SOL    HW234431   0.101   3.115  11.527 -1.8474 -0.0479  1.3328
 7600SOL     OW34432   4.458   3.554   2.241 -0.3250  0.4494 -0.3396
 7600SOL    HW134433   4.391   3.577   2.177 -0.6860  0.9323  0.2129
 7600SOL    HW234434   4.501   3.481   2.196 -0.6494  0.1794 -0.2040
 7601SOL     OW34435   4.162   4.341   8.515  0.5029  0.2450  0.0977
 7601SOL    HW134436   4.242   4.335   8.567 -0.3880 -1.1786  1.2740
 7601SOL    HW234437   4.107   4.316   8.589  1.1934  2.1233  1.2270
 7602SOL     OW34438   2.984   4.221   5.741 -0.0922  0.1228  0.1291
 7602SOL    HW134439   2.972   4.214   5.647 -0.3669 -1.0291  0.2452
 7602SOL    HW234440   2.896   4.253   5.762 -2.3300 -3.0418 -4.3544
 7603SOL     OW34441   4.193   4.341   3.291 -0.5345  0.0325  0.1763
 7603SOL    HW134442   4.276   4.349   3.245 -0.4166 -1.3363  0.1682
 7603SOL    HW234443   4.139   4.283   3.237  1.8120 -3.6585  1.7955
 7604SOL     OW34444   4.021   3.270   6.592 -0.5072  0.5694 -0.0934
 7604SOL    HW134445   4.099   3.236   6.547 -1.4608 -1.2044 -0.3885
 7604SOL    HW234446   4.056   3.352   6.627 -0.8599  0.6800 -0.0005
 7605SOL     OW34447   1.225   4.387   4.475 -0.1670 -0.0819  0.0289
 7605SOL    HW134448   1.320   4.398   4.481 -0.0020 -0.5317 -2.0277
 7605SOL    HW234449   1.202   4.421   4.389 -1.2815 -0.1777  0.2926
 7606SOL     OW34450   0.970   3.174  10.906 -0.1292 -0.2235  1.0727
 7606SOL    HW134451   1.011   3.250  10.864 -0.2719 -0.2884  0.8138
 7606SOL    HW234452   1.043   3.114  10.921  1.6010  1.6811  0.2719
 7607SOL     OW34453   1.377   1.196   8.258  0.2974  0.1640  0.4817
 7607SOL    HW134454   1.337   1.144   8.328  0.2689 -2.0902 -1.1858
 7607SOL    HW234455   1.295   1.215   8.211 -0.2992 -0.8162  1.1126
 7608SOL     OW34456   3.795   2.646   2.229 -0.2422  0.3872  0.2300
 7608SOL    HW134457   3.716   2.611   2.271  0.6102 -1.7571  0.0619
 7608SOL    HW234458   3.782   2.634   2.135  0.7334  0.3580  0.1043
 7609SOL     OW34459   1.768   3.880   7.312 -0.1316  0.2923 -0.3469
 7609SOL    HW134460   1.745   3.788   7.322  0.6752  0.1361  0.0740
 7609SOL    HW234461   1.690   3.930   7.336  0.7462  1.4374  0.1373
 7610SOL     OW34462   0.182   3.553   9.208  0.0565  0.2253  0.5235
 7610SOL    HW134463   0.138   3.468   9.200  1.9642 -0.7251  0.0087
 7610SOL    HW234464   0.142   3.600   9.135  0.0223  1.0618  1.0875
 7611SOL     OW34465   4.561   3.890  16.398 -0.6077  0.2831  0.1986
 7611SOL    HW134466   4.576   3.975  16.439 -3.3946  1.6873 -1.7442
 7611SOL    HW234467   4.559   3.908  16.304  0.0338  2.3878  0.5913
 7612SOL     OW34468   4.394   0.169  17.289 -0.8578 -0.7192  0.1161
 7612SOL    HW134469   4.382   0.078  17.262  1.7382 -0.3494 -2.2058
 7612SOL    HW234470   4.316   0.203  17.245 -0.5055 -1.7433 -1.2950
 7613SOL     OW34471   0.535   0.211  10.087  0.4439  0.1155  0.0850
 7613SOL    HW134472   0.469   0.234  10.153 -0.6159 -2.1248 -0.2044
 7613SOL    HW234473   0.506   0.122  10.067  1.4490  0.1565 -1.5736
 7614SOL     OW34474   0.778   1.568   0.681 -0.3698 -0.1015 -0.0553
 7614SOL    HW134475   0.804   1.627   0.753  1.3423 -0.5415 -0.3111
 7614SOL    HW234476   0.697   1.539   0.722  0.4533 -0.3317  1.4158
 7615SOL     OW34477   0.685   2.310   8.275  0.4286  0.1176  0.0981
 7615SOL    HW134478   0.630   2.377   8.316 -0.2441  0.3405 -1.1810
 7615SOL    HW234479   0.657   2.298   8.184 -1.1204 -1.1778  0.7244
 7616SOL     OW34480   0.250   2.731   8.507 -0.3586  0.6510  0.0174
 7616SOL    HW134481   0.219   2.696   8.424 -2.2327  1.5720  0.3285
 7616SOL    HW234482   0.220   2.821   8.493  1.0534  0.8634 -1.6775
 7617SOL     OW34483   0.445   2.654   2.568 -0.4451  0.1708 -0.1758
 7617SOL    HW134484   0.532   2.687   2.545  0.2340  1.5908  4.3747
 7617SOL    HW234485   0.394   2.687   2.494  0.6650 -1.5899 -1.7356
 7618SOL     OW34486   2.363   0.632   8.074  0.0742  0.5637  0.0625
 7618SOL    HW134487   2.314   0.663   8.150  0.0503 -1.5335  0.9213
 7618SOL    HW234488   2.336   0.701   8.014  2.2987  2.1076  0.8597
 7619SOL     OW34489   1.129   2.046  13.845 -0.3391  0.0731  0.3864
 7619SOL    HW134490   1.158   1.956  13.859  0.4061  0.0285 -1.4021
 7619SOL    HW234491   1.132   2.044  13.749 -0.9293 -0.3175  0.3777
 7620SOL     OW34492   4.123   2.120   9.672  0.3053 -0.1672 -0.2796
 7620SOL    HW134493   4.099   2.104   9.580 -0.4286 -0.1603 -0.0928
 7620SOL    HW234494   4.038   2.148   9.707  1.2871  0.8856  1.2222
 7621SOL     OW34495   3.602   4.559   5.291  0.8523  0.1500 -0.2950
 7621SOL    HW134496   3.532   4.503   5.324  0.2563  0.9850 -0.1501
 7621SOL    HW234497   3.601   4.532   5.199  2.1385  1.1405 -0.6021
 7622SOL     OW34498   4.094   3.863   1.067 -0.5541 -0.1938  0.0877
 7622SOL    HW134499   4.151   3.927   1.110  0.0508  1.5957 -3.3746
 7622SOL    HW234500   4.122   3.778   1.098 -0.5950 -1.0349 -2.1691
 7623SOL     OW34501   0.512   0.276   0.605 -0.9076  0.0793 -0.5560
 7623SOL    HW134502   0.570   0.266   0.680 -1.6465  2.4123  0.3226
 7623SOL    HW234503   0.477   0.364   0.618  1.0145  0.7436  0.1233
 7624SOL     OW34504   4.202   2.134   7.296  0.0879  0.2529  0.1757
 7624SOL    HW134505   4.178   2.042   7.304  1.0118 -0.1021 -1.0159
 7624SOL    HW234506   4.112   2.168   7.297  0.2963  0.7230  2.0026
 7625SOL     OW34507   3.584   2.028   6.111 -0.2653 -0.5906 -0.8297
 7625SOL    HW134508   3.661   2.025   6.168 -0.5109 -2.6529 -0.5811
 7625SOL    HW234509   3.589   1.943   6.067 -0.8013  0.7079 -3.3555
 7626SOL     OW34510   3.698   4.722   6.813  0.0562  0.3850  0.5610
 7626SOL    HW134511   3.728   4.656   6.876 -0.8113 -0.7391 -0.1887
 7626SOL    HW234512   3.780   0.007   6.766  0.1311 -1.1952  0.0928
 7627SOL     OW34513   1.024   2.051   2.978  0.1249  0.6012 -0.2262
 7627SOL    HW134514   1.074   2.109   2.921  0.5866 -0.6685 -1.1083
 7627SOL    HW234515   1.012   1.974   2.922 -0.4461  1.0549 -0.7395
 7628SOL     OW34516   3.717   0.290  11.018  0.3804  0.7515  0.0686
 7628SOL    HW134517   3.803   0.301  10.978  1.1143 -0.2211  1.3699
 7628SOL    HW234518   3.702   0.369  11.070 -1.6319  1.2105 -1.2066
 7629SOL     OW34519   4.060   1.815  16.129 -0.4988  0.5264 -0.6193
 7629SOL    HW134520   4.123   1.862  16.184 -0.5553 -1.6995  1.3934
 7629SOL    HW234521   4.117   1.804  16.053  0.4102  0.3318  0.0871
 7630SOL     OW34522   0.979   3.065   6.766 -0.3721  0.2928  0.6606
 7630SOL    HW134523   1.068   3.053   6.733 -1.8817 -0.8512 -2.9956
 7630SOL    HW234524   0.974   3.011   6.845  0.9970  2.7066  2.4215
 7631SOL     OW34525   2.413   3.866   8.601  0.2665 -0.3862 -0.2872
 7631SOL    HW134526   2.374   3.954   8.595 -0.0082 -0.3356  2.2132
 7631SOL    HW234527   2.367   3.840   8.681  1.5020  0.8740  0.8420
 7632SOL     OW34528   3.802   1.494   2.389  0.8050  0.0492 -0.3932
 7632SOL    HW134529   3.896   1.476   2.391  0.5662 -1.0094  2.1176
 7632SOL    HW234530   3.770   1.408   2.415 -0.1542  0.5011 -0.0844
 7633SOL     OW34531   0.185   2.121   8.521  0.0445  0.6789  0.9001
 7633SOL    HW134532   0.278   2.146   8.519  1.1807 -3.5213  0.4648
 7633SOL    HW234533   0.151   2.162   8.601 -1.7503 -0.8444  0.9124
 7634SOL     OW34534   3.731   3.200   5.478 -0.1946 -0.2240  0.3579
 7634SOL    HW134535   3.760   3.207   5.387  2.1002 -0.9606  1.0256
 7634SOL    HW234536   3.675   3.277   5.490  0.8683  0.7335 -0.8669
 7635SOL     OW34537   3.610   1.299   8.419  0.0262 -0.1387 -0.2858
 7635SOL    HW134538   3.640   1.355   8.491 -2.3089 -0.6129  1.0296
 7635SOL    HW234539   3.573   1.359   8.354 -0.6309 -0.9775 -0.6715
 7636SOL     OW34540   0.075   3.758   1.233 -0.6123  0.0493  0.1950
 7636SOL    HW134541   0.049   3.816   1.162  0.7962 -0.9904 -1.1644
 7636SOL    HW234542   0.168   3.746   1.213 -0.3186  1.3695  0.7884
 7637SOL     OW34543   0.909   0.891   2.864 -0.5554  0.6005  0.7551
 7637SOL    HW134544   0.820   0.874   2.894 -0.6235 -0.3906 -0.0267
 7637SOL    HW234545   0.883   0.910   2.774 -0.2254  1.2108  0.7889
 7638SOL     OW34546   3.831   0.839  16.256 -0.0552 -0.9351 -0.0285
 7638SOL    HW134547   3.887   0.775  16.211 -0.1546 -2.0685  1.4388
 7638SOL    HW234548   3.884   0.822  16.334 -0.8280 -0.2542  0.6446
 7639SOL     OW34549   2.105   3.727  16.232  0.1390  0.2613 -0.3255
 7639SOL    HW134550   2.120   3.750  16.323 -0.7231  1.5604 -0.5055
 7639SOL    HW234551   2.016   3.691  16.242  1.3398 -3.3033 -2.3636
 7640SOL     OW34552   0.973   4.379   2.684 -0.0547 -0.4039 -0.0400
 7640SOL    HW134553   0.891   4.336   2.659 -1.0135  1.0758  0.5292
 7640SOL    HW234554   1.033   4.309   2.658 -1.4866 -1.8518  0.6073
 7641SOL     OW34555   4.417   4.544   2.090  0.7221 -0.2915 -0.0595
 7641SOL    HW134556   4.340   4.572   2.140 -0.1068 -0.0848 -1.4306
 7641SOL    HW234557   4.407   4.449   2.089 -1.7410 -0.0135 -1.5188
 7642SOL     OW34558   1.266   0.523  16.758 -0.2468  0.5704  0.4902
 7642SOL    HW134559   1.308   0.515  16.843 -1.7196  0.2095  1.1855
 7642SOL    HW234560   1.339   0.513  16.697  0.0209 -0.8343  1.0454
 7643SOL     OW34561   0.849   1.176   7.763  0.5037  0.0623 -0.1948
 7643SOL    HW134562   0.768   1.216   7.731 -2.6281 -2.4275  4.7075
 7643SOL    HW234563   0.904   1.193   7.686 -0.6913  1.2325 -0.7975
 7644SOL     OW34564   4.462   1.250   5.547  0.2009 -0.5606 -0.1557
 7644SOL    HW134565   4.430   1.202   5.470  0.1876  0.5741 -0.8453
 7644SOL    HW234566   4.556   1.263   5.531 -0.1559 -0.3992 -2.0903
 7645SOL     OW34567   1.470   0.837   1.436 -0.7804 -0.5538 -0.1670
 7645SOL    HW134568   1.457   0.789   1.517 -0.4308 -0.0537  0.1865
 7645SOL    HW234569   1.431   0.783   1.367 -2.3077  1.2843 -0.7358
 7646SOL     OW34570   3.249   2.058   2.030  0.0908  0.0979 -0.6014
 7646SOL    HW134571   3.204   1.982   2.066  0.8211 -0.7520 -1.5106
 7646SOL    HW234572   3.171   2.114   2.029  1.1081  1.5515  0.6096
 7647SOL     OW34573   4.235   0.512   2.224  0.4966 -0.8798  0.1108
 7647SOL    HW134574   4.225   0.550   2.312 -0.1481 -0.7690 -0.0036
 7647SOL    HW234575   4.145   0.527   2.193  0.0556 -0.4219  1.5914
 7648SOL     OW34576   1.111   1.102   1.823 -0.0583 -0.2558  0.0723
 7648SOL    HW134577   1.090   1.066   1.737 -1.2670  1.9101 -0.5337
 7648SOL    HW234578   1.114   1.195   1.799 -0.3754 -0.2118  0.1962
 7649SOL     OW34579   0.454   0.827  17.578  0.3947  0.2364  0.2486
 7649SOL    HW134580   0.487   0.851  17.665 -1.6371  1.9069  0.5487
 7649SOL    HW234581   0.463   0.732  17.592 -1.8476  0.4132  2.9171
 7650SOL     OW34582   3.877   3.106   2.261 -0.5458  0.0004 -0.2773
 7650SOL    HW134583   3.830   3.040   2.312  1.9812 -2.2728 -0.9577
 7650SOL    HW234584   3.805   3.158   2.225  0.7785  1.7976 -0.3106
 7651SOL     OW34585   2.486   1.967  14.038  0.2591 -0.0830  0.5740
 7651SOL    HW134586   2.581   1.982  14.042  0.6857 -2.4636 -0.8884
 7651SOL    HW234587   2.471   2.049  13.992 -2.4311  0.7369  2.9553
 7652SOL     OW34588   2.406   2.874   3.511  0.3974  0.2531  0.0760
 7652SOL    HW134589   2.489   2.921   3.521  0.0576  0.5622  1.4919
 7652SOL    HW234590   2.415   2.815   3.437 -0.0637 -0.7712  0.8284
 7653SOL     OW34591   4.147   0.359   5.586 -0.4359 -0.2776  0.3096
 7653SOL    HW134592   4.162   0.450   5.613 -1.0714  0.3173 -1.3402
 7653SOL    HW234593   4.143   0.367   5.491  0.1877 -0.5843  0.2594
 7654SOL     OW34594   4.092   2.131   3.184  0.5098  0.0003 -0.1352
 7654SOL    HW134595   4.141   2.055   3.152 -1.1260 -1.3688  0.6250
 7654SOL    HW234596   4.148   2.207   3.171  2.8582 -1.2918  2.4970
 7655SOL     OW34597   0.085   4.017   8.843 -0.1087  0.1726  0.2156
 7655SOL    HW134598   0.127   3.954   8.901 -1.6420 -0.7692  0.2995
 7655SOL    HW234599   0.041   4.073   8.908  1.0681 -1.1188  2.1273
 7656SOL     OW34600   0.237   0.660  10.172  0.3818 -0.0327 -0.2756
 7656SOL    HW134601   0.265   0.570  10.184  4.1794  1.2990  0.8754
 7656SOL    HW234602   0.178   0.673  10.247  1.0219  0.3464  0.1681
 7657SOL     OW34603   2.632   4.563   6.409  0.4601  0.1787  0.2480
 7657SOL    HW134604   2.584   4.544   6.328 -0.2334 -0.3379  0.7775
 7657SOL    HW234605   2.725   4.550   6.390  0.8537  1.0614  1.5658
 7658SOL     OW34606   4.225   4.543   5.546 -0.4218 -0.7733  0.6795
 7658SOL    HW134607   4.176   4.547   5.464  2.2308 -2.7776 -0.9957
 7658SOL    HW234608   4.192   4.620   5.592  0.1022 -0.3576  0.3644
 7659SOL     OW34609   4.371   4.566  12.565  0.0548 -0.4871  0.2106
 7659SOL    HW134610   4.378   4.552  12.471  0.6299  0.0647  0.1717
 7659SOL    HW234611   4.456   4.605  12.584 -0.3403 -0.1021  1.2543
 7660SOL     OW34612   1.924   3.048  12.661  0.0409 -0.1328 -0.2558
 7660SOL    HW134613   1.879   3.041  12.577  2.3470  1.1505 -1.5847
 7660SOL    HW234614   1.897   2.965  12.699  0.2585 -0.7032 -1.3538
 7661SOL     OW34615   4.107   2.572   6.778  0.6237 -0.3280  0.2705
 7661SOL    HW134616   4.078   2.652   6.822  0.8287  0.6354 -1.3148
 7661SOL    HW234617   4.034   2.561   6.717 -0.8692  0.6333  1.9131
 7662SOL     OW34618   0.303   2.090   1.757 -0.0028 -0.0002 -1.0475
 7662SOL    HW134619   0.341   2.175   1.734  0.3690  0.2034  0.3270
 7662SOL    HW234620   0.366   2.021   1.736  1.2257  1.3034 -1.6215
 7663SOL     OW34621   1.171   2.876   7.723 -0.3281 -0.0410  0.0611
 7663SOL    HW134622   1.182   2.829   7.806 -1.4316  0.7121  0.6330
 7663SOL    HW234623   1.105   2.940   7.751  0.8907  1.3606 -0.2203
 7664SOL     OW34624   2.521   4.287  12.010  0.3832  0.8394 -0.1752
 7664SOL    HW134625   2.477   4.290  12.095  1.9840 -0.4437  0.6961
 7664SOL    HW234626   2.565   4.372  12.007  0.4517  0.8433  0.9749
 7665SOL     OW34627   2.359   1.867   7.823 -0.2461 -0.2480 -0.0198
 7665SOL    HW134628   2.294   1.831   7.884  1.4844 -0.4402  1.7114
 7665SOL    HW234629   2.345   1.808   7.749 -0.6037 -0.3226  0.1055
 7666SOL     OW34630   4.248   1.665  10.417  0.2530  0.4421  0.3822
 7666SOL    HW134631   4.263   1.654  10.323  1.5920 -0.7558  0.7370
 7666SOL    HW234632   4.275   1.757  10.428 -1.1305  1.1587 -2.0454
 7667SOL     OW34633   2.959   4.351   3.064 -0.7092 -0.7580  0.6755
 7667SOL    HW134634   2.916   4.346   2.978 -1.7032  0.7574  1.0887
 7667SOL    HW234635   2.952   4.259   3.087 -0.4648 -0.4140  2.0722
 7668SOL     OW34636   2.620   2.046  17.207 -0.0178 -0.7650 -0.1848
 7668SOL    HW134637   2.639   1.996  17.128  1.1666 -0.2564 -0.2229
 7668SOL    HW234638   2.527   2.025  17.219 -0.4443  1.6688  0.8880
 7669SOL     OW34639   1.683   4.091  16.663 -0.3378  0.3119 -0.3119
 7669SOL    HW134640   1.728   4.102  16.747 -0.4538 -0.9531 -0.0799
 7669SOL    HW234641   1.715   4.006  16.633  1.9567  0.8461  0.6546
 7670SOL     OW34642   1.427   0.714   7.811 -0.5885 -0.2220  0.6496
 7670SOL    HW134643   1.483   0.692   7.886  0.4247 -2.7492 -0.8298
 7670SOL    HW234644   1.347   0.725   7.861  0.3131 -2.1892  2.5038
 7671SOL     OW34645   3.633   4.347   8.634 -0.8839 -0.2661  0.0555
 7671SOL    HW134646   3.548   4.369   8.597 -0.7282  0.1413 -0.0644
 7671SOL    HW234647   3.686   4.383   8.563 -0.5368 -2.0262 -0.5612
 7672SOL     OW34648   2.561   3.356   5.410  0.1858 -0.4112 -0.1677
 7672SOL    HW134649   2.492   3.418   5.384 -0.5206 -1.2523 -0.2962
 7672SOL    HW234650   2.510   3.276   5.409  1.9281 -1.5175  0.3942
 7673SOL     OW34651   3.585   2.888   0.625  0.5861  0.2437  0.0757
 7673SOL    HW134652   3.526   2.962   0.633  0.4184  0.1016  0.1495
 7673SOL    HW234653   3.659   2.941   0.596  1.1623 -0.5261  0.1411
 7674SOL     OW34654   0.261   2.616  17.251  0.4179 -0.6008 -0.0908
 7674SOL    HW134655   0.313   2.693  17.229 -0.6175 -0.0348 -0.5403
 7674SOL    HW234656   0.305   2.592  17.333 -0.0083 -0.4866  0.1728
 7675SOL     OW34657   2.220   2.779   8.453  0.0512 -0.3897  0.3019
 7675SOL    HW134658   2.232   2.735   8.369 -0.8508 -0.2465  0.1017
 7675SOL    HW234659   2.140   2.830   8.446 -1.2366 -2.1696  2.0934
 7676SOL     OW34660   0.624   0.703  15.582 -0.3277 -1.1021  0.7557
 7676SOL    HW134661   0.603   0.789  15.544  0.7991 -1.5660 -0.9189
 7676SOL    HW234662   0.649   0.651  15.506  1.5341  1.0896 -0.1451
 7677SOL     OW34663   2.892   3.645   9.377 -0.4700  0.4105 -0.4015
 7677SOL    HW134664   2.809   3.672   9.338 -1.3998 -1.5046  0.2356
 7677SOL    HW234665   2.882   3.666   9.470  0.0942  0.7315 -0.4113
 7678SOL     OW34666   2.186   1.255  13.479  0.1366  0.2711  0.0295
 7678SOL    HW134667   2.180   1.351  13.476 -0.5242  0.2246 -0.1784
 7678SOL    HW234668   2.162   1.246  13.571  0.9142 -1.1036  0.0853
 7679SOL     OW34669   1.886   2.531   7.890 -0.7006  0.0076 -0.3200
 7679SOL    HW134670   1.975   2.561   7.906 -1.4159  2.4379 -0.8568
 7679SOL    HW234671   1.841   2.594   7.946  1.3654  1.4656 -0.3207
 7680SOL     OW34672   4.176   2.879  12.001 -0.5852 -0.5885 -0.1804
 7680SOL    HW134673   4.096   2.930  11.988 -0.4931 -0.0656  1.3361
 7680SOL    HW234674   4.235   2.953  12.010 -0.5158 -0.5650 -0.7755
 7681SOL     OW34675   0.848   3.516   0.150  0.2708 -0.6026  0.3163
 7681SOL    HW134676   0.824   3.583   0.087 -1.1867 -1.0515  0.3844
 7681SOL    HW234677   0.942   3.516   0.137  0.4453 -0.7881  1.5163
 7682SOL     OW34678   1.697   3.488   4.285 -0.0267 -0.2497  0.2300
 7682SOL    HW134679   1.673   3.581   4.285 -1.4652 -0.6161  0.7570
 7682SOL    HW234680   1.787   3.492   4.317  0.1776  0.9951 -0.4609
 7683SOL     OW34681   1.767   2.995   6.614  0.2008  0.4105  0.7327
 7683SOL    HW134682   1.706   3.037   6.554 -2.7946  0.4296  3.7439
 7683SOL    HW234683   1.817   3.072   6.642  1.7347  0.0461 -1.0258
 7684SOL     OW34684   0.310   4.614   4.025 -0.6607 -0.0690  0.2523
 7684SOL    HW134685   0.368   4.680   4.062 -1.0960  0.8021 -0.6152
 7684SOL    HW234686   0.345   4.531   4.058 -0.9023 -0.5988 -0.8159
 7685SOL     OW34687   3.537   4.315   1.087 -0.4331  0.7151  0.0022
 7685SOL    HW134688   3.518   4.228   1.052  1.4425  0.0922  0.5220
 7685SOL    HW234689   3.572   4.286   1.171  0.4907  3.2485  0.4779
 7686SOL     OW34690   0.017   3.433   5.772 -0.0340 -1.0092 -0.4900
 7686SOL    HW134691   0.019   3.353   5.826 -0.0580  0.6841  2.0309
 7686SOL    HW234692   0.110   3.451   5.788 -0.1894  1.3582 -2.2969
 7687SOL     OW34693   2.087   3.944   5.108  0.3556  0.2193  0.2606
 7687SOL    HW134694   2.146   4.018   5.125  1.4469 -0.4786 -0.4844
 7687SOL    HW234695   2.082   3.950   5.012  0.9029  1.8009  0.3248
 7688SOL     OW34696   1.777   4.373   4.688  0.2278  0.9709  0.2622
 7688SOL    HW134697   1.809   4.284   4.680  4.4580  2.3504  2.2857
 7688SOL    HW234698   1.747   4.377   4.778 -0.2211 -0.6956  0.1921
 7689SOL     OW34699   4.610   0.443   0.707 -0.1462 -0.3445 -0.2051
 7689SOL    HW134700   4.623   0.473   0.617  1.9745  1.4097  0.6944
 7689SOL    HW234701   4.567   0.523   0.735  1.7756  0.2936  0.8784
 7690SOL     OW34702   1.674   3.361  17.004  0.1551 -0.6200  0.4023
 7690SOL    HW134703   1.691   3.332  16.914  2.2864  0.1292  0.5682
 7690SOL    HW234704   1.579   3.359  17.015  0.0904 -0.7617 -0.1603
 7691SOL     OW34705   1.016   0.410   8.919 -0.0279 -0.1703  0.1280
 7691SOL    HW134706   1.096   0.357   8.911 -0.1782 -0.7076  2.2349
 7691SOL    HW234707   1.015   0.454   8.834 -0.5555 -0.3046  0.0638
 7692SOL     OW34708   1.109   1.445   5.813 -0.0419 -0.2075  0.3525
 7692SOL    HW134709   1.016   1.453   5.794  0.0150  0.0983  0.2044
 7692SOL    HW234710   1.137   1.355   5.796 -1.4021 -0.1794 -1.9109
 7693SOL     OW34711   3.903   3.958  16.956 -0.5675  0.1031 -0.2719
 7693SOL    HW134712   3.870   3.879  16.914  0.2070 -0.0832 -0.5181
 7693SOL    HW234713   3.819   3.992  16.988 -0.2338  2.3697 -1.8105
 7694SOL     OW34714   1.211   0.901   5.721  0.1309 -0.1494  0.1853
 7694SOL    HW134715   1.124   0.864   5.739  0.5943 -1.6082 -0.6018
 7694SOL    HW234716   1.257   0.862   5.795  1.0251 -0.0895 -0.3447
 7695SOL     OW34717   2.230   1.061   7.386  0.1374  0.0023  0.1542
 7695SOL    HW134718   2.147   1.095   7.420 -0.6594  0.1691 -1.9811
 7695SOL    HW234719   2.202   1.038   7.298  0.5966  3.2483 -0.8285
 7696SOL     OW34720   2.697   3.464   5.934  0.0543 -0.5203  0.0847
 7696SOL    HW134721   2.659   3.377   5.920  0.4081 -0.6137 -0.3188
 7696SOL    HW234722   2.790   3.446   5.919  0.0434 -1.1907  0.8358
 7697SOL     OW34723   3.959   1.758   1.648  0.1385 -0.2303  0.1155
 7697SOL    HW134724   3.950   1.768   1.554 -2.3060 -3.1420  0.0425
 7697SOL    HW234725   3.894   1.813   1.692 -0.9394 -0.6819 -0.9210
 7698SOL     OW34726   3.768   4.535  13.026 -0.3243  0.1940 -1.1733
 7698SOL    HW134727   3.769   4.451  12.980  0.0957  0.1190 -1.0248
 7698SOL    HW234728   3.780   4.599  12.956  2.0147 -1.0609 -1.8998
 7699SOL     OW34729   3.317   3.664  13.123  0.1021 -0.1134 -0.2255
 7699SOL    HW134730   3.244   3.718  13.155 -1.0042 -1.6260 -0.1665
 7699SOL    HW234731   3.275   3.579  13.134  0.6265 -0.4321 -0.7095
 7700SOL     OW34732   1.145   2.395   4.283  0.1683  0.1113 -0.0654
 7700SOL    HW134733   1.235   2.424   4.271 -0.0583  0.9136  0.1398
 7700SOL    HW234734   1.102   2.477   4.307 -0.7104 -0.3468 -0.0746
 7701SOL     OW34735   2.454   4.661  15.914  0.1353 -0.3954 -0.4625
 7701SOL    HW134736   2.502   0.001  15.955 -1.9805  2.1961 -2.5896
 7701SOL    HW234737   2.478   4.660  15.821  0.3757  0.1931 -0.4061
 7702SOL     OW34738   0.034   3.806   3.354 -0.2500 -0.0885  0.5744
 7702SOL    HW134739   0.062   3.719   3.383  0.7751 -0.6095 -2.0834
 7702SOL    HW234740   0.108   3.863   3.372 -1.4072  1.2820  1.0274
 7703SOL     OW34741   4.078   3.724   5.243 -0.3946  0.5372  0.7379
 7703SOL    HW134742   4.113   3.809   5.266 -0.4560  0.9528 -0.7112
 7703SOL    HW234743   4.163   3.681   5.234  0.3123  1.7842  1.4544
 7704SOL     OW34744   1.645   3.549  14.614  0.1109  0.1905 -0.1851
 7704SOL    HW134745   1.563   3.593  14.637  0.1529  0.6823 -0.9611
 7704SOL    HW234746   1.682   3.530  14.700 -0.2210  1.5803  0.2634
 7705SOL     OW34747   1.096   4.350   3.465  0.4349 -0.3484  0.1873
 7705SOL    HW134748   1.111   4.380   3.375 -1.5766  0.7495  0.2171
 7705SOL    HW234749   1.097   4.434   3.510  1.3991  0.1628 -0.7939
 7706SOL     OW34750   2.111   0.957   3.867 -0.2734  0.3319  0.3246
 7706SOL    HW134751   2.092   1.050   3.855  2.3591  0.7927 -0.2728
 7706SOL    HW234752   2.025   0.917   3.882 -0.2816  0.5621  0.9027
 7707SOL     OW34753   3.538   4.175   1.360 -0.3155  0.3851  0.0097
 7707SOL    HW134754   3.504   4.086   1.373  0.0495  0.4775  1.6206
 7707SOL    HW234755   3.465   4.232   1.382  2.2081  2.8038  2.1109
 7708SOL     OW34756   3.617   1.275  16.004  0.6261 -0.3658  0.2338
 7708SOL    HW134757   3.594   1.327  16.080  0.1781 -1.6980  1.0181
 7708SOL    HW234758   3.634   1.191  16.046  1.2808 -0.2425  0.2033
 7709SOL     OW34759   2.166   2.384  12.812 -0.3774  0.2656  0.2069
 7709SOL    HW134760   2.177   2.296  12.775 -1.9437 -0.7690  2.1980
 7709SOL    HW234761   2.079   2.378  12.852 -0.2395  1.3277  0.6658
 7710SOL     OW34762   2.883   4.443  13.582  0.1135 -0.0277  0.3563
 7710SOL    HW134763   2.922   4.454  13.669 -1.5677 -1.7350  1.3137
 7710SOL    HW234764   2.894   4.537  13.566 -0.6530  0.0303  0.1676
 7711SOL     OW34765   4.100   4.327   5.763  0.0981 -0.7301 -0.1218
 7711SOL    HW134766   4.039   4.346   5.834 -1.4257 -2.9657 -0.8768
 7711SOL    HW234767   4.049   4.276   5.701 -1.9181  1.0758  0.0449
 7712SOL     OW34768   2.426   1.455   4.640 -0.0378  0.3317 -0.8883
 7712SOL    HW134769   2.490   1.401   4.594 -0.0964 -2.7207  2.5849
 7712SOL    HW234770   2.475   1.535   4.622 -0.1049  0.1841 -1.7201
 7713SOL     OW34771   3.494   3.617   6.187  0.0677 -0.0366 -0.6835
 7713SOL    HW134772   3.433   3.608   6.260  0.7354  0.6733 -0.0504
 7713SOL    HW234773   3.493   3.528   6.152  1.3882 -0.3326  0.0490
 7714SOL     OW34774   3.383   0.507   5.207 -0.2656 -0.2752 -0.5868
 7714SOL    HW134775   3.389   0.413   5.193 -1.7193 -0.4467 -0.0379
 7714SOL    HW234776   3.290   0.508   5.229  0.4442  0.2668  2.3623
 7715SOL     OW34777   3.463   3.469  10.903 -0.0729 -0.4846  0.6541
 7715SOL    HW134778   3.465   3.378  10.933 -1.4819 -0.6370  0.2833
 7715SOL    HW234779   3.428   3.521  10.975  0.5006 -0.7522  1.1222
 7716SOL     OW34780   0.654   1.598   4.621 -0.6453  0.3689 -0.3353
 7716SOL    HW134781   0.707   1.653   4.563  0.1133 -0.0356 -0.0153
 7716SOL    HW234782   0.614   1.672   4.668 -0.1528  0.9217 -0.7782
 7717SOL     OW34783   2.404   3.736   4.679 -0.2425  0.7913  0.0069
 7717SOL    HW134784   2.344   3.764   4.610 -3.2755 -0.3245  2.1900
 7717SOL    HW234785   2.489   3.728   4.637 -0.4416  0.9851 -0.4368
 7718SOL     OW34786   2.209   4.106   5.722 -0.1052 -0.0677  0.0283
 7718SOL    HW134787   2.183   4.190   5.685 -0.6969  0.1669  0.9867
 7718SOL    HW234788   2.212   4.050   5.644  0.5743 -0.0437  0.0365
 7719SOL     OW34789   1.150   3.900   6.182 -0.2128 -0.2976  0.3275
 7719SOL    HW134790   1.170   3.903   6.089  0.9072  3.7505  0.7269
 7719SOL    HW234791   1.235   3.887   6.225  0.5928 -1.3004 -1.5380
 7720SOL     OW34792   0.672   1.143   1.081 -0.1797 -0.0789  0.2607
 7720SOL    HW134793   0.740   1.077   1.070 -0.2367 -0.1557  0.3669
 7720SOL    HW234794   0.685   1.167   1.173  0.5649  0.9878 -0.1284
 7721SOL     OW34795   3.315   2.729   7.537  0.0605  0.2274 -0.1932
 7721SOL    HW134796   3.246   2.676   7.497  1.1064 -2.0779  1.0678
 7721SOL    HW234797   3.260   2.804   7.558 -1.8991 -0.5983 -2.3045
 7722SOL     OW34798   2.988   2.716   6.619 -0.0214 -0.2005 -0.0965
 7722SOL    HW134799   2.959   2.771   6.547 -2.0422 -0.0595  0.8314
 7722SOL    HW234800   2.943   2.636   6.592 -0.4135  0.1562 -0.4987
 7723SOL     OW34801   1.991   3.818  13.221 -0.3693 -0.2806 -0.2668
 7723SOL    HW134802   1.956   3.783  13.139 -1.7030 -0.0326  0.2008
 7723SOL    HW234803   1.990   3.912  13.204 -0.1034 -0.1843  0.2573
 7724SOL     OW34804   3.344   1.639  15.000  0.1409 -0.1264  0.4914
 7724SOL    HW134805   3.301   1.560  15.032  1.5179 -1.5267 -1.1275
 7724SOL    HW234806   3.276   1.673  14.942  0.1548  0.6033  0.9047
 7725SOL     OW34807   2.091   3.753  16.990  0.7779  0.0195  0.3004
 7725SOL    HW134808   2.055   3.683  16.936 -1.8575  0.6672  1.2066
 7725SOL    HW234809   2.079   3.720  17.079 -2.7026 -1.5656 -0.7818
 7726SOL     OW34810   0.660   1.453  11.075 -0.5920  0.0621  0.3752
 7726SOL    HW134811   0.677   1.375  11.127 -0.0088  0.8501  1.3634
 7726SOL    HW234812   0.580   1.486  11.116 -1.8747 -1.8837 -0.5502
 7727SOL     OW34813   4.072   0.809   8.614 -0.5905 -0.7483 -0.1048
 7727SOL    HW134814   4.122   0.729   8.631  2.0842  0.4443 -2.3164
 7727SOL    HW234815   4.023   0.825   8.695 -0.2672 -3.2800  0.5939
 7728SOL     OW34816   0.584   4.090  12.135  0.2852  0.0706 -0.0843
 7728SOL    HW134817   0.663   4.101  12.082  1.5559 -0.3744  1.7175
 7728SOL    HW234818   0.598   4.170  12.185 -1.5088 -0.5300  1.4007
 7729SOL     OW34819   0.674   2.107   3.977  0.1498  0.3591 -0.3534
 7729SOL    HW134820   0.586   2.126   3.945 -0.8142 -2.1857  0.8332
 7729SOL    HW234821   0.657   2.077   4.067  2.1701 -1.6049 -0.6411
 7730SOL     OW34822   0.499   4.525   7.323 -0.4745  0.3708  0.2029
 7730SOL    HW134823   0.440   4.450   7.321  1.7882 -1.4581  2.3125
 7730SOL    HW234824   0.497   4.560   7.234 -2.0208  1.3989  0.6380
 7731SOL     OW34825   4.572   3.253  12.107 -0.4767  0.0138  0.3585
 7731SOL    HW134826   4.625   3.212  12.174 -1.2399 -1.4352  0.0792
 7731SOL    HW234827   4.545   3.331  12.156 -2.3456  1.4279 -2.8524
 7732SOL     OW34828   3.869   3.393  15.392  1.0757 -0.0993  0.0030
 7732SOL    HW134829   3.857   3.391  15.297  2.5034 -0.5692 -0.1781
 7732SOL    HW234830   3.820   3.317  15.422  0.1528  0.1971 -0.7489
 7733SOL     OW34831   2.120   1.439   5.172 -0.3796 -0.5620 -0.2850
 7733SOL    HW134832   2.048   1.388   5.208  2.4486 -2.1425  3.1127
 7733SOL    HW234833   2.089   1.459   5.084  0.6152 -1.6218 -0.8635
 7734SOL     OW34834   4.611   1.412   5.846 -0.1477  0.1371 -0.2548
 7734SOL    HW134835   4.570   1.331   5.879  0.2202 -0.4975 -1.3422
 7734SOL    HW234836   4.694   1.373   5.819  0.0626 -0.7958  1.6771
 7735SOL     OW34837   0.431   0.707   5.426  1.0999  0.5796  0.6994
 7735SOL    HW134838   0.420   0.685   5.519 -1.8606 -0.6853  0.0597
 7735SOL    HW234839   0.368   0.649   5.384  1.4600  0.1727  0.7194
 7736SOL     OW34840   4.204   3.590   1.070 -0.1213  0.3018 -0.0515
 7736SOL    HW134841   4.259   3.594   1.148  2.8814 -2.2764 -2.0591
 7736SOL    HW234842   4.177   3.499   1.082 -0.2963  0.1670 -1.4657
 7737SOL     OW34843   3.806   1.176   8.051 -0.2473  0.6080 -0.7562
 7737SOL    HW134844   3.890   1.214   8.028 -0.0485 -0.5489 -1.9546
 7737SOL    HW234845   3.789   1.225   8.131 -1.5478 -1.9043  0.4988
 7738SOL     OW34846   3.311   4.665   7.739  0.3543 -0.1109 -0.3695
 7738SOL    HW134847   3.242   4.674   7.805 -0.9428 -1.2570 -1.5761
 7738SOL    HW234848   3.270   4.609   7.673  0.0925 -0.8746  0.4438
 7739SOL     OW34849   4.167   1.978  14.514  0.1455 -0.4583 -0.5261
 7739SOL    HW134850   4.131   1.904  14.563 -0.2949 -1.1018 -1.8022
 7739SOL    HW234851   4.228   2.011  14.580 -2.2949  1.5174  0.7419
 7740SOL     OW34852   0.480   4.535   5.946  0.0442 -0.0953 -0.1897
 7740SOL    HW134853   0.501   4.602   5.881  3.2063 -1.2341 -0.3468
 7740SOL    HW234854   0.436   4.466   5.896 -1.0655 -1.3957  2.5854
 7741SOL     OW34855   0.807   1.721   3.787 -0.0066  0.1243 -0.1741
 7741SOL    HW134856   0.717   1.747   3.807  0.0189  0.2372 -0.2061
 7741SOL    HW234857   0.849   1.720   3.873 -1.0017  1.7522  0.3344
 7742SOL     OW34858   0.810   0.147   1.278  0.1152  0.4489  0.8752
 7742SOL    HW134859   0.796   0.052   1.274 -0.8706  0.6479 -0.7495
 7742SOL    HW234860   0.881   0.147   1.214 -0.3900 -0.3317  0.3057
 7743SOL     OW34861   0.466   4.366   2.467  0.2905  0.1477 -0.2288
 7743SOL    HW134862   0.448   4.460   2.473  1.6516  0.2673  1.9253
 7743SOL    HW234863   0.404   4.340   2.535  2.7475  1.7719  2.6358
 7744SOL     OW34864   0.969   2.479   5.984 -0.5631  0.2884  0.6232
 7744SOL    HW134865   0.915   2.555   5.962 -0.8829 -0.6838 -1.9023
 7744SOL    HW234866   1.025   2.522   6.049  0.9669  0.2893 -0.6955
 7745SOL     OW34867   3.593   4.194   5.859  0.1240  0.2179  0.4686
 7745SOL    HW134868   3.610   4.285   5.880 -1.3231  0.3654  0.9792
 7745SOL    HW234869   3.536   4.176   5.933 -1.9428 -0.5327 -1.3217
 7746SOL     OW34870   0.031   1.393   8.189  0.3611 -0.1411 -0.2801
 7746SOL    HW134871   0.014   1.360   8.278  0.6408 -0.6377 -0.4165
 7746SOL    HW234872   4.688   1.351   8.148 -1.3062  1.5806  0.9445
 7747SOL     OW34873   0.266   4.477  11.765 -0.0040 -0.4645 -0.8226
 7747SOL    HW134874   0.346   4.432  11.741  0.0228 -1.1185  0.4732
 7747SOL    HW234875   0.218   4.433  11.836  1.1057 -0.8291 -0.2998
 7748SOL     OW34876   2.004   4.063   7.268  0.3925 -0.4357  0.0979
 7748SOL    HW134877   2.038   4.087   7.354  1.4865  4.7068 -1.7874
 7748SOL    HW234878   1.930   4.006   7.292 -1.3223  0.7286 -2.4648
 7749SOL     OW34879   3.107   0.119   9.305  0.4774  0.5266 -0.4773
 7749SOL    HW134880   3.023   0.072   9.304  1.0166 -0.3790 -2.0326
 7749SOL    HW234881   3.115   0.114   9.401  1.4600  1.3442 -0.5188
 7750SOL     OW34882   1.702   3.319  12.573 -0.3855 -0.1830  0.5591
 7750SOL    HW134883   1.642   3.255  12.611 -0.8040 -0.3827 -0.4354
 7750SOL    HW234884   1.778   3.328  12.631  0.0411 -5.0241  0.7561
 7751SOL     OW34885   4.248   3.737  13.083  0.2390 -0.1647  1.2131
 7751SOL    HW134886   4.338   3.722  13.057 -0.2994  1.7680 -1.7711
 7751SOL    HW234887   4.225   3.819  13.039  1.9410 -1.2276 -1.6303
 7752SOL     OW34888   2.591   3.964   6.677  0.2603  0.0977 -0.5493
 7752SOL    HW134889   2.538   3.946   6.755  2.1309 -3.0217 -0.0110
 7752SOL    HW234890   2.526   3.936   6.612 -0.4140  0.0310  0.1486
 7753SOL     OW34891   0.942   0.318   2.831 -0.4857  0.2272 -0.8219
 7753SOL    HW134892   0.919   0.411   2.830  2.2081  0.9269  1.7154
 7753SOL    HW234893   1.004   0.308   2.904 -1.2352 -3.0550 -0.6502
 7754SOL     OW34894   3.670   1.217  12.585 -0.0540 -0.3131 -0.3065
 7754SOL    HW134895   3.656   1.171  12.502 -0.3801  1.2806 -1.1295
 7754SOL    HW234896   3.761   1.242  12.569 -0.7267  1.2045 -1.7835
 7755SOL     OW34897   0.751   0.066   4.464 -0.5633 -0.5209  0.2092
 7755SOL    HW134898   0.662   0.099   4.479 -0.8837 -1.4532  0.3422
 7755SOL    HW234899   0.747   4.715   4.511 -0.5287 -1.5023 -1.5122
 7756SOL     OW34900   0.454   1.506   2.393  0.1613 -0.1054  0.0228
 7756SOL    HW134901   0.380   1.459   2.355  0.4696 -0.3857 -0.2312
 7756SOL    HW234902   0.519   1.495   2.324 -0.1135  2.7795 -0.7207
 7757SOL     OW34903   3.247   3.930   5.343 -0.1687  0.2346  0.5058
 7757SOL    HW134904   3.298   3.936   5.263  1.9111  0.7793  1.8674
 7757SOL    HW234905   3.273   3.998   5.405 -0.2706  0.9663 -0.2576
 7758SOL     OW34906   1.441   3.682   0.349  0.1095  0.0072  0.0955
 7758SOL    HW134907   1.471   3.741   0.279 -1.0328 -0.5720 -0.8793
 7758SOL    HW234908   1.417   3.746   0.416  2.4176  0.4191  0.5079
 7759SOL     OW34909   3.276   2.451  10.388  0.1131 -0.5269  0.2120
 7759SOL    HW134910   3.364   2.484  10.402 -1.1339  2.2486  1.5615
 7759SOL    HW234911   3.233   2.494  10.463 -0.0078  1.6472 -1.1103
 7760SOL     OW34912   2.982   4.373   8.550  0.3890  0.9168  0.1984
 7760SOL    HW134913   3.019   4.288   8.529 -0.5552  0.6948 -0.5715
 7760SOL    HW234914   3.017   4.403   8.634  1.3437 -3.6949  1.4080
 7761SOL     OW34915   1.879   2.846  13.449  0.0580 -0.1180  0.2546
 7761SOL    HW134916   1.847   2.846  13.538 -1.1449  0.2356 -0.1833
 7761SOL    HW234917   1.970   2.876  13.455  0.3581 -0.1968 -3.4007
 7762SOL     OW34918   4.609   2.239   5.197 -0.0827 -0.2086 -0.7216
 7762SOL    HW134919   4.553   2.173   5.156 -0.2503  0.2322 -1.1916
 7762SOL    HW234920   4.538   2.296   5.228 -0.6784 -1.4155  0.1564
 7763SOL     OW34921   1.634   0.595   8.672  0.3722 -0.5389  0.5414
 7763SOL    HW134922   1.703   0.596   8.738 -0.5883 -0.5150  1.5417
 7763SOL    HW234923   1.563   0.616   8.732 -0.1412  2.6945 -1.2159
 7764SOL     OW34924   1.462   2.129  17.183  0.1380  0.1075 -0.7855
 7764SOL    HW134925   1.463   2.097  17.093  0.6174 -1.1973 -0.3082
 7764SOL    HW234926   1.464   2.224  17.170 -2.1436  0.5151  1.7061
 7765SOL     OW34927   4.108   4.671  16.993 -0.1891  0.4579 -0.2692
 7765SOL    HW134928   4.021   4.709  16.981 -0.3227  0.3318  0.2999
 7765SOL    HW234929   4.105   4.589  17.041  2.0156  0.9590  0.7505
 7766SOL     OW34930   1.533   2.105   4.407  0.1139 -0.1421 -0.3191
 7766SOL    HW134931   1.584   2.029   4.380 -2.8045 -2.7135  1.4568
 7766SOL    HW234932   1.447   2.064   4.410  0.6179 -1.0515  1.2192
 7767SOL     OW34933   4.232   2.150   7.844  0.0252 -0.5880  0.2420
 7767SOL    HW134934   4.282   2.205   7.905  1.2295  0.5544 -1.7442
 7767SOL    HW234935   4.304   2.132   7.783 -0.1608 -2.8471  0.6926
 7768SOL     OW34936   1.427   3.987   4.362 -0.1609  0.0652 -0.3446
 7768SOL    HW134937   1.372   3.917   4.327  1.3462 -1.6385  0.7243
 7768SOL    HW234938   1.468   4.021   4.282 -0.9243  0.4292 -0.5845
 7769SOL     OW34939   1.407   4.407   6.851  0.3550 -1.1654  0.6929
 7769SOL    HW134940   1.344   4.455   6.798  2.5469  0.2790 -0.5821
 7769SOL    HW234941   1.380   4.430   6.940  2.6283 -0.9377  1.3113
 7770SOL     OW34942   3.510   2.337  11.546  0.0765  0.3230 -0.6543
 7770SOL    HW134943   3.417   2.340  11.567  0.2040  0.2098 -0.0878
 7770SOL    HW234944   3.549   2.381  11.621  2.3230 -2.6315 -0.0766
 7771SOL     OW34945   2.704   2.950   6.953 -0.7044  0.4010 -0.6177
 7771SOL    HW134946   2.773   2.911   6.900 -1.8775 -2.6294  0.0900
 7771SOL    HW234947   2.674   3.008   6.884 -0.8620 -0.1523 -1.0169
 7772SOL     OW34948   1.861   3.338   5.420 -0.8660 -0.0725 -0.4035
 7772SOL    HW134949   1.831   3.339   5.511  0.5943 -1.2735  0.0869
 7772SOL    HW234950   1.870   3.244   5.408  0.8737  0.1362 -0.6781
 7773SOL     OW34951   1.695   3.384   2.051  0.5022  0.3681  0.1970
 7773SOL    HW134952   1.724   3.475   2.042 -0.5468  0.7066  0.3054
 7773SOL    HW234953   1.752   3.348   2.120 -2.7903  0.1657  2.8059
 7774SOL     OW34954   4.644   0.765  17.722  0.1815 -0.4624  0.2740
 7774SOL    HW134955   4.604   0.784  17.638 -0.2948  0.6757  0.7482
 7774SOL    HW234956   0.001   0.749  17.690  0.5393  0.8409  0.6075
 7775SOL     OW34957   0.405   4.713   3.490  0.0033 -0.2496 -0.4422
 7775SOL    HW134958   0.323   0.016   3.452 -0.4771 -2.8573 -1.7960
 7775SOL    HW234959   0.391   4.722   3.584  2.4034 -0.0916 -0.1153
 7776SOL     OW34960   0.801   1.864  12.762  0.1215 -0.1554  0.3133
 7776SOL    HW134961   0.795   1.794  12.698  0.1281 -0.9139  1.1533
 7776SOL    HW234962   0.723   1.863  12.818 -0.0165  0.3734  0.1329
 7777SOL     OW34963   1.405   2.716   7.991 -0.2075  0.2684  0.1366
 7777SOL    HW134964   1.350   2.674   8.058 -0.1347  1.6686  1.0694
 7777SOL    HW234965   1.415   2.643   7.930  0.5492  0.9315 -0.5368
 7778SOL     OW34966   1.340   0.314  14.540 -0.0961  0.2721 -0.5823
 7778SOL    HW134967   1.249   0.331  14.562 -0.3610 -2.1513  0.2557
 7778SOL    HW234968   1.345   0.346  14.450  1.6172  3.3721  0.6065
 7779SOL     OW34969   4.402   1.118   1.563  0.8370 -0.5818  0.4161
 7779SOL    HW134970   4.353   1.039   1.541 -1.1872  0.0270  2.7223
 7779SOL    HW234971   4.375   1.120   1.655 -0.7905 -1.3048 -0.0390
 7780SOL     OW34972   4.163   0.445  10.512  0.0204 -0.5179  0.0349
 7780SOL    HW134973   4.095   0.466  10.576 -0.5518 -1.7442 -0.1691
 7780SOL    HW234974   4.212   0.378  10.560 -0.3356 -0.1532  0.8972
 7781SOL     OW34975   0.961   0.904   6.502 -0.2631 -0.7479  0.0541
 7781SOL    HW134976   0.893   0.927   6.564  0.3957 -0.4689  0.6719
 7781SOL    HW234977   0.946   0.814   6.474  3.1077 -0.7530 -1.7857
 7782SOL     OW34978   0.151   2.908   8.070  0.4786 -0.0213  0.1411
 7782SOL    HW134979   0.077   2.853   8.096  1.1011 -1.3076 -0.7845
 7782SOL    HW234980   0.168   2.862   7.988 -0.1517 -1.0173  0.5703
 7783SOL     OW34981   0.374   3.217   4.261 -0.2124 -0.1434 -0.1074
 7783SOL    HW134982   0.337   3.265   4.335 -0.2797  2.0897 -1.5927
 7783SOL    HW234983   0.321   3.248   4.188  0.8614 -0.3473 -0.9710
 7784SOL     OW34984   4.099   3.547   1.362 -0.0514  0.2037 -0.3144
 7784SOL    HW134985   4.088   3.516   1.452  2.3471  0.6696  0.1396
 7784SOL    HW234986   4.185   3.519   1.333 -0.0569 -0.5472  0.3951
 7785SOL     OW34987   0.490   3.950   8.601 -1.0149  0.2748 -0.2025
 7785SOL    HW134988   0.510   3.863   8.635 -2.2824  0.3741  0.8260
 7785SOL    HW234989   0.419   3.929   8.540 -0.0233 -1.3604 -0.7736
 7786SOL     OW34990   3.620   4.476   5.779  0.3308  0.2883  0.2076
 7786SOL    HW134991   3.643   4.555   5.828 -0.5109 -1.2216  3.0397
 7786SOL    HW234992   3.641   4.503   5.690  1.5218 -0.9732  0.1129
 7787SOL     OW34993   3.271   1.897   5.004 -0.5032  0.5017 -0.1769
 7787SOL    HW134994   3.308   1.984   4.988 -2.2053  1.0180 -1.2866
 7787SOL    HW234995   3.185   1.904   5.045  0.4733 -0.9258  2.1219
 7788SOL     OW34996   0.442   2.174   0.129  0.1592 -0.2909 -0.2549
 7788SOL    HW134997   0.482   2.129   0.203  0.2660  2.1409  1.1343
 7788SOL    HW234998   0.373   2.220   0.176 -0.9404 -0.3105 -1.8465
 7789SOL     OW34999   4.679   3.753  11.852 -0.4534  0.0405 -0.4489
 7789SOL    HW135000   0.032   3.778  11.816 -0.4760 -1.8329 -1.8114
 7789SOL    HW235001   4.678   3.660  11.828  1.6952 -0.6010  2.0309
 7790SOL     OW35002   0.623   1.977   5.986  0.2950  0.8237  0.3899
 7790SOL    HW135003   0.563   1.905   6.005 -0.2112  0.7935 -1.3444
 7790SOL    HW235004   0.594   2.046   6.046 -4.2232 -0.3134 -0.4432
 7791SOL     OW35005   3.974   0.275   2.006  0.2816  0.3934  0.2424
 7791SOL    HW135006   3.940   0.224   1.932  0.2894  0.9630 -0.1576
 7791SOL    HW235007   3.980   0.352   1.950 -1.7000 -0.0659 -0.5995
 7792SOL     OW35008   0.596   0.981   7.751  0.1380  0.0286 -0.4739
 7792SOL    HW135009   0.635   0.999   7.666  1.5600 -0.2435  0.1284
 7792SOL    HW235010   0.675   0.962   7.802  0.3384  4.5609  0.8178
 7793SOL     OW35011   1.195   0.571   4.183  0.0013  0.5930  0.3722
 7793SOL    HW135012   1.243   0.508   4.238  0.0368 -0.1733 -0.5379
 7793SOL    HW235013   1.255   0.569   4.109  0.7798 -1.6934  1.0453
 7794SOL     OW35014   0.906   0.801   8.580  0.0305 -0.0964 -0.3726
 7794SOL    HW135015   0.855   0.859   8.524  1.4652  1.0461 -0.4813
 7794SOL    HW235016   0.992   0.804   8.538 -0.5811  0.8888 -1.5654
 7795SOL     OW35017   4.624   4.426   7.210 -0.0168 -0.5661  0.5709
 7795SOL    HW135018   4.531   4.448   7.220  0.5350  2.3693 -0.5433
 7795SOL    HW235019   4.626   4.394   7.120 -1.1609 -0.2860  0.4402
 7796SOL     OW35020   0.211   3.444   3.400 -0.1008  0.3476  0.1582
 7796SOL    HW135021   0.296   3.401   3.394 -1.0391 -1.6073  0.9037
 7796SOL    HW235022   0.159   3.365   3.386  0.4669 -0.0563  0.3312
 7797SOL     OW35023   3.522   2.991   9.097  0.0162  0.1381 -0.3009
 7797SOL    HW135024   3.588   2.922   9.104 -0.8306 -0.6513 -0.1101
 7797SOL    HW235025   3.482   2.985   9.184 -0.4123  0.1708 -0.5008
 7798SOL     OW35026   1.766   0.962   8.760 -0.6903  0.5136  0.3264
 7798SOL    HW135027   1.671   0.969   8.750 -0.5820 -0.0609 -1.1423
 7798SOL    HW235028   1.776   0.894   8.827 -0.0733 -0.5702 -0.8717
 7799SOL     OW35029   4.062   4.529   7.109 -0.0026  0.3612 -0.1676
 7799SOL    HW135030   4.048   4.468   7.181  1.3220 -0.1714 -0.3599
 7799SOL    HW235031   4.028   4.612   7.142  1.7966  1.4412 -1.0216
 7800SOL     OW35032   2.424   4.714  12.854 -0.3737  0.4889  0.5658
 7800SOL    HW135033   2.493   0.040  12.821  0.0489 -0.2430  0.1676
 7800SOL    HW235034   2.398   0.041  12.925  0.5588  0.7038  0.7271
 7801SOL     OW35035   3.546   3.347  10.111 -0.0094 -0.1591  0.5157
 7801SOL    HW135036   3.500   3.264  10.121  1.3750 -1.0546 -0.5636
 7801SOL    HW235037   3.568   3.357  10.018  0.4799  1.0824  0.7615
 7802SOL     OW35038   2.115   4.010  12.963 -0.0464  0.4281  0.1307
 7802SOL    HW135039   2.031   3.977  12.996  0.6649 -0.6314  0.8897
 7802SOL    HW235040   2.142   4.067  13.035 -0.6809 -0.0015  0.7170
 7803SOL     OW35041   0.402   0.615  17.302  0.3937 -0.2000  0.0765
 7803SOL    HW135042   0.427   0.532  17.345 -1.0845 -0.2322  0.8536
 7803SOL    HW235043   0.307   0.620  17.313  0.2603 -1.6359 -0.4054
 7804SOL     OW35044   3.706   0.546   8.598 -0.1739 -0.0043  0.1489
 7804SOL    HW135045   3.716   0.556   8.693  1.2367 -0.0311  0.0104
 7804SOL    HW235046   3.647   0.471   8.599  0.7769 -0.7956 -2.1591
 7805SOL     OW35047   1.300   0.805   0.845 -0.2165 -0.0817  0.3562
 7805SOL    HW135048   1.350   0.736   0.889  0.5890  2.6534  3.6635
 7805SOL    HW235049   1.358   0.834   0.775 -0.2754  0.2678  0.4562
 7806SOL     OW35050   0.312   0.898   8.580  0.1107  0.0705  0.2719
 7806SOL    HW135051   0.286   0.954   8.507  0.9365  0.0926 -0.0063
 7806SOL    HW235052   0.249   0.922   8.648  0.2592 -0.4751  0.5935
 7807SOL     OW35053   0.834   2.391   5.637 -0.4188  0.5213 -0.2167
 7807SOL    HW135054   0.834   2.358   5.727  0.4985 -0.7000 -0.6462
 7807SOL    HW235055   0.747   2.360   5.613 -0.7675  1.6718 -0.3944
 7808SOL     OW35056   4.476   1.755   2.624  1.0236 -0.2200 -0.3326
 7808SOL    HW135057   4.524   1.737   2.704 -1.4063 -2.2856  0.6603
 7808SOL    HW235058   4.400   1.808   2.648  0.7338 -0.4108 -0.8177
 7809SOL     OW35059   2.292   3.970   3.677  0.0209  0.1611 -0.4572
 7809SOL    HW135060   2.354   3.986   3.747  0.1654  0.3026 -0.6169
 7809SOL    HW235061   2.273   3.880   3.703  0.8750  0.1828  0.2334
 7810SOL     OW35062   1.550   0.541   4.650 -0.1669 -0.1295  0.2743
 7810SOL    HW135063   1.545   0.620   4.705 -0.0791 -0.8745  1.3584
 7810SOL    HW235064   1.454   0.536   4.656 -0.3604  2.2948 -0.7995
 7811SOL     OW35065   3.893   3.783   1.990 -0.4074 -0.5521 -0.1652
 7811SOL    HW135066   3.889   3.837   2.069  0.1819 -0.3166 -0.2890
 7811SOL    HW235067   3.952   3.836   1.935  1.3255  0.5532  2.7539
 7812SOL     OW35068   2.285   4.104  14.529 -0.3962  0.2290  0.0652
 7812SOL    HW135069   2.240   4.116  14.445  3.6481 -1.3206 -2.3276
 7812SOL    HW235070   2.299   4.195  14.552 -0.9196  0.4030 -0.2906
 7813SOL     OW35071   4.577   4.597   9.397  0.1799 -0.4281  0.1222
 7813SOL    HW135072   4.611   4.683   9.373 -1.4285 -0.0496 -0.8071
 7813SOL    HW235073   4.631   4.584   9.475 -2.8784 -3.6251  1.6796
 7814SOL     OW35074   2.563   0.388   7.830 -0.0633  0.0665 -0.5002
 7814SOL    HW135075   2.650   0.355   7.851  0.4666 -0.3580 -3.3297
 7814SOL    HW235076   2.578   0.483   7.822  0.2119  0.0032 -0.7146
 7815SOL     OW35077   2.930   3.872   9.709 -0.3233  0.6338 -0.1304
 7815SOL    HW135078   2.993   3.942   9.692  1.4924 -1.3109 -1.4440
 7815SOL    HW235079   2.886   3.878   9.624 -0.0005 -0.0797 -0.3511
 7816SOL     OW35080   3.380   0.753   5.913 -0.1091  0.4280  0.0085
 7816SOL    HW135081   3.337   0.669   5.927 -0.5663  0.5438 -0.6866
 7816SOL    HW235082   3.320   0.811   5.960  1.3506  0.8601  1.3093
 7817SOL     OW35083   0.971   3.289   6.988  0.2920 -0.6518  0.4624
 7817SOL    HW135084   0.942   3.243   6.910 -0.5970 -1.3496  1.1977
 7817SOL    HW235085   0.894   3.291   7.045 -0.4993  1.3419 -0.6719
 7818SOL     OW35086   3.808   3.417   6.481 -0.3744  0.0661  0.1124
 7818SOL    HW135087   3.861   3.460   6.414 -0.3462 -0.5071 -0.2343
 7818SOL    HW235088   3.873   3.357   6.518  0.7688  0.2749 -1.5329
 7819SOL     OW35089   0.994   2.496  17.443  0.4418  0.2648 -0.4385
 7819SOL    HW135090   0.941   2.574  17.429  0.7845  0.3753 -1.1076
 7819SOL    HW235091   0.957   2.455  17.522 -0.0269  1.9785  0.2145
 7820SOL     OW35092   0.468   1.684   5.889 -0.4230 -0.3008 -0.0363
 7820SOL    HW135093   0.415   1.762   5.906 -1.0178  0.0303 -3.5507
 7820SOL    HW235094   0.400   1.625   5.855 -1.0413 -0.5590  1.6274
 7821SOL     OW35095   0.713   3.093  10.844 -0.0618 -0.0136 -0.0588
 7821SOL    HW135096   0.698   3.144  10.764  1.3360  0.6782  0.1171
 7821SOL    HW235097   0.800   3.126  10.866  0.0844 -0.5211  0.1239
 7822SOL     OW35098   2.149   1.050   9.813 -0.2689 -0.6590 -0.5850
 7822SOL    HW135099   2.172   1.093   9.895 -0.5959  0.3261 -1.0122
 7822SOL    HW235100   2.093   1.115   9.770  0.6998  0.3573 -0.2887
 7823SOL     OW35101   1.022   3.696  12.711  0.0426  0.3119  0.1280
 7823SOL    HW135102   0.997   3.769  12.768  0.3739 -0.9480  1.8886
 7823SOL    HW235103   1.088   3.735  12.654 -1.6088 -0.4969 -2.2966
 7824SOL     OW35104   4.693   2.531   1.610 -0.2782  0.6194 -0.7359
 7824SOL    HW135105   4.730   2.553   1.696 -1.4764 -1.1162  0.2251
 7824SOL    HW235106   4.659   2.443   1.629 -0.5872  0.7107 -0.8707
 7825SOL     OW35107   2.318   2.174  11.603  0.0332  0.0472 -0.1682
 7825SOL    HW135108   2.294   2.085  11.629  1.8782 -0.3318  0.2742
 7825SOL    HW235109   2.260   2.227  11.656 -0.7364  0.8324 -1.7878
 7826SOL     OW35110   0.472   4.009   9.964  0.2283  0.1778 -0.1251
 7826SOL    HW135111   0.477   3.940   9.898 -0.8490 -0.3382  0.3337
 7826SOL    HW235112   0.378   4.009   9.983  0.3176  1.3813  0.3191
 7827SOL     OW35113   2.358   3.067   2.473 -0.5037  0.4562  0.3292
 7827SOL    HW135114   2.269   3.077   2.441 -0.6955 -0.6475  0.5507
 7827SOL    HW235115   2.351   3.094   2.565  1.3909  2.3933 -0.0819
 7828SOL     OW35116   1.895   2.388   7.482 -0.0879 -0.4059  0.6007
 7828SOL    HW135117   1.841   2.430   7.414  2.3609  1.7488 -0.0260
 7828SOL    HW235118   1.830   2.403   7.550 -1.4188  0.8445 -0.9231
 7829SOL     OW35119   1.410   3.877  15.770  0.4525  0.6930 -0.7851
 7829SOL    HW135120   1.466   3.916  15.838  0.5032 -1.3281  0.3258
 7829SOL    HW235121   1.448   3.789  15.771  0.3842  0.6712  0.0514
 7830SOL     OW35122   2.903   2.604   0.812  0.2252  0.2859 -0.5579
 7830SOL    HW135123   2.870   2.529   0.861  1.9278  1.2102  1.9991
 7830SOL    HW235124   2.827   2.628   0.758  0.4745 -1.2555 -1.5879
 7831SOL     OW35125   0.995   4.141   8.169  0.1554  0.1576  0.4166
 7831SOL    HW135126   0.942   4.061   8.172  1.5690 -0.7184  1.8543
 7831SOL    HW235127   1.010   4.150   8.263 -2.1100 -2.7315  1.0598
 7832SOL     OW35128   0.704   3.371   7.089  0.3036 -0.1323 -0.1477
 7832SOL    HW135129   0.726   3.319   7.167  1.6850 -0.2933 -0.6470
 7832SOL    HW235130   0.640   3.430   7.128  0.3927 -0.8362  1.0702
 7833SOL     OW35131   3.906   2.565   4.227  0.3380 -0.0855 -0.1947
 7833SOL    HW135132   3.833   2.627   4.221  0.1247 -0.3133  0.0269
 7833SOL    HW235133   3.974   2.625   4.197 -2.0146  1.5244 -2.3103
 7834SOL     OW35134   0.334   2.608   6.698  0.6799 -0.2556 -0.2431
 7834SOL    HW135135   0.421   2.615   6.737  1.5884  1.5082 -2.6420
 7834SOL    HW235136   0.283   2.568   6.769  0.6765  1.9936  1.0247
 7835SOL     OW35137   2.522   3.052   3.799 -0.0550  0.5155  0.1573
 7835SOL    HW135138   2.599   3.064   3.855  0.0911  0.1173  0.0367
 7835SOL    HW235139   2.565   3.025   3.719  0.6919 -1.8760  1.3760
 7836SOL     OW35140   3.240   3.244   0.807 -0.3418  0.3365 -0.1705
 7836SOL    HW135141   3.229   3.309   0.876  1.6207 -0.3056  0.7363
 7836SOL    HW235142   3.288   3.172   0.848 -0.3659  1.2402  1.4430
 7837SOL     OW35143   1.649   2.953  13.597  0.4541 -0.5278  1.1959
 7837SOL    HW135144   1.586   3.025  13.608  1.2934  0.3819 -0.0348
 7837SOL    HW235145   1.584   2.885  13.577  0.1331 -0.5660  2.3637
 7838SOL     OW35146   3.547   0.821  16.286 -0.1175 -0.0555  0.0559
 7838SOL    HW135147   3.641   0.838  16.287  0.0841 -1.2646  1.9773
 7838SOL    HW235148   3.521   0.906  16.322 -0.3531 -0.3301  0.5281
 7839SOL     OW35149   3.256   0.419   7.877 -0.7155 -0.0181 -0.0104
 7839SOL    HW135150   3.176   0.373   7.901 -1.4638  0.1769 -2.1291
 7839SOL    HW235151   3.324   0.381   7.933  0.5610  0.4280 -1.2356
 7840SOL     OW35152   3.880   2.610  11.785  0.5794 -0.4606  0.2672
 7840SOL    HW135153   3.792   2.594  11.752 -0.3171  2.8279  1.0200
 7840SOL    HW235154   3.931   2.542  11.740  1.6681  1.9371 -2.1419
 7841SOL     OW35155   4.690   2.148  12.100  0.9355 -0.4998 -0.2563
 7841SOL    HW135156   0.046   2.160  12.064  1.2939  1.4237  1.2248
 7841SOL    HW235157   4.649   2.234  12.100  3.1447  0.5852  1.8117
 7842SOL     OW35158   1.432   1.448   8.427  0.5196  0.0781 -0.7535
 7842SOL    HW135159   1.376   1.414   8.357  0.0837  0.7598 -0.7375
 7842SOL    HW235160   1.504   1.386   8.431 -0.3697 -0.8761  0.4795
 7843SOL     OW35161   4.155   3.382  15.264 -0.2967 -0.3179  0.3718
 7843SOL    HW135162   4.189   3.299  15.297 -1.5300 -0.8901  0.2102
 7843SOL    HW235163   4.060   3.371  15.270 -0.1024 -1.3104  1.5786
 7844SOL     OW35164   2.250   1.391   0.839 -0.2440 -0.4874  0.0355
 7844SOL    HW135165   2.190   1.338   0.891  2.4447 -1.0502  2.5697
 7844SOL    HW235166   2.241   1.341   0.758  2.5014  0.4140 -0.8095
 7845SOL     OW35167   4.703   4.461  16.301 -0.1909 -0.2479  0.4296
 7845SOL    HW135168   4.608   4.461  16.301 -0.1844  1.5448  0.8665
 7845SOL    HW235169   4.727   4.466  16.208  3.3528  0.7768  1.3988
 7846SOL     OW35170   3.057   0.794   8.937  0.7597 -0.1683 -0.3952
 7846SOL    HW135171   3.024   0.861   8.877 -0.5867 -2.6804 -2.4204
 7846SOL    HW235172   2.972   0.752   8.951  0.0449  1.4902  0.3556
 7847SOL     OW35173   3.002   4.562   3.944  0.3065 -0.0003  0.1188
 7847SOL    HW135174   2.921   4.516   3.922  0.9499 -0.6353 -0.9480
 7847SOL    HW235175   2.998   4.579   4.038  1.1725 -1.4701  0.4304
 7848SOL     OW35176   3.814   1.596   6.719  0.4349 -0.1937  0.4619
 7848SOL    HW135177   3.722   1.582   6.699  0.3639  0.8685  0.0473
 7848SOL    HW235178   3.818   1.686   6.686  0.8428  0.7491  3.0739
 7849SOL     OW35179   0.170   0.364  11.691 -0.4809 -0.2826 -0.1201
 7849SOL    HW135180   0.246   0.316  11.656  0.1132  2.1143 -2.0817
 7849SOL    HW235181   0.148   0.320  11.773  0.3825  0.1642  0.3507
 7850SOL     OW35182   3.917   3.334   4.464 -0.0956 -0.2715  0.3529
 7850SOL    HW135183   3.924   3.276   4.389 -0.1773  0.0017  0.1351
 7850SOL    HW235184   3.828   3.321   4.497  1.8284 -1.3044  5.1179
 7851SOL     OW35185   3.697   0.361   8.918 -0.0514  0.2796  0.0127
 7851SOL    HW135186   3.632   0.417   8.876  1.3338  1.1322 -0.9903
 7851SOL    HW235187   3.781   0.402   8.897  0.8006 -1.8798 -0.7769
 7852SOL     OW35188   4.203   0.972   0.562  0.2514  0.3560  0.4179
 7852SOL    HW135189   4.282   0.979   0.509  0.1289  0.1806  0.2059
 7852SOL    HW235190   4.141   0.999   0.494 -0.0287 -0.9618  0.1349
 7853SOL     OW35191   0.086   2.653   4.064 -0.7985  0.2814 -0.0841
 7853SOL    HW135192   0.062   2.561   4.061 -0.8716  0.2986 -0.0286
 7853SOL    HW235193   0.116   2.654   4.155 -0.1717  0.3857 -0.2918
 7854SOL     OW35194   2.452   0.937   8.301  0.3010  0.5684  0.1794
 7854SOL    HW135195   2.547   0.937   8.309  0.3317 -1.3203 -0.4134
 7854SOL    HW235196   2.431   0.844   8.298  1.8057  0.3118 -1.8805
 7855SOL     OW35197   1.658   2.560  12.121 -0.5407  0.0086  0.0842
 7855SOL    HW135198   1.750   2.576  12.144  0.7507 -2.8230 -3.0853
 7855SOL    HW235199   1.670   2.519  12.035 -0.8115  1.7253 -0.7693
 7856SOL     OW35200   2.143   3.759   2.116  0.4898  0.0305 -0.2726
 7856SOL    HW135201   2.231   3.763   2.155  0.1425  0.5708  0.4645
 7856SOL    HW235202   2.079   3.747   2.186  0.4132 -0.6519 -0.4614
 7857SOL     OW35203   3.357   4.293   4.469  0.5847  0.1090 -0.4134
 7857SOL    HW135204   3.320   4.261   4.551  1.0571  0.2530 -0.1502
 7857SOL    HW235205   3.446   4.296   4.502  0.0528 -3.3228  1.2836
 7858SOL     OW35206   2.994   3.178   3.537 -0.2524 -0.3906  0.4032
 7858SOL    HW135207   2.967   3.087   3.533 -0.8067 -0.2395  0.6590
 7858SOL    HW235208   2.960   3.202   3.623  0.6484  2.2806  0.0147
 7859SOL     OW35209   3.778   2.879   2.968 -0.1851 -0.2690  0.0920
 7859SOL    HW135210   3.856   2.912   2.923 -1.5662  2.9181  0.0549
 7859SOL    HW235211   3.718   2.949   2.943 -0.3010 -0.4886 -0.2538
 7860SOL     OW35212   3.736   4.554   6.998 -0.7719  0.3041  0.1253
 7860SOL    HW135213   3.779   4.542   7.083  0.2885  0.9590 -0.3190
 7860SOL    HW235214   3.732   4.469   6.954  0.5581 -0.2382  1.0467
 7861SOL     OW35215   2.219   0.186  14.965  0.1606 -0.3985  0.2429
 7861SOL    HW135216   2.169   0.260  14.931  1.1455  0.1659  0.0352
 7861SOL    HW235217   2.248   0.151  14.881  1.7674  0.9418  0.2579
 7862SOL     OW35218   1.055   3.649   8.623 -0.3682 -0.2170 -0.2055
 7862SOL    HW135219   1.077   3.738   8.596  0.0374 -0.4071 -0.5105
 7862SOL    HW235220   1.114   3.644   8.699 -0.0905 -2.2367 -0.5457
 7863SOL     OW35221   4.354   3.589   4.673  0.0418  0.5513 -0.2411
 7863SOL    HW135222   4.386   3.553   4.591 -2.9784  0.5440 -1.3969
 7863SOL    HW235223   4.261   3.570   4.660 -0.3864  2.2533  0.3678
 7864SOL     OW35224   1.097   0.334   0.673 -0.2800  0.2727 -0.3383
 7864SOL    HW135225   1.034   0.377   0.730  0.6333 -0.4644  1.2243
 7864SOL    HW235226   1.082   0.244   0.701 -0.4983  0.3852 -0.0933
 7865SOL     OW35227   2.560   0.668   7.781  0.0730 -0.5143 -0.0991
 7865SOL    HW135228   2.598   0.720   7.710 -0.2158 -1.2378 -0.7846
 7865SOL    HW235229   2.512   0.732   7.833 -0.8777 -1.8447  0.6768
 7866SOL     OW35230   2.550   2.765   8.186 -0.0828  0.0063 -0.5552
 7866SOL    HW135231   2.606   2.819   8.130  1.7987 -0.4596  0.8316
 7866SOL    HW235232   2.605   2.690   8.212 -2.2664 -1.0214  1.0898
 7867SOL     OW35233   3.772   0.938   1.965 -0.0166  0.3042  0.1915
 7867SOL    HW135234   3.812   0.876   1.903  0.9233 -0.1590  1.2536
 7867SOL    HW235235   3.826   0.935   2.044  2.0543  2.7499 -1.1460
 7868SOL     OW35236   0.304   4.074   7.640  0.0958 -0.2679 -0.0668
 7868SOL    HW135237   0.385   4.081   7.691  1.1864  1.1523 -1.9487
 7868SOL    HW235238   0.325   3.990   7.600  0.2383  0.8928 -2.4262
 7869SOL     OW35239   1.861   1.535   8.955 -0.3630 -0.3674 -0.3862
 7869SOL    HW135240   1.821   1.448   8.948 -0.8476  0.0342 -2.4996
 7869SOL    HW235241   1.902   1.544   8.869 -0.3275  0.5342 -0.2779
 7870SOL     OW35242   1.075   3.971   3.055  0.0868  0.7312  1.0445
 7870SOL    HW135243   1.072   4.045   2.995 -0.2346  1.2408  1.6871
 7870SOL    HW235244   1.106   3.905   2.994 -0.6473  0.3562  1.0762
 7871SOL     OW35245   0.436   3.846  11.616 -0.2782 -0.5799  0.2375
 7871SOL    HW135246   0.390   3.763  11.611 -0.0724 -0.7636  1.4082
 7871SOL    HW235247   0.515   3.815  11.660  1.2461  0.0925 -2.0328
 7872SOL     OW35248   2.160   2.978   3.425 -0.4461 -0.5245  0.6019
 7872SOL    HW135249   2.221   2.939   3.488  3.5163 -0.5357 -3.2409
 7872SOL    HW235250   2.206   3.060   3.405 -0.0395 -0.4613  1.8159
 7873SOL     OW35251   0.530   2.838  16.177  0.4255 -0.0844  0.3231
 7873SOL    HW135252   0.551   2.778  16.105 -1.3325 -1.3143  0.8270
 7873SOL    HW235253   0.607   2.892  16.195 -0.1792  0.0125  2.5603
 7874SOL     OW35254   3.565   3.404   9.830 -0.0222  0.0770 -0.3041
 7874SOL    HW135255   3.591   3.314   9.808 -1.1528 -0.9170  2.4017
 7874SOL    HW235256   3.650   3.448   9.823  0.2813 -0.2223  1.3766
 7875SOL     OW35257   2.178   1.746   6.555 -0.3596 -0.0098 -0.9098
 7875SOL    HW135258   2.166   1.840   6.569  0.6271  0.1450 -1.0875
 7875SOL    HW235259   2.226   1.739   6.473 -0.2452 -3.2488 -0.5931
 7876SOL     OW35260   3.854   3.751   5.994  0.2552  0.1591 -0.0367
 7876SOL    HW135261   3.909   3.811   6.044 -1.4780  2.0403 -0.3564
 7876SOL    HW235262   3.867   3.779   5.903 -1.2718 -1.8555 -0.8747
 7877SOL     OW35263   1.337   2.163   6.374 -0.1624 -0.0825  0.3131
 7877SOL    HW135264   1.305   2.179   6.285  4.2802 -1.0899 -1.4842
 7877SOL    HW235265   1.429   2.137   6.373 -0.3758 -0.7391 -2.9712
 7878SOL     OW35266   0.775   2.233   4.770  0.5612 -0.1713  0.0363
 7878SOL    HW135267   0.709   2.216   4.837 -0.1240  1.1950 -0.2992
 7878SOL    HW235268   0.841   2.171   4.801  1.3916  0.5836 -0.1945
 7879SOL     OW35269   3.899   2.713   1.295 -0.0039  0.1276 -0.3815
 7879SOL    HW135270   3.834   2.783   1.294  0.0130  0.1964  2.8623
 7879SOL    HW235271   3.879   2.674   1.211 -0.5875  1.1423 -0.7193
 7880SOL     OW35272   2.688   4.425   8.583  0.4534 -0.1167  0.2891
 7880SOL    HW135273   2.659   4.394   8.669 -1.9418 -0.5202 -0.6593
 7880SOL    HW235274   2.780   4.401   8.581  0.4390 -0.0022 -1.7929
 7881SOL     OW35275   0.173   0.086  15.387  0.5662  0.3459 -0.1407
 7881SOL    HW135276   0.197   0.125  15.303 -0.2660  0.8869 -0.1143
 7881SOL    HW235277   0.081   0.107  15.396 -0.1514 -1.6391 -2.7133
 7882SOL     OW35278   3.801   0.588  12.351  0.4472  0.5721  0.4982
 7882SOL    HW135279   3.708   0.607  12.342  0.7810  1.5029 -0.9658
 7882SOL    HW235280   3.841   0.597  12.265 -0.1716  2.2694  0.3921
 7883SOL     OW35281   0.769   4.595   2.454  0.3507 -0.4338 -0.3864
 7883SOL    HW135282   0.822   4.515   2.451  0.7946 -0.1318 -0.6199
 7883SOL    HW235283   0.820   4.657   2.505 -2.1694  0.7920  0.6270
 7884SOL     OW35284   3.770   0.906   7.142 -0.2990 -0.1768  0.2364
 7884SOL    HW135285   3.860   0.934   7.155 -0.0045 -1.5147  1.0370
 7884SOL    HW235286   3.747   0.945   7.057  1.3041 -0.2321 -0.2247
 7885SOL     OW35287   1.030   1.808  12.545  0.4887 -0.3156 -0.4385
 7885SOL    HW135288   1.009   1.721  12.578 -1.0263  0.0581 -0.4326
 7885SOL    HW235289   1.111   1.837  12.587  1.4521 -1.3777 -1.5495
 7886SOL     OW35290   1.533   3.364  15.351  0.1564 -0.0299  0.1825
 7886SOL    HW135291   1.465   3.390  15.289 -0.5683  1.0627  1.4330
 7886SOL    HW235292   1.485   3.320  15.421  2.2785 -2.3581  0.1855
 7887SOL     OW35293   4.174   0.227   6.941 -0.3864 -0.1761 -0.1960
 7887SOL    HW135294   4.081   0.216   6.923  0.1421 -0.3116 -2.8086
 7887SOL    HW235295   4.184   0.312   6.899 -1.7087 -1.2799 -2.7614
 7888SOL     OW35296   2.049   4.066   7.909 -0.1569  0.2761 -0.4172
 7888SOL    HW135297   2.111   4.044   7.840  1.7133  1.4941  0.8737
 7888SOL    HW235298   2.030   4.152   7.872 -3.1339  0.0194  0.4728
 7889SOL     OW35299   4.441   0.051  14.445 -0.4010 -0.9433 -0.0899
 7889SOL    HW135300   4.356   0.023  14.478 -0.6867  0.8330  0.6557
 7889SOL    HW235301   4.423   0.144  14.433  0.0242 -0.7929  0.3907
 7890SOL     OW35302   1.907   1.305   5.279  0.3166  0.3128 -0.1069
 7890SOL    HW135303   1.836   1.348   5.232 -2.5765 -2.5339  1.6966
 7890SOL    HW235304   1.873   1.218   5.300 -1.1940  0.1648 -3.1537
 7891SOL     OW35305   2.023   3.679  11.531  0.5804  0.1714 -0.2107
 7891SOL    HW135306   2.080   3.607  11.558  1.4106  0.6473 -0.6961
 7891SOL    HW235307   2.069   3.715  11.455  2.0505  0.2628  0.7230
 7892SOL     OW35308   1.133   4.404   4.774 -0.2007  0.3158 -0.0965
 7892SOL    HW135309   1.170   4.398   4.686  0.4793  2.9905 -0.0078
 7892SOL    HW235310   1.184   4.473   4.817 -0.0447 -0.4889  1.0105
 7893SOL     OW35311   0.366   4.717   3.788  0.1929 -0.0437 -0.6051
 7893SOL    HW135312   0.452   0.018   3.814  0.1270  0.7519 -1.3998
 7893SOL    HW235313   0.345   4.670   3.869  1.8546  0.0624 -0.1143
 7894SOL     OW35314   1.047   2.498   3.165 -0.0096  0.3896  0.2561
 7894SOL    HW135315   1.132   2.540   3.175 -0.7887  1.7625  1.1486
 7894SOL    HW235316   1.000   2.570   3.123  2.0783  0.4377 -1.9741
 7895SOL     OW35317   2.195   1.830   8.971  0.3207 -0.1263  0.1917
 7895SOL    HW135318   2.108   1.869   8.980 -0.0225 -0.3021 -2.1569
 7895SOL    HW235319   2.227   1.848   9.059  2.8274 -0.4664 -0.6414
 7896SOL     OW35320   2.476   4.076   6.096  0.3343  0.2140 -0.0975
 7896SOL    HW135321   2.434   4.045   6.016  1.7906 -0.6571 -0.5184
 7896SOL    HW235322   2.537   4.006   6.117  0.1961  0.4401  1.0689
 7897SOL     OW35323   3.522   1.880  11.776  0.3701  0.2729 -0.5792
 7897SOL    HW135324   3.571   1.863  11.857  1.0948 -0.6739 -1.2133
 7897SOL    HW235325   3.486   1.968  11.786  0.4171  0.0090  1.9492
 7898SOL     OW35326   2.177   0.238   7.242  0.1900 -0.1929 -0.2394
 7898SOL    HW135327   2.127   0.260   7.320  1.1887  1.9922 -0.1813
 7898SOL    HW235328   2.188   0.143   7.246 -4.3550 -0.7587 -1.2151
 7899SOL     OW35329   2.796   2.040   3.330  0.1102  0.3724 -0.2661
 7899SOL    HW135330   2.751   1.958   3.310  0.9988 -0.1473 -0.1477
 7899SOL    HW235331   2.721   2.097   3.347 -0.1479 -0.0464  0.0249
 7900SOL     OW35332   4.206   1.201  15.308  0.5709  0.4423 -0.2437
 7900SOL    HW135333   4.255   1.232  15.383 -1.9342 -1.1371  2.0418
 7900SOL    HW235334   4.255   1.127  15.275 -0.3228  0.1733 -0.9821
 7901SOL     OW35335   4.014   2.005  13.644  0.0000 -0.1768 -0.3834
 7901SOL    HW135336   3.953   2.067  13.685  2.4739  1.7551  0.3383
 7901SOL    HW235337   4.062   1.977  13.722  0.1357 -0.2506 -0.4935
 7902SOL     OW35338   3.534   0.903  10.733  0.0844  0.2932 -0.8650
 7902SOL    HW135339   3.619   0.938  10.704  0.3294  0.1053 -0.3647
 7902SOL    HW235340   3.558   0.865  10.817  0.0061  1.2819 -0.4011
 7903SOL     OW35341   0.534   1.375   2.616 -0.5097 -0.2263 -0.1841
 7903SOL    HW135342   0.497   1.436   2.553 -0.4322  0.7019  0.6646
 7903SOL    HW235343   0.483   1.298   2.593  0.4972 -1.2893  1.1453
 7904SOL     OW35344   1.108   1.034   2.174 -0.2022  0.7848 -0.3344
 7904SOL    HW135345   1.017   1.021   2.146 -0.3350 -0.3527  0.6322
 7904SOL    HW235346   1.159   0.985   2.110 -0.6899 -1.2876  0.8831
 7905SOL     OW35347   1.631   3.079  12.761 -0.4162 -0.2242 -0.5758
 7905SOL    HW135348   1.711   3.059  12.713  0.0513 -0.0891  0.1550
 7905SOL    HW235349   1.662   3.054  12.848 -1.5570  0.8706  0.1528
 7906SOL     OW35350   0.310   0.984   5.430 -0.0584  0.4661 -0.5957
 7906SOL    HW135351   0.341   0.917   5.370  2.2622 -0.0651  1.1558
 7906SOL    HW235352   0.221   0.957   5.449  0.5446 -1.2102 -0.1810
 7907SOL     OW35353   1.786   4.529   8.226 -0.3597  0.0497 -0.2614
 7907SOL    HW135354   1.704   4.482   8.211 -0.9381  1.7055 -2.3559
 7907SOL    HW235355   1.806   4.534   8.132  1.4611  3.5868  0.3117
 7908SOL     OW35356   4.318   4.599   3.204 -0.0531  0.9828  0.2196
 7908SOL    HW135357   4.244   4.583   3.145 -0.4809  0.2553  0.9457
 7908SOL    HW235358   4.261   4.613   3.280 -0.4719  2.5193 -0.3881
 7909SOL     OW35359   3.706   3.257   2.074  0.5516 -0.5380 -0.0213
 7909SOL    HW135360   3.758   3.320   2.024 -2.0511  1.5853 -0.0339
 7909SOL    HW235361   3.644   3.239   2.003  0.3554 -0.7669  0.2110
 7910SOL     OW35362   2.139   1.383  11.581  0.7315  0.3799  0.5243
 7910SOL    HW135363   2.082   1.316  11.544  2.3583 -0.1968 -0.9436
 7910SOL    HW235364   2.223   1.338  11.584  1.0823  1.1303  1.8338
 7911SOL     OW35365   0.530   4.321   7.071 -0.1955  0.2362  0.0424
 7911SOL    HW135366   0.470   4.276   7.012 -0.1749 -1.0358  0.9913
 7911SOL    HW235367   0.494   4.284   7.152  0.1624  1.4259  0.7548
 7912SOL     OW35368   0.140   3.265   3.968  0.0812 -0.2598 -0.2177
 7912SOL    HW135369   0.070   3.327   3.951 -0.7040 -0.2967  2.8951
 7912SOL    HW235370   0.188   3.325   4.026 -0.3273  0.2509 -0.4183
 7913SOL     OW35371   1.550   0.498   1.764  0.4086  0.3002  0.1022
 7913SOL    HW135372   1.545   0.594   1.761 -0.1244  0.2349 -1.0690
 7913SOL    HW235373   1.593   0.483   1.680  0.0538  1.9000 -0.3627
 7914SOL     OW35374   1.830   1.270   8.872  0.1597  0.4190 -0.0657
 7914SOL    HW135375   1.782   1.268   8.789 -0.4055 -2.6077  0.3365
 7914SOL    HW235376   1.835   1.176   8.893  1.2673  0.5890  0.4391
 7915SOL     OW35377   1.820   4.522   6.428 -0.3066 -0.3797  0.3449
 7915SOL    HW135378   1.736   4.543   6.469 -0.2104  0.3317  0.1780
 7915SOL    HW235379   1.872   4.602   6.441 -1.2748  0.5000 -1.0997
 7916SOL     OW35380   0.984   3.666   2.709 -0.1607 -0.2106 -0.1593
 7916SOL    HW135381   0.907   3.684   2.655  1.0056  1.2329 -1.3334
 7916SOL    HW235382   1.052   3.653   2.644 -0.4629  1.6468 -0.8453
 7917SOL     OW35383   3.960   1.457   3.163 -0.0468  0.2384 -0.1558
 7917SOL    HW135384   4.055   1.448   3.171 -0.0668 -1.0455 -1.3135
 7917SOL    HW235385   3.945   1.506   3.243 -0.1461 -0.6508  0.3765
 7918SOL     OW35386   0.768   2.872   7.778  0.5492 -0.3014  0.3082
 7918SOL    HW135387   0.777   2.847   7.870  0.2789 -0.0986  0.3868
 7918SOL    HW235388   0.689   2.926   7.777 -1.1213 -2.7877 -1.5501
 7919SOL     OW35389   3.098   2.214  10.375 -0.0685  0.2986  0.1513
 7919SOL    HW135390   3.174   2.267  10.397 -1.6726  3.3076 -1.6671
 7919SOL    HW235391   3.038   2.244  10.443 -0.6867 -0.6959  0.0447
 7920SOL     OW35392   4.337   3.263   6.141  0.1485  0.1975  0.2846
 7920SOL    HW135393   4.404   3.210   6.098  0.7720  1.0193  0.2352
 7920SOL    HW235394   4.279   3.298   6.073 -0.1021  0.2021  0.5006
 7921SOL     OW35395   1.465   0.118  12.992  0.1843  0.0704  0.1570
 7921SOL    HW135396   1.519   0.197  12.989 -1.1230  1.0034  1.0951
 7921SOL    HW235397   1.377   0.154  12.979  0.5176  0.6176 -0.5749
 7922SOL     OW35398   1.513   1.528   5.372 -0.0729  0.0724 -0.2519
 7922SOL    HW135399   1.594   1.537   5.321 -0.0887  3.6310  0.3688
 7922SOL    HW235400   1.513   1.438   5.404 -2.4070 -0.3038 -1.2995
 7923SOL     OW35401   1.731   1.110   0.755  0.3097 -0.0839  0.3811
 7923SOL    HW135402   1.670   1.055   0.804 -0.3623 -0.5017 -0.9051
 7923SOL    HW235403   1.813   1.088   0.799 -0.1797 -0.5713  1.0557
 7924SOL     OW35404   3.436   3.260   8.675 -0.1144  0.3731  0.4888
 7924SOL    HW135405   3.393   3.177   8.699  2.3999 -1.4666 -1.4006
 7924SOL    HW235406   3.515   3.223   8.635 -0.1096 -1.0655  1.8040
 7925SOL     OW35407   2.976   0.723  12.546 -0.0878 -0.5313 -0.1067
 7925SOL    HW135408   2.984   0.631  12.521  1.4479 -0.7700  1.2450
 7925SOL    HW235409   3.058   0.744  12.591  1.0868 -2.2751 -1.4184
 7926SOL     OW35410   3.531   3.972  10.506  0.3899  0.0458  0.0164
 7926SOL    HW135411   3.576   3.896  10.469  1.9178  0.7541  0.3918
 7926SOL    HW235412   3.603   4.006  10.559 -0.1920  0.1368  0.7531
 7927SOL     OW35413   4.103   3.938   7.276  0.2378 -0.1222  0.5301
 7927SOL    HW135414   4.187   3.970   7.308 -1.4204  1.3869  3.3548
 7927SOL    HW235415   4.128   3.846   7.279 -0.1408 -0.2674 -0.7483
 7928SOL     OW35416   1.446   0.144   5.319 -0.0634  0.2564  0.5648
 7928SOL    HW135417   1.473   0.068   5.371  0.4754 -1.6535 -2.5091
 7928SOL    HW235418   1.352   0.153   5.333  0.0739 -0.4256  1.9467
 7929SOL     OW35419   1.159   2.558   7.671 -0.3524 -0.7442 -1.4161
 7929SOL    HW135420   1.153   2.638   7.618 -2.1576  0.1942  0.2046
 7929SOL    HW235421   1.069   2.543   7.701  0.0683  0.6778  0.5641
 7930SOL     OW35422   1.807   1.353  14.795  0.4559 -0.3677 -0.2034
 7930SOL    HW135423   1.810   1.341  14.890 -2.3186 -0.4140 -0.1260
 7930SOL    HW235424   1.875   1.418  14.779  0.3416 -0.3131 -0.4583
 7931SOL     OW35425   3.234   4.579  15.852 -0.4532  0.0776 -0.4858
 7931SOL    HW135426   3.222   4.595  15.946 -1.2880 -2.2281 -0.2008
 7931SOL    HW235427   3.190   4.657  15.819  0.3765  1.1098  0.8546
 7932SOL     OW35428   1.326   1.937   1.872  0.2858  0.4755  0.1388
 7932SOL    HW135429   1.306   1.850   1.907  1.9572  0.0250 -0.0059
 7932SOL    HW235430   1.418   1.923   1.848  0.0689  0.8897 -0.9742
 7933SOL     OW35431   3.352   3.334   2.543 -0.2227  0.0439  0.2435
 7933SOL    HW135432   3.301   3.320   2.463  1.7212  2.5358 -1.4197
 7933SOL    HW235433   3.387   3.417   2.511 -1.9314  0.2469 -1.1189
 7934SOL     OW35434   3.945   1.219  12.694 -0.3341  0.2841 -0.3512
 7934SOL    HW135435   3.872   1.268  12.733  0.2210 -0.1555  1.2323
 7934SOL    HW235436   4.026   1.256  12.728 -0.8265 -0.7060  1.8786
 7935SOL     OW35437   0.780   4.703   3.579  0.0804  0.0632 -0.0539
 7935SOL    HW135438   0.797   4.692   3.485  0.2166  1.1869 -0.1691
 7935SOL    HW235439   0.751   4.613   3.592 -1.8327  0.6281 -0.3248
 7936SOL     OW35440   3.090   0.927   6.862  0.2123 -0.0181  0.4323
 7936SOL    HW135441   3.114   1.012   6.824  0.5312  0.4442  1.6863
 7936SOL    HW235442   3.078   0.946   6.955 -1.2810 -2.5370  0.7435
 7937SOL     OW35443   3.010   1.509   7.436  0.4851 -0.0458 -0.6595
 7937SOL    HW135444   3.091   1.546   7.401  0.7360 -0.4842 -0.5402
 7937SOL    HW235445   2.953   1.574   7.394 -1.5312 -2.0636 -1.0528
 7938SOL     OW35446   4.709   2.898  14.826 -0.0433 -0.1370 -0.0908
 7938SOL    HW135447   4.619   2.911  14.795 -0.4409 -3.1488 -0.1542
 7938SOL    HW235448   4.699   2.868  14.916  0.3819 -0.5552 -0.1795
 7939SOL     OW35449   0.901   0.598   2.819 -0.5385  0.8801 -0.5322
 7939SOL    HW135450   0.991   0.632   2.819 -1.5198  3.5082 -0.8080
 7939SOL    HW235451   0.855   0.676   2.850  0.3538  0.9616  0.5964
 7940SOL     OW35452   4.622   0.344   1.154  0.0346 -0.1243  0.1466
 7940SOL    HW135453   4.627   0.401   1.230  3.0997 -1.1833  0.7474
 7940SOL    HW235454   4.707   0.302   1.166 -0.2559 -0.5938  0.6010
 7941SOL     OW35455   2.529   2.498   3.734  0.3133  0.3626  0.3920
 7941SOL    HW135456   2.491   2.448   3.662 -1.1033  2.4786 -0.3217
 7941SOL    HW235457   2.520   2.432   3.804  0.0953 -0.2933 -0.2489
 7942SOL     OW35458   4.249   0.428   3.983 -0.0188 -0.3805  0.1664
 7942SOL    HW135459   4.257   0.338   4.013  0.4001  0.6023  2.9691
 7942SOL    HW235460   4.305   0.480   4.041 -1.1300 -0.3410  1.1976
 7943SOL     OW35461   3.528   4.059  17.527  0.7807 -0.5514 -0.5502
 7943SOL    HW135462   3.578   4.138  17.548  0.3661 -0.9321  1.7715
 7943SOL    HW235463   3.540   4.003  17.603  1.5038  1.5318  0.8631
 7944SOL     OW35464   3.040   0.483   3.893  0.2300 -0.4457 -0.2203
 7944SOL    HW135465   3.052   0.393   3.865 -3.7037 -1.2578  0.7094
 7944SOL    HW235466   2.968   0.462   3.952  0.9005 -1.1484  0.3364
 7945SOL     OW35467   2.361   4.603   3.724  0.1301  0.0537  0.2231
 7945SOL    HW135468   2.436   4.661   3.710 -0.4129  1.2082  2.0745
 7945SOL    HW235469   2.318   4.620   3.640  1.1741  0.9957 -0.1181
 7946SOL     OW35470   0.379   0.577   4.453  0.3080 -0.2204 -0.1688
 7946SOL    HW135471   0.423   0.521   4.518 -1.5807 -2.0319 -0.4506
 7946SOL    HW235472   0.408   0.667   4.466  0.9822 -0.4945  0.2806
 7947SOL     OW35473   1.243   0.943   2.812  0.4592  0.3434 -0.2671
 7947SOL    HW135474   1.244   0.893   2.893 -0.2193 -2.2666 -1.8637
 7947SOL    HW235475   1.295   1.010   2.856  0.6438 -0.7386  1.1686
 7948SOL     OW35476   4.303   0.967   2.904 -0.1485  0.4391 -0.2508
 7948SOL    HW135477   4.260   1.018   2.836 -1.7507 -1.0926 -0.3462
 7948SOL    HW235478   4.268   0.879   2.909 -1.2833  0.8875 -0.4378
 7949SOL     OW35479   2.255   1.961   3.829  0.7811 -0.5976  0.4138
 7949SOL    HW135480   2.331   1.942   3.775 -0.1509 -1.0572 -0.7473
 7949SOL    HW235481   2.239   2.051   3.799 -1.1427 -0.5652  1.5042
 7950SOL     OW35482   0.999   0.307   0.022  0.2370  0.2285  0.5537
 7950SOL    HW135483   1.017   0.328  17.658  1.6689 -1.9878  0.3497
 7950SOL    HW235484   1.061   0.366   0.065 -1.2564  1.0024  1.6576
 7951SOL     OW35485   3.520   3.763   4.871 -0.5813  0.4070 -0.4635
 7951SOL    HW135486   3.472   3.830   4.822 -0.9725 -0.5009 -1.3187
 7951SOL    HW235487   3.546   3.695   4.809 -1.0359 -0.9223  0.7909
 7952SOL     OW35488   3.535   1.416   6.909  0.0985  0.0707  0.1920
 7952SOL    HW135489   3.588   1.340   6.885  0.2642 -0.4615  2.3014
 7952SOL    HW235490   3.451   1.372   6.926  0.5632 -0.6856  0.5166
 7953SOL     OW35491   3.740   4.419   9.606  0.1928  0.4106  0.1832
 7953SOL    HW135492   3.686   4.423   9.526 -0.6301 -0.2249  0.7011
 7953SOL    HW235493   3.825   4.393   9.571 -0.3508 -1.4069  0.1829
 7954SOL     OW35494   2.405   1.226  12.077  0.1236 -0.1060  0.5067
 7954SOL    HW135495   2.495   1.202  12.101 -0.1548 -0.6871  0.9628
 7954SOL    HW235496   2.384   1.245  12.168 -1.0794 -0.6620  0.3387
 7955SOL     OW35497   0.154   0.828   3.502  0.3143  0.0693 -0.0843
 7955SOL    HW135498   0.079   0.804   3.448 -0.1969 -1.1705  1.1502
 7955SOL    HW235499   0.124   0.802   3.590 -0.2641 -0.0671 -0.3257
 7956SOL     OW35500   4.621   3.875   2.714  0.4336  0.2660  0.5363
 7956SOL    HW135501   4.615   3.911   2.803  1.2191  1.0825  0.2579
 7956SOL    HW235502   4.661   3.789   2.726  0.7838  0.5839  1.6808
 7957SOL     OW35503   1.313   3.577   0.691  0.6761 -0.4349  0.3014
 7957SOL    HW135504   1.234   3.562   0.638  0.0902  1.4491  0.6114
 7957SOL    HW235505   1.382   3.524   0.651  0.1386 -1.1243  0.2987
 7958SOL     OW35506   0.700   2.978   5.688 -0.3357  0.0795  0.1200
 7958SOL    HW135507   0.770   2.924   5.652  0.4801 -0.4930  2.5343
 7958SOL    HW235508   0.743   3.064   5.686 -2.2082  1.0615  1.6131
 7959SOL     OW35509   4.023   0.201   4.038 -0.1746  0.4303  0.0046
 7959SOL    HW135510   3.967   0.274   4.063 -1.4169 -0.0874 -1.2796
 7959SOL    HW235511   3.965   0.129   4.012  0.4272  0.2403 -0.8034
 7960SOL     OW35512   2.364   2.722   7.647  0.4245 -0.0303  0.1218
 7960SOL    HW135513   2.450   2.686   7.669  0.3048  0.8527  2.0322
 7960SOL    HW235514   2.306   2.717   7.723  0.6939 -1.3542  0.2355
 7961SOL     OW35515   0.758   1.587   0.392 -0.0587  0.2574 -0.2976
 7961SOL    HW135516   0.764   1.610   0.485 -0.4952  0.4590 -0.3213
 7961SOL    HW235517   0.704   1.508   0.397  0.9473 -0.5889 -2.5690
 7962SOL     OW35518   0.930   3.587   3.195 -1.0481 -0.3791 -0.6809
 7962SOL    HW135519   0.926   3.602   3.289 -0.9899  3.9132 -1.3524
 7962SOL    HW235520   0.878   3.664   3.170 -2.0201 -0.1317  2.1139
 7963SOL     OW35521   0.127   3.053   7.394  0.1796  0.0064 -0.0107
 7963SOL    HW135522   0.041   3.012   7.389 -0.8244  1.9426  1.3621
 7963SOL    HW235523   0.122   3.084   7.485  0.1716  2.1434 -0.7404
 7964SOL     OW35524   1.261   0.614   6.543  0.2235 -0.3631  0.1693
 7964SOL    HW135525   1.237   0.595   6.633  0.0606 -1.7149 -0.1505
 7964SOL    HW235526   1.323   0.686   6.552  0.3107 -0.5993  1.3838
 7965SOL     OW35527   0.217   2.540   8.998  0.5855  0.2870  0.2906
 7965SOL    HW135528   0.214   2.595   8.919  0.2916 -1.4672 -0.9092
 7965SOL    HW235529   0.306   2.504   8.989 -0.2612 -1.8960  0.6424
 7966SOL     OW35530   1.680   2.060  14.094  0.2907  0.2222  0.2104
 7966SOL    HW135531   1.632   2.016  14.023 -0.5076  0.1886  0.7726
 7966SOL    HW235532   1.691   1.987  14.155  2.3375 -0.5571 -1.0939
 7967SOL     OW35533   3.473   0.838   6.313  0.3201 -0.6515  0.5127
 7967SOL    HW135534   3.434   0.754   6.292 -1.1144 -0.4815  2.4354
 7967SOL    HW235535   3.396   0.895   6.307  0.9096  0.1207  0.2493
 7968SOL     OW35536   2.932   0.720  17.331 -0.1392  0.3245  0.1377
 7968SOL    HW135537   2.926   0.805  17.288 -1.1187  0.6454  0.9263
 7968SOL    HW235538   2.963   0.667  17.257 -2.2642 -1.1918  0.3652
 7969SOL     OW35539   3.139   1.254  15.876  0.1994  0.2365 -0.2292
 7969SOL    HW135540   3.158   1.260  15.782  1.2637 -0.7541 -0.0820
 7969SOL    HW235541   3.067   1.317  15.875 -0.3025 -0.3646 -3.3983
 7970SOL     OW35542   2.919   3.724   5.948 -0.3956 -0.3670 -0.6547
 7970SOL    HW135543   2.929   3.629   5.944 -4.9926 -0.8236 -0.7541
 7970SOL    HW235544   2.958   3.750   5.864 -1.5905  4.0271  0.1374
 7971SOL     OW35545   4.710   4.402  13.692 -0.2998  0.1786  0.5096
 7971SOL    HW135546   0.052   4.341  13.686 -0.3942  0.0899  0.2426
 7971SOL    HW235547   4.720   4.438  13.780  3.6121 -0.6150  0.3946
 7972SOL     OW35548   3.088   0.081   2.895  0.7209 -0.1159 -0.5663
 7972SOL    HW135549   3.088   0.019   2.821  1.6982  0.0778 -0.7280
 7972SOL    HW235550   3.072   0.018   2.965  0.8598 -0.1387 -0.5544
 7973SOL     OW35551   2.632   1.471  14.568  0.3084  0.2088  0.0142
 7973SOL    HW135552   2.664   1.389  14.530 -1.3386  0.1201 -1.2003
 7973SOL    HW235553   2.651   1.532  14.496 -1.4125  0.5706 -0.1482
 7974SOL     OW35554   1.123   4.553   6.157  0.3559  0.1020 -0.2705
 7974SOL    HW135555   1.111   4.461   6.179 -1.0223  0.1513 -0.8032
 7974SOL    HW235556   1.036   4.593   6.152 -0.4474 -1.6070  0.0369
 7975SOL     OW35557   0.724   3.285   3.869  0.6963  0.1528 -0.2080
 7975SOL    HW135558   0.706   3.196   3.898  2.3408  0.4806  1.8004
 7975SOL    HW235559   0.811   3.278   3.830  1.0481 -1.5844  0.9185
 7976SOL     OW35560   4.061   3.147  14.410 -0.6625  0.2499 -0.3804
 7976SOL    HW135561   4.053   3.175  14.319 -0.5309  0.8910 -0.1912
 7976SOL    HW235562   3.966   3.140  14.422 -0.6340 -0.5012 -0.5942
 7977SOL     OW35563   3.476   0.353   2.659  0.0855  0.2380 -0.2849
 7977SOL    HW135564   3.414   0.426   2.662 -1.5051 -1.1324  0.2706
 7977SOL    HW235565   3.412   0.285   2.677 -0.8563  0.8009 -1.5028
 7978SOL     OW35566   2.380   2.503   1.837 -0.6900 -0.1216 -0.2727
 7978SOL    HW135567   2.342   2.559   1.769  0.6648  0.5206 -0.4829
 7978SOL    HW235568   2.299   2.491   1.888 -1.6279  2.5268 -1.1648
 7979SOL     OW35569   2.364   1.467  16.478  0.2176 -0.2880  0.2978
 7979SOL    HW135570   2.425   1.454  16.551  0.6822  1.7292  0.2640
 7979SOL    HW235571   2.417   1.527  16.427 -0.9974  0.3741 -0.1794
 7980SOL     OW35572   0.519   2.140  10.990 -0.1791  0.1844 -0.5520
 7980SOL    HW135573   0.484   2.084  10.921  0.1022  0.6847 -1.1130
 7980SOL    HW235574   0.572   2.191  10.928  0.0787  0.3768 -0.1734
 7981SOL     OW35575   1.494   3.895   8.581 -0.2918 -0.2691 -0.5989
 7981SOL    HW135576   1.433   3.967   8.592 -0.3564 -0.2752 -0.9226
 7981SOL    HW235577   1.479   3.871   8.489  2.9139 -0.6960 -1.0251
 7982SOL     OW35578   3.710   3.916   7.461 -0.1744  0.1917  0.4089
 7982SOL    HW135579   3.765   3.920   7.382  1.5533 -0.2876  1.5780
 7982SOL    HW235580   3.773   3.908   7.533  0.8324  1.0629 -0.3673
 7983SOL     OW35581   1.123   0.903  16.906  0.1141 -0.0746  0.5200
 7983SOL    HW135582   1.088   0.946  16.828  0.4240  0.1828  0.5223
 7983SOL    HW235583   1.217   0.913  16.891  0.2011 -1.0098  0.4512
 7984SOL     OW35584   1.113   0.641   3.162 -0.4666  0.5106 -0.6660
 7984SOL    HW135585   1.055   0.618   3.234 -2.0824  1.7717 -1.5644
 7984SOL    HW235586   1.098   0.736   3.156 -1.7755  0.3158 -0.4614
 7985SOL     OW35587   3.937   4.109   6.726  0.1281  0.7187 -0.2938
 7985SOL    HW135588   3.910   4.019   6.707  1.7706 -0.0920  1.1891
 7985SOL    HW235589   3.987   4.100   6.808 -0.3630  0.7790  0.0099
 7986SOL     OW35590   1.559   1.727   9.603  0.1457  0.2796 -0.1398
 7986SOL    HW135591   1.556   1.800   9.542 -0.6285 -0.7934 -1.3808
 7986SOL    HW235592   1.597   1.664   9.541 -0.4309  0.7635 -0.9761
 7987SOL     OW35593   4.284   1.186   9.926  0.4719  0.0298  0.2218
 7987SOL    HW135594   4.344   1.173   9.852  1.1088  1.5835  0.4571
 7987SOL    HW235595   4.262   1.100   9.961  1.0042 -0.1006  0.2412
 7988SOL     OW35596   1.426   4.486   3.907  0.5281  0.4679 -0.1209
 7988SOL    HW135597   1.337   4.500   3.874 -0.4142 -1.6576  1.4916
 7988SOL    HW235598   1.419   4.536   3.988  3.6195  0.4217  0.1879
 7989SOL     OW35599   0.221   2.627   6.435 -0.2657 -0.3630 -0.2279
 7989SOL    HW135600   0.171   2.551   6.465 -0.8840  1.1868  2.6724
 7989SOL    HW235601   0.270   2.647   6.515  0.4739  0.6479 -0.9317
 7990SOL     OW35602   2.315   4.694  11.853  0.4405 -0.4820 -0.6607
 7990SOL    HW135603   2.402   4.658  11.836  0.2850  0.5154 -3.6440
 7990SOL    HW235604   2.293   4.653  11.937  0.3545  0.6791 -0.1223
 7991SOL     OW35605   0.006   1.495   8.628 -0.1428  0.5127 -0.4029
 7991SOL    HW135606   4.644   1.480   8.618 -0.2715 -0.1801  2.0225
 7991SOL    HW235607   0.002   1.588   8.603 -2.1142  0.5937  0.2586
 7992SOL     OW35608   2.792   2.272   6.281 -0.0346 -0.2821  0.3744
 7992SOL    HW135609   2.723   2.288   6.346  0.6589 -1.2446  1.3563
 7992SOL    HW235610   2.874   2.279   6.330 -0.6533  1.9601  1.0967
 7993SOL     OW35611   1.229   2.188   9.462  0.1331  0.6887  0.1037
 7993SOL    HW135612   1.247   2.153   9.549 -0.9152  2.8273  1.2008
 7993SOL    HW235613   1.219   2.107   9.412 -2.5070  0.4307  1.0086
 7994SOL     OW35614   4.170   1.040   6.348  0.0684  0.0481 -0.0912
 7994SOL    HW135615   4.187   1.025   6.441  1.2014  1.2966 -0.1057
 7994SOL    HW235616   4.152   1.134   6.347 -2.6425 -0.4255  2.7259
 7995SOL     OW35617   1.885   3.233   2.188 -0.3897  0.1401 -0.5371
 7995SOL    HW135618   1.816   3.221   2.254 -0.5583 -0.4938 -0.8258
 7995SOL    HW235619   1.869   3.159   2.129  1.1704  0.7926 -1.7819
 7996SOL     OW35620   3.851   3.309   7.042 -0.4328  0.1129 -0.7665
 7996SOL    HW135621   3.821   3.242   7.104  2.1189 -0.0984  0.2047
 7996SOL    HW235622   3.913   3.259   6.988  1.9696  1.4190  0.8003
 7997SOL     OW35623   3.282   0.717   1.799  0.0919  0.1331 -0.0895
 7997SOL    HW135624   3.328   0.731   1.716  1.9224 -0.6345  0.7975
 7997SOL    HW235625   3.358   0.731   1.857 -0.4667  0.4032  0.5773
 7998SOL     OW35626   2.507   0.892  15.199 -0.1025  0.1439  0.2760
 7998SOL    HW135627   2.489   0.912  15.291  0.5251  0.4029  0.3395
 7998SOL    HW235628   2.429   0.843  15.172 -0.8967  2.1028 -0.9448
 7999SOL     OW35629   0.573   0.794   0.593 -0.3779  0.2230  0.2159
 7999SOL    HW135630   0.640   0.729   0.614 -0.9036 -0.8021 -1.2125
 7999SOL    HW235631   0.539   0.758   0.511 -0.7735  0.4272  0.2923
 8000SOL     OW35632   2.660   4.240   6.540  0.1942  0.4520  0.0353
 8000SOL    HW135633   2.610   4.162   6.565  1.0065  0.2819  1.1227
 8000SOL    HW235634   2.732   4.202   6.490  0.9920 -0.0421  1.5741
 8001SOL     OW35635   3.713   2.470   8.628  0.7484  0.3293  0.4862
 8001SOL    HW135636   3.674   2.557   8.620 -0.3576 -0.2663 -0.5837
 8001SOL    HW235637   3.646   2.417   8.586  0.2570  0.7195  0.7775
 8002SOL     OW35638   2.923   1.665  17.139 -0.8511  0.3131 -0.1512
 8002SOL    HW135639   2.978   1.731  17.096 -2.3129  1.0192 -0.9525
 8002SOL    HW235640   2.873   1.735  17.183 -0.6219  0.8567 -0.7552
 8003SOL     OW35641   0.499   0.979   1.346 -0.3615  0.6281  0.2314
 8003SOL    HW135642   0.422   0.956   1.294 -0.8498  0.4465  1.0401
 8003SOL    HW235643   0.476   1.055   1.399 -2.3297 -0.9840  1.6865
 8004SOL     OW35644   2.674   4.053   4.140  0.1081 -0.6673  0.5901
 8004SOL    HW135645   2.737   3.992   4.102  0.1616  0.2347 -0.7695
 8004SOL    HW235646   2.626   3.982   4.183 -0.8879 -0.2766  0.1215
 8005SOL     OW35647   4.057   2.775   8.106  0.1376 -0.1717 -0.5594
 8005SOL    HW135648   3.974   2.790   8.152 -0.0155 -0.6017 -0.7010
 8005SOL    HW235649   4.035   2.696   8.057  0.7116 -0.2244 -0.7241
 8006SOL     OW35650   1.315   0.931   8.322 -0.0856  0.1424 -0.8398
 8006SOL    HW135651   1.283   0.975   8.400 -1.4833 -3.4395  0.5853
 8006SOL    HW235652   1.240   0.951   8.267 -0.4008 -2.9716 -1.5482
 8007SOL     OW35653   3.367   0.604   5.464 -0.9770  0.3159 -0.8124
 8007SOL    HW135654   3.406   0.560   5.389 -2.0936  0.5539 -1.5333
 8007SOL    HW235655   3.354   0.691   5.427 -3.2850  0.3392  0.0449
 8008SOL     OW35656   2.242   1.847   5.120  0.6458 -0.7275  0.4279
 8008SOL    HW135657   2.307   1.787   5.085  0.3284 -0.9949  0.2939
 8008SOL    HW235658   2.237   1.912   5.051  1.1328 -2.2030 -0.9976
 8009SOL     OW35659   0.228   4.325   7.567 -0.0357 -0.3666 -0.2056
 8009SOL    HW135660   0.247   4.236   7.594 -0.2466 -0.0374  1.0191
 8009SOL    HW235661   0.133   4.317   7.555 -0.0604 -1.3045  0.6273
 8010SOL     OW35662   0.091   3.118   1.574 -0.1977  0.2178  0.7100
 8010SOL    HW135663   0.103   3.134   1.668  0.7200  0.6724  0.5118
 8010SOL    HW235664   4.729   3.102   1.570 -0.0583 -0.4041 -0.2714
 8011SOL     OW35665   2.004   2.209   6.505 -0.4292  0.1012  0.2546
 8011SOL    HW135666   1.917   2.226   6.541 -0.0984  1.4559  0.3845
 8011SOL    HW235667   1.991   2.176   6.416  0.2933 -1.1170  0.5908
 8012SOL     OW35668   3.193   1.577   6.590  0.3838 -0.0888  0.4579
 8012SOL    HW135669   3.225   1.666   6.605  0.9228 -0.0270 -1.0514
 8012SOL    HW235670   3.172   1.552   6.680  0.0350 -2.0186 -0.1672
 8013SOL     OW35671   4.514   1.857   7.666  0.0975 -0.0205  0.2531
 8013SOL    HW135672   4.574   1.826   7.735 -0.3231  2.7315  1.8606
 8013SOL    HW235673   4.435   1.805   7.677 -0.9962  1.7866  0.9399
 8014SOL     OW35674   1.346   3.844   7.968 -0.1631 -0.0180  0.0566
 8014SOL    HW135675   1.319   3.931   7.997 -0.1752 -0.1770  0.5127
 8014SOL    HW235676   1.435   3.836   8.002  0.0196 -0.3310 -0.4823
 8015SOL     OW35677   3.763   4.096  11.441 -0.1979 -0.4569  0.0149
 8015SOL    HW135678   3.836   4.089  11.380 -0.6370  0.4581 -0.6048
 8015SOL    HW235679   3.738   4.003  11.445 -1.6074  0.0716  3.5891
 8016SOL     OW35680   1.559   3.552   6.377  0.5168  0.0725 -0.7259
 8016SOL    HW135681   1.636   3.581   6.426  0.4048 -2.4196  0.9399
 8016SOL    HW235682   1.603   3.516   6.299  2.1225 -1.1117  0.7163
 8017SOL     OW35683   0.231   2.869   6.675  0.0792 -0.3869 -0.2024
 8017SOL    HW135684   0.139   2.851   6.659 -0.2808  2.4314 -1.1208
 8017SOL    HW235685   0.256   2.785   6.715  1.9925 -0.0514 -0.6658
 8018SOL     OW35686   3.761   3.199   7.783  0.1568  0.3135  0.1722
 8018SOL    HW135687   3.747   3.263   7.853 -0.6457  1.2597 -0.8475
 8018SOL    HW235688   3.691   3.136   7.801 -1.2517  1.4845 -1.1514
 8019SOL     OW35689   4.525   0.153   7.554 -0.0295  0.0874  0.8259
 8019SOL    HW135690   4.535   0.061   7.530  0.3626  0.5069 -0.5851
 8019SOL    HW235691   4.549   0.186   7.468 -2.4816  1.1903  0.5758
 8020SOL     OW35692   2.540   3.949   2.973 -0.3403 -0.0765 -0.1914
 8020SOL    HW135693   2.537   3.978   3.064  0.2924 -1.3667  0.2412
 8020SOL    HW235694   2.571   3.864   3.005 -1.9728  0.5526  3.0533
 8021SOL     OW35695   1.360   4.684   5.089 -0.1737  0.1043  0.6849
 8021SOL    HW135696   1.371   4.623   5.161 -0.6976 -1.4357 -0.5413
 8021SOL    HW235697   1.394   0.033   5.127  2.3500  0.4519 -2.3553
 8022SOL     OW35698   0.351   2.148   2.789  0.0020  0.1180  0.0438
 8022SOL    HW135699   0.399   2.194   2.720 -0.5255 -0.8866 -1.0070
 8022SOL    HW235700   0.269   2.128   2.744  1.5997 -1.5178 -2.1758
 8023SOL     OW35701   2.018   2.696  13.675 -0.2088  0.1148  0.2710
 8023SOL    HW135702   1.990   2.746  13.751 -2.0129 -1.1750  0.4545
 8023SOL    HW235703   1.986   2.610  13.703  2.3113 -1.1636 -0.7479
 8024SOL     OW35704   1.553   3.947   3.491  0.4379  0.1366 -0.1681
 8024SOL    HW135705   1.559   3.906   3.578 -0.4595 -0.1492 -0.2411
 8024SOL    HW235706   1.532   4.037   3.518  1.9784  0.0048  1.4855
 8025SOL     OW35707   1.495   0.704   3.800 -0.2388  0.3079 -0.5623
 8025SOL    HW135708   1.547   0.680   3.876  0.8542  0.8785 -1.1321
 8025SOL    HW235709   1.524   0.640   3.736  0.1912 -0.8743  0.8174
 8026SOL     OW35710   2.647   2.996   1.929 -0.1348 -0.0817  0.9285
 8026SOL    HW135711   2.557   3.026   1.915  0.4463 -0.1050 -2.8886
 8026SOL    HW235712   2.684   3.040   1.852 -0.3616 -0.4112  0.6331
 8027SOL     OW35713   3.574   3.045  15.279  0.9064  0.4351  0.0149
 8027SOL    HW135714   3.505   3.099  15.241  2.0763  2.2329  0.4684
 8027SOL    HW235715   3.594   3.094  15.358  0.7519 -1.2773  1.1033
 8028SOL     OW35716   3.678   4.284   2.611  0.1694 -0.1020 -0.0966
 8028SOL    HW135717   3.758   4.232   2.610  1.3645  1.7167 -0.1834
 8028SOL    HW235718   3.619   4.229   2.559 -0.4231 -0.2974  0.7863
 8029SOL     OW35719   1.892   4.106   4.577 -0.4477  0.5169 -0.5817
 8029SOL    HW135720   1.956   4.125   4.509  1.9192  1.2362  1.8395
 8029SOL    HW235721   1.904   4.014   4.601  2.3931  0.8329 -0.7819
 8030SOL     OW35722   1.658   1.513   3.645 -0.1004  0.0553 -0.2194
 8030SOL    HW135723   1.712   1.465   3.707 -0.6527 -1.6254 -1.0527
 8030SOL    HW235724   1.567   1.500   3.674  0.2943  0.6860  1.3156
 8031SOL     OW35725   3.970   3.238  12.999 -0.2093 -0.1432 -0.5559
 8031SOL    HW135726   3.878   3.262  13.011 -0.1501  0.3421 -1.0739
 8031SOL    HW235727   3.985   3.273  12.911 -0.5580 -1.7103 -1.2262
 8032SOL     OW35728   3.672   4.360   7.988  0.0258 -0.0194  0.7451
 8032SOL    HW135729   3.576   4.358   7.992 -0.0466  0.1313 -0.6984
 8032SOL    HW235730   3.701   4.434   8.041 -0.5320 -0.0805  1.1324
 8033SOL     OW35731   1.501   2.910  15.592  0.2912 -0.0722  0.2887
 8033SOL    HW135732   1.511   2.896  15.498 -0.6036 -0.3492  0.2361
 8033SOL    HW235733   1.559   2.984  15.608 -2.1514  2.1508 -1.2553
 8034SOL     OW35734   1.472   4.347   7.295 -0.0862  0.4271 -0.2105
 8034SOL    HW135735   1.567   4.352   7.285 -0.0410 -0.8875 -0.4152
 8034SOL    HW235736   1.465   4.329   7.389 -1.0147  0.1704 -0.3252
 8035SOL     OW35737   2.660   1.301  10.377 -0.0843  1.2344  0.3093
 8035SOL    HW135738   2.584   1.273  10.325 -0.2718 -0.6797  1.6405
 8035SOL    HW235739   2.662   1.241  10.451 -0.0920  1.7302  0.7092
 8036SOL     OW35740   2.358   3.069   9.103  0.0672  0.9679  0.1479
 8036SOL    HW135741   2.397   3.137   9.050  0.1677  1.9170  1.4284
 8036SOL    HW235742   2.320   3.013   9.036 -0.7912  0.5057  1.0059
 8037SOL     OW35743   2.956   2.525   5.970  0.6485  0.9088  0.4903
 8037SOL    HW135744   3.021   2.458   5.989  0.2171  0.1852 -0.5272
 8037SOL    HW235745   2.875   2.502   6.016  0.4829 -0.5822 -0.5290
 8038SOL     OW35746   0.676   1.705   7.833 -0.3845  0.4271 -0.6163
 8038SOL    HW135747   0.662   1.612   7.813 -1.9375  0.7519 -0.9942
 8038SOL    HW235748   0.708   1.695   7.923 -0.5512  1.0096 -0.4917
 8039SOL     OW35749   2.316   2.417   7.614  0.0735  0.3540  0.4120
 8039SOL    HW135750   2.376   2.477   7.569 -1.0707  0.1742 -1.3096
 8039SOL    HW235751   2.367   2.336   7.619 -1.3249 -0.5805 -0.6762
 8040SOL     OW35752   3.995   1.483   7.275  0.5891 -0.5129 -1.4707
 8040SOL    HW135753   4.004   1.556   7.214 -0.9281  1.5169  0.7520
 8040SOL    HW235754   3.984   1.404   7.222 -0.7393 -0.7942 -0.7664
 8041SOL     OW35755   3.652   3.565   0.936 -0.5904  0.0447  0.5001
 8041SOL    HW135756   3.694   3.499   0.991  0.1218 -0.2064 -0.3454
 8041SOL    HW235757   3.668   3.528   0.849  1.0501 -2.6018  1.9364
 8042SOL     OW35758   2.533   2.196   6.884  0.0671  0.6990 -0.0603
 8042SOL    HW135759   2.449   2.237   6.868  0.3498 -0.0432 -3.2790
 8042SOL    HW235760   2.505   2.105   6.895 -0.0371  0.3838 -3.1666
 8043SOL     OW35761   2.807   1.968   6.543  0.2863 -0.2096 -0.5138
 8043SOL    HW135762   2.794   2.011   6.458  0.3928 -0.5347 -0.6924
 8043SOL    HW235763   2.716   1.945   6.563  0.3422  0.5750  0.6039
 8044SOL     OW35764   4.407   2.901   2.283 -0.5385  0.5119  0.3259
 8044SOL    HW135765   4.495   2.937   2.295 -0.8771  0.7925  1.8925
 8044SOL    HW235766   4.357   2.980   2.263  0.0117  0.8349  0.2459
 8045SOL     OW35767   2.017   4.119  15.466 -0.0317 -0.0646 -0.1102
 8045SOL    HW135768   1.986   4.032  15.441  3.5662 -0.9940 -1.3755
 8045SOL    HW235769   2.111   4.126  15.448  0.1594 -0.9388  0.5744
 8046SOL     OW35770   4.060   0.559   4.174 -0.1584  1.2227 -0.6723
 8046SOL    HW135771   4.100   0.497   4.112  1.1746  1.6894 -0.2740
 8046SOL    HW235772   4.087   0.523   4.258 -4.1656 -0.3999 -0.0524
 8047SOL     OW35773   4.345   1.271  15.610  0.4795  0.0286 -0.7138
 8047SOL    HW135774   4.409   1.234  15.548  0.7608 -0.2178 -0.2819
 8047SOL    HW235775   4.330   1.189  15.657 -2.2245  2.5418  2.8397
 8048SOL     OW35776   2.935   1.872   5.751 -0.2198 -0.8801  0.1060
 8048SOL    HW135777   2.993   1.921   5.693  0.0486 -0.9663  0.3028
 8048SOL    HW235778   2.919   1.948   5.807  1.0644 -0.5657  0.0347
 8049SOL     OW35779   4.233   1.222  11.954  0.4326 -0.3750 -0.3625
 8049SOL    HW135780   4.159   1.228  12.015  1.2332  1.3276  0.4447
 8049SOL    HW235781   4.187   1.244  11.873  0.5018  1.1033  0.0056
 8050SOL     OW35782   4.219   1.529   0.955 -0.3556  0.4186 -0.3382
 8050SOL    HW135783   4.135   1.568   0.979 -1.5624 -3.8439  2.3289
 8050SOL    HW235784   4.213   1.444   0.997  0.4282  0.1397 -0.7943
 8051SOL     OW35785   3.032   4.286  11.123  0.0286 -0.1946  0.5063
 8051SOL    HW135786   2.952   4.236  11.139 -0.3595  0.7761  1.6053
 8051SOL    HW235787   2.991   4.350  11.064  0.3370  0.1741  0.6904
 8052SOL     OW35788   0.370   2.229   5.838 -0.4275 -0.5376  0.5333
 8052SOL    HW135789   0.329   2.142   5.844  0.2909 -0.9861 -1.0014
 8052SOL    HW235790   0.295   2.282   5.861 -0.0491 -0.0827  0.7067
 8053SOL     OW35791   1.063   1.450   3.498 -0.2096  0.1901  0.0649
 8053SOL    HW135792   0.984   1.504   3.501  0.6759  1.5740 -1.4984
 8053SOL    HW235793   1.052   1.416   3.587  0.5811  0.7056  0.3559
 8054SOL     OW35794   1.319   4.158   8.585 -0.2073  0.2911 -0.2432
 8054SOL    HW135795   1.325   4.135   8.492  0.1335 -0.8883  0.0627
 8054SOL    HW235796   1.307   4.252   8.576 -0.6712 -0.0479 -3.0063
 8055SOL     OW35797   3.985   3.903  11.864  0.0009  0.4044  0.2693
 8055SOL    HW135798   3.989   3.998  11.871  1.6546  0.4019 -0.6123
 8055SOL    HW235799   3.989   3.880  11.957 -1.5992  1.0136  0.4910
 8056SOL     OW35800   3.216   3.806  15.242  0.4810  0.5499 -0.1146
 8056SOL    HW135801   3.219   3.880  15.181  2.1104  0.6542  0.0962
 8056SOL    HW235802   3.308   3.780  15.236  0.8734  2.1711 -1.0997
 8057SOL     OW35803   1.783   2.323   4.421 -0.2675  0.1834 -0.0169
 8057SOL    HW135804   1.860   2.268   4.409  0.8095  1.3779  1.5288
 8057SOL    HW235805   1.721   2.274   4.366 -1.1227 -0.0906  1.1968
 8058SOL     OW35806   0.624   1.952   6.462  0.2305 -0.2366  0.2348
 8058SOL    HW135807   0.696   2.014   6.449 -1.7639  1.5571 -2.3222
 8058SOL    HW235808   0.586   1.953   6.374 -0.8333 -1.0292  0.6726
 8059SOL     OW35809   0.517   3.495   7.738 -0.0640 -0.0931  0.1096
 8059SOL    HW135810   0.452   3.461   7.799 -2.3165  1.2868 -1.5097
 8059SOL    HW235811   0.599   3.455   7.765  0.1923  1.2529  1.3684
 8060SOL     OW35812   0.217   0.466   5.115  0.1508  0.2126 -0.0936
 8060SOL    HW135813   0.274   0.509   5.051 -1.9462  0.9043 -1.4928
 8060SOL    HW235814   0.186   0.392   5.062 -0.4276  1.1143 -1.0204
 8061SOL     OW35815   4.442   4.071   8.633 -0.3888 -0.2048  0.0595
 8061SOL    HW135816   4.396   4.008   8.577  0.4344 -0.4847 -0.2974
 8061SOL    HW235817   4.367   4.121   8.665  0.2606 -0.5614  2.1475
 8062SOL     OW35818   2.850   3.094   7.405  0.5642 -0.3247 -0.1990
 8062SOL    HW135819   2.786   3.113   7.337  0.6843  3.7360  0.8268
 8062SOL    HW235820   2.833   3.000   7.409 -1.9653  0.1075 -0.8791
 8063SOL     OW35821   3.002   1.113   2.041  0.2002 -0.1885 -0.0247
 8063SOL    HW135822   3.082   1.148   2.082 -0.9642  1.0173  1.2234
 8063SOL    HW235823   3.032   1.026   2.014 -1.0940 -0.3532 -0.9190
 8064SOL     OW35824   2.572   2.373   8.919  0.4178  0.3938  0.4750
 8064SOL    HW135825   2.479   2.350   8.924  0.4886 -0.1403 -0.5881
 8064SOL    HW235826   2.625   2.296   8.941  0.2728  0.1134 -0.1669
 8065SOL     OW35827   2.302   0.740  15.134  0.1036  0.0958  0.5715
 8065SOL    HW135828   2.215   0.738  15.173 -0.5703 -1.2166 -1.0027
 8065SOL    HW235829   2.290   0.736  15.040 -0.5743 -0.6770  0.6839
 8066SOL     OW35830   0.631   4.152   1.728 -0.2059  0.5700  0.1901
 8066SOL    HW135831   0.629   4.167   1.822  1.0655 -0.8509  0.4559
 8066SOL    HW235832   0.712   4.197   1.706  0.8150 -2.1802 -1.7364
 8067SOL     OW35833   3.030   1.859   5.118 -0.4100 -0.4689  0.2238
 8067SOL    HW135834   2.972   1.867   5.193 -0.9811 -1.3761 -0.1127
 8067SOL    HW235835   2.977   1.794   5.072 -0.8883 -1.3476  2.0181
 8068SOL     OW35836   4.223   3.758  12.738 -0.1297  0.2189 -0.4177
 8068SOL    HW135837   4.215   3.804  12.654 -0.9861 -0.1723 -0.5507
 8068SOL    HW235838   4.182   3.821  12.797  0.7755  1.3019 -0.9556
 8069SOL     OW35839   0.686   3.107   5.111  0.3170  0.5451 -0.8993
 8069SOL    HW135840   0.649   3.024   5.082  0.4807 -0.8323  2.9545
 8069SOL    HW235841   0.752   3.075   5.172 -1.1528  0.0972  0.4568
 8070SOL     OW35842   1.764   2.304   6.765  0.3704 -0.0124  0.1761
 8070SOL    HW135843   1.687   2.247   6.755  0.3061  0.1028  0.0034
 8070SOL    HW235844   1.714   2.386   6.771 -2.3982 -1.6347 -0.5836
 8071SOL     OW35845   4.664   1.036  12.395 -0.5772  0.4225 -0.4037
 8071SOL    HW135846   4.718   1.018  12.318 -1.0590 -1.0220 -0.4029
 8071SOL    HW235847   4.612   1.111  12.366 -1.5111  0.0942  0.4171
 8072SOL     OW35848   3.971   4.005   4.481  0.1539 -0.4065  0.8127
 8072SOL    HW135849   3.951   3.999   4.574  1.0138 -0.8953  0.9627
 8072SOL    HW235850   4.061   3.976   4.466 -0.9233 -2.9208 -0.8893
 8073SOL     OW35851   3.047   1.198   9.097  0.5347 -0.2457  0.4341
 8073SOL    HW135852   3.013   1.225   9.012 -0.1306 -1.3495  0.3425
 8073SOL    HW235853   3.010   1.110   9.093 -2.7895  1.1064  1.2256
 8074SOL     OW35854   1.428   1.088  13.108 -0.0501 -0.1946  0.8915
 8074SOL    HW135855   1.401   1.028  13.178  0.6755 -3.9115 -2.0383
 8074SOL    HW235856   1.521   1.099  13.125  0.3432 -2.3904  0.1896
 8075SOL     OW35857   2.407   0.394   3.718  0.3090 -0.6375  0.3625
 8075SOL    HW135858   2.318   0.418   3.691  0.9500  1.2105 -0.0898
 8075SOL    HW235859   2.393   0.313   3.769 -1.5652 -1.0183 -0.7693
 8076SOL     OW35860   1.262   4.303   5.623 -0.3597  0.2822  0.3247
 8076SOL    HW135861   1.222   4.362   5.686  0.6088  1.3032 -0.0184
 8076SOL    HW235862   1.238   4.342   5.539  2.2086  2.0762  0.4280
 8077SOL     OW35863   4.070   0.203   7.487  0.1924 -0.2239 -0.0561
 8077SOL    HW135864   4.003   0.171   7.548 -0.5137 -1.9456 -1.7413
 8077SOL    HW235865   4.010   0.230   7.417  0.2605 -0.9154 -0.3774
 8078SOL     OW35866   1.713   1.066   9.659  0.3297 -0.1157 -0.4411
 8078SOL    HW135867   1.745   1.148   9.697 -0.3129  0.0790 -0.3353
 8078SOL    HW235868   1.633   1.047   9.708 -0.6245 -2.1539 -2.7954
 8079SOL     OW35869   3.677   1.775   3.893 -0.4287 -0.0358 -0.5210
 8079SOL    HW135870   3.744   1.731   3.839 -1.5209 -2.2966 -0.0504
 8079SOL    HW235871   3.675   1.862   3.854 -1.2437 -0.2752 -1.0007
 8080SOL     OW35872   4.134   4.237   8.994  0.6874  0.4263 -0.6167
 8080SOL    HW135873   4.216   4.277   9.023  1.3259 -1.4443  0.1105
 8080SOL    HW235874   4.092   4.216   9.078 -1.5008  0.9544 -1.5900
 8081SOL     OW35875   4.447   3.739   9.529  0.2875 -0.8380  0.1237
 8081SOL    HW135876   4.378   3.719   9.467 -0.0610  1.2914 -0.1747
 8081SOL    HW235877   4.507   3.665   9.516  0.2219 -0.9818  0.6445
 8082SOL     OW35878   3.682   1.643   4.895  0.0528 -0.3011 -0.3818
 8082SOL    HW135879   3.614   1.671   4.833  0.9830  1.3699 -0.6597
 8082SOL    HW235880   3.761   1.688   4.865  0.9874 -0.5639  1.7159
 8083SOL     OW35881   2.071   0.724   6.045 -0.2621 -1.2887  0.2466
 8083SOL    HW135882   2.082   0.813   6.011  0.6141 -2.1176 -1.6793
 8083SOL    HW235883   2.119   0.673   5.980  0.2743 -0.7689  0.2331
 8084SOL     OW35884   3.851   0.720   4.220 -0.1096  0.2962 -0.3085
 8084SOL    HW135885   3.934   0.678   4.199  0.2900  1.5126 -1.2010
 8084SOL    HW235886   3.800   0.700   4.141  0.2804 -2.6048  0.1863
 8085SOL     OW35887   0.561   0.263   8.293 -0.3488  0.4892 -0.5673
 8085SOL    HW135888   0.476   0.306   8.293  0.3295  1.8151  1.8731
 8085SOL    HW235889   0.564   0.240   8.200 -1.2921 -0.2689 -0.4097
 8086SOL     OW35890   2.241   0.393   9.231  0.0616  0.3761  0.0181
 8086SOL    HW135891   2.182   0.467   9.241 -0.7799 -0.4613  1.2220
 8086SOL    HW235892   2.217   0.343   9.309  1.1454 -0.0452  0.0771
 8087SOL     OW35893   2.011   2.506   8.841 -0.1360  0.3625  0.4458
 8087SOL    HW135894   2.062   2.429   8.816  0.4370  0.6679  0.6798
 8087SOL    HW235895   1.925   2.494   8.800  0.6103  1.1833 -1.3797
 8088SOL     OW35896   0.347   0.106   9.719 -0.6430 -0.7754 -0.3644
 8088SOL    HW135897   0.436   0.137   9.732 -0.8744 -0.4792  0.5271
 8088SOL    HW235898   0.337   0.122   9.625 -0.9698  0.4269 -0.1337
 8089SOL     OW35899   4.346   1.545   7.775 -0.1094 -0.3133  0.4740
 8089SOL    HW135900   4.417   1.552   7.838 -0.1078 -0.7958  0.5282
 8089SOL    HW235901   4.399   1.492   7.715  0.3395 -0.4556  0.9997
 8090SOL     OW35902   2.490   4.079  17.636  0.1821  0.7724  0.5602
 8090SOL    HW135903   2.533   4.041  17.713 -2.9797 -1.8345  1.0301
 8090SOL    HW235904   2.451   4.004  17.591  2.2432  0.0725 -0.0378
 8091SOL     OW35905   4.061   0.126   8.053 -0.0367 -0.3741 -0.2570
 8091SOL    HW135906   4.113   0.150   7.976 -1.1458  0.1892 -0.8277
 8091SOL    HW235907   4.027   0.041   8.025  0.9282 -1.0915  0.7514
 8092SOL     OW35908   0.020   2.716   5.898  0.2259  0.5916 -0.4122
 8092SOL    HW135909   0.060   2.649   5.844  0.0942  0.7603 -0.7183
 8092SOL    HW235910   0.091   2.774   5.926 -0.8987  1.6567  0.2352
 8093SOL     OW35911   2.390   1.370   0.245  0.1090 -0.6872  0.1282
 8093SOL    HW135912   2.394   1.406   0.157  1.2635 -0.8366  0.1251
 8093SOL    HW235913   2.311   1.418   0.271 -0.4694 -2.1002  1.0249
 8094SOL     OW35914   0.467   1.581  11.199  0.0088  0.0979 -0.5022
 8094SOL    HW135915   0.412   1.570  11.276  1.6816 -0.5632  0.6144
 8094SOL    HW235916   0.465   1.673  11.172  0.3899  0.8421  1.9757
 8095SOL     OW35917   3.788   3.206  12.564 -0.1612 -0.7247  0.4527
 8095SOL    HW135918   3.842   3.248  12.632 -1.1321 -0.5092  1.0838
 8095SOL    HW235919   3.729   3.278  12.545 -0.4365 -1.3215 -0.9102
 8096SOL     OW35920   0.567   3.538   3.050 -1.3043 -0.3122 -0.2660
 8096SOL    HW135921   0.525   3.497   3.125  0.4425 -1.8404 -0.1202
 8096SOL    HW235922   0.552   3.630   3.073  1.6336  0.7157 -2.4907
 8097SOL     OW35923   2.741   3.461   3.094 -0.5291 -0.1148 -0.0138
 8097SOL    HW135924   2.722   3.443   3.002 -1.3699  0.2158  0.0949
 8097SOL    HW235925   2.837   3.454   3.094 -0.7547 -3.5454 -3.0890
 8098SOL     OW35926   2.040   4.659  13.406 -0.0790  1.2270  0.2676
 8098SOL    HW135927   2.034   4.723  13.335 -0.4757  0.2938 -0.5374
 8098SOL    HW235928   2.124   4.679  13.447  0.8880 -2.0308 -0.1557
 8099SOL     OW35929   4.368   3.955  14.735 -0.0653  0.3840  0.2004
 8099SOL    HW135930   4.401   4.042  14.759  1.4526 -0.1047 -0.1266
 8099SOL    HW235931   4.453   3.917  14.715 -0.8800 -0.3470 -1.9450
 8100SOL     OW35932   3.506   3.174  10.834 -0.2102 -0.1595  0.9297
 8100SOL    HW135933   3.585   3.179  10.888 -0.8270 -0.6021  1.8732
 8100SOL    HW235934   3.543   3.147  10.750  0.0211 -0.0646  1.0035
 8101SOL     OW35935   2.847   1.925  11.254 -0.2833 -0.1271  0.1955
 8101SOL    HW135936   2.890   1.917  11.169 -1.5732  1.0486 -0.5447
 8101SOL    HW235937   2.934   1.935  11.294  0.3015 -0.7334 -0.9180
 8102SOL     OW35938   4.356   0.061  11.122 -0.3273 -0.0590 -0.1590
 8102SOL    HW135939   4.340   0.083  11.030 -2.4486 -2.2883 -0.3093
 8102SOL    HW235940   4.315   0.131  11.173 -0.7289  0.2010 -0.8313
 8103SOL     OW35941   0.925   4.235   5.498  0.4338  0.0664 -0.3159
 8103SOL    HW135942   0.836   4.222   5.466 -0.4268 -0.1566  2.1400
 8103SOL    HW235943   0.908   4.208   5.589 -0.5466  1.5713 -0.0534
 8104SOL     OW35944   4.365   1.990   1.964  0.0708  0.2702 -0.8311
 8104SOL    HW135945   4.324   2.049   2.027 -1.1460  0.5110 -1.8469
 8104SOL    HW235946   4.303   1.991   1.891 -1.0256  1.8673  0.1355
 8105SOL     OW35947   4.133   2.045   9.079  0.3182  0.2692 -0.4831
 8105SOL    HW135948   4.102   2.126   9.120  1.1257 -0.0479  0.7305
 8105SOL    HW235949   4.122   2.067   8.986  0.6552 -1.3755 -0.9111
 8106SOL     OW35950   2.966   1.006   5.376  0.2284 -0.3768  0.5445
 8106SOL    HW135951   2.947   1.028   5.467 -0.4448  1.3496 -0.0156
 8106SOL    HW235952   2.882   0.964   5.355  0.4064 -1.2596  1.5630
 8107SOL     OW35953   1.675   4.560  10.053 -0.1883 -0.8094 -0.4040
 8107SOL    HW135954   1.758   4.511  10.044  0.0677 -0.8264  2.0345
 8107SOL    HW235955   1.639   4.530  10.136 -1.6911 -0.4987 -0.9553
 8108SOL     OW35956   4.576   4.055   1.746 -0.6059 -0.1309  0.4228
 8108SOL    HW135957   4.601   4.147   1.736  0.5035 -0.6044 -1.0916
 8108SOL    HW235958   4.496   4.058   1.693 -0.4795 -0.2458  0.2280
 8109SOL     OW35959   0.514   0.426   4.631  0.1162 -0.6937  0.2884
 8109SOL    HW135960   0.559   0.471   4.702  1.2258 -1.8252  0.2976
 8109SOL    HW235961   0.464   0.360   4.679 -1.4075 -0.2845 -0.7158
 8110SOL     OW35962   1.168   3.878   4.562  0.2062 -0.0550  0.1575
 8110SOL    HW135963   1.092   3.892   4.506 -0.5736  0.7091  1.4015
 8110SOL    HW235964   1.229   3.946   4.537 -2.9451  2.9690  0.7116
 8111SOL     OW35965   2.478   4.181  12.989  0.0608  0.0577 -0.1314
 8111SOL    HW135966   2.572   4.177  13.007  0.1168  2.1618  0.0433
 8111SOL    HW235967   2.449   4.105  13.038 -0.4143 -0.0686 -0.6140
 8112SOL     OW35968   3.315   0.549   2.337 -0.0658  0.3299  0.1240
 8112SOL    HW135969   3.353   0.607   2.404 -0.7591 -0.5587  1.2826
 8112SOL    HW235970   3.315   0.605   2.259 -0.4687 -1.3783 -1.0902
 8113SOL     OW35971   0.139   3.127   3.439 -0.2695  0.0204  0.4929
 8113SOL    HW135972   0.083   3.195   3.476  0.2909 -0.1252  1.6244
 8113SOL    HW235973   0.188   3.091   3.514  2.3961 -0.7369 -1.6082
 8114SOL     OW35974   1.223   0.019  11.847 -0.2095 -0.0745 -0.0596
 8114SOL    HW135975   1.224   4.666  11.889  1.9141 -0.3263 -0.5863
 8114SOL    HW235976   1.237   0.080  11.920  0.5469  0.0073 -0.2668
 8115SOL     OW35977   0.603   2.266   8.005  0.0205  0.0350  0.3356
 8115SOL    HW135978   0.587   2.175   8.033  1.5286  0.1842  1.6861
 8115SOL    HW235979   0.669   2.243   7.940  1.0737  0.0079  1.4284
 8116SOL     OW35980   1.262   1.967   5.343 -0.1287 -0.0515 -0.0050
 8116SOL    HW135981   1.267   1.932   5.432 -0.5168  1.7109  0.6988
 8116SOL    HW235982   1.280   2.060   5.357 -1.0789  0.0356  0.5933
 8117SOL     OW35983   4.460   0.372   7.306 -0.2642 -0.2364 -0.1765
 8117SOL    HW135984   4.404   0.409   7.238  0.3369  1.2674  0.1397
 8117SOL    HW235985   4.411   0.351   7.385  0.6189 -0.7923  0.2195
 8118SOL     OW35986   0.609   2.929  16.701  0.2714  0.0444  0.7388
 8118SOL    HW135987   0.647   3.017  16.700 -1.0311  0.6118  1.5718
 8118SOL    HW235988   0.575   2.903  16.615 -0.5576 -0.6244  1.2698
 8119SOL     OW35989   2.272   2.480  16.816  0.6792  0.2174  0.5706
 8119SOL    HW135990   2.324   2.480  16.735 -1.0169 -0.5381 -0.5140
 8119SOL    HW235991   2.264   2.389  16.843  1.6029  0.4655  1.6773
 8120SOL     OW35992   0.762   0.212   7.737 -0.0937  0.5324  0.2025
 8120SOL    HW135993   0.759   0.192   7.643 -0.4194 -0.3444  0.4030
 8120SOL    HW235994   0.855   0.226   7.755 -0.0388  0.2294  0.1454
 8121SOL     OW35995   1.431   4.478   1.706 -0.8976  0.0059 -0.8091
 8121SOL    HW135996   1.492   4.442   1.770  1.1226  2.5283 -1.2802
 8121SOL    HW235997   1.345   4.457   1.740 -0.1411  0.0068  1.0867
 8122SOL     OW35998   4.061   3.586   4.268  0.6423 -0.2977  0.4943
 8122SOL    HW135999   4.058   3.510   4.327  0.2467 -1.4157 -0.9469
 8122SOL    HW236000   3.988   3.632   4.307 -1.3049 -2.2376 -0.8606
 8123SOL     OW36001   2.883   4.731  13.604  0.1932 -0.5514  0.6302
 8123SOL    HW136002   2.917   4.716  13.692  0.0118  0.3292  0.8494
 8123SOL    HW236003   2.930   0.074  13.570 -2.9452  2.5312  3.0962
 8124SOL     OW36004   0.402   4.011  12.344 -0.8187  0.0428 -0.1677
 8124SOL    HW136005   0.397   3.986  12.436  0.5997 -2.7135 -0.8391
 8124SOL    HW236006   0.487   4.055  12.342 -0.4853 -0.6326 -1.1314
 8125SOL     OW36007   1.600   3.856   8.053  0.3685 -0.3494  0.6584
 8125SOL    HW136008   1.655   3.784   8.082  0.4282  0.2887  2.1023
 8125SOL    HW236009   1.668   3.915   8.019 -1.4263  1.1324 -0.3508
 8126SOL     OW36010   0.957   0.865  17.684  0.1386 -0.7856  0.2445
 8126SOL    HW136011   0.883   0.905  17.638  0.4588  0.3481  0.7140
 8126SOL    HW236012   1.029   0.876  17.623  0.9498  2.6842  1.8098
 8127SOL     OW36013   1.379   4.556   1.393 -0.5675  0.9839  0.4602
 8127SOL    HW136014   1.318   4.484   1.406 -0.9515  0.9741 -1.4076
 8127SOL    HW236015   1.448   4.523   1.335 -2.3491 -1.1868 -0.4218
 8128SOL     OW36016   0.821   3.762   2.023  0.0285  0.0482  0.3798
 8128SOL    HW136017   0.746   3.808   2.062 -1.3463 -2.0534  0.1944
 8128SOL    HW236018   0.780   3.676   2.020 -1.7077  0.8521  1.1556
 8129SOL     OW36019   2.471   1.124  10.256  0.6805 -0.0420 -0.1769
 8129SOL    HW136020   2.470   1.089  10.167  1.0951  3.4110 -1.5192
 8129SOL    HW236021   2.411   1.058  10.291  2.7122 -0.3775  2.7028
 8130SOL     OW36022   1.455   4.280   7.548  0.2079 -0.3757  0.1187
 8130SOL    HW136023   1.364   4.252   7.539 -0.1987 -0.1961  3.8486
 8130SOL    HW236024   1.490   4.204   7.594  1.1318 -0.6408 -1.0076
 8131SOL     OW36025   0.985   0.543   8.137 -0.0793 -0.3038  0.0350
 8131SOL    HW136026   0.953   0.455   8.118 -3.3607  0.7352  0.8418
 8131SOL    HW236027   1.055   0.538   8.202  1.1413  1.4922 -1.1136
 8132SOL     OW36028   0.645   3.706  12.831 -0.3034  0.6979 -0.1917
 8132SOL    HW136029   0.556   3.720  12.863 -0.3730  0.3761 -0.2440
 8132SOL    HW236030   0.688   3.658  12.902 -1.4209  0.3125  0.2342
 8133SOL     OW36031   2.178   2.580  15.722 -0.2055 -0.0499 -0.2980
 8133SOL    HW136032   2.102   2.546  15.675 -0.1580  1.0743 -1.1841
 8133SOL    HW236033   2.209   2.637  15.651 -0.3890  1.9089  1.1814
 8134SOL     OW36034   0.414   1.788   4.477 -0.2548  0.1114 -0.1042
 8134SOL    HW136035   0.366   1.870   4.470 -0.7128 -0.3718 -2.6309
 8134SOL    HW236036   0.362   1.733   4.419 -1.3311  2.3641 -1.2740
 8135SOL     OW36037   2.785   1.078   1.379 -0.0319  0.5904  0.1721
 8135SOL    HW136038   2.706   1.077   1.324 -0.0201  3.5428  0.1201
 8135SOL    HW236039   2.765   1.158   1.427  4.0715  0.2849  2.3634
 8136SOL     OW36040   0.034   1.922  17.621  0.1537 -0.0633 -0.2719
 8136SOL    HW136041   4.686   1.960  17.585  1.8709  2.6183 -1.2214
 8136SOL    HW236042   0.085   2.003  17.625 -0.4070  0.2484  0.5740
 8137SOL     OW36043   1.355   3.847   6.993  0.1837 -0.1139 -0.2349
 8137SOL    HW136044   1.383   3.837   6.902  1.2052  0.6991 -0.0059
 8137SOL    HW236045   1.435   3.849   7.045 -0.7869  0.1014  1.2386
 8138SOL     OW36046   0.476   0.331   3.347 -0.1127 -0.3233  0.0983
 8138SOL    HW136047   0.419   0.255   3.354 -0.8753  0.3748  1.4956
 8138SOL    HW236048   0.529   0.309   3.270  1.7555  2.6361  0.5395
 8139SOL     OW36049   3.201   0.051   3.987 -0.1642  0.0740  0.1681
 8139SOL    HW136050   3.269   0.005   4.037 -1.7009 -2.1918  0.1845
 8139SOL    HW236051   3.163   4.705   3.947  3.1715  0.0179 -2.8941
 8140SOL     OW36052   3.963   2.337   7.231 -0.3067 -0.1845 -0.3357
 8140SOL    HW136053   3.881   2.315   7.186  0.0656  0.1404 -1.1863
 8140SOL    HW236054   3.936   2.323   7.321 -2.2767  1.0529 -0.7329
 8141SOL     OW36055   0.005   0.263   2.960  0.3247 -0.3865 -0.3024
 8141SOL    HW136056   0.098   0.241   2.964  0.3001 -0.3525  0.5093
 8141SOL    HW236057   4.696   0.177   2.951 -0.6981  0.2096 -1.2673
 8142SOL     OW36058   1.881   2.697  14.733 -0.3735 -0.3659 -0.2972
 8142SOL    HW136059   1.877   2.608  14.697 -1.5012  0.3842 -1.9985
 8142SOL    HW236060   1.872   2.740  14.648 -1.2008  0.5303  0.2409
 8143SOL     OW36061   4.515   3.147   3.619 -0.3910  0.3663 -0.2288
 8143SOL    HW136062   4.500   3.054   3.632 -1.6494  0.7185  0.8475
 8143SOL    HW236063   4.426   3.182   3.623 -0.7972 -0.7173  0.0767
 8144SOL     OW36064   4.066   0.103   5.656 -0.2100 -0.2440  0.2340
 8144SOL    HW136065   4.131   0.170   5.636  0.8289 -1.9955 -2.3481
 8144SOL    HW236066   4.022   0.132   5.736 -0.6032  5.1883 -1.9904
 8145SOL     OW36067   1.405   2.090   3.066  0.6091 -0.2624 -0.5810
 8145SOL    HW136068   1.342   2.162   3.074  0.0650 -0.6663 -1.1469
 8145SOL    HW236069   1.479   2.121   3.118 -0.2464 -0.7909  0.9519
 8146SOL     OW36070   3.667   1.867   4.305 -0.0994 -0.1543 -0.4145
 8146SOL    HW136071   3.752   1.827   4.286 -0.8289 -1.4994 -0.8339
 8146SOL    HW236072   3.606   1.797   4.282 -0.0917 -0.5224  0.7002
 8147SOL     OW36073   2.697   1.327   8.624  0.2690 -0.3842  0.1838
 8147SOL    HW136074   2.671   1.417   8.643  3.7342  0.9073 -1.1435
 8147SOL    HW236075   2.622   1.268   8.632 -0.8946  1.1079  0.1981
 8148SOL     OW36076   3.804   3.975  12.265  0.3844 -0.4079 -0.2169
 8148SOL    HW136077   3.774   3.972  12.174 -2.4053  1.1420  0.6420
 8148SOL    HW236078   3.879   3.916  12.269  0.9455  0.3187  0.0250
 8149SOL     OW36079   2.744   3.622  16.709  0.4511 -0.0837  0.0862
 8149SOL    HW136080   2.781   3.698  16.755 -0.9913  1.2974 -1.0462
 8149SOL    HW236081   2.798   3.549  16.739  0.3791 -0.1629  0.0226
 8150SOL     OW36082   0.465   1.795  14.346 -0.1494  0.3867 -0.1761
 8150SOL    HW136083   0.468   1.748  14.263  3.0776  2.7265 -1.3990
 8150SOL    HW236084   0.427   1.879  14.323 -0.8103 -0.5513 -2.5386
 8151SOL     OW36085   1.094   4.644   5.149 -0.5037  0.0171  0.0491
 8151SOL    HW136086   1.172   4.682   5.107  0.2645 -0.1559  1.3320
 8151SOL    HW236087   1.107   4.550   5.138 -0.9415  0.0870 -1.0344
 8152SOL     OW36088   2.930   3.621   8.982  0.3365  0.3174 -0.5143
 8152SOL    HW136089   2.921   3.577   8.897 -1.8379 -0.2542  0.0167
 8152SOL    HW236090   2.950   3.709   8.949  2.5307 -0.1205 -0.3766
 8153SOL     OW36091   3.813   4.344  17.157  0.3172 -0.0585 -0.3052
 8153SOL    HW136092   3.767   4.427  17.166  1.2284  0.6273 -2.0929
 8153SOL    HW236093   3.887   4.367  17.101  0.1131  0.8449 -0.1955
 8154SOL     OW36094   4.520   0.138   2.633 -0.0258 -0.0420 -0.3675
 8154SOL    HW136095   4.452   0.123   2.699  0.0157  1.5090  0.0336
 8154SOL    HW236096   4.526   0.233   2.632 -0.1038  0.0134  4.0031
 8155SOL     OW36097   2.892   1.164   2.741 -0.3463 -0.4212  0.3162
 8155SOL    HW136098   2.944   1.200   2.669 -0.3281 -0.6825  0.2008
 8155SOL    HW236099   2.933   1.078   2.750  2.1849  0.8742  1.0557
 8156SOL     OW36100   4.682   0.731   0.990  0.2897 -0.7780 -0.5412
 8156SOL    HW136101   4.611   0.667   0.980 -1.1474  0.4861  1.5932
 8156SOL    HW236102   4.709   0.717   1.080  0.0344 -1.6475 -0.5965
 8157SOL     OW36103   4.661   2.368   9.627 -0.2132  0.0051 -0.3549
 8157SOL    HW136104   4.655   2.350   9.533 -4.0797  2.6998 -0.6452
 8157SOL    HW236105   4.568   2.375   9.646  0.0573  2.7729 -0.0721
 8158SOL     OW36106   4.240   4.454   4.326  0.4821 -0.7646 -0.1393
 8158SOL    HW136107   4.200   4.369   4.343  0.4959 -0.7772 -0.1688
 8158SOL    HW236108   4.266   4.421   4.240 -1.0664  1.1939 -1.3523
 8159SOL     OW36109   4.678   4.311   2.018  0.1680  0.2805 -0.1538
 8159SOL    HW136110   4.699   4.242   2.081  1.2831 -0.7401 -1.6438
 8159SOL    HW236111   4.592   4.283   1.985  0.4172 -0.9347  0.2434
 8160SOL     OW36112   1.867   2.620   8.373  0.1635 -0.1330 -0.1234
 8160SOL    HW136113   1.911   2.538   8.399  0.7236  0.6834  1.5113
 8160SOL    HW236114   1.791   2.598   8.320  1.2491  1.0804 -2.1917
 8161SOL     OW36115   0.455   2.691   8.110 -0.7602 -0.1763  0.1432
 8161SOL    HW136116   0.456   2.771   8.058 -0.4289 -0.0848  0.2862
 8161SOL    HW236117   0.543   2.693   8.149 -0.2926  2.5325 -1.0410
 8162SOL     OW36118   3.085   1.480  12.329  0.1492 -0.1602 -0.7867
 8162SOL    HW136119   3.062   1.405  12.382  0.0587 -1.0708 -2.1040
 8162SOL    HW236120   3.044   1.557  12.369 -3.4712 -2.3336 -0.2540
 8163SOL     OW36121   2.179   4.460  16.898 -0.0811 -0.2628  0.3617
 8163SOL    HW136122   2.107   4.521  16.887 -0.5772 -0.5089  2.2598
 8163SOL    HW236123   2.251   4.487  16.841  0.6293 -0.5019  1.1413
 8164SOL     OW36124   0.246   3.808   4.468  0.5037  0.0618 -0.2803
 8164SOL    HW136125   0.235   3.774   4.557 -0.6587  1.6000  0.1805
 8164SOL    HW236126   0.279   3.725   4.435 -0.0075 -0.4294  0.4235
 8165SOL     OW36127   1.674   2.555   3.389 -0.0879 -0.3602 -0.1354
 8165SOL    HW136128   1.701   2.630   3.335 -1.5823 -0.3787 -0.9147
 8165SOL    HW236129   1.605   2.512   3.338  0.1219  0.7166 -1.3185
 8166SOL     OW36130   4.249   1.059  17.174 -0.4011 -0.0188 -0.3515
 8166SOL    HW136131   4.181   1.062  17.106  0.2398 -1.2477 -1.0392
 8166SOL    HW236132   4.323   1.053  17.114  0.2974 -0.6647  0.5742
 8167SOL     OW36133   2.535   3.992   4.590  0.2697 -0.0704  0.1024
 8167SOL    HW136134   2.449   4.004   4.630  0.9106  0.4498  1.3505
 8167SOL    HW236135   2.546   4.080   4.554  0.2304 -0.2720 -0.4071
 8168SOL     OW36136   4.546   1.184   2.647  0.3313 -0.0809  0.5741
 8168SOL    HW136137   4.487   1.254   2.616  1.7479  0.2852 -1.2370
 8168SOL    HW236138   4.621   1.241   2.665  1.1971 -1.3345  0.8558
 8169SOL     OW36139   4.717   2.430   9.177  0.0703  0.0775  0.3698
 8169SOL    HW136140   4.693   2.517   9.147  1.3801  0.6796  1.0899
 8169SOL    HW236141   0.073   2.418   9.143  0.1715  0.9213  0.3499
 8170SOL     OW36142   4.081   0.411   3.750  0.4315  0.2580  0.3335
 8170SOL    HW136143   4.159   0.360   3.731  1.5806  2.4626 -0.9224
 8170SOL    HW236144   4.101   0.429   3.842  0.7319  0.0656  0.3059
 8171SOL     OW36145   0.089   2.018   6.790 -0.6050 -0.0465  0.1107
 8171SOL    HW136146   0.036   2.090   6.825 -0.1393 -0.0885  0.8941
 8171SOL    HW236147   0.153   2.008   6.860 -0.8701 -2.5767 -0.0145
 8172SOL     OW36148   1.886   0.043   2.602 -0.1462  0.6267 -0.2436
 8172SOL    HW136149   1.814   0.086   2.648 -0.4057 -0.5820  0.4774
 8172SOL    HW236150   1.947   0.116   2.590  1.8547 -0.7991  1.4090
 8173SOL     OW36151   1.089   1.522   7.240 -0.5129 -0.0388 -0.5449
 8173SOL    HW136152   1.094   1.496   7.148  0.3112 -2.3255  0.1407
 8173SOL    HW236153   1.151   1.461   7.280 -1.9115  0.5190  2.4409
 8174SOL     OW36154   3.477   4.521   8.904 -0.2785  0.8058 -0.3250
 8174SOL    HW136155   3.524   4.578   8.964  1.5995 -1.8272  0.6854
 8174SOL    HW236156   3.544   4.466   8.864 -1.6175 -1.8060  1.0390
 8175SOL     OW36157   1.683   0.638  12.758  0.2859  0.3324  0.5945
 8175SOL    HW136158   1.634   0.719  12.773 -0.8346 -0.0576 -0.8885
 8175SOL    HW236159   1.698   0.602  12.845  1.0234 -1.1648 -0.1528
 8176SOL     OW36160   2.241   1.772   4.114 -0.2430  0.2657 -0.1674
 8176SOL    HW136161   2.205   1.693   4.154 -0.4938 -0.6612 -2.2267
 8176SOL    HW236162   2.236   1.739   4.025 -2.0209  1.0769 -0.3712
 8177SOL     OW36163   1.780   0.208   5.538 -0.0337  0.0885 -0.1461
 8177SOL    HW136164   1.715   0.138   5.546 -0.1725  0.4268  1.6611
 8177SOL    HW236165   1.717   0.279   5.521  0.7887  0.5391 -1.3107
 8178SOL     OW36166   1.960   2.472  14.590  0.1241  0.0850  0.1802
 8178SOL    HW136167   2.044   2.486  14.633 -0.5245  0.6944  1.2353
 8178SOL    HW236168   1.991   2.482  14.500 -2.0956  1.1248 -0.4882
 8179SOL     OW36169   0.196   2.226   4.545  0.1535 -0.3968 -0.0018
 8179SOL    HW136170   0.241   2.302   4.582  0.4329 -1.0572  1.0353
 8179SOL    HW236171   0.143   2.195   4.619 -0.0628 -1.4844 -0.6190
 8180SOL     OW36172   0.666   3.321   6.364 -0.7279  0.6981  0.1990
 8180SOL    HW136173   0.669   3.417   6.361  1.7768  0.5537 -1.6372
 8180SOL    HW236174   0.660   3.293   6.273 -1.0833 -1.8240  1.0089
 8181SOL     OW36175   1.077   3.679  12.166  0.4399 -0.0857  0.3888
 8181SOL    HW136176   1.023   3.613  12.122  1.4332  0.2300 -1.2800
 8181SOL    HW236177   1.039   3.763  12.138  1.7355 -0.1877 -1.6857
 8182SOL     OW36178   1.640   1.810   3.574 -0.0980 -0.5063  0.0225
 8182SOL    HW136179   1.552   1.788   3.604  1.2646 -3.7531  1.5944
 8182SOL    HW236180   1.687   1.729   3.592  1.1193  0.3177  0.5365
 8183SOL     OW36181   3.542   3.151   3.658  0.3318  0.1470  0.7158
 8183SOL    HW136182   3.513   3.138   3.568  0.8458  0.3114  0.5293
 8183SOL    HW236183   3.554   3.060   3.684  2.4529  0.2567  0.1199
 8184SOL     OW36184   1.017   1.949  17.163  0.3891  0.2428  0.6253
 8184SOL    HW136185   1.050   2.037  17.146  1.4037 -0.2379  0.1165
 8184SOL    HW236186   1.004   1.927  17.071  3.0458  0.9965  0.0642
 8185SOL     OW36187   1.082   1.390   2.617 -0.1482 -0.3405  0.1334
 8185SOL    HW136188   1.000   1.369   2.573  1.7287 -3.6878 -1.8264
 8185SOL    HW236189   1.139   1.320   2.584  0.5429  0.5587 -0.5666
 8186SOL     OW36190   1.117   3.094   5.142  0.6346 -0.3802  0.5125
 8186SOL    HW136191   1.211   3.093   5.155  0.5549 -0.5377  1.0517
 8186SOL    HW236192   1.112   3.018   5.085  1.4961  2.3298 -3.1924
 8187SOL     OW36193   4.718   4.542   6.390 -0.5324 -0.1297  0.2116
 8187SOL    HW136194   0.041   4.473   6.353  1.1554  1.9065 -1.0578
 8187SOL    HW236195   4.639   4.493   6.415 -0.7674  0.7563  1.2125
 8188SOL     OW36196   3.765   4.277  12.949 -0.3450 -0.3777 -0.1441
 8188SOL    HW136197   3.722   4.217  13.010  2.4072 -0.6961  1.4441
 8188SOL    HW236198   3.840   4.242  12.901 -0.4092  0.6474 -0.9996
 8189SOL     OW36199   2.630   0.096   9.468  0.2141 -0.7837 -0.4999
 8189SOL    HW136200   2.620   0.154   9.544  1.5274 -1.4357  0.1816
 8189SOL    HW236201   2.580   0.023   9.506  2.1427 -0.8477  1.8742
 8190SOL     OW36202   4.536   3.718   0.450 -0.0066 -0.4264  0.8841
 8190SOL    HW136203   4.601   3.733   0.518  0.1708 -3.1219  1.3014
 8190SOL    HW236204   4.489   3.642   0.484 -1.3105  0.4600  1.0439
 8191SOL     OW36205   0.056   2.757   3.675 -0.1598 -0.0868 -0.5106
 8191SOL    HW136206   0.041   2.663   3.672 -0.6244  0.0251 -1.8125
 8191SOL    HW236207   0.139   2.756   3.628  0.3891  0.0537  0.4650
 8192SOL     OW36208   3.916   3.931   9.711  0.0435  0.2651  0.8551
 8192SOL    HW136209   3.825   3.902   9.709  0.5760 -1.3597  0.7370
 8192SOL    HW236210   3.947   3.884   9.788  1.3738 -2.8791 -1.5851
 8193SOL     OW36211   4.413   0.723   6.460 -0.0978 -0.2390 -0.1923
 8193SOL    HW136212   4.414   0.805   6.410  0.1349  0.1919  0.5272
 8193SOL    HW236213   4.335   0.678   6.427  1.0669  1.2434 -4.9520
 8194SOL     OW36214   0.803   1.710   1.434 -0.1261 -0.0625 -0.0528
 8194SOL    HW136215   0.801   1.765   1.513 -0.2482  0.6335 -0.5397
 8194SOL    HW236216   0.866   1.761   1.383  2.1191 -2.0687  0.7109
 8195SOL     OW36217   4.691   3.704   6.094 -0.2022 -0.2741 -0.1159
 8195SOL    HW136218   0.005   3.622   6.115  1.6859  0.2776 -2.0896
 8195SOL    HW236219   0.029   3.756   6.055  1.2428 -2.1920 -0.1329
 8196SOL     OW36220   1.367   1.137   1.497 -0.3334 -0.0774  0.2363
 8196SOL    HW136221   1.400   1.070   1.438 -0.6327 -0.0811  0.0717
 8196SOL    HW236222   1.290   1.168   1.448 -1.3197  3.0967  3.7557
 8197SOL     OW36223   1.159   4.725  10.648  0.2645  0.1254  0.0838
 8197SOL    HW136224   1.204   4.659  10.703 -0.9004  0.0967  0.9952
 8197SOL    HW236225   1.067   4.703  10.656  0.0245 -0.3789 -4.0661
 8198SOL     OW36226   1.183   0.350  15.838  0.0387 -0.3905 -0.2916
 8198SOL    HW136227   1.163   0.378  15.748  1.4764  2.3346  0.2500
 8198SOL    HW236228   1.104   0.381  15.883 -0.2754  1.4075 -2.0507
 8199SOL     OW36229   4.452   4.201  14.768 -0.5196  0.0149 -0.1236
 8199SOL    HW136230   4.462   4.263  14.696  0.6451 -2.5207 -2.1310
 8199SOL    HW236231   4.394   4.255  14.822 -2.2791 -2.0381  0.0059
 8200SOL     OW36232   4.004   4.151  11.650 -0.1402 -0.1474 -0.5376
 8200SOL    HW136233   3.920   4.192  11.669  0.1898  0.7742 -1.0510
 8200SOL    HW236234   3.984   4.072  11.600 -2.8152  0.3351 -0.1967
 8201SOL     OW36235   3.526   1.776   5.850 -0.1767 -0.1154 -0.4184
 8201SOL    HW136236   3.459   1.844   5.854 -1.1977 -1.0910 -0.8826
 8201SOL    HW236237   3.570   1.805   5.770  1.1563 -2.3318 -0.4818
 8202SOL     OW36238   2.231   4.727   3.513 -0.2991  0.0001  0.1513
 8202SOL    HW136239   2.272   0.075   3.482 -1.0803  0.7431  1.0334
 8202SOL    HW236240   2.215   4.685   3.429  3.7140  0.3787 -0.7856
 8203SOL     OW36241   3.373   0.928   9.340  0.2925 -0.5377 -0.5372
 8203SOL    HW136242   3.394   1.019   9.363 -0.3188 -0.1886 -1.3385
 8203SOL    HW236243   3.364   0.893   9.428 -1.4122  0.1624 -0.4193
 8204SOL     OW36244   4.672   1.047   1.915  0.2499  0.0312  0.6638
 8204SOL    HW136245   4.662   1.020   1.824  1.2504  0.4905  0.4239
 8204SOL    HW236246   4.671   1.140   1.896  0.0700 -0.1469 -0.2012
 8205SOL     OW36247   1.047   4.709   4.002  0.4816  0.0698 -0.5118
 8205SOL    HW136248   1.112   0.047   4.001 -2.9511  3.2705  1.8326
 8205SOL    HW236249   0.986   0.006   4.070 -0.0533 -0.9362 -0.5625
 8206SOL     OW36250   2.528   1.974  13.581  0.2257 -0.0634  0.7566
 8206SOL    HW136251   2.570   2.058  13.600  0.5941 -0.3014  0.9934
 8206SOL    HW236252   2.545   1.958  13.488 -1.7869  2.6287 -0.0432
 8207SOL     OW36253   3.492   3.726   5.215  0.0750  0.6270 -0.6343
 8207SOL    HW136254   3.525   3.636   5.217  1.4999  1.1792  0.8388
 8207SOL    HW236255   3.555   3.768   5.272 -0.2416 -1.1204  1.0049
 8208SOL     OW36256   0.207   4.448   9.409 -0.1849 -0.1026  0.2341
 8208SOL    HW136257   0.177   4.485   9.326 -2.0011 -1.2857  0.3558
 8208SOL    HW236258   0.173   4.359   9.396  1.5600 -0.6092 -0.8972
 8209SOL     OW36259   0.109   2.870   3.316  0.0236 -0.2697 -0.0959
 8209SOL    HW136260   0.022   2.849   3.351 -0.1029 -0.7880 -0.7223
 8209SOL    HW236261   0.114   2.963   3.339 -2.4817 -0.4628  1.2871
 8210SOL     OW36262   0.159   4.030   9.141 -0.1458 -0.5660 -0.7419
 8210SOL    HW136263   0.245   4.071   9.143  0.4462 -1.7412 -1.6245
 8210SOL    HW236264   0.179   3.940   9.113 -0.6838 -1.3717  1.4337
 8211SOL     OW36265   4.073   1.472   2.417 -0.3045 -0.7907 -0.1281
 8211SOL    HW136266   4.079   1.447   2.510  2.4935 -0.9067 -0.3214
 8211SOL    HW236267   4.157   1.516   2.401 -1.4514  1.5096  0.2837
 8212SOL     OW36268   2.785   3.499   3.855  0.3987  0.2203  0.2662
 8212SOL    HW136269   2.861   3.512   3.912  1.5127  1.0270 -1.4143
 8212SOL    HW236270   2.717   3.458   3.908  2.3866 -2.8580  0.4429
 8213SOL     OW36271   1.172   3.571   5.731 -0.1598  0.4576 -0.2817
 8213SOL    HW136272   1.197   3.531   5.648 -1.2635 -3.0720  1.0752
 8213SOL    HW236273   1.078   3.565   5.715 -0.3104 -0.3107  0.8689
 8214SOL     OW36274   3.340   0.322   1.130 -0.3607  0.1421 -0.4399
 8214SOL    HW136275   3.314   0.407   1.097  0.6017  0.1743 -1.0893
 8214SOL    HW236276   3.276   0.259   1.096 -1.3359  1.2199 -0.5658
 8215SOL     OW36277   2.856   3.350   9.847 -0.1931  0.4010  0.5456
 8215SOL    HW136278   2.871   3.385   9.935 -0.9893  1.7456  0.1410
 8215SOL    HW236279   2.859   3.256   9.863 -1.4596  0.1049 -1.0006
 8216SOL     OW36280   4.081   2.569  17.600 -0.0970 -0.0393  0.0344
 8216SOL    HW136281   4.170   2.537  17.615  0.0021 -0.0196 -0.4924
 8216SOL    HW236282   4.030   2.491  17.617 -0.2408  0.2580  0.9303
 8217SOL     OW36283   0.852   3.845   3.131 -0.5239 -0.6117  0.1098
 8217SOL    HW136284   0.823   3.832   3.040 -0.7520 -0.6327  0.1860
 8217SOL    HW236285   0.929   3.892   3.097 -1.0913 -0.5017 -1.0129
 8218SOL     OW36286   3.565   1.523   5.922  0.0638  0.2108  0.5765
 8218SOL    HW136287   3.518   1.523   6.006 -0.9909  1.1249 -0.0208
 8218SOL    HW236288   3.550   1.614   5.896 -0.0379  0.5728  1.9012
 8219SOL     OW36289   3.426   0.487  11.814 -0.5519 -0.3069 -0.1464
 8219SOL    HW136290   3.507   0.456  11.772 -0.7307 -1.3329  0.2643
 8219SOL    HW236291   3.456   0.473  11.904  3.8899  1.8283 -1.3133
 8220SOL     OW36292   4.229   4.392  10.466 -0.0162 -0.1025  0.2300
 8220SOL    HW136293   4.146   4.343  10.462 -0.9164  1.1693  3.7683
 8220SOL    HW236294   4.258   4.365  10.553  1.6118  0.5436 -0.1169
 8221SOL     OW36295   0.924   1.923  17.727 -0.4416 -0.2553  0.0592
 8221SOL    HW136296   0.918   1.854  17.660  0.0442  0.8575 -1.1389
 8221SOL    HW236297   0.838   1.965   0.002 -0.9549 -1.1444 -2.0022
 8222SOL     OW36298   1.476   4.699   1.576 -0.2364  0.5666 -0.1336
 8222SOL    HW136299   1.453   4.662   1.491 -1.0104  0.4919  0.1080
 8222SOL    HW236300   1.471   4.622   1.632 -0.5132 -0.2456 -1.2933
 8223SOL     OW36301   1.648   4.685   5.578  0.0217 -0.7043 -0.8028
 8223SOL    HW136302   1.645   4.591   5.560 -2.4817 -1.1245  1.8547
 8223SOL    HW236303   1.730   4.694   5.628 -0.9044  0.4649  0.5063
 8224SOL     OW36304   0.084   3.281   9.181  0.7351  0.1023 -0.0886
 8224SOL    HW136305   0.044   3.221   9.244  0.1464 -0.2456 -0.7917
 8224SOL    HW236306   0.158   3.234   9.141  1.1928  0.8433 -0.0995
 8225SOL     OW36307   3.878   1.815   4.784 -0.2257  0.0717 -0.4877
 8225SOL    HW136308   3.819   1.864   4.727 -0.8288  0.8392  0.7927
 8225SOL    HW236309   3.915   1.752   4.722 -3.2613 -0.3243 -1.9004
 8226SOL     OW36310   4.131   0.438   5.032  0.3030  0.0236  0.0736
 8226SOL    HW136311   4.174   0.417   4.949 -0.8785 -1.8222 -0.0913
 8226SOL    HW236312   4.155   0.530   5.042  2.4031 -0.3354 -1.5873
 8227SOL     OW36313   0.546   1.912   4.999 -0.4515  0.2398  0.0933
 8227SOL    HW136314   0.610   1.844   4.980  1.2148  0.9982  2.8979
 8227SOL    HW236315   0.491   1.875   5.069 -1.3251 -1.1734 -1.3418
 8228SOL     OW36316   4.567   0.334   2.362 -0.7941  0.1612  0.0406
 8228SOL    HW136317   4.570   0.429   2.355  0.7701  0.1050  0.1508
 8228SOL    HW236318   4.473   0.322   2.376 -0.2761 -1.9782  1.7135
 8229SOL     OW36319   1.789   0.401   7.188  0.1305 -0.3581 -0.0239
 8229SOL    HW136320   1.824   0.338   7.125 -1.1259 -1.3677  0.2697
 8229SOL    HW236321   1.737   0.355   7.254 -0.6569  0.8489  0.1926
 8230SOL     OW36322   4.587   3.813  12.101 -0.0576  0.6017 -0.2900
 8230SOL    HW136323   4.671   3.810  12.146 -1.1930  1.4588  1.9282
 8230SOL    HW236324   4.608   3.825  12.009  3.0963 -1.0769  0.2228
 8231SOL     OW36325   1.893   0.329  12.929  0.1549 -0.3622  0.2657
 8231SOL    HW136326   1.910   0.422  12.915 -0.5474 -0.3621 -0.6347
 8231SOL    HW236327   1.963   0.304  12.989 -1.0844  0.8978  2.2298
 8232SOL     OW36328   1.615   2.021   3.836  0.0433  0.0633 -0.0339
 8232SOL    HW136329   1.539   1.978   3.798 -0.4280  1.4023 -0.6225
 8232SOL    HW236330   1.573   2.104   3.860 -0.2413 -0.4114  1.1091
 8233SOL     OW36331   1.155   4.479   3.877  0.6185  0.5818  0.2377
 8233SOL    HW136332   1.072   4.434   3.896  1.0360 -0.0827  0.5041
 8233SOL    HW236333   1.132   4.554   3.931  2.4112 -0.4630  2.4475
 8234SOL     OW36334   0.217   4.204   8.233 -0.0019 -0.8409  0.4500
 8234SOL    HW136335   0.303   4.171   8.259  0.8877  0.7585 -0.4651
 8234SOL    HW236336   0.199   4.162   8.148  1.2523  0.2390 -0.3432
 8235SOL     OW36337   4.683   0.155   8.675  0.0044  0.5427  0.1295
 8235SOL    HW136338   4.706   0.131   8.765  1.3607  0.0987 -0.3438
 8235SOL    HW236339   4.635   0.078   8.646  0.3963 -0.0488  1.0365
 8236SOL     OW36340   4.142   2.068  14.029 -0.2200  0.2257 -0.0313
 8236SOL    HW136341   4.211   2.133  14.040  0.1300 -0.1699  0.1042
 8236SOL    HW236342   4.139   2.025  14.114 -3.1352 -0.7273 -0.6165
 8237SOL     OW36343   4.103   2.729   7.797  0.2398 -0.1671 -0.5345
 8237SOL    HW136344   4.191   2.693   7.808  1.1385  1.6692 -1.6138
 8237SOL    HW236345   4.048   2.668   7.846 -0.0529 -0.2560 -0.9728
 8238SOL     OW36346   2.320   1.094   8.905 -0.2562  0.1195  0.5167
 8238SOL    HW136347   2.412   1.079   8.885  0.5122  3.1407  1.8232
 8238SOL    HW236348   2.288   1.004   8.915 -1.3185  0.1644 -2.5886
 8239SOL     OW36349   2.088   2.498   5.208 -0.0577 -0.0138  0.1807
 8239SOL    HW136350   2.176   2.479   5.175  0.1585 -0.1121  0.8069
 8239SOL    HW236351   2.070   2.405   5.195 -0.1857  0.1961 -1.1184
 8240SOL     OW36352   2.360   4.493   2.217 -0.4563  0.1354  0.1541
 8240SOL    HW136353   2.379   4.553   2.144 -0.9559  1.4810  1.1384
 8240SOL    HW236354   2.269   4.482   2.189  0.0702 -1.0164 -1.1309
 8241SOL     OW36355   4.301   2.760   7.489  0.1347  0.7433  0.3262
 8241SOL    HW136356   4.214   2.724   7.476  1.1621 -1.5185 -0.1502
 8241SOL    HW236357   4.341   2.683   7.528 -1.5455 -0.5243 -0.4933
 8242SOL     OW36358   1.022   0.243  17.241 -0.1993 -0.0418  0.1108
 8242SOL    HW136359   1.034   0.321  17.186 -0.8417 -1.6923 -2.3789
 8242SOL    HW236360   0.951   0.194  17.199  0.1373  1.0712 -1.7423
 8243SOL     OW36361   2.308   4.523   5.855  0.3798  0.5055 -0.1897
 8243SOL    HW136362   2.276   4.458   5.918 -2.4020  1.7759 -0.2907
 8243SOL    HW236363   2.328   4.590   5.920 -2.0926  1.7934 -0.7728
 8244SOL     OW36364   4.395   2.062   4.222  0.2098  0.5615 -0.1869
 8244SOL    HW136365   4.305   2.030   4.222 -0.1640  1.6056 -0.2030
 8244SOL    HW236366   4.383   2.154   4.199  0.0356  0.5770 -0.0322
 8245SOL     OW36367   0.624   1.423   2.183 -0.1354  0.4116 -0.3175
 8245SOL    HW136368   0.583   1.355   2.130 -0.3764 -0.6957  1.2985
 8245SOL    HW236369   0.634   1.491   2.117 -1.9415  1.2937  0.3183
 8246SOL     OW36370   3.367   3.233   8.371 -0.4391  0.1176  0.1870
 8246SOL    HW136371   3.418   3.154   8.387 -1.2528 -0.0767  1.8713
 8246SOL    HW236372   3.398   3.282   8.448  0.4940  0.7330 -0.5802
 8247SOL     OW36373   2.041   0.012   2.977  0.0386 -0.1157  0.5134
 8247SOL    HW136374   2.131   4.712   2.974 -1.1211 -3.1753 -1.1465
 8247SOL    HW236375   2.015   4.679   2.912 -2.1503  1.5220 -0.2446
 8248SOL     OW36376   0.457   4.614   8.065  0.1842  1.5088  0.1712
 8248SOL    HW136377   0.411   4.684   8.111 -2.6631 -1.4146  1.7898
 8248SOL    HW236378   0.428   4.630   7.975 -0.0379 -2.6835 -0.5266
 8249SOL     OW36379   0.804   0.455   2.610  0.2433 -0.5048 -0.5425
 8249SOL    HW136380   0.893   0.462   2.576  0.6293 -0.8734  0.4017
 8249SOL    HW236381   0.804   0.485   2.701 -0.0357  0.3855 -0.8424
 8250SOL     OW36382   3.580   2.908   4.969 -0.2038  0.0771  0.4676
 8250SOL    HW136383   3.533   2.938   4.892  0.5606  1.1412  0.4100
 8250SOL    HW236384   3.636   2.982   4.994 -1.4655  1.4000 -0.6705
 8251SOL     OW36385   1.842   0.298   9.329 -0.0982 -0.2628 -0.1631
 8251SOL    HW136386   1.900   0.231   9.364  0.5481  0.6764  0.5447
 8251SOL    HW236387   1.789   0.250   9.265  1.3733 -1.6486 -0.3368
 8252SOL     OW36388   1.003   1.673  13.819 -0.1293 -0.6905 -0.3799
 8252SOL    HW136389   0.969   1.717  13.897 -1.0393  0.4683 -1.4291
 8252SOL    HW236390   0.921   1.646  13.777 -0.1498  0.2185 -0.9186
 8253SOL     OW36391   2.063   2.023  13.384 -0.3664 -0.5754 -0.2689
 8253SOL    HW136392   2.049   2.102  13.437  0.1049 -0.4769 -0.2896
 8253SOL    HW236393   2.066   2.064  13.298  2.0199 -1.2333 -0.4955
 8254SOL     OW36394   4.297   4.077   1.708 -0.1593  0.0328  0.0092
 8254SOL    HW136395   4.273   4.164   1.676  2.0206  1.2682  1.7565
 8254SOL    HW236396   4.216   4.027   1.698 -0.4870  0.4827  0.4136
 8255SOL     OW36397   0.106   2.398   6.497  0.4121  0.1912 -0.2532
 8255SOL    HW136398   0.190   2.358   6.519 -0.4195 -1.2031  0.3643
 8255SOL    HW236399   0.088   2.347   6.417  0.1977 -0.0822 -0.0309
 8256SOL     OW36400   4.722   1.257   4.441 -0.0288 -0.3680  0.0101
 8256SOL    HW136401   4.667   1.265   4.363 -1.9492 -0.3160  1.3540
 8256SOL    HW236402   4.659   1.211   4.497  2.1670 -0.2840  2.5911
 8257SOL     OW36403   0.772   2.896  11.010  0.4440 -0.0384  0.3759
 8257SOL    HW136404   0.774   2.932  10.921  0.1702 -0.5087  0.1798
 8257SOL    HW236405   0.680   2.908  11.033  0.5890  2.0202 -0.1431
 8258SOL     OW36406   0.234   0.403   9.760 -0.7494 -0.1196 -0.4544
 8258SOL    HW136407   0.250   0.355   9.842 -0.8536 -0.0478 -0.3924
 8258SOL    HW236408   0.243   0.494   9.786 -0.3296 -0.6939  1.4397
 8259SOL     OW36409   4.479   2.813   4.167 -0.3773 -0.1683  0.1240
 8259SOL    HW136410   4.567   2.849   4.162 -1.0242  1.2162 -1.1668
 8259SOL    HW236411   4.427   2.883   4.209 -1.5568 -0.9681 -0.0036
 8260SOL     OW36412   3.357   4.135  16.365  0.0510 -0.2686  0.6776
 8260SOL    HW136413   3.327   4.048  16.339  0.9391 -1.0749  2.3727
 8260SOL    HW236414   3.433   4.105  16.415  0.6804  0.5724  0.2164
 8261SOL     OW36415   2.498   0.680   6.905  0.2036 -0.2818 -0.4864
 8261SOL    HW136416   2.501   0.730   6.987  1.2828 -3.2569  1.3024
 8261SOL    HW236417   2.567   0.728   6.859 -0.7362  1.0545 -0.5087
 8262SOL     OW36418   2.475   3.097   5.401  0.4191  0.1998  0.2576
 8262SOL    HW136419   2.518   3.013   5.417  1.6905  1.2781  2.5833
 8262SOL    HW236420   2.386   3.079   5.431  0.8300  0.2664  1.5425
 8263SOL     OW36421   3.387   3.143   3.395  0.0735  0.0904 -0.3878
 8263SOL    HW136422   3.442   3.088   3.339 -0.4917  0.4749 -1.3227
 8263SOL    HW236423   3.309   3.150   3.340  0.2040  2.7670 -0.2232
 8264SOL     OW36424   0.816   0.053   3.845 -0.2136  0.0385 -0.0218
 8264SOL    HW136425   0.812   0.011   3.759  0.6282 -0.5668  0.2321
 8264SOL    HW236426   0.909   0.041   3.864 -0.1036 -1.7309 -1.7032
 8265SOL     OW36427   2.772   1.327   9.076  0.1612 -0.6727  0.0673
 8265SOL    HW136428   2.772   1.271   9.154 -2.3850 -0.3478  0.3105
 8265SOL    HW236429   2.820   1.403   9.110 -0.6482 -0.0126 -0.2765
 8266SOL     OW36430   2.452   2.296   6.107 -0.3606 -0.0480  0.2616
 8266SOL    HW136431   2.401   2.230   6.152 -0.6013  0.1646  0.2983
 8266SOL    HW236432   2.424   2.282   6.017  0.5047 -0.1847  0.0106
 8267SOL     OW36433   0.624   0.517   1.242 -0.2678  0.0681 -0.0674
 8267SOL    HW136434   0.566   0.592   1.234 -0.7772 -0.2735  0.4094
 8267SOL    HW236435   0.585   0.459   1.308  0.2230  0.4436  0.5595
 8268SOL     OW36436   1.772   1.797  15.940 -0.0283  0.2608  0.4946
 8268SOL    HW136437   1.796   1.708  15.917 -0.6222  0.1519  0.2996
 8268SOL    HW236438   1.799   1.799  16.032 -2.0944  3.9688  1.0514
 8269SOL     OW36439   0.562   4.000   4.983  0.6183 -0.5097  0.3430
 8269SOL    HW136440   0.598   4.016   4.896  0.5413 -0.0649  0.3904
 8269SOL    HW236441   0.642   4.007   5.035 -0.1281  3.3278  0.9691
 8270SOL     OW36442   4.370   0.126   1.006 -0.1902  0.1562 -0.4181
 8270SOL    HW136443   4.382   0.172   0.923  0.3572  2.6896  1.0709
 8270SOL    HW236444   4.460   0.094   1.013 -0.6793 -1.8791 -3.3815
 8271SOL     OW36445   4.577   2.230  16.544  0.5314 -0.5935 -0.4020
 8271SOL    HW136446   4.656   2.271  16.509  0.0976  0.5645 -0.0083
 8271SOL    HW236447   4.600   2.217  16.636 -1.4486 -2.4333 -0.1585
 8272SOL     OW36448   3.029   4.300   9.888 -0.3453 -0.6228  0.2150
 8272SOL    HW136449   3.085   4.281   9.963 -1.8856  1.5213  1.9061
 8272SOL    HW236450   3.047   4.221   9.837 -0.9590  0.0854 -1.0772
 8273SOL     OW36451   3.990   4.139   7.465  0.0465  0.1713 -0.2946
 8273SOL    HW136452   4.021   4.081   7.395  0.2930 -1.1454  0.8950
 8273SOL    HW236453   3.975   4.070   7.530 -0.5994  0.5615 -0.0357
 8274SOL     OW36454   3.455   0.827   4.790  0.3215 -0.1442 -0.3837
 8274SOL    HW136455   3.542   0.864   4.774  0.1932  0.1369 -0.4283
 8274SOL    HW236456   3.466   0.793   4.878 -0.8396  0.6665  0.0778
 8275SOL     OW36457   2.360   0.320   7.678  0.2035  0.3455 -0.6592
 8275SOL    HW136458   2.437   0.327   7.734 -1.2002 -1.5703  1.5173
 8275SOL    HW236459   2.349   0.404   7.634  0.1030 -0.3870 -2.0388
 8276SOL     OW36460   2.380   1.893  15.818  0.6043 -0.1225  0.1398
 8276SOL    HW136461   2.377   1.986  15.841 -1.8532 -0.0103 -0.5930
 8276SOL    HW236462   2.298   1.887  15.768  0.7897  0.6571 -0.2545
 8277SOL     OW36463   0.022   2.584   3.292  0.0068  0.0921 -0.3501
 8277SOL    HW136464   0.112   2.610   3.311 -0.6361 -0.0213  2.9932
 8277SOL    HW236465   4.719   2.561   3.378  0.9460 -0.6996 -0.1750
 8278SOL     OW36466   1.233   3.751   8.927 -0.8971 -0.5621  0.9708
 8278SOL    HW136467   1.223   3.839   8.891  0.9867 -1.2021 -1.0675
 8278SOL    HW236468   1.255   3.774   9.017  0.9723  0.5999  0.2166
 8279SOL     OW36469   4.410   3.176   7.605 -0.0777 -0.3205 -0.1436
 8279SOL    HW136470   4.384   3.089   7.633 -1.1118  0.1637  0.4068
 8279SOL    HW236471   4.414   3.176   7.509 -1.5403  0.1991 -0.2079
 8280SOL     OW36472   1.761   1.526   4.933 -0.0023  0.1208 -0.1371
 8280SOL    HW136473   1.733   1.565   4.850  0.5732 -2.6942 -1.6776
 8280SOL    HW236474   1.854   1.547   4.925 -0.1629  1.0472  0.5800
 8281SOL     OW36475   3.241   3.233  12.277 -0.1317  0.0691  0.3013
 8281SOL    HW136476   3.212   3.161  12.333  1.2300 -0.7666 -0.0655
 8281SOL    HW236477   3.223   3.316  12.322 -2.9849 -0.8353  0.7950
 8282SOL     OW36478   1.721   1.787   7.143 -0.3568 -0.0657  0.0397
 8282SOL    HW136479   1.672   1.714   7.183  0.5052 -0.3532  0.5648
 8282SOL    HW236480   1.734   1.764   7.051  1.3222 -1.6348  0.6700
 8283SOL     OW36481   0.418   0.265   8.578 -0.1694 -0.1925 -0.0338
 8283SOL    HW136482   0.361   0.197   8.543 -2.0752 -0.3267  3.3532
 8283SOL    HW236483   0.494   0.210   8.595  0.4989  1.1464  1.2729
 8284SOL     OW36484   2.667   3.128   2.991 -0.4122  0.5506  0.8250
 8284SOL    HW136485   2.683   3.038   2.960  0.8022  0.4637  1.6606
 8284SOL    HW236486   2.625   3.168   2.915 -0.4514  0.6693  0.9102
 8285SOL     OW36487   2.869   1.871  17.356 -0.1214 -0.1533  0.0754
 8285SOL    HW136488   2.881   1.954  17.403 -0.3744 -0.6628  1.0297
 8285SOL    HW236489   2.806   1.829  17.414 -1.6421 -0.0894 -1.5148
 8286SOL     OW36490   1.509   0.671   0.668 -0.2325 -0.3539  0.0308
 8286SOL    HW136491   1.551   0.638   0.588 -1.4224 -0.9428 -0.3532
 8286SOL    HW236492   1.436   0.609   0.662 -1.0222  0.9212 -3.5471
 8287SOL     OW36493   4.669   0.779   6.563 -0.0177  0.2513 -0.6028
 8287SOL    HW136494   4.582   0.771   6.524 -0.8709  1.0902  1.1333
 8287SOL    HW236495   4.720   0.721   6.506 -1.7894 -2.1108  0.2067
 8288SOL     OW36496   2.493   1.489  11.419  0.4739  0.2277 -0.1780
 8288SOL    HW136497   2.464   1.516  11.506 -2.2966 -0.0316 -0.9943
 8288SOL    HW236498   2.509   1.573  11.377 -1.2169  1.0040  0.6924
 8289SOL     OW36499   1.406   0.794   9.065 -0.0108 -0.2870  0.1215
 8289SOL    HW136500   1.337   0.826   9.124  0.2400 -0.7871  0.6953
 8289SOL    HW236501   1.484   0.794   9.119  0.0490  2.0329  0.0474
 8290SOL     OW36502   1.537   1.609   7.243 -0.0752 -0.1434 -0.0974
 8290SOL    HW136503   1.526   1.622   7.337 -1.5200 -2.3817  0.0227
 8290SOL    HW236504   1.544   1.515   7.230 -1.1951 -0.8787  4.4835
 8291SOL     OW36505   1.751   1.032   2.813  0.0974  0.2906 -0.2031
 8291SOL    HW136506   1.754   1.118   2.855  0.1815  0.6860 -1.0228
 8291SOL    HW236507   1.689   1.055   2.744 -0.9604  0.3895  0.7846
 8292SOL     OW36508   2.324   1.446   5.479  0.1222  0.1656 -0.1996
 8292SOL    HW136509   2.385   1.519   5.477 -0.0561  0.3410  1.0534
 8292SOL    HW236510   2.346   1.402   5.396 -1.0139 -1.1267  0.1726
 8293SOL     OW36511   1.065   1.135   1.088 -0.1777 -0.6271 -0.5112
 8293SOL    HW136512   1.077   1.211   1.032 -2.6748 -0.7427 -1.2266
 8293SOL    HW236513   0.992   1.090   1.045  0.8808 -1.5474 -1.3734
 8294SOL     OW36514   0.128   3.630  12.404 -0.4917 -0.3686  0.6543
 8294SOL    HW136515   0.164   3.641  12.491  1.8244  1.4856 -0.5448
 8294SOL    HW236516   0.096   3.540  12.406 -1.7497  0.0346 -1.1237
 8295SOL     OW36517   2.235   2.055   3.064  0.2328  0.2113 -0.1085
 8295SOL    HW136518   2.231   1.979   3.122  0.2282  1.4459  1.5060
 8295SOL    HW236519   2.224   2.130   3.123 -0.9014 -0.5454  0.6410
 8296SOL     OW36520   1.849   1.226   2.568  0.0501 -0.0265  0.1857
 8296SOL    HW136521   1.800   1.306   2.549  0.2733 -0.0017 -0.2694
 8296SOL    HW236522   1.781   1.160   2.579 -0.4974  0.5847  0.4505
 8297SOL     OW36523   0.932   4.622   8.030  0.2874  0.7668  0.3864
 8297SOL    HW136524   0.868   4.693   8.026 -2.0728 -1.4112 -0.7670
 8297SOL    HW236525   0.981   4.640   8.110  1.9521 -1.1842 -0.2075
 8298SOL     OW36526   2.230   2.190   4.914 -0.4447 -0.7723 -0.2721
 8298SOL    HW136527   2.163   2.239   4.867 -0.0121 -0.3646 -0.4549
 8298SOL    HW236528   2.241   2.115   4.856  0.7864 -0.9716  0.2209
 8299SOL     OW36529   2.007   2.425  11.078  0.2341 -0.1995  0.0463
 8299SOL    HW136530   1.931   2.368  11.082  2.0097 -2.4136  1.9047
 8299SOL    HW236531   2.032   2.435  10.986  2.9322 -0.3449  0.7620
 8300SOL     OW36532   3.354   1.485   2.899 -0.2663  0.4050 -0.2131
 8300SOL    HW136533   3.336   1.579   2.893 -2.0888  0.1419  1.0146
 8300SOL    HW236534   3.353   1.463   2.992  0.0757 -1.3015 -0.6128
 8301SOL     OW36535   2.957   3.751  12.379 -0.1390  0.0935  0.6217
 8301SOL    HW136536   2.867   3.720  12.370 -0.3280  1.1404 -1.1799
 8301SOL    HW236537   2.971   3.800  12.298 -3.0799 -1.0037 -0.5379
 8302SOL     OW36538   3.862   0.305   4.799  0.0846  0.3631  0.6805
 8302SOL    HW136539   3.830   0.390   4.828 -2.2224 -0.4956  0.6524
 8302SOL    HW236540   3.783   0.271   4.757  0.7198 -0.1375 -0.1162
 8303SOL     OW36541   1.744   2.848   5.184  0.3293  0.0134 -0.0800
 8303SOL    HW136542   1.676   2.817   5.124 -2.8008 -0.5876  3.7505
 8303SOL    HW236543   1.785   2.765   5.204 -1.1507 -0.4129  1.2134
 8304SOL     OW36544   3.813   0.813   5.803 -0.4984 -0.3900 -0.3045
 8304SOL    HW136545   3.876   0.834   5.733  0.6291  0.0481  0.8316
 8304SOL    HW236546   3.730   0.797   5.758 -0.1086  0.4310 -1.3194
 8305SOL     OW36547   1.124   0.589   0.451 -0.6814 -0.4950  0.3411
 8305SOL    HW136548   1.079   0.507   0.471  0.2291 -1.0190  0.2351
 8305SOL    HW236549   1.199   0.591   0.510 -0.9115 -1.4598  0.6661
 8306SOL     OW36550   2.448   2.175  11.973 -0.3101  0.5338  0.3060
 8306SOL    HW136551   2.442   2.202  12.064 -2.4041  2.1575 -0.3333
 8306SOL    HW236552   2.399   2.245  11.931  1.4420  2.2042  1.0509
 8307SOL     OW36553   2.489   1.179   5.712 -0.0352  0.0384  0.4306
 8307SOL    HW136554   2.504   1.168   5.618  1.3726  1.5634  0.4814
 8307SOL    HW236555   2.527   1.267   5.718  1.7582 -0.7717  0.9503
 8308SOL     OW36556   3.309   3.915  10.104  0.3789 -0.1177  0.0277
 8308SOL    HW136557   3.393   3.874  10.086  0.0360 -0.5530 -0.5629
 8308SOL    HW236558   3.317   3.969  10.182 -1.1088  1.7617 -1.0966
 8309SOL     OW36559   3.162   1.588   0.598 -0.2362 -0.2582 -0.1568
 8309SOL    HW136560   3.248   1.582   0.639  0.5310 -1.1270 -1.8582
 8309SOL    HW236561   3.136   1.496   0.593 -0.5222 -0.1914  0.1035
 8310SOL     OW36562   4.082   0.971   7.692 -0.1519 -0.2291 -0.2052
 8310SOL    HW136563   4.003   0.928   7.658 -1.0458 -0.3381  2.0238
 8310SOL    HW236564   4.116   0.910   7.757 -0.9850  0.6208  1.0294
 8311SOL     OW36565   3.261   2.985  16.934 -0.3262  0.1398 -0.5974
 8311SOL    HW136566   3.202   2.911  16.947  0.4536 -0.7144 -1.9872
 8311SOL    HW236567   3.326   2.980  17.004 -0.6327  0.0609 -0.3215
 8312SOL     OW36568   2.151   1.011   0.093  0.5244  0.1625 -0.1315
 8312SOL    HW136569   2.219   0.971   0.146 -0.4143  0.8544  1.5853
 8312SOL    HW236570   2.115   0.944   0.035 -0.1089  0.4333 -0.0427
 8313SOL     OW36571   1.171   4.587   4.279  0.0919 -0.7218  0.8188
 8313SOL    HW136572   1.146   4.504   4.240  1.2429 -1.0741  0.8301
 8313SOL    HW236573   1.254   4.602   4.234 -1.1078  0.0515 -1.1571
 8314SOL     OW36574   4.489   1.977   3.850 -0.2457  0.3348  0.2594
 8314SOL    HW136575   4.486   1.885   3.878  0.2564 -0.3946 -2.0653
 8314SOL    HW236576   4.469   1.978   3.757 -0.4835 -1.4112  0.2765
 8315SOL     OW36577   0.935   0.112   0.206  0.4609  0.5645 -0.6354
 8315SOL    HW136578   0.935   0.181   0.140 -0.7399 -1.1514 -2.4278
 8315SOL    HW236579   1.025   0.080   0.200  0.5143  0.5314  0.3546
 8316SOL     OW36580   0.559   1.386   1.584  0.0135 -0.2295  0.5074
 8316SOL    HW136581   0.559   1.448   1.511  2.3931 -1.0955 -0.2273
 8316SOL    HW236582   0.532   1.433   1.663  1.0017  1.1270  0.0377
 8317SOL     OW36583   1.626   4.319   0.970  0.0593 -0.2136  0.4445
 8317SOL    HW136584   1.666   4.257   1.031  1.2070 -0.4413 -0.5374
 8317SOL    HW236585   1.695   4.302   0.906 -0.0560  1.9272 -0.2442
 8318SOL     OW36586   1.156   2.224  14.708 -0.4096  0.1538 -0.3050
 8318SOL    HW136587   1.142   2.129  14.709  0.3498  0.0357 -1.5414
 8318SOL    HW236588   1.189   2.242  14.620  1.2852  0.1122  0.3184
 8319SOL     OW36589   1.710   2.056  15.831  0.1037  0.0280 -0.0595
 8319SOL    HW136590   1.730   1.966  15.859 -3.3961 -0.9179 -0.6133
 8319SOL    HW236591   1.699   2.052  15.736  0.6566  3.9476 -0.2932
 8320SOL     OW36592   2.305   3.394   2.103  0.0815  0.0532  0.3947
 8320SOL    HW136593   2.338   3.317   2.148 -0.6897 -0.0773  0.7430
 8320SOL    HW236594   2.362   3.463   2.135  1.6116 -0.1090 -1.9815
 8321SOL     OW36595   2.069   0.614   9.275  0.3142  0.1023  0.1331
 8321SOL    HW136596   2.055   0.620   9.370  0.1204  0.1342  0.1026
 8321SOL    HW236597   2.098   0.703   9.256  0.7703 -0.8035 -3.3429
 8322SOL     OW36598   4.588   3.191   3.921 -0.3721  0.1689 -0.0379
 8322SOL    HW136599   4.582   3.143   3.839 -0.0244 -0.7416  0.4707
 8322SOL    HW236600   4.641   3.266   3.894  0.2421 -0.6078 -0.9894
 8323SOL     OW36601   0.484   3.851   2.529  0.2471  0.1052 -0.6865
 8323SOL    HW136602   0.455   3.861   2.619  1.9670 -1.7000  0.0560
 8323SOL    HW236603   0.408   3.803   2.497  0.8744 -1.2282 -0.1569
 8324SOL     OW36604   3.390   3.553   8.736 -0.0879 -0.3070 -0.5121
 8324SOL    HW136605   3.378   3.458   8.729 -4.2339  0.2719 -1.1663
 8324SOL    HW236606   3.300   3.584   8.736 -0.0298 -0.1395 -0.7140
 8325SOL     OW36607   1.466   1.806  14.936 -0.4414  0.0466 -0.1704
 8325SOL    HW136608   1.439   1.895  14.957  2.0300  0.3318  1.8165
 8325SOL    HW236609   1.560   1.817  14.920 -0.4177  1.8461  1.2313
 8326SOL     OW36610   2.899   4.182  16.549  0.8115 -0.2365 -0.4955
 8326SOL    HW136611   2.859   4.267  16.569  0.5970 -0.2969 -0.6686
 8326SOL    HW236612   2.968   4.214  16.490 -0.7305  0.2146 -2.0600
 8327SOL     OW36613   3.865   4.418   9.858 -0.4305  0.2584 -0.1093
 8327SOL    HW136614   3.794   4.424   9.793 -1.5014 -3.1046  0.7401
 8327SOL    HW236615   3.932   4.393   9.795 -0.7303  1.1689 -0.7936
 8328SOL     OW36616   1.329   2.064  16.720  0.0283  0.0629  0.2891
 8328SOL    HW136617   1.382   2.057  16.640 -1.3663  0.2517 -0.6414
 8328SOL    HW236618   1.248   2.089  16.675  1.4093  0.8837 -1.7711
 8329SOL     OW36619   1.476   0.701   4.419  0.2836 -0.6989 -0.1794
 8329SOL    HW136620   1.427   0.626   4.453 -0.1668  0.9812  2.8442
 8329SOL    HW236621   1.557   0.695   4.470  0.3368  1.5331 -0.0080
 8330SOL     OW36622   1.203   0.642   6.810 -0.6935 -0.5439  0.1575
 8330SOL    HW136623   1.187   0.736   6.818  0.8544 -0.0033 -3.0459
 8330SOL    HW236624   1.254   0.623   6.888 -1.9401 -1.2164  0.8077
 8331SOL     OW36625   0.183   1.098   4.220 -0.2502 -0.2559  0.0825
 8331SOL    HW136626   0.186   1.016   4.269 -0.2537 -1.4829 -1.9616
 8331SOL    HW236627   0.264   1.145   4.242 -1.2947  1.2704  0.7308
 8332SOL     OW36628   3.070   4.642   2.687  0.1929 -0.1321  0.2185
 8332SOL    HW136629   3.080   4.598   2.603  0.4359  0.2577  0.0450
 8332SOL    HW236630   2.975   4.642   2.702 -0.1254  1.1560 -1.8075
 8333SOL     OW36631   2.130   2.733   5.019 -0.4818 -0.5256  0.0608
 8333SOL    HW136632   2.142   2.650   5.063  1.3240 -0.0187  0.4948
 8333SOL    HW236633   2.043   2.713   4.984 -0.2184 -0.4294 -0.6533
 8334SOL     OW36634   4.101   1.120   7.456  0.3889 -0.4556 -0.2629
 8334SOL    HW136635   4.084   1.202   7.502  2.9875 -0.4099  0.5984
 8334SOL    HW236636   4.101   1.058   7.529 -1.7273  1.0491  1.0260
 8335SOL     OW36637   1.455   1.523   3.380  0.1622  1.0077  0.5582
 8335SOL    HW136638   1.508   1.526   3.459  0.8251 -1.5768  0.2140
 8335SOL    HW236639   1.371   1.553   3.413  1.4011  1.8225  2.9267
 8336SOL     OW36640   4.043   1.990   2.873 -0.1620  0.1763  0.3835
 8336SOL    HW136641   3.951   1.987   2.847  0.3213 -0.5720 -1.2707
 8336SOL    HW236642   4.057   1.896   2.882 -0.4756 -0.0103 -0.9569
 8337SOL     OW36643   0.901   2.176   8.906 -0.2671 -0.3896 -0.5557
 8337SOL    HW136644   0.808   2.172   8.928 -0.2942  0.9691 -0.3810
 8337SOL    HW236645   0.905   2.092   8.860 -0.9480 -0.2224 -0.9299
 8338SOL     OW36646   3.221   0.414  11.350 -0.6114 -0.4166  0.1859
 8338SOL    HW136647   3.162   0.452  11.416  0.5444  1.8768 -0.1109
 8338SOL    HW236648   3.191   0.457  11.269 -0.5292 -0.6528  0.0325
 8339SOL     OW36649   3.228   4.308  13.734  0.5799  0.3047 -0.2103
 8339SOL    HW136650   3.196   4.372  13.670 -1.3304  0.2938  0.7371
 8339SOL    HW236651   3.241   4.359  13.814 -0.3925  0.9754 -0.4761
 8340SOL     OW36652   1.600   2.482   6.444 -0.4878 -0.3125 -0.2080
 8340SOL    HW136653   1.680   2.535   6.451 -0.6043 -0.2484  0.7459
 8340SOL    HW236654   1.563   2.493   6.532 -0.7637 -0.6651 -0.2817
 8341SOL     OW36655   0.274   0.674  11.111  0.7638 -0.2839  0.1397
 8341SOL    HW136656   0.366   0.651  11.120  0.3603 -1.8969  0.0374
 8341SOL    HW236657   0.276   0.717  11.025  0.4151  0.7042  0.6190
 8342SOL     OW36658   2.423   3.746   3.436  0.2744  0.4591  0.5315
 8342SOL    HW136659   2.463   3.811   3.378 -0.0148  1.1915  1.1609
 8342SOL    HW236660   2.343   3.726   3.388  0.6548 -1.5059  0.6974
 8343SOL     OW36661   3.571   0.994  11.562 -0.0752 -0.0386  0.0363
 8343SOL    HW136662   3.603   1.037  11.483 -0.6285  1.1765  0.4765
 8343SOL    HW236663   3.506   0.934  11.525  0.0511 -0.1610  0.0155
 8344SOL     OW36664   0.650   3.985  15.521 -0.0873 -0.3006  0.0838
 8344SOL    HW136665   0.637   3.904  15.571  1.8783 -0.4075  0.4107
 8344SOL    HW236666   0.636   4.065  15.571 -0.4386 -1.7329  2.2564
 8345SOL     OW36667   2.984   1.570   2.609 -0.2401  0.5478  0.1755
 8345SOL    HW136668   2.937   1.558   2.526  0.2494  1.3207 -0.2195
 8345SOL    HW236669   2.935   1.646   2.638 -0.5685  0.0967  0.7820
 8346SOL     OW36670   0.600   0.059   8.447  0.7454  0.7698  0.3348
 8346SOL    HW136671   0.600   0.148   8.413  0.0435  0.1566 -1.2495
 8346SOL    HW236672   0.604   0.012   8.364 -0.0686  0.3686  0.5269
 8347SOL     OW36673   4.339   1.696  13.754 -0.3058 -0.3868  0.1500
 8347SOL    HW136674   4.245   1.685  13.740 -0.6376  2.5146 -0.0300
 8347SOL    HW236675   4.375   1.608  13.761 -1.0362 -0.8083 -1.3051
 8348SOL     OW36676   0.772   2.177   6.947 -0.0163 -0.3357 -0.1953
 8348SOL    HW136677   0.819   2.160   6.865 -0.4441  0.1813 -0.5419
 8348SOL    HW236678   0.807   2.106   7.001  0.0454  0.2676  0.5459
 8349SOL     OW36679   1.410   1.490  17.177 -0.2280  0.7915  0.1258
 8349SOL    HW136680   1.390   1.570  17.225  2.4264  0.7235  1.3492
 8349SOL    HW236681   1.323   1.465  17.147  0.7297 -0.4291 -1.6675
 8350SOL     OW36682   0.808   4.016  17.611  0.0405 -1.0376  0.4705
 8350SOL    HW136683   0.852   4.042  17.530  0.5972 -1.0843  0.7589
 8350SOL    HW236684   0.885   3.979  17.654  1.0641  0.1243 -0.3792
 8351SOL     OW36685   3.047   2.726   2.869 -0.0700  0.3392  0.4147
 8351SOL    HW136686   3.036   2.816   2.837  0.3802  0.0160 -0.6658
 8351SOL    HW236687   3.076   2.755   2.955 -0.1685  0.0202  0.5568
 8352SOL     OW36688   2.261   3.586   8.261 -0.1779 -0.8870  0.3608
 8352SOL    HW136689   2.194   3.584   8.193  1.3071 -0.9801 -1.0768
 8352SOL    HW236690   2.251   3.678   8.283  2.7955 -0.0065 -2.0135
 8353SOL     OW36691   1.513   2.275   2.725  0.4436 -0.1896 -0.2792
 8353SOL    HW136692   1.605   2.297   2.732  0.3727 -0.0359  0.1913
 8353SOL    HW236693   1.476   2.348   2.775  0.2850 -0.5399  0.1220
 8354SOL     OW36694   0.303   2.371   3.634 -0.4961 -0.1530  0.0480
 8354SOL    HW136695   0.215   2.402   3.654 -0.6197 -0.0491 -0.6690
 8354SOL    HW236696   0.310   2.354   3.540  2.2356  1.5598 -0.0812
 8355SOL     OW36697   3.724   1.024  16.066  0.8539 -0.5072 -0.1590
 8355SOL    HW136698   3.765   1.009  15.981 -0.1327 -1.3704 -0.4817
 8355SOL    HW236699   3.766   0.968  16.130  0.2122 -2.2126 -1.2340
 8356SOL     OW36700   2.730   2.059   8.239  0.4352 -0.6192 -0.3882
 8356SOL    HW136701   2.735   2.019   8.152  0.2279 -2.0124  0.2408
 8356SOL    HW236702   2.668   1.997   8.279  0.0237 -0.4007 -0.6894
 8357SOL     OW36703   3.353   1.212   1.782  0.2243  0.4856  0.1859
 8357SOL    HW136704   3.441   1.177   1.795  0.8988  0.9340 -3.2102
 8357SOL    HW236705   3.364   1.307   1.782 -0.0864  0.5318  2.5437
 8358SOL     OW36706   0.635   1.768   0.003 -0.2763  0.2211 -0.6218
 8358SOL    HW136707   0.574   1.736  17.664 -2.1302  1.4120  0.5141
 8358SOL    HW236708   0.680   1.836  17.680  0.0368  0.2425 -0.3148
 8359SOL     OW36709   1.709   0.410   4.485 -0.3153  0.2131  0.7952
 8359SOL    HW136710   1.683   0.329   4.529 -0.1499 -2.0387 -3.2481
 8359SOL    HW236711   1.665   0.469   4.546 -0.2208  0.0906  0.9821
 8360SOL     OW36712   0.879   0.270   6.768  0.1204 -0.3278 -0.1597
 8360SOL    HW136713   0.907   0.362   6.773 -0.4158 -0.1531 -0.3058
 8360SOL    HW236714   0.803   0.288   6.824  0.7352 -0.2557  0.6526
 8361SOL     OW36715   3.556   2.673   8.646 -0.7019 -0.3168  0.0173
 8361SOL    HW136716   3.591   2.750   8.691  0.5585  0.8218 -2.9447
 8361SOL    HW236717   3.471   2.705   8.615 -1.1191 -3.4238 -2.0446
 8362SOL     OW36718   0.532   0.807   8.304  0.3763  0.0310  0.1923
 8362SOL    HW136719   0.456   0.759   8.272 -0.7392  0.4898  2.1304
 8362SOL    HW236720   0.596   0.807   8.233  0.6428  1.1003  0.4341
 8363SOL     OW36721   1.749   3.167  15.360 -0.3758  0.1787 -0.2045
 8363SOL    HW136722   1.722   3.249  15.317 -1.5823 -0.0603  0.0941
 8363SOL    HW236723   1.840   3.151  15.337 -0.1177  1.8626 -0.3970
 8364SOL     OW36724   0.728   3.224   6.123 -0.5863 -0.6391  0.3378
 8364SOL    HW136725   0.803   3.170   6.100 -0.7992 -1.7526  2.2135
 8364SOL    HW236726   0.661   3.166   6.087 -0.4929  0.2357 -1.2455
 8365SOL     OW36727   4.060   4.026   6.964 -0.2272 -0.7154  0.5551
 8365SOL    HW136728   4.147   4.061   6.984  0.6064 -1.5536 -1.6385
 8365SOL    HW236729   4.032   3.980   7.044  1.8218  1.3806  2.4890
 8366SOL     OW36730   2.826   1.321   9.668 -0.1527 -0.0985 -0.2792
 8366SOL    HW136731   2.796   1.404   9.632  0.4940 -0.3722 -1.4591
 8366SOL    HW236732   2.836   1.346   9.760  0.4197 -0.8067 -0.1480
 8367SOL     OW36733   2.905   1.486   4.273  0.0250  0.0928  0.0117
 8367SOL    HW136734   2.823   1.450   4.308 -0.3362  0.0908 -0.8244
 8367SOL    HW236735   2.892   1.580   4.289  0.0241 -0.1356  1.3286
 8368SOL     OW36736   3.710   4.546   1.129  0.2644  0.1780 -0.2429
 8368SOL    HW136737   3.641   4.480   1.117  0.8078  0.0969 -2.9127
 8368SOL    HW236738   3.774   4.522   1.063 -0.9986 -0.6545 -1.1762
 8369SOL     OW36739   0.416   2.404   9.832  0.2088  0.4192 -0.3761
 8369SOL    HW136740   0.457   2.384   9.916 -0.2233  1.2166  0.0240
 8369SOL    HW236741   0.323   2.408   9.856  0.1026 -0.4855 -0.6313
 8370SOL     OW36742   4.260   4.600   4.562 -0.3462 -0.4576  0.2489
 8370SOL    HW136743   4.208   4.673   4.530 -0.9767 -1.8454 -1.9351
 8370SOL    HW236744   4.250   4.545   4.484 -2.8468 -0.0320  0.2651
 8371SOL     OW36745   2.169   4.529   5.219 -0.7527 -0.0710  0.0023
 8371SOL    HW136746   2.098   4.474   5.187 -1.4411  1.0464 -0.3540
 8371SOL    HW236747   2.155   4.528   5.313  3.7088  1.0707  0.7155
 8372SOL     OW36748   0.566   3.575   7.201 -0.4768  0.0005  0.0073
 8372SOL    HW136749   0.525   3.584   7.287  1.7493 -0.0716  1.0714
 8372SOL    HW236750   0.498   3.607   7.141 -0.7758  1.0572  0.9333
 8373SOL     OW36751   0.995   2.087   4.846 -0.4242 -0.1483 -0.3946
 8373SOL    HW136752   1.032   2.048   4.925 -1.7083  0.6345  0.6056
 8373SOL    HW236753   0.989   2.005   4.797  0.1520  1.1317 -2.6296
 8374SOL     OW36754   0.827   1.683  11.008  0.4134  0.4359  0.1306
 8374SOL    HW136755   0.769   1.621  11.051  1.3910 -2.2946 -2.4081
 8374SOL    HW236756   0.793   1.764  11.045  0.9392 -0.1208  1.8437
 8375SOL     OW36757   0.599   2.249   2.244  0.2905 -0.0100  0.1682
 8375SOL    HW136758   0.534   2.195   2.199 -0.5422  1.3831 -0.3029
 8375SOL    HW236759   0.639   2.176   2.292 -0.9558 -0.3528  0.6837
 8376SOL     OW36760   3.632   1.242   9.182  0.0186  0.2489 -0.1575
 8376SOL    HW136761   3.559   1.249   9.120 -0.5823  2.7882  0.8470
 8376SOL    HW236762   3.598   1.206   9.264  0.0245 -0.1052 -0.3088
 8377SOL     OW36763   3.237   3.403  16.790  0.0404  0.1111 -0.0526
 8377SOL    HW136764   3.256   3.316  16.755  1.2212 -0.0941  1.0926
 8377SOL    HW236765   3.145   3.395  16.815  0.2878  0.3569  0.9350
 8378SOL     OW36766   0.731   4.114   8.599 -0.2894 -0.1448 -0.0586
 8378SOL    HW136767   0.697   4.153   8.518 -4.8801  1.7511  2.7907
 8378SOL    HW236768   0.658   4.062   8.631 -0.0966  1.2496  2.6641
 8379SOL     OW36769   1.617   0.464   3.224  0.1894  0.0453  0.2803
 8379SOL    HW136770   1.649   0.469   3.315 -3.7873  0.9756  1.6396
 8379SOL    HW236771   1.534   0.511   3.224  0.1636  0.0009  0.3965
 8380SOL     OW36772   4.689   3.729   0.672  0.6131  0.6991 -0.4349
 8380SOL    HW136773   4.655   3.640   0.673 -2.2537  1.8031  2.2263
 8380SOL    HW236774   0.034   3.721   0.729  1.0573 -1.9034 -1.4316
 8381SOL     OW36775   0.997   3.885  14.177 -0.2978 -0.1723 -0.2344
 8381SOL    HW136776   1.009   3.866  14.084  2.0008  3.1227 -0.6435
 8381SOL    HW236777   0.918   3.835  14.194  1.7435 -3.4586 -0.4353
 8382SOL     OW36778   2.180   0.866   1.463  0.7962  0.2306 -0.3156
 8382SOL    HW136779   2.173   0.807   1.539 -0.0844 -0.8675 -1.2344
 8382SOL    HW236780   2.276   0.867   1.461  0.8154  3.5458  3.1810
 8383SOL     OW36781   1.533   4.714  17.452  0.6348 -0.1764 -0.4269
 8383SOL    HW136782   1.604   0.030  17.494 -0.3010  1.3256 -0.5271
 8383SOL    HW236783   1.569   4.628  17.474 -0.6888 -0.4652  0.6255
 8384SOL     OW36784   0.711   4.274  13.992  0.1160  0.6497 -0.2696
 8384SOL    HW136785   0.766   4.265  14.071  1.9169  1.5826 -1.4121
 8384SOL    HW236786   0.667   4.189  13.997 -1.1617  1.2531 -1.4819
 8385SOL     OW36787   3.527   1.853   7.889 -0.5074 -0.5269 -0.3185
 8385SOL    HW136788   3.587   1.911   7.936 -1.2647  0.1348 -0.1528
 8385SOL    HW236789   3.528   1.892   7.802 -1.6728  2.0775  0.8243
 8386SOL     OW36790   1.553   1.076   9.148 -0.3218  0.3136  0.3798
 8386SOL    HW136791   1.538   1.004   9.210  0.5783  0.7247  1.0755
 8386SOL    HW236792   1.647   1.067   9.133 -0.0203  0.7786  1.9535
 8387SOL     OW36793   1.955   2.789   3.446 -0.5506  0.2786  0.3391
 8387SOL    HW136794   2.011   2.845   3.500 -1.4505  1.7888 -0.3028
 8387SOL    HW236795   1.963   2.705   3.492  1.4716  2.0596  3.2309
 8388SOL     OW36796   1.958   0.947   5.149  0.2397  0.3371 -0.3225
 8388SOL    HW136797   2.034   0.895   5.174  0.5408  1.1783  0.5427
 8388SOL    HW236798   1.986   1.003   5.077  2.7527  1.4561  1.5045
 8389SOL     OW36799   2.720   3.547  16.447 -0.2108 -0.0291  0.0561
 8389SOL    HW136800   2.733   3.621  16.506  3.5790  0.6532 -1.6452
 8389SOL    HW236801   2.688   3.480  16.508 -1.7534 -0.5055 -1.2437
 8390SOL     OW36802   1.612   3.550   6.735  0.5621 -0.1749  0.1587
 8390SOL    HW136803   1.687   3.496   6.761  1.6448  0.7083 -1.1412
 8390SOL    HW236804   1.655   3.635   6.719  0.2159 -0.2518 -1.1270
 8391SOL     OW36805   1.665   1.448  17.610 -0.1430 -0.3002  0.6212
 8391SOL    HW136806   1.660   1.374  17.548  3.1164 -2.0543  2.4285
 8391SOL    HW236807   1.760   1.459  17.621  0.0596 -0.3101 -0.9897
 8392SOL     OW36808   4.542   1.393   4.841 -0.6624  0.6751 -0.1018
 8392SOL    HW136809   4.580   1.335   4.907 -1.8027  0.4559  0.3562
 8392SOL    HW236810   4.456   1.424   4.869  0.5972  2.3703  1.8077
 8393SOL     OW36811   0.924   0.865   3.732 -0.2997 -0.1998 -0.0847
 8393SOL    HW136812   0.880   0.947   3.708 -0.3951 -0.1663  0.2051
 8393SOL    HW236813   0.891   0.802   3.668  0.1575 -0.1260 -0.3868
 8394SOL     OW36814   1.240   2.667  12.459 -0.0809  0.3614  0.0566
 8394SOL    HW136815   1.197   2.698  12.538  0.4585  2.3893 -0.4581
 8394SOL    HW236816   1.318   2.723  12.467  0.9952 -1.2794  1.1484
 8395SOL     OW36817   3.911   0.907   8.818  0.0792 -0.2390  0.6462
 8395SOL    HW136818   3.855   0.830   8.822 -0.3551  0.0040 -0.6676
 8395SOL    HW236819   3.864   0.963   8.881  3.6294  0.9201  2.2440
 8396SOL     OW36820   4.073   2.736   2.292 -0.4930 -0.6030 -0.7196
 8396SOL    HW136821   4.112   2.809   2.244 -0.9367  0.4241  0.4782
 8396SOL    HW236822   3.985   2.727   2.256 -1.0690  1.3324  0.2072
 8397SOL     OW36823   1.186   0.235  13.766  0.2912  0.4982  0.1694
 8397SOL    HW136824   1.103   0.191  13.787  0.1069  0.5188 -0.5006
 8397SOL    HW236825   1.229   0.235  13.852 -0.4675 -0.8415  0.5506
 8398SOL     OW36826   0.115   3.728  15.223 -0.1318 -0.1554 -0.5739
 8398SOL    HW136827   0.071   3.649  15.253 -0.0664 -0.3041 -0.8676
 8398SOL    HW236828   0.079   3.799  15.277  1.0688 -0.3331  0.4599
 8399SOL     OW36829   1.978   4.248   6.465 -0.0943 -0.3266 -0.5398
 8399SOL    HW136830   1.987   4.338   6.434 -1.1104 -0.1385 -0.2959
 8399SOL    HW236831   1.952   4.186   6.396  2.1995 -0.9519 -0.8337
 8400SOL     OW36832   2.620   2.999   2.218  0.0328 -0.1612 -1.0869
 8400SOL    HW136833   2.625   3.014   2.123  0.5650 -0.5395 -1.1256
 8400SOL    HW236834   2.609   2.904   2.221  1.3316 -0.2159  1.3617
 8401SOL     OW36835   3.815   0.630  15.964  0.3764 -0.5442  0.3205
 8401SOL    HW136836   3.726   0.615  15.996 -0.2460  2.7707  0.1985
 8401SOL    HW236837   3.813   0.722  15.937  0.4690 -0.5661  0.2378
 8402SOL     OW36838   3.123   2.093   4.259 -0.0167 -0.0992  0.6891
 8402SOL    HW136839   3.215   2.120   4.266  0.2090 -0.4506 -0.9420
 8402SOL    HW236840   3.130   2.012   4.311 -0.8332 -0.9778 -0.5873
 8403SOL     OW36841   4.042   1.366   0.446  0.6919 -0.7608 -0.1666
 8403SOL    HW136842   4.105   1.393   0.513 -0.7170 -1.0306  1.2546
 8403SOL    HW236843   4.057   1.440   0.386 -0.4868 -1.6438 -1.5595
 8404SOL     OW36844   3.765   3.967   1.217 -0.3202  0.1472 -0.4536
 8404SOL    HW136845   3.780   3.873   1.218 -0.6508  0.1671  3.2124
 8404SOL    HW236846   3.701   3.993   1.283  3.1454  1.8037  2.2720
 8405SOL     OW36847   3.422   0.216   6.256 -0.1754  0.5242 -0.1435
 8405SOL    HW136848   3.479   0.292   6.246  2.1083 -1.1435  0.1440
 8405SOL    HW236849   3.362   0.241   6.186  0.3649 -1.0153 -1.1534
 8406SOL     OW36850   1.617   0.540   0.461  0.3734  0.5474 -0.4563
 8406SOL    HW136851   1.669   0.520   0.384  0.0639 -2.0980  0.0049
 8406SOL    HW236852   1.563   0.461   0.464  0.3740  0.5709  0.1774
 8407SOL     OW36853   4.069   2.879  12.932 -0.2974 -0.0868  0.2826
 8407SOL    HW136854   4.048   2.846  12.845  0.8411  2.4707 -0.9391
 8407SOL    HW236855   4.134   2.948  12.922  1.9377 -2.0226  1.2953
 8408SOL     OW36856   2.020   2.585  16.909  0.4832  0.4961 -0.2737
 8408SOL    HW136857   1.957   2.554  16.845  1.7106 -1.1933 -0.6941
 8408SOL    HW236858   2.090   2.522  16.889  2.0886  1.4515  2.3187
 8409SOL     OW36859   0.673   2.494   7.303  0.2526  0.0687 -0.4023
 8409SOL    HW136860   0.723   2.417   7.330  0.2949 -0.0160 -0.7167
 8409SOL    HW236861   0.629   2.515   7.385 -0.8345  0.1355 -1.0071
 8410SOL     OW36862   2.100   4.555   6.760 -0.0826  0.1240 -0.1787
 8410SOL    HW136863   2.169   4.605   6.716  0.7816 -1.9376 -1.1578
 8410SOL    HW236864   2.023   4.609   6.743 -0.3277 -0.3687 -0.6144
 8411SOL     OW36865   1.714   3.453   6.172  0.1076  0.3233  0.3421
 8411SOL    HW136866   1.709   3.392   6.098 -1.5907 -0.4628  1.0833
 8411SOL    HW236867   1.777   3.398   6.218  1.2112  0.6928 -0.7333
 8412SOL     OW36868   3.258   2.813   6.561 -0.0113 -0.2483  0.0572
 8412SOL    HW136869   3.306   2.758   6.623  0.3610 -1.0293 -0.9203
 8412SOL    HW236870   3.168   2.782   6.572 -0.5107  1.2858  0.1931
 8413SOL     OW36871   1.915   4.389   5.139  0.4529  0.1215 -0.5515
 8413SOL    HW136872   1.829   4.427   5.156  0.4726  0.5184 -1.3446
 8413SOL    HW236873   1.914   4.363   5.047  3.4919  0.0296 -0.5709
 8414SOL     OW36874   1.636   0.232   7.908  0.5993  0.6406 -1.0610
 8414SOL    HW136875   1.548   0.208   7.877  0.0368  0.0768  0.9787
 8414SOL    HW236876   1.637   0.191   7.994  1.1061  0.0031 -1.3782
 8415SOL     OW36877   1.884   2.628   5.289  0.0396 -0.6327 -0.2067
 8415SOL    HW136878   1.965   2.590   5.255 -0.5818 -0.2591 -2.1130
 8415SOL    HW236879   1.914   2.677   5.365 -0.7739 -0.3680 -0.0578
 8416SOL     OW36880   3.095   4.234  16.373  0.2720  0.3103  0.1299
 8416SOL    HW136881   3.110   4.242  16.279 -0.7949  1.4085  0.0542
 8416SOL    HW236882   3.184   4.213  16.403  0.1442 -0.3364  0.0735
 8417SOL     OW36883   0.909   0.644   0.127  0.1799 -0.5214  0.6252
 8417SOL    HW136884   1.000   0.624   0.152  0.5642 -2.7804 -2.5988
 8417SOL    HW236885   0.918   0.713   0.061  0.1990 -0.5122  0.6374
 8418SOL     OW36886   4.661   3.526   1.331  0.6851 -0.4707  0.4612
 8418SOL    HW136887   4.708   3.462   1.278  1.4227  1.1837 -0.8899
 8418SOL    HW236888   4.708   3.608   1.314 -2.5254  1.4638  0.9813
 8419SOL     OW36889   2.670   1.477   7.588  0.3044  0.1208 -0.1562
 8419SOL    HW136890   2.618   1.405   7.624  0.0581 -0.2406 -1.2296
 8419SOL    HW236891   2.687   1.516   7.674  0.0844  0.9671 -0.5026
 8420SOL     OW36892   4.619   4.300   6.492 -0.0365  0.1355 -0.0033
 8420SOL    HW136893   4.551   4.288   6.558 -0.5219 -1.9721 -0.8957
 8420SOL    HW236894   4.577   4.288   6.407  0.7658 -1.8412 -0.1225
 8421SOL     OW36895   1.346   4.110   7.218 -0.0718  0.4182  0.3048
 8421SOL    HW136896   1.378   4.200   7.228  2.4097 -0.6440  2.0434
 8421SOL    HW236897   1.333   4.112   7.123 -0.3241 -0.6446  0.3230
 8422SOL     OW36898   2.072   0.122  15.710  0.2009 -0.6423  0.0973
 8422SOL    HW136899   2.026   0.093  15.789 -1.0614 -1.3553 -0.8961
 8422SOL    HW236900   2.000   0.178  15.680  1.6461 -0.3018 -2.6829
 8423SOL     OW36901   2.942   0.397  13.705 -0.8083  0.0220  0.1011
 8423SOL    HW136902   2.959   0.355  13.621 -0.7229 -1.3992  0.8232
 8423SOL    HW236903   3.009   0.355  13.759 -1.4468 -0.0556  0.8337
 8424SOL     OW36904   2.190   2.701   6.970  0.3980  0.0354 -0.3186
 8424SOL    HW136905   2.152   2.666   7.051  0.9224  1.6250  0.6325
 8424SOL    HW236906   2.256   2.634   6.953  1.4883 -0.0446  4.0962
 8425SOL     OW36907   4.128   1.865   4.880  0.0105 -0.0682 -0.0030
 8425SOL    HW136908   4.132   1.952   4.917 -0.2271  0.3909 -1.0409
 8425SOL    HW236909   4.045   1.871   4.832  1.2316 -2.7549 -2.4835
 8426SOL     OW36910   3.326   3.172   4.300  0.4816 -0.0294  0.2008
 8426SOL    HW136911   3.385   3.176   4.376  0.1780 -2.9603  0.5932
 8426SOL    HW236912   3.294   3.083   4.314  0.0372 -0.0980 -1.2549
 8427SOL     OW36913   2.823   2.421   4.224  0.0531  0.2423 -0.5611
 8427SOL    HW136914   2.855   2.410   4.314  1.3251 -0.0609 -1.0671
 8427SOL    HW236915   2.882   2.360   4.180 -0.1544 -0.6960  0.4519
 8428SOL     OW36916   2.429   1.126   2.002  0.0412 -0.0694 -0.0542
 8428SOL    HW136917   2.404   1.056   2.063 -0.8074  1.0358  0.8695
 8428SOL    HW236918   2.523   1.121   1.986  0.1956  0.1666  0.7921
 8429SOL     OW36919   1.750   0.494   8.438  0.1403 -1.0604 -0.2165
 8429SOL    HW136920   1.802   0.428   8.483  0.4134  0.9952  2.5177
 8429SOL    HW236921   1.715   0.544   8.511 -0.7802 -0.5508 -1.0037
 8430SOL     OW36922   3.972   3.706   8.403 -0.2875 -0.2149  0.4771
 8430SOL    HW136923   3.999   3.619   8.432 -3.4144 -1.2706  0.2467
 8430SOL    HW236924   3.901   3.719   8.466  0.4433  2.8111  0.6709
 8431SOL     OW36925   3.794   3.170   8.840 -0.2519  0.8297 -0.0262
 8431SOL    HW136926   3.822   3.239   8.781  0.7133 -0.2444 -0.8228
 8431SOL    HW236927   3.867   3.171   8.901  0.0224 -0.0606 -0.3396
 8432SOL     OW36928   1.408   2.022  15.342  0.2236 -0.0077 -0.0256
 8432SOL    HW136929   1.401   1.927  15.349 -1.4078  0.1946  1.2913
 8432SOL    HW236930   1.337   2.060  15.394  1.2327 -0.5514  1.7183
 8433SOL     OW36931   4.106   4.123  16.880  0.0112  0.6392 -0.2098
 8433SOL    HW136932   4.021   4.091  16.909 -0.4225  3.2285  1.4221
 8433SOL    HW236933   4.137   4.061  16.814  0.4424 -0.1795  0.7601
 8434SOL     OW36934   2.362   0.204   3.919 -0.5449  0.2180 -0.1936
 8434SOL    HW136935   2.289   0.154   3.956 -0.9383  0.8389 -0.1418
 8434SOL    HW236936   2.440   0.161   3.954  0.1088 -0.8067 -2.8589
 8435SOL     OW36937   1.951   1.127  12.347 -0.1985 -0.0882  0.2445
 8435SOL    HW136938   1.958   1.131  12.251 -1.1156 -1.3751  0.1194
 8435SOL    HW236939   2.023   1.182  12.377  0.0088 -1.1574  1.6947
 8436SOL     OW36940   3.362   2.924  13.741 -0.5148  0.4234 -0.2044
 8436SOL    HW136941   3.332   2.853  13.797  2.4617 -0.5524  0.1396
 8436SOL    HW236942   3.424   2.967  13.800  0.5056 -0.8708 -0.3387
 8437SOL     OW36943   2.816   1.723   4.267 -0.2873 -0.2228  0.2539
 8437SOL    HW136944   2.803   1.796   4.205 -2.1308  1.1344  2.2256
 8437SOL    HW236945   2.733   1.729   4.315 -0.8217  0.6763 -0.7637
 8438SOL     OW36946   1.262   3.133   7.107  0.1416 -0.3127 -0.2476
 8438SOL    HW136947   1.286   3.129   7.015 -0.4444 -0.1350 -0.4036
 8438SOL    HW236948   1.316   3.208   7.132 -0.3415 -0.2990  0.7660
 8439SOL     OW36949   1.824   1.365   2.206 -0.1476  0.6877 -0.0552
 8439SOL    HW136950   1.902   1.317   2.232 -0.9140 -1.1997 -1.2082
 8439SOL    HW236951   1.836   1.373   2.111  0.5728 -0.4397 -0.0457
 8440SOL     OW36952   2.135   4.694  12.843 -0.2280 -0.0633 -0.9026
 8440SOL    HW136953   2.126   4.700  12.938 -4.9569  1.3737 -1.4315
 8440SOL    HW236954   2.050   4.730  12.817 -0.5374 -0.4944 -0.4841
 8441SOL     OW36955   3.623   0.018   5.868 -0.0014  0.1692  0.0738
 8441SOL    HW136956   3.635   0.108   5.839  1.6813 -0.4810 -1.2657
 8441SOL    HW236957   3.533   0.013   5.900 -0.7479 -1.3783 -2.2710
 8442SOL     OW36958   1.231   2.916   5.548 -0.2102  0.0203 -1.1213
 8442SOL    HW136959   1.273   2.997   5.518  0.8037  0.2253  0.8152
 8442SOL    HW236960   1.303   2.885   5.604  0.6406  0.0267 -2.2220
 8443SOL     OW36961   1.216   4.507  17.068 -0.4186  0.0764 -0.1871
 8443SOL    HW136962   1.146   4.571  17.055 -0.6892 -0.0835  0.4664
 8443SOL    HW236963   1.282   4.565  17.105 -0.0524 -1.0131  0.8370
 8444SOL     OW36964   2.159   1.264   9.534 -0.3123 -0.0668 -0.1581
 8444SOL    HW136965   2.130   1.334   9.476  0.1852  0.6559  0.4861
 8444SOL    HW236966   2.192   1.316   9.606  1.4618 -0.6998 -0.5157
 8445SOL     OW36967   3.107   4.598   7.369  0.0902  0.2390  0.2141
 8445SOL    HW136968   3.082   4.626   7.281 -0.1936 -0.0890  0.1904
 8445SOL    HW236969   3.033   4.627   7.422  0.5514 -0.8007  1.4374
 8446SOL     OW36970   1.675   4.707   7.374 -0.1323  0.2521  0.3374
 8446SOL    HW136971   1.729   4.649   7.426 -1.0776 -1.6091 -0.7701
 8446SOL    HW236972   1.595   4.713   7.425 -0.2923 -0.4798  0.1719
 8447SOL     OW36973   4.724   1.771   8.561 -0.1167 -0.3225  0.4717
 8447SOL    HW136974   0.002   1.844   8.499 -0.8824 -0.6761 -0.0721
 8447SOL    HW236975   4.649   1.813   8.604  0.4316  0.8219  0.3247
 8448SOL     OW36976   1.236   1.958  13.068  0.1451 -0.2455 -0.0028
 8448SOL    HW136977   1.173   1.887  13.065  0.0932 -0.1748 -0.5431
 8448SOL    HW236978   1.196   2.023  13.010 -0.2650 -2.0181 -1.6707
 8449SOL     OW36979   1.144   4.490   5.755  0.1501  0.1692  0.1132
 8449SOL    HW136980   1.184   4.564   5.800  0.4386 -1.0013  1.8016
 8449SOL    HW236981   1.062   4.500   5.802  0.2369 -2.0670  0.7798
 8450SOL     OW36982   2.300   2.675  11.809 -0.5067 -0.0410 -0.3494
 8450SOL    HW136983   2.393   2.658  11.827  0.0934  0.5794 -2.8905
 8450SOL    HW236984   2.267   2.726  11.882 -0.8569  0.9757 -1.2216
 8451SOL     OW36985   0.112   3.565  11.335 -0.5124  0.0086 -0.3774
 8451SOL    HW136986   0.149   3.477  11.331 -0.5412  0.0717 -2.0574
 8451SOL    HW236987   0.155   3.598  11.256  0.5712 -0.7564 -0.1055
 8452SOL     OW36988   0.387   4.624   5.115  0.0477 -0.0760 -0.3626
 8452SOL    HW136989   0.304   4.613   5.162  0.8241 -1.0083  0.7972
 8452SOL    HW236990   0.418   4.537   5.090  1.7475  1.4709 -3.6417
 8453SOL     OW36991   3.127   0.512   5.628  0.8001 -0.2872 -0.6591
 8453SOL    HW136992   3.104   0.421   5.644  0.8402  0.1914  2.0572
 8453SOL    HW236993   3.178   0.513   5.547  0.0809 -0.1803 -1.1106
 8454SOL     OW36994   2.956   2.218   6.675 -0.4231 -0.7510 -0.0389
 8454SOL    HW136995   2.944   2.153   6.606 -1.0419 -2.3746  1.5916
 8454SOL    HW236996   2.923   2.161   6.746  0.6529 -0.6879  0.5162
 8455SOL     OW36997   4.265   3.061   2.940  0.0356  0.0239 -0.6621
 8455SOL    HW136998   4.265   2.977   2.985 -0.9437  0.3745 -0.0181
 8455SOL    HW236999   4.358   3.051   2.919  0.2633 -0.7987  0.7675
 8456SOL     OW37000   4.606   3.471  10.630  0.1838  0.0161 -0.3518
 8456SOL    HW137001   4.598   3.416  10.708  1.4423  2.4192  1.4599
 8456SOL    HW237002   4.522   3.469  10.584 -1.2281  0.1970  2.2304
 8457SOL     OW37003   3.431   4.695   0.993 -0.9856  0.3681 -0.1055
 8457SOL    HW137004   3.350   4.718   0.949 -0.9672 -3.0697 -1.9924
 8457SOL    HW237005   3.465   4.623   0.939 -0.0633 -0.6857  1.8565
 8458SOL     OW37006   1.397   2.044  16.215  0.0510 -0.4041  0.2575
 8458SOL    HW137007   1.474   2.034  16.272 -0.1678 -0.1449  0.6010
 8458SOL    HW237008   1.420   2.094  16.137  2.0074 -0.7395  0.6247
 8459SOL     OW37009   1.708   1.887   4.335  0.6314 -0.0261 -0.2305
 8459SOL    HW137010   1.716   1.806   4.284 -0.8557 -0.9579  1.0201
 8459SOL    HW237011   1.712   1.948   4.261 -0.4572 -0.6057 -0.7847
 8460SOL     OW37012   1.991   4.500   3.944 -0.1947  0.2027  0.2874
 8460SOL    HW137013   1.919   4.492   4.006 -2.2099 -0.3060 -2.1201
 8460SOL    HW237014   1.949   4.487   3.859  1.9722  1.4286 -0.9784
 8461SOL     OW37015   2.807   4.109   0.218  0.5411  0.3246  0.0675
 8461SOL    HW137016   2.759   4.116   0.300 -0.6167  1.5483 -0.7132
 8461SOL    HW237017   2.868   4.182   0.230  3.1232 -1.7535 -0.3002
 8462SOL     OW37018   1.226   3.687   8.234  0.4400  0.4825  0.6320
 8462SOL    HW137019   1.178   3.683   8.151 -0.0605 -1.0447  0.9828
 8462SOL    HW237020   1.181   3.616   8.281 -0.1213  1.1406  1.0840
 8463SOL     OW37021   1.154   2.306   2.369  0.1147 -0.2999  0.5804
 8463SOL    HW137022   1.199   2.391   2.360 -0.8298 -0.1166 -2.1828
 8463SOL    HW237023   1.131   2.278   2.281 -2.6752  1.1344  0.8291
 8464SOL     OW37024   2.696   2.324  14.998  0.6174 -0.4648 -0.3828
 8464SOL    HW137025   2.667   2.243  15.040 -0.3488 -0.2898 -0.7067
 8464SOL    HW237026   2.763   2.287  14.940  2.4772 -0.0139  1.4722
 8465SOL     OW37027   1.639   3.091   0.321 -0.5090 -0.4867 -0.0577
 8465SOL    HW137028   1.556   3.094   0.370 -0.5578  0.7734 -0.2130
 8465SOL    HW237029   1.667   3.182   0.317 -0.8165 -0.3885  0.0297
 8466SOL     OW37030   3.066   2.154   1.104  0.4190  0.0613  0.2528
 8466SOL    HW137031   2.974   2.144   1.129  0.0302  1.1401 -0.7274
 8466SOL    HW237032   3.106   2.086   1.158  2.6456 -0.0696 -1.5442
 8467SOL     OW37033   1.417   1.621   2.624 -0.1205 -0.7057 -0.0471
 8467SOL    HW137034   1.510   1.629   2.643 -0.1495 -1.6909  0.5189
 8467SOL    HW237035   1.386   1.549   2.679 -1.2774 -0.3828 -0.2606
 8468SOL     OW37036   4.423   0.654   0.745  0.9394 -0.4978  0.3936
 8468SOL    HW137037   4.348   0.713   0.748  2.2170  1.2820 -1.9137
 8468SOL    HW237038   4.438   0.665   0.651  1.1464 -3.7564  0.0745
 8469SOL     OW37039   1.647   4.640   3.139 -0.4544 -0.0801  0.1603
 8469SOL    HW137040   1.557   4.649   3.108 -0.6339  1.0717  1.0152
 8469SOL    HW237041   1.678   4.550   3.128  0.8980  0.1855  1.8954
 8470SOL     OW37042   3.650   0.748   2.423  0.3065 -0.7348 -0.1551
 8470SOL    HW137043   3.671   0.841   2.411 -2.4750  0.1339  1.7963
 8470SOL    HW237044   3.724   0.713   2.373  1.5232  1.1625  0.2894
 8471SOL     OW37045   1.754   4.353   4.112 -0.1739  0.2141 -0.4766
 8471SOL    HW137046   1.757   4.448   4.118  1.1375  0.0611  1.4090
 8471SOL    HW237047   1.680   4.350   4.051  0.7927  2.8561 -1.7772
 8472SOL     OW37048   2.215   4.488   4.200  0.4841  0.2548 -0.2119
 8472SOL    HW137049   2.242   4.407   4.157  0.6634  0.7104 -0.9556
 8472SOL    HW237050   2.228   4.546   4.125 -1.8966  0.4355 -0.5051
 8473SOL     OW37051   3.601   1.723   1.733 -0.0038 -0.1382 -0.1367
 8473SOL    HW137052   3.526   1.762   1.687 -0.5174 -0.6544  0.2577
 8473SOL    HW237053   3.640   1.794   1.784  1.9691 -0.9076 -0.5861
 8474SOL     OW37054   4.428   2.862   5.644  0.0107 -0.2854 -0.4003
 8474SOL    HW137055   4.486   2.874   5.569 -1.0709  1.2786 -0.9839
 8474SOL    HW237056   4.486   2.868   5.720 -0.5337 -1.0503  0.0723
 8475SOL     OW37057   2.188   4.350   7.500 -0.2255  0.5171  0.1775
 8475SOL    HW137058   2.202   4.402   7.579 -0.5835  1.8114 -0.6047
 8475SOL    HW237059   2.160   4.417   7.437 -1.4226 -0.4063 -0.2681
 8476SOL     OW37060   3.712   1.870  10.637  0.2802 -0.4485 -0.1897
 8476SOL    HW137061   3.645   1.811  10.601  0.8372 -1.4686  0.4451
 8476SOL    HW237062   3.673   1.914  10.712  1.0122 -0.8229  0.4138
 8477SOL     OW37063   0.346   3.104   4.907 -0.3850 -0.4741 -0.3103
 8477SOL    HW137064   0.332   3.016   4.939 -0.0041 -1.2640 -2.2713
 8477SOL    HW237065   0.421   3.090   4.849 -0.0109 -1.7010  0.4677
 8478SOL     OW37066   0.546   3.865   1.768  0.3550  0.0957  0.1041
 8478SOL    HW137067   0.470   3.845   1.713  0.2221 -1.0050  0.6880
 8478SOL    HW237068   0.587   3.931   1.711 -1.9510  0.6987 -0.8705
 8479SOL     OW37069   1.803   2.421  10.007  0.2147 -0.0598  0.5142
 8479SOL    HW137070   1.868   2.355  10.032  0.7836  0.4097  0.2585
 8479SOL    HW237071   1.837   2.429   9.918 -0.8625 -4.1713 -0.2958
 8480SOL     OW37072   0.950   3.529   9.299 -0.2893 -0.6053 -0.3118
 8480SOL    HW137073   0.859   3.521   9.330 -0.4035 -0.5925 -0.6359
 8480SOL    HW237074   1.009   3.543   9.373  2.7334 -1.7033 -2.5602
 8481SOL     OW37075   3.936   3.198   6.154  0.0587 -0.6426 -0.0286
 8481SOL    HW137076   3.893   3.279   6.126 -0.6999 -0.5350  1.4524
 8481SOL    HW237077   4.008   3.192   6.092  0.4659 -0.6525  0.4468
 8482SOL     OW37078   0.301   4.427   9.707 -0.0486  0.3626  0.2950
 8482SOL    HW137079   0.366   4.373   9.752 -2.3232  0.6552  3.8888
 8482SOL    HW237080   0.335   4.436   9.618 -0.4108  2.3674  0.3634
 8483SOL     OW37081   1.826   1.907   5.336 -0.3995 -0.9918 -0.3682
 8483SOL    HW137082   1.805   1.867   5.252  0.1343 -2.2926  0.1237
 8483SOL    HW237083   1.904   1.856   5.354  1.4318  1.2116 -2.0523
 8484SOL     OW37084   0.942   3.541   1.822 -0.3878  0.8093 -0.0841
 8484SOL    HW137085   0.882   3.604   1.781 -0.9639  0.0416 -0.4134
 8484SOL    HW237086   0.896   3.530   1.905 -2.5011 -2.2405 -1.6265
 8485SOL     OW37087   0.154   1.432   4.184 -0.2946 -0.1189 -0.2805
 8485SOL    HW137088   0.140   1.341   4.209  0.4334 -0.6669 -1.9041
 8485SOL    HW237089   0.067   1.456   4.152 -0.6205  1.5662  1.8856
 8486SOL     OW37090   4.708   3.320   3.550  0.2945 -0.3287  0.0206
 8486SOL    HW137091   4.668   3.405   3.567  0.1132 -0.0582 -1.7912
 8486SOL    HW237092   4.630   3.268   3.565 -0.5385  0.0066 -3.1352
 8487SOL     OW37093   0.309   1.757   8.831  0.0270  0.2550 -0.1026
 8487SOL    HW137094   0.315   1.740   8.737  2.4599  0.9781 -0.0677
 8487SOL    HW237095   0.218   1.729   8.845  0.6366 -1.2140  0.9600
 8488SOL     OW37096   1.954   0.430  10.194 -0.0499 -0.4237  0.6030
 8488SOL    HW137097   2.026   0.465  10.141 -0.4387 -0.0634  0.3133
 8488SOL    HW237098   1.991   0.368  10.257 -1.2119 -0.3851  1.3214
 8489SOL     OW37099   3.385   2.897   6.319 -0.1949 -0.4329  0.1133
 8489SOL    HW137100   3.380   2.879   6.413  1.2899  1.4588  0.5621
 8489SOL    HW237101   3.313   2.959   6.309 -0.5113 -1.3750 -3.1985
 8490SOL     OW37102   0.769   4.725   0.879 -0.3085 -0.3175  0.0655
 8490SOL    HW137103   0.854   4.708   0.920  0.6642  2.0304 -0.9696
 8490SOL    HW237104   0.716   4.695   0.953 -0.1459 -0.7461  0.0031
 8491SOL     OW37105   4.536   1.683   8.841 -0.6127  0.0190 -0.2167
 8491SOL    HW137106   4.497   1.770   8.831 -1.7895 -0.4963 -0.0838
 8491SOL    HW237107   4.485   1.638   8.774  2.0626 -1.9905 -0.8773
 8492SOL     OW37108   3.238   1.532   8.604  0.1335  0.2301 -0.5828
 8492SOL    HW137109   3.151   1.548   8.567 -1.0275 -0.3040  1.9395
 8492SOL    HW237110   3.221   1.503   8.694  0.0414 -0.0343 -0.6827
 8493SOL     OW37111   3.389   0.309   8.105 -0.1653 -0.5752  0.2219
 8493SOL    HW137112   3.394   0.341   8.196  2.3798  0.8779 -0.4069
 8493SOL    HW237113   3.425   0.221   8.114  0.8341 -0.3169 -1.3028
 8494SOL     OW37114   2.742   3.515   6.207  0.1078 -0.2648  0.4905
 8494SOL    HW137115   2.736   3.455   6.133  4.2032 -0.7361  0.5758
 8494SOL    HW237116   2.767   3.597   6.165 -0.1635 -0.7847 -0.6993
 8495SOL     OW37117   0.782   0.206   7.139 -0.6554 -0.3625 -0.4497
 8495SOL    HW137118   0.828   0.125   7.160  2.2759  1.8442  1.5997
 8495SOL    HW237119   0.729   0.172   7.067 -0.7749 -2.8028  0.7809
 8496SOL     OW37120   3.247   1.605   4.644 -0.1206  0.6254  0.1437
 8496SOL    HW137121   3.158   1.573   4.633 -0.0867  0.2321  1.0131
 8496SOL    HW237122   3.285   1.583   4.558 -0.5779 -0.3812  0.1939
 8497SOL     OW37123   4.473   3.538   4.105  0.5557 -0.5128  0.2181
 8497SOL    HW137124   4.452   3.622   4.065 -0.9485 -0.8584  0.2934
 8497SOL    HW237125   4.565   3.556   4.125  0.2739 -0.0723  1.0731
 8498SOL     OW37126   2.679   3.580   7.736 -0.2213  0.9584 -0.4307
 8498SOL    HW137127   2.657   3.533   7.817  2.0024  2.4303  1.0248
 8498SOL    HW237128   2.718   3.655   7.780  1.1431 -0.0534  0.1139
 8499SOL     OW37129   0.951   0.683  16.924 -0.4259 -0.0532  0.6940
 8499SOL    HW137130   1.027   0.739  16.912 -0.6823 -0.3069 -2.0318
 8499SOL    HW237131   0.890   0.712  16.856 -2.3962 -0.0967  2.4487
 8500SOL     OW37132   4.211   1.215   8.501 -0.6062 -0.4298 -0.0579
 8500SOL    HW137133   4.239   1.250   8.585  1.2610  0.1154 -0.9130
 8500SOL    HW237134   4.221   1.289   8.441  0.2990 -1.7210 -1.5027
 8501SOL     OW37135   1.363   1.431   5.099  0.1556  0.0230  0.3246
 8501SOL    HW137136   1.453   1.446   5.129  0.5228  0.6982 -1.1334
 8501SOL    HW237137   1.331   1.511   5.057  0.5668  0.4288  0.7766
 8502SOL     OW37138   0.228   1.573   6.215 -0.3520  0.1427  0.1462
 8502SOL    HW137139   0.177   1.523   6.152  0.8908 -1.0553  0.1094
 8502SOL    HW237140   0.299   1.513   6.236  0.4946  0.4214 -1.9642
 8503SOL     OW37141   1.703   4.393  14.588 -0.2025 -0.3233 -0.2171
 8503SOL    HW137142   1.781   4.343  14.611 -2.0742 -2.9476  0.4743
 8503SOL    HW237143   1.695   4.354  14.500 -1.0054 -0.7362  0.0338
 8504SOL     OW37144   3.990   2.846  11.710 -0.4861 -0.1421 -0.7947
 8504SOL    HW137145   3.990   2.898  11.791 -0.8970 -2.2281  0.5423
 8504SOL    HW237146   3.958   2.763  11.745 -1.2500 -0.4424 -2.2092
 8505SOL     OW37147   0.223   0.025  10.901 -0.3111  0.4634  0.0887
 8505SOL    HW137148   0.285   0.031  10.974  3.5064  1.9123 -3.2795
 8505SOL    HW237149   0.174   4.679  10.928  0.9589 -0.1535  0.6099
 8506SOL     OW37150   4.286   0.840  10.692 -0.1978  1.1158  0.8779
 8506SOL    HW137151   4.264   0.924  10.651 -2.8847  0.9972  2.0855
 8506SOL    HW237152   4.222   0.841  10.763  0.8780 -1.0908  1.8668
 8507SOL     OW37153   3.032   4.388   7.754  0.2767  0.6683  0.1769
 8507SOL    HW137154   3.021   4.328   7.828 -2.7386  1.0105 -0.0233
 8507SOL    HW237155   3.051   4.334   7.678 -3.2564  1.4993 -1.2826
 8508SOL     OW37156   1.895   3.661   7.801  0.0601 -0.4250 -0.8185
 8508SOL    HW137157   1.977   3.703   7.774  0.1273 -0.3818 -0.5492
 8508SOL    HW237158   1.839   3.717   7.746 -2.6877 -0.9113  1.4748
 8509SOL     OW37159   0.224   1.896   1.435  0.2076  0.1193 -0.4566
 8509SOL    HW137160   0.299   1.948   1.406 -0.9211  1.3728 -1.1489
 8509SOL    HW237161   0.150   1.952   1.409  0.6816  1.2970  0.7114
 8510SOL     OW37162   3.145   3.767  15.847  0.5096 -0.4712 -0.0079
 8510SOL    HW137163   3.157   3.678  15.814  0.3365 -0.9360  1.1564
 8510SOL    HW237164   3.053   3.763  15.876  0.0169  1.9508 -1.2720
 8511SOL     OW37165   4.384   1.054   7.957  0.1055 -0.9025 -0.3970
 8511SOL    HW137166   4.358   1.109   7.883  0.2123  0.7574  0.7995
 8511SOL    HW237167   4.362   0.965   7.929 -2.0709 -0.6412  0.5273
 8512SOL     OW37168   3.245   2.903   3.754  0.3061 -0.2038  0.2700
 8512SOL    HW137169   3.335   2.935   3.742  0.5719 -0.1063  2.5243
 8512SOL    HW237170   3.245   2.844   3.678 -1.1556 -1.2120  1.0647
 8513SOL     OW37171   2.713   4.344   8.836  0.3204  0.4845 -0.8388
 8513SOL    HW137172   2.772   4.408   8.876 -2.2478  1.8494  0.7874
 8513SOL    HW237173   2.768   4.265   8.830  0.7501  0.7350 -0.1744
 8514SOL     OW37174   0.475   3.136   1.328  0.1008 -0.1910  0.0276
 8514SOL    HW137175   0.541   3.179   1.274  0.2270 -1.4398 -0.8287
 8514SOL    HW237176   0.514   3.070   1.386  0.6983  0.8579  0.8042
 8515SOL     OW37177   3.029   0.007  17.006 -0.1352 -0.0191 -0.6408
 8515SOL    HW137178   3.035   4.659  17.058 -1.4410 -0.0494 -0.5314
 8515SOL    HW237179   3.059   4.706  16.921 -0.2536 -2.1464  0.1492
 8516SOL     OW37180   2.493   1.247   9.824 -0.0825 -0.2780  0.2408
 8516SOL    HW137181   2.398   1.252   9.828  0.0248  0.8540  1.2946
 8516SOL    HW237182   2.503   1.342   9.836 -1.5334 -0.2726  1.2750
 8517SOL     OW37183   0.947   1.872   4.697 -0.0610  0.5022  0.2308
 8517SOL    HW137184   0.887   1.838   4.632  2.6611 -0.9350 -1.5193
 8517SOL    HW237185   1.026   1.823   4.673 -0.4885  0.2908 -0.7333
 8518SOL     OW37186   4.421   4.181   2.309 -0.0833 -0.3460 -0.0411
 8518SOL    HW137187   4.495   4.140   2.266 -0.4210 -1.4113  0.4001
 8518SOL    HW237188   4.405   4.108   2.368 -0.4001  0.5327  0.9624
 8519SOL     OW37189   1.830   3.156   8.628  0.4403  0.1019  0.2860
 8519SOL    HW137190   1.811   3.117   8.543  2.6085 -0.2974 -0.0138
 8519SOL    HW237191   1.923   3.179   8.623  1.1942 -3.2707 -0.6145
 8520SOL     OW37192   4.467   4.651   2.486 -0.0431 -0.3469 -0.1369
 8520SOL    HW137193   4.384   4.668   2.442 -1.2029 -1.6278  1.5634
 8520SOL    HW237194   4.490   0.003   2.526  1.1151 -1.6218  1.8925
 8521SOL     OW37195   3.426   2.452   7.911 -0.4174  0.3696 -0.4486
 8521SOL    HW137196   3.455   2.454   7.820  1.4126  1.3346  0.1603
 8521SOL    HW237197   3.507   2.429   7.958 -0.6657  1.9173  0.7238
 8522SOL     OW37198   2.786   2.232   3.782  0.3745 -0.2433  0.1258
 8522SOL    HW137199   2.754   2.243   3.872 -0.6366 -0.3168 -0.2258
 8522SOL    HW237200   2.840   2.309   3.764 -1.1413  1.1090  1.4202
 8523SOL     OW37201   2.801   0.563   5.378  0.4239  0.2954  0.4341
 8523SOL    HW137202   2.765   0.483   5.417 -0.0739  1.0477  1.4881
 8523SOL    HW237203   2.810   0.544   5.284 -0.7869 -0.9416  0.5651
 8524SOL     OW37204   1.618   3.058   7.177  0.1935  0.0142 -0.0556
 8524SOL    HW137205   1.560   3.039   7.250 -0.0753 -1.4100 -0.6370
 8524SOL    HW237206   1.656   2.971   7.162  1.0879  0.2125  1.0665
 8525SOL     OW37207   2.612   1.762   3.496  0.0456  0.5860  0.3834
 8525SOL    HW137208   2.707   1.746   3.498 -0.2752 -1.3752 -0.4025
 8525SOL    HW237209   2.602   1.806   3.411 -1.1172  0.8921  0.6857
 8526SOL     OW37210   0.325   0.338   7.012 -0.3989  0.3419  0.1532
 8526SOL    HW137211   0.252   0.395   6.987 -0.1147  1.0117  0.8578
 8526SOL    HW237212   0.319   0.279   6.936 -0.7698 -1.1475  1.3410
 8527SOL     OW37213   4.578   3.366   6.522 -0.1920  0.9225  0.5986
 8527SOL    HW137214   4.653   3.317   6.555  0.7870  1.7142 -0.4340
 8527SOL    HW237215   4.600   3.394   6.433  0.4052 -0.9954  0.1483
 8528SOL     OW37216   1.445   1.153   2.107  0.1885  0.3353 -0.3928
 8528SOL    HW137217   1.408   1.138   2.194  2.1371 -5.4904 -0.5143
 8528SOL    HW237218   1.537   1.139   2.133 -0.4171 -2.7808  0.0740
 8529SOL     OW37219   0.816   0.518  16.195  0.2181  0.3177  0.0795
 8529SOL    HW137220   0.750   0.518  16.126  2.1361  2.8584 -1.7755
 8529SOL    HW237221   0.766   0.488  16.271  1.3904 -1.6731  0.0503
 8530SOL     OW37222   3.939   2.450   8.786  0.4648  0.1666 -0.1664
 8530SOL    HW137223   3.859   2.454   8.733  1.3983 -0.3701 -1.6243
 8530SOL    HW237224   4.004   2.444   8.716 -0.8114  2.3516 -1.5341
 8531SOL     OW37225   4.558   3.964   2.958 -0.0889  0.1139 -0.1088
 8531SOL    HW137226   4.510   3.892   2.998  0.4234 -0.1140  0.0948
 8531SOL    HW237227   4.494   4.034   2.949  0.1856  0.2237 -1.2095
 8532SOL     OW37228   2.645   2.286   7.122 -0.7126  0.4628  0.1427
 8532SOL    HW137229   2.622   2.255   7.035 -1.3175  2.0165 -0.2535
 8532SOL    HW237230   2.630   2.378   7.099  2.3790  1.4894  2.1245
 8533SOL     OW37231   4.724   2.085   6.084 -0.0708 -0.9155  0.1958
 8533SOL    HW137232   4.629   2.083   6.100 -0.2799  2.8259 -0.5133
 8533SOL    HW237233   0.009   1.994   6.106  1.4652 -1.3490 -2.6845
 8534SOL     OW37234   0.645   2.661   2.136  0.6473 -0.1094 -1.0494
 8534SOL    HW137235   0.630   2.659   2.042  1.0142 -2.9239 -1.0506
 8534SOL    HW237236   0.673   2.751   2.151  0.5212  0.0045 -1.5091
 8535SOL     OW37237   4.436   4.469   1.608 -0.1514  0.5348  0.1182
 8535SOL    HW137238   4.437   4.399   1.543 -1.3361  2.9832 -2.5035
 8535SOL    HW237239   4.350   4.440   1.638 -0.0252 -0.8757 -0.8927
 8536SOL     OW37240   4.372   2.657   7.056 -0.2008 -0.9176  0.4223
 8536SOL    HW137241   4.366   2.632   6.964 -2.6838 -0.9230  0.5832
 8536SOL    HW237242   4.281   2.651   7.085 -0.1340  0.7677  0.9509
 8537SOL     OW37243   2.073   3.801   5.737  0.0752  0.2402  0.1743
 8537SOL    HW137244   2.132   3.848   5.796  1.4704 -1.0838 -0.1601
 8537SOL    HW237245   2.074   3.851   5.655 -0.8139  0.4900  0.3199
 8538SOL     OW37246   1.711   0.565  13.049 -0.1843  0.1426 -0.1825
 8538SOL    HW137247   1.802   0.561  13.080 -0.2444  3.2297  0.3349
 8538SOL    HW237248   1.671   0.641  13.090  1.1008  0.5921  0.2491
 8539SOL     OW37249   1.471   0.789   6.618 -0.4441  0.2923 -0.5371
 8539SOL    HW137250   1.417   0.856   6.575  0.4500  0.0505 -2.0492
 8539SOL    HW237251   1.528   0.780   6.542  0.4409 -3.4988  0.5669
 8540SOL     OW37252   1.385   1.777   3.653  0.6641  0.5346 -0.1317
 8540SOL    HW137253   1.331   1.746   3.581  0.7784  1.6794 -0.7121
 8540SOL    HW237254   1.373   1.715   3.726 -3.3459  0.1948 -1.1009
 8541SOL     OW37255   0.008   2.719  10.604  0.5372  0.2844 -0.0979
 8541SOL    HW137256   0.023   2.796  10.550  0.4185  0.0444 -0.4753
 8541SOL    HW237257   0.007   2.655  10.533  1.8087  0.2332 -0.0684
 8542SOL     OW37258   2.444   2.005   7.521  0.2157 -0.3615  0.2066
 8542SOL    HW137259   2.523   1.965   7.485  0.9769  0.8590  0.4959
 8542SOL    HW237260   2.398   1.934   7.564 -0.6858  1.3234  2.0382
 8543SOL     OW37261   3.872   3.257   5.183 -0.3320  0.2316  0.8604
 8543SOL    HW137262   3.839   3.325   5.124  0.8513  0.0261 -0.0515
 8543SOL    HW237263   3.938   3.310   5.229 -0.1797  0.9063 -0.1363
 8544SOL     OW37264   3.343   1.354   7.466 -0.6690  0.2273 -0.5703
 8544SOL    HW137265   3.401   1.378   7.539 -1.1794 -0.6027  0.1109
 8544SOL    HW237266   3.272   1.312   7.514 -1.8641  1.0727 -1.6274
 8545SOL     OW37267   4.436   0.121   4.975  0.4727  0.1846 -0.1942
 8545SOL    HW137268   4.453   0.065   4.900  1.2370 -1.1668  0.9740
 8545SOL    HW237269   4.359   0.082   5.018  0.9956 -0.1338  0.4648
 8546SOL     OW37270   0.257   0.634   5.947 -0.4898  0.1675 -0.5002
 8546SOL    HW137271   0.233   0.698   6.013 -0.2763  1.9393 -2.1310
 8546SOL    HW237272   0.253   0.550   5.993 -1.1512  1.2848  1.4437
 8547SOL     OW37273   0.340   2.445   4.316  0.4436 -0.4395 -0.2859
 8547SOL    HW137274   0.282   2.369   4.304 -0.0934 -0.1534  0.5165
 8547SOL    HW237275   0.276   2.511   4.342  0.5260 -0.0193 -1.1656
 8548SOL     OW37276   0.817   1.197   1.852  0.1590 -0.3053 -0.2721
 8548SOL    HW137277   0.848   1.163   1.768 -1.1786  1.6253 -1.5414
 8548SOL    HW237278   0.784   1.282   1.824  1.8482  0.3968 -0.0767
 8549SOL     OW37279   1.131   1.524   8.824 -0.7454  0.0510  0.1232
 8549SOL    HW137280   1.070   1.588   8.861 -2.3637 -0.1516 -2.1598
 8549SOL    HW237281   1.083   1.452   8.865 -0.2415 -0.8358 -0.8533
 8550SOL     OW37282   2.512   1.111  13.202 -0.3437 -0.0458 -0.7978
 8550SOL    HW137283   2.470   1.025  13.200  0.7415 -0.5527 -1.4364
 8550SOL    HW237284   2.603   1.088  13.220 -0.9176  2.1613  5.0250
 8551SOL     OW37285   1.934   2.202   3.129  1.0188  0.7714  0.1828
 8551SOL    HW137286   1.907   2.153   3.207  1.0393  0.0066 -0.2895
 8551SOL    HW237287   1.912   2.155   3.048  0.9161  1.5127 -0.2153
 8552SOL     OW37288   3.598   3.722   5.928 -0.1492  0.5456 -0.2233
 8552SOL    HW137289   3.688   3.737   5.956 -0.7963 -0.0728  2.1722
 8552SOL    HW237290   3.567   3.679   6.008  1.7012 -0.4042 -0.0139
 8553SOL     OW37291   0.534   0.366   5.187 -0.4125  0.2629 -0.2196
 8553SOL    HW137292   0.465   0.303   5.205 -0.6869  1.1531  1.8132
 8553SOL    HW237293   0.576   0.306   5.125 -1.3165  0.4905 -1.0489
 8554SOL     OW37294   2.137   3.935   5.500 -0.2911  0.1826 -0.3135
 8554SOL    HW137295   2.193   3.941   5.423  0.7081  0.6390  0.4462
 8554SOL    HW237296   2.059   3.901   5.457  0.3249  0.7988 -1.9026
 8555SOL     OW37297   2.617   0.089   2.534  0.6391  0.2875 -0.2751
 8555SOL    HW137298   2.693   0.112   2.587  0.2088  1.9004 -0.3723
 8555SOL    HW237299   2.607   0.167   2.480 -0.2959  0.5876  0.3253
 8556SOL     OW37300   1.900   0.023  15.916 -0.7757 -0.2681  0.1707
 8556SOL    HW137301   1.894   4.664  15.944  0.9126  0.3009  2.4398
 8556SOL    HW237302   1.815   0.054  15.947 -1.1303 -1.2974  0.2146
 8557SOL     OW37303   0.041   0.692   4.170  0.0727  0.4301  0.1567
 8557SOL    HW137304   0.009   0.621   4.115  1.1140  0.5584 -0.6275
 8557SOL    HW237305   4.724   0.665   4.247 -0.5366 -3.3721 -1.5631
 8558SOL     OW37306   4.157   1.371  13.629 -0.0673  0.7234  0.0964
 8558SOL    HW137307   4.208   1.375  13.548  0.1655  0.5615  0.2324
 8558SOL    HW237308   4.126   1.460  13.645  1.2086  1.6173 -2.3347
 8559SOL     OW37309   2.411   0.790   9.857 -0.2255 -0.3629 -0.6086
 8559SOL    HW137310   2.363   0.743   9.926  1.4784  2.1112  2.2417
 8559SOL    HW237311   2.371   0.757   9.777  0.1048 -3.2482  0.3973
 8560SOL     OW37312   1.270   4.687   6.347  0.2642  0.2856  0.0798
 8560SOL    HW137313   1.228   4.632   6.282  0.4421 -1.9875  1.8691
 8560SOL    HW237314   1.222   4.672   6.428 -1.3893  1.4418 -0.6996
 8561SOL     OW37315   2.497   4.346  10.790 -0.1637  0.2820  0.1951
 8561SOL    HW137316   2.406   4.322  10.805 -0.3036  1.0992  0.6257
 8561SOL    HW237317   2.550   4.314  10.863 -0.9449 -1.5915 -0.0596
 8562SOL     OW37318   2.256   0.806   4.604  0.0541  0.0648 -0.7709
 8562SOL    HW137319   2.253   0.762   4.689  1.4921 -0.4635 -0.9865
 8562SOL    HW237320   2.201   0.883   4.617 -1.0880 -0.6095 -1.5483
 8563SOL     OW37321   1.978   0.701   3.652  0.6451 -0.5833  0.0900
 8563SOL    HW137322   2.041   0.737   3.590 -1.1547  2.5284  0.0789
 8563SOL    HW237323   2.046   0.679   3.715  1.9485 -1.9307 -1.7835
 8564SOL     OW37324   1.387   1.614  15.120  0.0003  0.1034 -0.1331
 8564SOL    HW137325   1.424   1.529  15.097  4.3590  2.2648 -0.9229
 8564SOL    HW237326   1.431   1.664  15.052 -0.5097  0.9068  0.1309
 8565SOL     OW37327   4.472   0.374   5.001 -0.1553  0.0707  0.3665
 8565SOL    HW137328   4.480   0.280   4.988  2.3536  0.1059  1.6228
 8565SOL    HW237329   4.522   0.388   5.082  2.0174 -1.0742 -0.7944
 8566SOL     OW37330   4.467   2.674   2.827  0.2261 -0.7542 -0.1860
 8566SOL    HW137331   4.490   2.591   2.787  0.1868  0.3244 -2.4643
 8566SOL    HW237332   4.383   2.640   2.857  0.9224 -1.6423  0.7400
 8567SOL     OW37333   4.409   0.607  13.629  0.3121  0.2802 -0.4452
 8567SOL    HW137334   4.497   0.617  13.595  1.0499 -2.1539  0.7598
 8567SOL    HW237335   4.404   0.678  13.693 -0.7395  0.1021 -0.3145
 8568SOL     OW37336   1.981   3.900  14.178 -0.0355  0.3060 -0.5653
 8568SOL    HW137337   1.922   3.838  14.134  1.5230 -1.2721 -0.3944
 8568SOL    HW237338   2.057   3.844  14.192  0.4372  1.0484 -0.1783
 8569SOL     OW37339   0.212   2.028   0.969  0.6035  0.5115 -0.4039
 8569SOL    HW137340   0.303   2.014   0.994 -0.0488  0.5591  1.9318
 8569SOL    HW237341   0.216   2.003   0.876 -1.2697 -1.5689  0.0704
 8570SOL     OW37342   2.938   3.312   8.036  0.5891  0.1079 -0.1083
 8570SOL    HW137343   2.977   3.345   7.955 -1.4641 -0.9645 -1.5321
 8570SOL    HW237344   2.847   3.300   8.012  0.9255 -3.6252  0.4689
 8571SOL     OW37345   3.917   3.461   3.921  0.2677  0.2168 -0.1926
 8571SOL    HW137346   4.010   3.480   3.924  0.4426 -0.7417  0.4043
 8571SOL    HW237347   3.924   3.366   3.922  0.0334  0.1738 -2.6055
 8572SOL     OW37348   1.369   0.237  17.554 -0.8967 -0.3242  0.6953
 8572SOL    HW137349   1.412   0.167  17.503  0.5446 -0.0756  1.5672
 8572SOL    HW237350   1.283   0.196  17.553 -1.4021  0.7574  1.5326
 8573SOL     OW37351   3.098   2.152  12.120  0.2611  0.0233  0.3431
 8573SOL    HW137352   3.134   2.176  12.205 -0.6983 -0.0122  0.7609
 8573SOL    HW237353   3.008   2.146  12.151  0.2493  3.4199  0.9986
 8574SOL     OW37354   3.562   3.734  13.167  0.2438 -0.3343  0.1064
 8574SOL    HW137355   3.477   3.712  13.128 -0.5404  2.5897  0.1583
 8574SOL    HW237356   3.610   3.687  13.100  2.9601  1.1414  1.0437
 8575SOL     OW37357   4.360   2.272   3.269 -0.3698  0.2944 -0.5143
 8575SOL    HW137358   4.446   2.284   3.227 -0.2430  0.8396 -0.1064
 8575SOL    HW237359   4.331   2.359   3.295 -0.7148  0.1063 -0.2782
 8576SOL     OW37360   4.079   4.631   9.618 -0.3172 -0.0088  0.3449
 8576SOL    HW137361   4.170   4.616   9.592 -0.6832 -1.4293 -0.1416
 8576SOL    HW237362   4.089   4.648   9.711 -1.2560 -2.4215  0.8872
 8577SOL     OW37363   0.019   1.521   7.216  0.0754  0.0926  0.4223
 8577SOL    HW137364   4.687   1.464   7.257  1.7311 -0.9744  1.4969
 8577SOL    HW237365   0.015   1.597   7.274  0.4941 -1.0664  1.9440
 8578SOL     OW37366   3.855   3.191   5.866  0.8276 -0.0838 -0.2535
 8578SOL    HW137367   3.813   3.276   5.880  1.6434  0.1071  1.0393
 8578SOL    HW237368   3.929   3.232   5.823  2.0582  0.2884  2.2150
 8579SOL     OW37369   1.859   1.762   2.208 -0.0111 -0.3546 -0.3707
 8579SOL    HW137370   1.944   1.756   2.251 -0.6467  0.9395  1.0418
 8579SOL    HW237371   1.883   1.718   2.126 -0.5677 -0.3990 -0.5110
 8580SOL     OW37372   2.567   1.457   9.320  0.3016 -0.4826  0.0576
 8580SOL    HW137373   2.566   1.437   9.413 -1.6436  1.2302  0.3900
 8580SOL    HW237374   2.658   1.430   9.304  0.5189 -0.2973  0.9868
 8581SOL     OW37375   0.740   2.515  11.102 -1.0613 -0.6040  0.8776
 8581SOL    HW137376   0.752   2.574  11.176 -0.4031 -0.0279  0.3187
 8581SOL    HW237377   0.720   2.428  11.135 -2.8590 -0.2059  0.8398
 8582SOL     OW37378   3.772   4.353  14.424 -0.2302 -0.4253  0.1850
 8582SOL    HW137379   3.862   4.375  14.449 -0.9847  1.4455  1.2262
 8582SOL    HW237380   3.762   4.417  14.354 -1.8585 -1.0157 -0.1124
 8583SOL     OW37381   2.366   1.951   0.619  0.1009  0.2734 -0.1592
 8583SOL    HW137382   2.317   1.877   0.583  2.6496 -1.6087  0.2313
 8583SOL    HW237383   2.307   2.005   0.671  0.0112  0.0888 -0.0708
 8584SOL     OW37384   2.007   2.766   8.814 -0.1212  0.2477 -0.1566
 8584SOL    HW137385   2.005   2.670   8.808 -1.4938  0.2852 -0.1977
 8584SOL    HW237386   1.935   2.784   8.754 -0.1462  0.4345 -0.0689
 8585SOL     OW37387   0.615   4.006   7.144  0.0667  0.2094 -0.9278
 8585SOL    HW137388   0.692   3.960   7.177  1.1280  1.7257 -1.2993
 8585SOL    HW237389   0.603   3.953   7.065 -3.1667  0.5057 -0.6406
 8586SOL     OW37390   2.221   2.724   2.768 -0.5051  0.0762  0.1280
 8586SOL    HW137391   2.268   2.672   2.833 -0.3269  0.0763  0.0002
 8586SOL    HW237392   2.280   2.707   2.694 -0.9053 -0.8948  0.0346
 8587SOL     OW37393   2.681   4.421   3.642 -0.3466  0.2246  0.6502
 8587SOL    HW137394   2.678   4.385   3.554  0.3098 -1.5148  1.3157
 8587SOL    HW237395   2.769   4.391   3.667 -0.3346  1.0743  1.6626
 8588SOL     OW37396   1.298   4.627   5.950 -0.1213  0.2865 -0.0236
 8588SOL    HW137397   1.229   4.596   6.008  0.0664  0.0211  0.0566
 8588SOL    HW237398   1.310   4.715   5.984  1.7405  0.2051 -0.4498
 8589SOL     OW37399   1.701   1.085   3.997  0.3560  0.6883 -0.0578
 8589SOL    HW137400   1.656   1.031   4.062  2.9143  0.5029  1.5793
 8589SOL    HW237401   1.766   1.124   4.056  1.2578 -2.9326  1.4053
 8590SOL     OW37402   3.710   1.045   2.630  0.1474 -0.2465 -0.5175
 8590SOL    HW137403   3.620   1.052   2.662 -0.0648 -1.4606 -0.8528
 8590SOL    HW237404   3.745   0.998   2.706 -0.1425 -1.9024 -1.4025
 8591SOL     OW37405   3.146   0.350   1.965  0.9256 -0.0448 -0.2268
 8591SOL    HW137406   3.230   0.348   1.921  1.9534  0.6858  1.6859
 8591SOL    HW237407   3.157   0.282   2.032 -2.4785 -2.9666 -2.6297
 8592SOL     OW37408   4.706   2.833   2.660 -0.3863 -0.5601 -0.1487
 8592SOL    HW137409   4.633   2.893   2.648  0.8282  1.1385  1.0230
 8592SOL    HW237410   4.664   2.764   2.712 -0.7727 -1.1585 -1.2660
 8593SOL     OW37411   0.052   2.137  15.145 -0.1531  0.1795  0.6772
 8593SOL    HW137412   4.712   2.198  15.160  0.5258  0.7476  1.6741
 8593SOL    HW237413   0.040   2.066  15.209 -1.6176  1.0779  1.4032
 8594SOL     OW37414   1.295   0.307  16.176 -0.3713 -0.6749 -0.3068
 8594SOL    HW137415   1.225   0.362  16.141  2.8100  2.9880 -0.9671
 8594SOL    HW237416   1.264   0.219  16.153 -1.8846 -0.0450 -0.6653
 8595SOL     OW37417   4.150   1.837   2.107 -0.5026 -0.4461 -0.2971
 8595SOL    HW137418   4.132   1.920   2.063 -0.7543  0.2609  1.1790
 8595SOL    HW237419   4.244   1.846   2.122 -0.5493  2.0852 -1.5735
 8596SOL     OW37420   3.385   0.841   6.775  0.0449 -0.0581 -0.4980
 8596SOL    HW137421   3.447   0.862   6.705  0.2795  0.5660 -0.0969
 8596SOL    HW237422   3.353   0.930   6.789 -2.4585 -1.4194  2.3512
 8597SOL     OW37423   2.958   2.218   9.091  0.4401  0.0470  0.3581
 8597SOL    HW137424   2.870   2.194   9.061 -0.0160 -0.1476  1.8606
 8597SOL    HW237425   2.942   2.183   9.178  1.3412  2.1328  1.3566
 8598SOL     OW37426   0.280   0.100   8.119  0.4425 -0.5109  0.0482
 8598SOL    HW137427   0.218   0.154   8.070 -0.8278  0.4438  2.6942
 8598SOL    HW237428   0.225   0.077   8.194  0.2294 -0.2063 -0.0133
 8599SOL     OW37429   3.404   0.608  11.518 -0.1175  0.1681  0.0999
 8599SOL    HW137430   3.469   0.558  11.468  0.4038  0.8828  0.0500
 8599SOL    HW237431   3.389   0.542  11.586  1.2588 -0.7335 -0.4563
 8600SOL     OW37432   2.050   3.235   5.140 -0.3475  0.0845 -0.4776
 8600SOL    HW137433   2.013   3.269   5.222 -1.2411 -2.5423  0.1958
 8600SOL    HW237434   2.110   3.171   5.178 -1.3738 -2.0843 -2.4819
 8601SOL     OW37435   1.109   2.328   8.198  0.2263  0.0222 -0.4523
 8601SOL    HW137436   1.176   2.271   8.160  0.9687  2.0441 -2.1871
 8601SOL    HW237437   1.072   2.260   8.253 -1.8032  1.1502 -0.3995
 8602SOL     OW37438   4.102   3.204   5.723 -0.1552  0.3279 -0.0057
 8602SOL    HW137439   4.055   3.139   5.671  0.1257  0.1814 -0.0817
 8602SOL    HW237440   4.127   3.265   5.654 -3.2572  1.2609 -0.2755
 8603SOL     OW37441   0.207   2.499   7.518  0.4341 -0.0333  0.2167
 8603SOL    HW137442   0.133   2.525   7.463  0.7019 -0.9753 -0.5888
 8603SOL    HW237443   0.165   2.470   7.599  3.9272 -1.6562  1.4577
 8604SOL     OW37444   2.713   3.794   4.700 -0.5221 -0.2362  0.4995
 8604SOL    HW137445   2.750   3.785   4.612 -1.6614  1.4336 -0.1590
 8604SOL    HW237446   2.661   3.873   4.685  0.6419  0.4843  0.1937
 8605SOL     OW37447   2.816   2.080   6.888  0.0666 -0.2530 -0.1538
 8605SOL    HW137448   2.864   2.074   6.971 -1.3806 -0.5776  0.6597
 8605SOL    HW237449   2.751   2.148   6.906  1.1208  0.5371  0.7396
 8606SOL     OW37450   4.307   0.715   4.386  0.0698 -0.1962 -0.0307
 8606SOL    HW137451   4.277   0.725   4.296  0.9385 -0.7615 -0.3886
 8606SOL    HW237452   4.339   0.799   4.419  1.0200 -1.1013  1.3420
 8607SOL     OW37453   4.614   1.167   0.387  0.1003 -0.0415  0.1739
 8607SOL    HW137454   4.652   1.176   0.474 -3.0917  0.9968  1.4531
 8607SOL    HW237455   4.668   1.218   0.327 -0.9623  1.6984  0.6952
 8608SOL     OW37456   1.810   0.683   8.250 -0.6449 -0.2704 -0.2410
 8608SOL    HW137457   1.727   0.731   8.254  0.5433  1.6187  1.9060
 8608SOL    HW237458   1.798   0.624   8.324 -0.0588  0.1240  0.1689
 8609SOL     OW37459   4.176   3.377   2.393 -0.1360 -0.1881  0.0831
 8609SOL    HW137460   4.191   3.460   2.347  1.1603 -0.5508 -0.1475
 8609SOL    HW237461   4.090   3.393   2.431  0.4595 -0.5269  1.5461
 8610SOL     OW37462   2.715   2.421  17.508  0.7796  0.3785  0.0521
 8610SOL    HW137463   2.686   2.331  17.492  2.7956 -0.6068  1.8524
 8610SOL    HW237464   2.708   2.468  17.425  0.8242  1.1128  0.4611
 8611SOL     OW37465   0.056   4.217  16.146 -0.2892 -0.1047 -0.4471
 8611SOL    HW137466   0.027   4.297  16.102 -0.7402 -0.3015 -0.5092
 8611SOL    HW237467   0.148   4.236  16.164 -0.2503 -0.1048 -0.6481
 8612SOL     OW37468   2.449   3.647   7.498 -0.7500  0.4079  0.1115
 8612SOL    HW137469   2.498   3.632   7.418 -0.6771 -2.7527  0.7678
 8612SOL    HW237470   2.521   3.661   7.560 -0.3205  1.2084 -0.5736
 8613SOL     OW37471   1.750   1.652   8.578 -0.2761  0.1682  0.0440
 8613SOL    HW137472   1.671   1.678   8.626  1.4497 -1.9501  4.0417
 8613SOL    HW237473   1.808   1.636   8.652  0.8356 -1.0277 -1.0949
 8614SOL     OW37474   0.081   4.611   8.168 -0.2410  0.2026  0.1812
 8614SOL    HW137475   0.059   4.701   8.193  0.4603  0.8618 -1.5469
 8614SOL    HW237476   0.035   4.565   8.238  1.2726 -0.3084  0.8247
 8615SOL     OW37477   0.416   4.184   4.410  0.1427 -0.3971  0.1910
 8615SOL    HW137478   0.365   4.140   4.478 -1.1369 -0.0343 -0.5502
 8615SOL    HW237479   0.348   4.230   4.361  1.1194  0.0606 -0.7273
 8616SOL     OW37480   4.131   3.267   4.634  0.1764 -0.1030  0.1428
 8616SOL    HW137481   4.040   3.237   4.634  0.2670 -0.4120 -2.4001
 8616SOL    HW237482   4.133   3.352   4.590  0.5149 -0.6336 -0.8705
 8617SOL     OW37483   0.123   4.473   1.625  0.3962 -0.4312  0.1546
 8617SOL    HW137484   0.048   4.532   1.630  1.3148  0.8679 -1.6402
 8617SOL    HW237485   0.143   4.455   1.717  0.7068 -1.2283 -0.0712
 8618SOL     OW37486   2.337   0.446  14.892  0.0972 -0.0219  0.4775
 8618SOL    HW137487   2.399   0.441  14.965  0.1675 -1.3577  0.3218
 8618SOL    HW237488   2.251   0.467  14.928  1.7332  1.6059  3.4999
 8619SOL     OW37489   3.275   0.544   8.992  0.0250 -0.4909  0.0523
 8619SOL    HW137490   3.272   0.479   9.063  0.1596 -1.5971 -0.9682
 8619SOL    HW237491   3.290   0.619   9.050 -2.0977 -0.0256 -0.0091
 8620SOL     OW37492   3.824   2.749   3.771  0.4210 -0.2868  0.1625
 8620SOL    HW137493   3.814   2.768   3.864  0.3299  0.5927 -0.0257
 8620SOL    HW237494   3.845   2.839   3.745  0.6260 -0.4678 -0.3039
 8621SOL     OW37495   1.894   1.881   8.454 -0.4545  0.0237 -0.0797
 8621SOL    HW137496   1.946   1.955   8.424  1.4867 -1.4778 -0.3737
 8621SOL    HW237497   1.823   1.884   8.389 -0.2746  0.8925 -0.2377
 8622SOL     OW37498   2.468   0.095   8.325  0.0223 -0.2223  0.2489
 8622SOL    HW137499   2.386   0.058   8.360 -0.4191  0.2551 -0.2881
 8622SOL    HW237500   2.518   0.098   8.406 -0.4070  0.4482  0.4841
 8623SOL     OW37501   4.175   3.977   8.920  0.0027  0.1966 -0.0473
 8623SOL    HW137502   4.145   4.063   8.951  0.7136  0.1425  0.7953
 8623SOL    HW237503   4.133   3.983   8.834  0.2690  3.2292  0.0371
 8624SOL     OW37504   3.143   3.998   0.072 -0.1890  0.1040  0.1310
 8624SOL    HW137505   3.093   4.046   0.006 -0.5386  1.9510  1.7269
 8624SOL    HW237506   3.160   4.068   0.135  0.5873  0.3968 -0.4166
 8625SOL     OW37507   1.847   1.848  16.727 -0.6953  0.2726 -0.3502
 8625SOL    HW137508   1.895   1.766  16.714 -0.5131  0.0903  1.5268
 8625SOL    HW237509   1.905   1.921  16.707 -0.0249 -0.3873 -0.8176
 8626SOL     OW37510   1.725   2.981   5.780 -0.0503 -0.1851  0.3689
 8626SOL    HW137511   1.813   2.943   5.782 -0.3803 -1.0136 -0.4768
 8626SOL    HW237512   1.706   2.956   5.870  2.0030 -2.1181  0.2906
 8627SOL     OW37513   1.868   2.348   9.059  0.3359  0.0683  0.0925
 8627SOL    HW137514   1.777   2.349   9.031  0.2626  1.0650  0.3853
 8627SOL    HW237515   1.904   2.370   8.973  1.2528  1.9630  0.9738
 8628SOL     OW37516   4.093   2.581   1.533 -0.5939 -0.4604 -0.0525
 8628SOL    HW137517   4.118   2.602   1.623 -1.0774  0.6759 -0.1769
 8628SOL    HW237518   4.178   2.554   1.498 -0.9627 -0.2248 -1.1375
 8629SOL     OW37519   2.425   2.642  13.766  0.0496 -0.2344  0.5509
 8629SOL    HW137520   2.424   2.573  13.833  2.4464  0.6556  1.4982
 8629SOL    HW237521   2.359   2.608  13.705  1.9224  1.4395 -2.3950
 8630SOL     OW37522   0.906   2.312   8.607  0.0984 -0.0546  0.5452
 8630SOL    HW137523   0.991   2.273   8.589 -1.0603 -2.0678 -0.5934
 8630SOL    HW237524   0.857   2.235   8.637 -0.2740  1.0064  2.6634
 8631SOL     OW37525   4.688   0.497   3.737  0.2017 -0.2921 -0.4072
 8631SOL    HW137526   0.032   0.503   3.679  0.3590  0.2604 -0.1419
 8631SOL    HW237527   4.622   0.533   3.678  0.9851  2.9490  0.7022
 8632SOL     OW37528   4.298   3.033  16.233  0.1179 -0.1805 -0.3686
 8632SOL    HW137529   4.259   3.061  16.316 -0.6300  0.2988 -0.8835
 8632SOL    HW237530   4.322   3.121  16.202  0.3249  0.2256  0.9139
 8633SOL     OW37531   4.328   0.808  12.244  0.3553 -0.5694 -0.2427
 8633SOL    HW137532   4.325   0.819  12.149  0.2234  2.2107  0.0807
 8633SOL    HW237533   4.312   0.715  12.259  1.1494 -0.6570  0.0998
 8634SOL     OW37534   0.172   2.360   9.982  0.5003 -0.1872 -0.8673
 8634SOL    HW137535   0.181   2.323  10.069  0.0638 -0.3317 -0.8811
 8634SOL    HW237536   0.158   2.285   9.924 -3.5085 -2.0672  2.5454
 8635SOL     OW37537   4.200   1.942  17.636 -0.1528  0.1357 -0.8234
 8635SOL    HW137538   4.271   1.905  17.585 -1.1304 -2.1393 -0.5498
 8635SOL    HW237539   4.237   1.929  17.724 -0.2426  2.5131 -0.4442
 8636SOL     OW37540   0.195   1.974   1.982 -0.3822 -0.3653  0.5308
 8636SOL    HW137541   0.103   1.994   1.996 -0.5974 -0.0750 -1.2190
 8636SOL    HW237542   0.207   2.013   1.895 -0.8830 -0.0106  0.6193
 8637SOL     OW37543   0.802   3.899   7.293  0.1750 -1.0569 -0.0165
 8637SOL    HW137544   0.822   3.813   7.255  0.9115 -1.0775  0.4157
 8637SOL    HW237545   0.877   3.949   7.260 -2.2304  2.2101 -0.5139
 8638SOL     OW37546   1.403   3.484   2.099 -0.1319  0.3507  0.3116
 8638SOL    HW137547   1.467   3.494   2.029  0.9019 -1.3300  1.0243
 8638SOL    HW237548   1.395   3.391   2.122 -0.8152  0.5553  0.9129
 8639SOL     OW37549   4.168   1.022   0.958 -0.4126 -0.1095  0.1403
 8639SOL    HW137550   4.255   0.989   0.936 -0.5807 -1.1356  1.0653
 8639SOL    HW237551   4.122   0.942   0.933  0.9104 -0.4515 -1.1807
 8640SOL     OW37552   2.130   1.970  12.903  0.9147  0.1677 -0.1783
 8640SOL    HW137553   2.150   2.033  12.834 -1.5786 -0.5962 -1.6011
 8640SOL    HW237554   2.093   1.893  12.861  2.9949 -1.6080  1.2657
 8641SOL     OW37555   2.408   0.978   3.738  0.2893  0.6258 -0.1145
 8641SOL    HW137556   2.367   0.910   3.683 -0.3851  0.4113  0.6566
 8641SOL    HW237557   2.337   1.042   3.746 -0.6417 -0.2659 -1.2453
 8642SOL     OW37558   3.358   4.114  10.290 -0.1610 -0.1531 -0.1703
 8642SOL    HW137559   3.429   4.175  10.270 -0.8042  0.2086 -1.3410
 8642SOL    HW237560   3.389   4.071  10.370  0.4557 -0.8581 -0.7902
 8643SOL     OW37561   3.867   1.682   8.017  0.3043 -0.2290  0.1075
 8643SOL    HW137562   3.872   1.757   7.957 -0.3440 -2.3688 -2.6455
 8643SOL    HW237563   3.805   1.617   7.983 -0.9162 -0.5533  2.9416
 8644SOL     OW37564   3.593   3.877   6.788 -0.0257 -0.4008 -0.0056
 8644SOL    HW137565   3.512   3.923   6.764 -0.4705 -0.2856  1.7139
 8644SOL    HW237566   3.635   3.940   6.846  1.9200 -1.1271 -0.6200
 8645SOL     OW37567   4.188   3.671  10.664 -0.0264 -0.3430  0.5311
 8645SOL    HW137568   4.217   3.760  10.646 -0.4484 -0.4903 -0.8689
 8645SOL    HW237569   4.238   3.643  10.741  0.0510  0.4848  0.7825
 8646SOL     OW37570   0.543   1.306   2.940  0.5524  0.1342  0.5881
 8646SOL    HW137571   0.474   1.366   2.968 -0.2559 -0.3418 -0.4304
 8646SOL    HW237572   0.605   1.318   3.013  0.6607  1.1898  0.3223
 8647SOL     OW37573   3.474   4.307   9.905  0.1532 -0.1249  0.8956
 8647SOL    HW137574   3.441   4.358   9.831  2.7727 -0.9300 -0.8318
 8647SOL    HW237575   3.417   4.231   9.901  1.1329 -0.6947 -2.0709
 8648SOL     OW37576   4.629   0.922   6.807 -0.4008  0.0090  0.0653
 8648SOL    HW137577   4.646   0.841   6.855 -2.0952  0.2316  1.0315
 8648SOL    HW237578   4.649   0.879   6.724 -1.3411 -0.8051  0.2554
 8649SOL     OW37579   1.239   2.398  12.373  0.0212 -0.1353  0.2977
 8649SOL    HW137580   1.253   2.492  12.387  0.7300 -0.0856 -0.7013
 8649SOL    HW237581   1.312   2.387  12.312 -1.7201 -2.5059 -1.3540
 8650SOL     OW37582   3.566   0.838   9.767 -0.1961 -0.5248  0.3825
 8650SOL    HW137583   3.500   0.898   9.801 -0.7532 -2.4638  2.6781
 8650SOL    HW237584   3.582   0.859   9.675  0.5451  0.2788  0.6948
 8651SOL     OW37585   0.964   1.207  12.487 -0.3764 -0.1148  0.2288
 8651SOL    HW137586   0.911   1.254  12.422  0.6637  2.7499  1.4754
 8651SOL    HW237587   0.980   1.120  12.450 -0.3684 -0.5263  1.1865
 8652SOL     OW37588   3.564   3.470   5.205  0.6962  0.8063 -0.0413
 8652SOL    HW137589   3.562   3.385   5.161  1.3580  0.4120  0.7020
 8652SOL    HW237590   3.593   3.445   5.293  2.9168  0.5004 -0.8644
 8653SOL     OW37591   4.146   3.529   4.013  0.0827  0.5622 -0.5498
 8653SOL    HW137592   4.242   3.536   4.010  0.1033  0.1175 -1.0350
 8653SOL    HW237593   4.127   3.542   4.106  0.3793 -1.6011 -0.1720
 8654SOL     OW37594   2.445   2.260   3.959  0.0051  0.1698  0.2967
 8654SOL    HW137595   2.467   2.320   4.030  1.4667  0.1979 -0.1886
 8654SOL    HW237596   2.466   2.174   3.995  0.4347  0.6478  1.1837
 8655SOL     OW37597   3.246   4.480  13.945 -0.2835 -0.2605 -0.4797
 8655SOL    HW137598   3.261   4.571  13.970  3.0882 -0.4807 -1.7846
 8655SOL    HW237599   3.318   4.443  13.996  0.6018  2.6248  0.3802
 8656SOL     OW37600   1.907   0.578  14.150  0.0515 -0.4048  0.0232
 8656SOL    HW137601   1.941   0.667  14.152 -0.0429 -0.3142 -1.9350
 8656SOL    HW237602   1.981   0.528  14.116  0.5254 -0.2901  0.8956
 8657SOL     OW37603   3.314   1.318   0.723 -0.2005  0.0231 -0.2269
 8657SOL    HW137604   3.376   1.314   0.650 -1.2699 -1.7560 -1.0534
 8657SOL    HW237605   3.250   1.262   0.679  1.2105 -0.6938 -1.3529
 8658SOL     OW37606   3.852   0.043   7.611  0.5971 -0.4192  0.9302
 8658SOL    HW137607   3.898   4.693   7.628 -0.1054 -0.4689  2.5414
 8658SOL    HW237608   3.764   0.027   7.644  0.2418  0.7144  0.5306
 8659SOL     OW37609   2.501   1.409  14.802  0.3644 -0.2436 -0.0428
 8659SOL    HW137610   2.420   1.375  14.763 -0.6958  1.9187  0.2984
 8659SOL    HW237611   2.555   1.421  14.724 -0.2636  1.1544 -0.2585
 8660SOL     OW37612   2.435   2.358  13.390  0.4955 -0.2151  0.7823
 8660SOL    HW137613   2.413   2.368  13.482 -1.3898 -1.5778  0.4693
 8660SOL    HW237614   2.384   2.431  13.355  1.2919  0.7253  1.5840
 8661SOL     OW37615   3.067   2.867  14.500 -0.4685 -0.2896  0.0125
 8661SOL    HW137616   3.132   2.805  14.534 -1.6770 -0.2062  2.5031
 8661SOL    HW237617   3.101   2.951  14.529  1.8613 -0.2977 -2.8023
 8662SOL     OW37618   4.601   0.801  10.469 -0.0629  0.3558  0.1355
 8662SOL    HW137619   4.548   0.763  10.399  0.0341  2.1576 -0.9223
 8662SOL    HW237620   4.562   0.746  10.538  1.1088 -1.0081 -0.2832
 8663SOL     OW37621   1.662   0.969   6.462 -0.3381  0.0761 -0.2818
 8663SOL    HW137622   1.714   0.889   6.474  0.2815  0.8974  2.5625
 8663SOL    HW237623   1.710   1.028   6.520 -2.0573  0.4626  0.7517
 8664SOL     OW37624   2.277   3.987   7.166 -0.2077 -0.5215  0.7209
 8664SOL    HW137625   2.307   4.069   7.205 -0.3787  0.8221 -1.9561
 8664SOL    HW237626   2.184   3.984   7.188 -0.5036  0.0650 -0.4697
 8665SOL     OW37627   4.283   0.815   4.708  0.1727  0.4341 -0.1713
 8665SOL    HW137628   4.288   0.839   4.615 -1.3134  0.1146 -0.3301
 8665SOL    HW237629   4.229   0.888   4.737  0.0616  0.8183 -1.3300
 8666SOL     OW37630   2.951   4.056  10.499  0.1699 -0.7876 -0.4912
 8666SOL    HW137631   3.013   3.988  10.472  2.4425  0.8843  0.4972
 8666SOL    HW237632   2.892   4.045  10.424 -2.6927  4.5888  0.9660
 8667SOL     OW37633   4.638   1.284   1.590 -0.0356  0.4590  0.1513
 8667SOL    HW137634   4.572   1.216   1.577 -2.0997  2.5596 -0.3063
 8667SOL    HW237635   4.598   1.362   1.554  0.0173  0.6956  0.6097
 8668SOL     OW37636   1.403   3.844   5.237 -0.0009 -0.0328 -0.6692
 8668SOL    HW137637   1.376   3.919   5.184  0.8396 -0.7619 -2.1255
 8668SOL    HW237638   1.350   3.845   5.317  0.9491 -1.7488  0.0052
 8669SOL     OW37639   1.537   4.575  15.024  0.2972 -0.2241  0.0195
 8669SOL    HW137640   1.484   4.653  15.038 -1.5725 -1.3551 -0.6464
 8669SOL    HW237641   1.592   4.564  15.101  1.6168  0.4400 -0.8194
 8670SOL     OW37642   2.131   3.338   2.579 -0.6875  0.6552  0.1789
 8670SOL    HW137643   2.219   3.348   2.545  0.3243 -0.8823  2.3501
 8670SOL    HW237644   2.153   3.398   2.649  2.1691  1.6862 -1.6313
 8671SOL     OW37645   1.007   1.411   8.366  0.4848  0.4896  0.0710
 8671SOL    HW137646   0.915   1.385   8.373  0.6113 -0.9253 -3.6661
 8671SOL    HW237647   1.047   1.375   8.446 -0.6806  1.3009  1.0179
 8672SOL     OW37648   4.433   0.345   7.749 -0.0567 -0.1353  0.1300
 8672SOL    HW137649   4.505   0.287   7.724 -0.7793 -0.9422 -0.0335
 8672SOL    HW237650   4.375   0.336   7.674  1.0603 -2.1479 -0.4955
 8673SOL     OW37651   1.388   1.697   1.293 -0.1903  0.2028  0.6197
 8673SOL    HW137652   1.369   1.642   1.217  1.1903  0.7829 -0.1458
 8673SOL    HW237653   1.401   1.633   1.362  1.7605  1.5301  1.4684
 8674SOL     OW37654   2.129   1.497   4.096 -0.5030 -0.0246  0.0953
 8674SOL    HW137655   2.147   1.440   4.171  1.5477 -2.1531 -2.0196
 8674SOL    HW237656   2.126   1.432   4.025 -1.4753 -1.4555  1.4362
 8675SOL     OW37657   1.470   1.504   0.823  0.1358  0.1679  0.0812
 8675SOL    HW137658   1.484   1.463   0.738  1.4390 -0.1553  0.4638
 8675SOL    HW237659   1.471   1.600   0.814  1.3248  0.2554  1.1770
 8676SOL     OW37660   2.287   0.459   0.608  0.0221  0.3265  0.0757
 8676SOL    HW137661   2.206   0.409   0.593 -0.3845  1.2915 -0.8781
 8676SOL    HW237662   2.263   0.514   0.683  1.4246  0.2532  0.5901
 8677SOL     OW37663   0.711   1.396   8.833  0.4228  0.1657 -0.0147
 8677SOL    HW137664   0.632   1.372   8.784  0.4740 -0.0555  0.0085
 8677SOL    HW237665   0.758   1.312   8.832  0.2965  0.0994 -0.6301
 8678SOL     OW37666   3.556   0.597   9.215 -0.0419 -0.6091  0.2988
 8678SOL    HW137667   3.619   0.556   9.273  1.9739 -1.2619 -2.3426
 8678SOL    HW237668   3.478   0.542   9.217  0.1307 -0.8124  1.2413
 8679SOL     OW37669   2.087   3.046   8.223  0.0898  0.1757  0.0513
 8679SOL    HW137670   2.057   2.977   8.282  1.1621  1.0136  1.5904
 8679SOL    HW237671   2.054   3.128   8.260 -2.3425 -0.2155 -1.2453
 8680SOL     OW37672   3.975   3.189   4.239  0.3208 -0.5193  0.3730
 8680SOL    HW137673   3.901   3.179   4.179  0.3068  0.8123  0.1669
 8680SOL    HW237674   3.999   3.097   4.253  0.0626 -0.5522  0.6040
 8681SOL     OW37675   3.610   2.293   8.019  0.6577  0.5816  0.0675
 8681SOL    HW137676   3.658   2.311   8.100  2.2176 -0.9023 -0.5236
 8681SOL    HW237677   3.615   2.198   8.006  0.9089  0.8382 -1.7006
 8682SOL     OW37678   3.694   0.911   9.258 -0.0982  0.3590 -0.1625
 8682SOL    HW137679   3.711   0.819   9.237  1.4555  1.1658 -2.3215
 8682SOL    HW237680   3.652   0.909   9.345  0.0478  1.6890 -0.0721
 8683SOL     OW37681   4.054   1.447   8.978  0.0240  0.6566  0.1616
 8683SOL    HW137682   4.010   1.411   8.901  0.4730 -1.3050  0.8317
 8683SOL    HW237683   4.128   1.388   8.988  0.7994  1.4550 -0.7934
 8684SOL     OW37684   4.188   3.426  14.973  0.0518 -0.2574 -0.1436
 8684SOL    HW137685   4.226   3.342  14.949  2.1295  0.6151  0.0364
 8684SOL    HW237686   4.156   3.417  15.062 -0.0922 -1.9047 -0.3712
 8685SOL     OW37687   4.003   4.710   1.553  0.4088 -0.1667  0.2021
 8685SOL    HW137688   3.979   0.026   1.474 -0.2145  0.9278  1.0546
 8685SOL    HW237689   4.096   4.726   1.567  0.6002 -1.6713  0.6534
 8686SOL     OW37690   2.014   2.862   6.571 -0.0749 -0.3204 -0.0208
 8686SOL    HW137691   1.944   2.917   6.607 -1.1303 -1.8958  0.3069
 8686SOL    HW237692   2.077   2.869   6.643  1.2668 -0.9069 -1.1387
 8687SOL     OW37693   0.904   2.432   1.382 -0.4611  0.3355 -0.3995
 8687SOL    HW137694   0.980   2.374   1.376  0.7253  1.9499 -1.0607
 8687SOL    HW237695   0.856   2.386   1.313 -0.4412  0.9194 -0.8115
 8688SOL     OW37696   0.381   1.512   2.981 -0.1534 -0.0158  0.0238
 8688SOL    HW137697   0.295   1.515   2.939  0.9027  0.6084 -2.0948
 8688SOL    HW237698   0.344   1.510   3.069 -0.7483  1.3196 -0.1991
 8689SOL     OW37699   4.493   4.694   4.742  0.0777 -0.2192  0.3003
 8689SOL    HW137700   4.416   4.661   4.697  1.0965 -0.4101 -1.3097
 8689SOL    HW237701   4.561   4.712   4.677 -0.2528  0.1632  0.0542
 8690SOL     OW37702   4.395   0.377   3.185  0.0926 -0.6851  0.7795
 8690SOL    HW137703   4.418   0.373   3.278  1.4726 -0.6124  0.4338
 8690SOL    HW237704   4.341   0.298   3.181 -2.1992  0.9066 -0.1082
 8691SOL     OW37705   0.699   0.036  13.988 -0.0335 -0.6588  0.3691
 8691SOL    HW137706   0.666   0.088  13.914 -0.6003 -0.3831  0.8224
 8691SOL    HW237707   0.792   0.044  13.965 -0.6817  0.8007 -1.7720
 8692SOL     OW37708   2.028   2.092  16.667 -0.0834  0.4883  0.2737
 8692SOL    HW137709   2.080   2.057  16.595 -0.4357 -0.2466  0.3859
 8692SOL    HW237710   2.093   2.137  16.722  0.1258 -2.3642  2.3614
 8693SOL     OW37711   0.177   0.328   6.620  0.0138  0.9147  0.9596
 8693SOL    HW137712   0.247   0.299   6.562  0.3551 -1.8021  2.7487
 8693SOL    HW237713   0.193   0.279   6.701 -0.0241  0.2853  0.5809
 8694SOL     OW37714   4.544   4.130   3.686 -0.1061 -0.0328  0.0695
 8694SOL    HW137715   4.472   4.177   3.641 -0.6077 -0.9211 -0.0499
 8694SOL    HW237716   4.485   4.078   3.741  0.9380 -1.3687 -0.0928
 8695SOL     OW37717   2.428   2.948   8.544  0.4062  0.4754  0.1043
 8695SOL    HW137718   2.361   2.886   8.517 -2.1428  3.0691  0.5314
 8695SOL    HW237719   2.498   2.933   8.480  0.2452 -0.1752  0.0812
 8696SOL     OW37720   3.505   4.416  14.004  0.1408 -0.0130 -0.2872
 8696SOL    HW137721   3.560   4.369  13.942  0.2802 -1.4316  0.9183
 8696SOL    HW237722   3.561   4.453  14.072 -0.2576 -1.6564  0.9312
 8697SOL     OW37723   1.948   4.338  14.121  0.2639 -0.3232 -0.0088
 8697SOL    HW137724   1.927   4.424  14.157  1.4121 -0.0491  0.0139
 8697SOL    HW237725   1.872   4.336  14.062  1.1294  0.7513 -1.1402
 8698SOL     OW37726   4.143   1.765   7.774 -0.4871  0.3198  0.6031
 8698SOL    HW137727   4.203   1.771   7.700 -0.8225  1.8490  0.4538
 8698SOL    HW237728   4.160   1.678   7.810  0.3084 -0.6043 -2.0463
 8699SOL     OW37729   3.173   4.295   4.275 -0.2224  0.0015  0.4488
 8699SOL    HW137730   3.218   4.297   4.359 -1.4899  1.6172  1.1031
 8699SOL    HW237731   3.227   4.343   4.212 -1.3876 -0.4680 -0.9140
 8700SOL     OW37732   0.503   1.983   7.295  0.4451  0.3348 -0.1709
 8700SOL    HW137733   0.519   2.030   7.214  0.2540  1.1582  0.2682
 8700SOL    HW237734   0.431   2.034   7.332 -0.7025 -1.4890  0.1505
 8701SOL     OW37735   1.752   3.295   3.846 -0.0888  0.5501  0.0372
 8701SOL    HW137736   1.693   3.223   3.869  2.0828 -0.7989  1.3773
 8701SOL    HW237737   1.713   3.381   3.860  1.6125  1.1181  1.3571
 8702SOL     OW37738   3.134   0.545   9.406 -0.2233 -0.0204 -0.1322
 8702SOL    HW137739   3.048   0.540   9.449  1.1396 -3.6874  2.1273
 8702SOL    HW237740   3.111   0.627   9.362 -3.5427 -0.7507  0.2421
 8703SOL     OW37741   1.360   2.013   5.012 -0.1424  0.1576  0.0009
 8703SOL    HW137742   1.272   1.995   5.044 -0.1194  0.0055 -0.0190
 8703SOL    HW237743   1.345   2.086   4.952 -1.2933  1.1138  1.4768
 8704SOL     OW37744   1.426   1.887   0.004  0.8633 -0.1617  0.1991
 8704SOL    HW137745   1.414   1.847   0.090 -0.1927 -1.5025 -0.5697
 8704SOL    HW237746   1.480   1.962   0.028  0.6400  0.3068 -0.7584
 8705SOL     OW37747   1.432   3.489   5.592  0.0360  0.5732  0.0506
 8705SOL    HW137748   1.433   3.452   5.504 -0.6468 -0.0325  0.2955
 8705SOL    HW237749   1.431   3.582   5.570 -1.7049 -0.0228 -2.3514
 8706SOL     OW37750   3.801   4.255   6.249 -0.3703  0.1179  0.0770
 8706SOL    HW137751   3.764   4.303   6.323  0.3078  1.5593 -0.5009
 8706SOL    HW237752   3.822   4.168   6.283  1.7255 -0.1182 -1.7804
 8707SOL     OW37753   2.031   3.698   8.596 -0.3467 -0.0110 -0.2367
 8707SOL    HW137754   2.055   3.630   8.534  3.1378 -0.7507  1.8974
 8707SOL    HW237755   1.952   3.730   8.553 -0.7052 -1.3318 -0.5284
 8708SOL     OW37756   0.315   3.950   4.223  0.4061  0.4067  0.0675
 8708SOL    HW137757   0.321   3.922   4.315 -1.0474  0.1239  0.0759
 8708SOL    HW237758   0.401   3.983   4.201  0.8356 -0.6005  0.2323
 8709SOL     OW37759   1.076   2.223   5.362  0.1581  1.0496  0.6024
 8709SOL    HW137760   0.992   2.186   5.389 -0.3941  1.3899 -0.6161
 8709SOL    HW237761   1.055   2.259   5.276 -1.6694  0.6693  0.8984
 8710SOL     OW37762   1.347   4.028   0.347 -0.6081  0.4627  0.7826
 8710SOL    HW137763   1.373   3.995   0.433 -1.9564  0.7358  1.3050
 8710SOL    HW237764   1.284   4.096   0.370 -1.1609 -0.1878  1.2112
 8711SOL     OW37765   1.699   1.279   6.403  0.2322 -0.2300  0.0849
 8711SOL    HW137766   1.720   1.191   6.369 -1.8327 -0.7563  0.1781
 8711SOL    HW237767   1.681   1.326   6.321 -0.4453 -1.4182 -0.4638
 8712SOL     OW37768   2.907   0.884  15.809  0.1605 -0.0115 -0.8387
 8712SOL    HW137769   2.916   0.789  15.805 -0.9047 -0.0879 -1.5683
 8712SOL    HW237770   2.989   0.900  15.855 -0.3988 -0.2488  0.2384
 8713SOL     OW37771   3.021   1.728   7.925 -0.7918 -0.1220 -0.0011
 8713SOL    HW137772   3.109   1.762   7.941 -0.7981  0.0684 -0.3590
 8713SOL    HW237773   3.024   1.641   7.966  1.3311  0.0671  0.2334
 8714SOL     OW37774   0.144   3.758   7.312  0.3841  0.5418 -0.0575
 8714SOL    HW137775   0.235   3.785   7.324  0.4137  0.4384 -0.0489
 8714SOL    HW237776   0.142   3.680   7.367  4.5236  1.3595  1.2711
 8715SOL     OW37777   0.140   3.450   6.160 -0.3190  0.3022 -0.5940
 8715SOL    HW137778   0.179   3.432   6.246  2.8377  1.6144 -1.7616
 8715SOL    HW237779   0.195   3.411   6.092 -2.3720 -2.7556 -0.5288
 8716SOL     OW37780   3.075   2.773   1.414 -0.2730 -0.2868 -0.0867
 8716SOL    HW137781   3.114   2.717   1.481  1.6617  0.6933 -0.4072
 8716SOL    HW237782   3.110   2.748   1.329 -0.9590 -2.1149  0.1615
 8717SOL     OW37783   3.249   4.712   5.679 -0.0933  0.0666 -0.5279
 8717SOL    HW137784   3.158   4.693   5.700 -0.4294  1.8092 -0.4106
 8717SOL    HW237785   3.280   4.622   5.666  2.6169  0.8853  0.2227
 8718SOL     OW37786   1.773   1.431   4.345  0.4005 -0.0292  0.3305
 8718SOL    HW137787   1.826   1.458   4.420  0.5741 -0.8939  0.5163
 8718SOL    HW237788   1.738   1.345   4.371 -0.2026  0.5469  1.4448
 8719SOL     OW37789   1.528   3.602   4.597 -0.0570 -0.4298  0.2179
 8719SOL    HW137790   1.482   3.560   4.524  0.6032  0.8862 -0.9508
 8719SOL    HW237791   1.510   3.695   4.583  0.8101 -0.4419 -0.9469
 8720SOL     OW37792   3.140   0.848   2.918  0.8564 -0.3202  0.4075
 8720SOL    HW137793   3.071   0.841   2.984 -0.0294 -0.2243 -0.5093
 8720SOL    HW237794   3.092   0.853   2.835  1.0012 -1.0447  0.2779
 8721SOL     OW37795   2.653   1.956   8.560 -0.1037 -0.1253  0.2791
 8721SOL    HW137796   2.592   1.904   8.508  2.1043 -2.5050  0.0447
 8721SOL    HW237797   2.719   1.888   8.577 -1.3991 -1.8069 -1.5084
 8722SOL     OW37798   2.331   3.496   3.940  0.1587  0.5259  0.2764
 8722SOL    HW137799   2.356   3.423   3.884 -1.9528 -1.0290  1.3777
 8722SOL    HW237800   2.332   3.572   3.881 -4.3278 -0.1603 -0.7230
 8723SOL     OW37801   3.553   4.083  15.350 -0.0068 -0.6132 -0.4066
 8723SOL    HW137802   3.626   4.135  15.383 -1.6510 -0.1872  2.5495
 8723SOL    HW237803   3.586   4.075  15.260  1.2984 -0.4060  0.0565
 8724SOL     OW37804   0.016   4.025   2.485  0.7272  0.0633  0.0661
 8724SOL    HW137805   0.017   4.096   2.550 -2.0893 -0.7392  0.9899
 8724SOL    HW237806   4.680   3.970   2.525  1.1578 -1.7406 -1.7470
 8725SOL     OW37807   1.118   0.534   5.093  0.5788 -0.0374 -1.1605
 8725SOL    HW137808   1.065   0.592   5.149 -0.3727 -0.1113 -1.9778
 8725SOL    HW237809   1.205   0.572   5.103  0.2761  0.7803 -1.5377
 8726SOL     OW37810   2.639   0.200  10.573  0.4228  0.2883 -0.1573
 8726SOL    HW137811   2.667   0.289  10.591  0.2109  0.6900 -1.7822
 8726SOL    HW237812   2.648   0.192  10.478 -1.8076 -1.7380 -0.1986
 8727SOL     OW37813   0.470   0.782   9.469 -0.2051  0.1493  0.3155
 8727SOL    HW137814   0.436   0.870   9.486 -2.9314 -0.8923  0.3000
 8727SOL    HW237815   0.392   0.743   9.428  0.8162 -0.7602 -0.7820
 8728SOL     OW37816   1.022   1.573   9.466 -0.0941 -0.2305  0.7643
 8728SOL    HW137817   1.110   1.590   9.434 -0.1009 -1.3947  0.1441
 8728SOL    HW237818   1.034   1.512   9.538  0.3133 -1.0287  0.0264
 8729SOL     OW37819   4.090   1.322   6.601  0.2014 -0.2407 -0.5113
 8729SOL    HW137820   4.159   1.386   6.619 -0.2138  0.7217 -2.3407
 8729SOL    HW237821   4.126   1.289   6.518 -1.3517  0.5048 -1.4881
 8730SOL     OW37822   2.066   3.566   3.373 -0.0959 -0.1569  0.1589
 8730SOL    HW137823   2.016   3.485   3.365 -0.0068 -0.2398  0.4288
 8730SOL    HW237824   2.074   3.560   3.468 -3.4798 -1.1343  0.3956
 8731SOL     OW37825   2.195   2.904   6.796 -0.2101 -0.0134  0.5419
 8731SOL    HW137826   2.288   2.896   6.779 -0.2743  2.5622 -0.9902
 8731SOL    HW237827   2.182   2.842   6.867  3.0055  2.1518  3.0290
 8732SOL     OW37828   3.594   4.317  16.253  0.2484 -0.0600  0.5168
 8732SOL    HW137829   3.605   4.225  16.277  0.9733  0.1233  0.8763
 8732SOL    HW237830   3.622   4.323  16.161 -0.1578  0.7471  0.4432
 8733SOL     OW37831   4.699   3.460  10.206  0.8141  0.1281 -0.1566
 8733SOL    HW137832   4.686   3.370  10.174 -0.3136 -0.4189  1.8495
 8733SOL    HW237833   4.718   3.503  10.123 -0.4182 -0.5824 -0.8065
 8734SOL     OW37834   2.278   1.073   2.639 -0.9378  0.0498 -0.0708
 8734SOL    HW137835   2.330   1.151   2.661 -0.3510 -0.8254  1.6609
 8734SOL    HW237836   2.197   1.107   2.678 -0.3256 -0.0363  1.2753
 8735SOL     OW37837   1.709   4.567   5.180 -0.0842 -0.7614  0.0482
 8735SOL    HW137838   1.643   4.537   5.243  0.2053  0.3777  0.9052
 8735SOL    HW237839   1.739   4.649   5.219  0.9703 -0.1530 -2.0471
 8736SOL     OW37840   2.140   4.299   2.301 -0.2411  0.3999  0.2948
 8736SOL    HW137841   2.072   4.284   2.236 -0.4977  1.1299  0.3947
 8736SOL    HW237842   2.088   4.322   2.378 -1.2034  0.3212 -0.3312
 8737SOL     OW37843   2.958   4.274   7.124  0.2922 -0.3036  0.0749
 8737SOL    HW137844   2.894   4.203   7.125 -0.8694  0.7685  2.0578
 8737SOL    HW237845   2.914   4.324   7.193 -0.6185 -1.2299  0.1496
 8738SOL     OW37846   3.616   4.648   4.059 -0.1524 -0.3057 -0.1865
 8738SOL    HW137847   3.544   4.699   4.096  0.8540 -0.5174  2.0953
 8738SOL    HW237848   3.602   4.559   4.091  1.9343 -0.4209  0.3969
 8739SOL     OW37849   0.817   3.703  17.690 -0.2914  0.1655  0.4245
 8739SOL    HW137850   0.853   3.784  17.727  2.4776 -0.5309 -0.7157
 8739SOL    HW237851   0.841   3.697  17.598  0.7882  1.8833  0.6087
 8740SOL     OW37852   3.182   2.499   6.718 -0.0827 -0.1022 -0.3462
 8740SOL    HW137853   3.197   2.475   6.627 -0.7171 -0.3679 -0.3832
 8740SOL    HW237854   3.094   2.538   6.723  0.9971  2.2944 -0.3420
 8741SOL     OW37855   4.397   3.336   1.839  0.1077  0.0576  0.3220
 8741SOL    HW137856   4.396   3.401   1.909 -0.3181  0.4529 -0.0495
 8741SOL    HW237857   4.468   3.372   1.787 -0.4685 -1.6372 -1.6483
 8742SOL     OW37858   3.563   1.119   9.514  0.1283  0.0172 -0.0340
 8742SOL    HW137859   3.492   1.174   9.546  0.7664  1.1199 -0.5176
 8742SOL    HW237860   3.625   1.123   9.587  0.9530  0.3362 -0.7542
 8743SOL     OW37861   0.531   1.398   8.106 -0.3519 -0.0410  0.0195
 8743SOL    HW137862   0.439   1.382   8.127 -0.4321 -0.6329 -0.7764
 8743SOL    HW237863   0.571   1.311   8.116  2.9475  1.1343 -3.2593
 8744SOL     OW37864   4.374   0.820   3.472 -0.4238 -1.0339  0.2412
 8744SOL    HW137865   4.400   0.728   3.483  0.4001 -0.8979 -0.6502
 8744SOL    HW237866   4.447   0.854   3.422 -1.8942  1.0983 -0.4386
 8745SOL     OW37867   1.228   3.170   1.313  0.0317  0.0066  0.2744
 8745SOL    HW137868   1.203   3.247   1.261 -1.1620  1.7314  3.3754
 8745SOL    HW237869   1.143   3.127   1.326 -0.1383 -0.1199 -1.3304
 8746SOL     OW37870   4.501   1.143   3.515  0.1635  0.2185  0.1351
 8746SOL    HW137871   4.480   1.187   3.433 -0.2467 -2.1906 -1.0502
 8746SOL    HW237872   4.544   1.061   3.489 -0.8646 -0.6020  1.0205
 8747SOL     OW37873   3.727   3.512   3.301  0.3063 -0.1247  0.0781
 8747SOL    HW137874   3.789   3.497   3.373 -1.3134  1.8930  1.8907
 8747SOL    HW237875   3.645   3.491   3.346  1.2528 -2.9493  0.4760
 8748SOL     OW37876   0.268   3.870   8.204 -0.4927 -0.2971 -0.4529
 8748SOL    HW137877   0.184   3.834   8.175 -1.2174  0.3700  0.8107
 8748SOL    HW237878   0.297   3.933   8.138  0.4669  1.8751  2.0140
 8749SOL     OW37879   3.051   2.874   3.159  0.3138 -0.8322  0.2103
 8749SOL    HW137880   3.122   2.855   3.220 -0.3220  0.2983  1.3041
 8749SOL    HW237881   3.094   2.937   3.101 -1.5171  1.3549  1.2595
 8750SOL     OW37882   2.249   4.661   8.788  0.5781  0.6107  0.0954
 8750SOL    HW137883   2.315   4.607   8.831  0.4456  0.5012  0.1611
 8750SOL    HW237884   2.259   4.621   8.701 -3.3408 -0.0260 -0.0613
 8751SOL     OW37885   2.931   0.786   3.068  0.4862  0.1880  0.1598
 8751SOL    HW137886   2.902   0.744   3.149 -0.4045 -0.8572 -0.7132
 8751SOL    HW237887   2.918   0.711   3.011 -0.9458  0.6774 -0.1576
 8752SOL     OW37888   3.737   4.619  11.619 -0.0491  0.3198 -0.2704
 8752SOL    HW137889   3.651   4.658  11.638  0.9979  1.4226  2.2164
 8752SOL    HW237890   3.714   4.569  11.540 -1.7346  0.1868  0.2910
 8753SOL     OW37891   2.932   3.208   3.120 -0.2935  0.1570  0.0844
 8753SOL    HW137892   2.939   3.210   3.024 -1.9195 -3.9861 -0.1487
 8753SOL    HW237893   2.842   3.176   3.130  0.1867 -1.2716 -0.1835
 8754SOL     OW37894   4.208   1.749   0.639  0.3079 -0.7386 -0.2395
 8754SOL    HW137895   4.268   1.762   0.713  0.9380  1.7296 -1.1907
 8754SOL    HW237896   4.193   1.654   0.631  3.1516 -1.1036 -1.1993
 8755SOL     OW37897   4.069   1.418   1.441  0.2997  0.3545  0.4793
 8755SOL    HW137898   4.011   1.375   1.378  1.0453 -0.3683  0.2901
 8755SOL    HW237899   4.136   1.462   1.388  0.0758  0.9879  0.7271
 8756SOL     OW37900   0.874   4.722   5.681 -0.4706 -0.1670 -0.0965
 8756SOL    HW137901   0.880   0.019   5.590  0.1183  0.5937  0.1867
 8756SOL    HW237902   0.783   4.694   5.677 -0.3331 -1.0005  3.1793
 8757SOL     OW37903   1.931   1.103  12.067 -0.2764  0.1909  0.6281
 8757SOL    HW137904   1.837   1.096  12.048  0.1240 -0.4414 -1.1355
 8757SOL    HW237905   1.964   1.130  11.982  0.4956 -0.4856  0.7090
 8758SOL     OW37906   3.591   4.570   9.916  0.1738  0.1315 -0.2129
 8758SOL    HW137907   3.668   4.591   9.969  2.2249  1.8914 -3.8589
 8758SOL    HW237908   3.576   4.479   9.940  1.5384 -0.4178 -1.4719
 8759SOL     OW37909   1.267   0.463   1.674  0.0797  0.3313  0.2041
 8759SOL    HW137910   1.353   0.480   1.712 -0.1500 -0.9705  1.3220
 8759SOL    HW237911   1.220   0.536   1.713  0.2874 -0.5306  2.0723
 8760SOL     OW37912   0.999   0.001   9.569 -0.8814  0.2302 -0.0089
 8760SOL    HW137913   1.005   0.075   9.630 -2.0108 -1.1277  1.7775
 8760SOL    HW237914   0.922   4.685   9.600 -0.9789  1.3641  1.5347
 8761SOL     OW37915   3.057   3.374   8.545  0.2427  0.4109 -0.1389
 8761SOL    HW137916   3.064   3.372   8.449  0.1162 -1.7311 -0.1038
 8761SOL    HW237917   3.055   3.279   8.556 -1.0233  0.4230 -0.2860
 8762SOL     OW37918   3.106   0.381   2.916  0.2320 -0.1311  0.3027
 8762SOL    HW137919   3.095   0.290   2.888 -0.5324 -0.3941  1.4563
 8762SOL    HW237920   3.194   0.371   2.952  0.3280  2.7382  0.8243
 8763SOL     OW37921   1.066   2.862   3.187  0.3874  0.4542 -1.2568
 8763SOL    HW137922   1.130   2.803   3.227 -0.1280 -1.0915 -2.7329
 8763SOL    HW237923   1.069   2.927   3.257  0.5551  1.6220 -2.3468
 8764SOL     OW37924   4.274   0.114   3.957 -0.2005  0.1438  0.3107
 8764SOL    HW137925   4.192   0.163   3.955  0.7957  1.9200  2.4314
 8764SOL    HW237926   4.302   0.140   4.045  4.1095 -0.9671 -0.7109
 8765SOL     OW37927   3.539   3.138   2.558  0.2288  0.1423 -0.3346
 8765SOL    HW137928   3.558   3.126   2.465  1.0939 -3.1069  0.2573
 8765SOL    HW237929   3.472   3.207   2.554  0.4451  0.3665 -0.1208
 8766SOL     OW37930   3.596   2.006   9.224  0.4792  0.5915  0.2595
 8766SOL    HW137931   3.628   2.070   9.160 -0.4425 -0.9652 -1.7282
 8766SOL    HW237932   3.503   2.025   9.215  0.1386 -0.9541  0.6127
 8767SOL     OW37933   0.579   2.474   1.545  0.0978  0.3538  0.3947
 8767SOL    HW137934   0.658   2.433   1.582 -0.0301 -0.4781 -0.2645
 8767SOL    HW237935   0.594   2.478   1.451 -0.4048 -0.8796  0.2646
 8768SOL     OW37936   1.294   3.203   8.642  0.5475  0.1498  0.3546
 8768SOL    HW137937   1.237   3.130   8.617  1.8443 -0.2819 -1.3808
 8768SOL    HW237938   1.334   3.178   8.724 -0.1799 -0.9618  0.3722
 8769SOL     OW37939   0.329   3.622  15.426 -0.0923  0.3625 -0.5857
 8769SOL    HW137940   0.309   3.697  15.370  0.2078  1.2008  0.4308
 8769SOL    HW237941   0.327   3.659  15.515  1.4254  1.9481 -1.2151
 8770SOL     OW37942   4.209   1.941   8.020  0.3002  0.4563 -0.6674
 8770SOL    HW137943   4.192   2.003   7.949  0.0795 -1.5792 -2.3739
 8770SOL    HW237944   4.179   1.866   7.969  0.2207 -1.4338  2.1790
 8771SOL     OW37945   4.600   0.797  10.095  0.7291  0.0823 -0.3316
 8771SOL    HW137946   4.595   0.702  10.109  0.0584  0.3005  0.8726
 8771SOL    HW237947   4.530   0.826  10.153  1.0896 -0.6920  0.4875
 8772SOL     OW37948   1.490   1.243   5.449  0.1974 -0.0768  0.0405
 8772SOL    HW137949   1.485   1.205   5.361 -0.6035  2.2863 -0.9461
 8772SOL    HW237950   1.536   1.180   5.504  0.0205  1.1756  1.6133
 8773SOL     OW37951   3.348   2.333   6.876 -0.3019 -0.0852  0.6056
 8773SOL    HW137952   3.279   2.378   6.828 -0.8560 -1.4556  0.1089
 8773SOL    HW237953   3.356   2.371   6.964 -0.5830  0.3772  0.4292
 8774SOL     OW37954   0.222   2.132   8.973 -0.0779 -0.4262  0.2113
 8774SOL    HW137955   0.179   2.204   9.020  2.3850  0.8590  0.4981
 8774SOL    HW237956   0.224   2.065   9.042 -0.2465  2.0092  2.5968
 8775SOL     OW37957   0.320   3.513  13.713  0.3300  0.0987 -0.0975
 8775SOL    HW137958   0.279   3.444  13.662  1.6342 -0.8462  0.1399
 8775SOL    HW237959   0.308   3.470  13.798  0.4979 -1.0350 -0.6485
 8776SOL     OW37960   2.554   4.180   5.244  0.0533 -0.3015  0.2072
 8776SOL    HW137961   2.491   4.230   5.297 -0.3303  1.1346 -1.6264
 8776SOL    HW237962   2.634   4.220   5.277 -0.9596  2.3233 -0.4769
 8777SOL     OW37963   0.024   2.452  10.508  0.1881  0.3282 -0.5084
 8777SOL    HW137964   0.118   2.450  10.522  0.0515 -1.4148  0.2122
 8777SOL    HW237965   4.730   2.364  10.536 -0.7644  1.1742  1.2476
 8778SOL     OW37966   4.511   2.483   7.285  0.6148  0.2050 -0.0873
 8778SOL    HW137967   4.458   2.408   7.311  1.4666  0.4844  2.4151
 8778SOL    HW237968   4.450   2.534   7.232  0.2933  0.5882  0.6544
 8779SOL     OW37969   4.355   1.655   6.364 -0.0047 -0.2589 -0.0320
 8779SOL    HW137970   4.282   1.633   6.306 -3.0440  1.6472  3.0209
 8779SOL    HW237971   4.434   1.637   6.314  0.9619  0.5280  1.2159
 8780SOL     OW37972   2.545   1.883   6.628 -0.1629  0.4787 -0.0133
 8780SOL    HW137973   2.486   1.952   6.598 -0.6182 -0.0278 -0.2809
 8780SOL    HW237974   2.521   1.867   6.720 -2.0718  1.0242 -0.4183
 8781SOL     OW37975   4.647   2.453   4.987 -0.1246 -0.0744  0.0595
 8781SOL    HW137976   4.672   2.382   5.046 -3.3726 -0.5657  0.8490
 8781SOL    HW237977   0.004   2.482   4.968 -0.7070  1.4338 -0.3895
 8782SOL     OW37978   3.710   3.706  16.170 -0.7579 -0.4794 -0.3619
 8782SOL    HW137979   3.700   3.624  16.219  0.3093 -0.2383  0.2732
 8782SOL    HW237980   3.716   3.663  16.085 -1.4850 -0.7987 -0.2446
 8783SOL     OW37981   1.143   1.690   4.662 -0.1036  0.2565 -0.0022
 8783SOL    HW137982   1.234   1.678   4.689  0.2796  1.6988 -0.6320
 8783SOL    HW237983   1.126   1.611   4.610 -0.1275  2.1544 -2.9040
 8784SOL     OW37984   2.042   2.158   7.486 -0.1327 -0.3195  0.2881
 8784SOL    HW137985   1.993   2.240   7.492  2.4636  0.9623  3.5844
 8784SOL    HW237986   1.972   2.097   7.463 -0.0944 -0.6636  1.0900
 8785SOL     OW37987   4.593   1.330   6.593 -0.2881  0.5658  0.0936
 8785SOL    HW137988   4.665   1.344   6.532 -0.6251 -0.4047 -0.5241
 8785SOL    HW237989   4.525   1.382   6.550 -1.9614  0.1820  2.2727
 8786SOL     OW37990   4.124   0.289  14.326 -0.1077 -0.9096 -0.6705
 8786SOL    HW137991   4.139   0.361  14.266 -1.6980 -0.8859 -1.0474
 8786SOL    HW237992   4.211   0.255  14.348  0.8868  1.3589 -1.1032
 8787SOL     OW37993   2.054   0.279   4.697  0.4524 -0.6728 -0.6923
 8787SOL    HW137994   2.002   0.352   4.731  0.6965 -0.4399 -0.8160
 8787SOL    HW237995   2.065   0.312   4.608 -4.0382  1.9452 -0.2923
 8788SOL     OW37996   4.590   1.613  16.690  0.0783  0.1235 -0.1676
 8788SOL    HW137997   4.525   1.679  16.668 -0.1120  0.6513  1.9894
 8788SOL    HW237998   4.663   1.659  16.649 -0.9869 -0.1311 -2.3097
 8789SOL     OW37999   2.981   2.075   4.625  0.2054 -0.3102 -0.3582
 8789SOL    HW138000   3.013   1.991   4.592 -1.8948 -2.0981  2.0992
 8789SOL    HW238001   3.037   2.084   4.701 -0.9347  2.0921  0.1977
 8790SOL     OW38002   4.383   3.168   6.557 -0.3304 -0.3867 -0.5542
 8790SOL    HW138003   4.459   3.226   6.565 -0.0721 -1.0774  1.9634
 8790SOL    HW238004   4.331   3.210   6.489 -0.9025 -0.2984 -0.0577
 8791SOL     OW38005   4.528   0.303   3.821 -0.3445  0.0637  0.0417
 8791SOL    HW138006   4.488   0.334   3.902 -2.7580  0.6991 -1.3625
 8791SOL    HW238007   4.575   0.382   3.793 -0.7275  1.3579  3.0472
 8792SOL     OW38008   2.579   0.621  15.863 -0.1006  0.2649 -0.4839
 8792SOL    HW138009   2.595   0.637  15.770 -0.5223 -1.4626 -0.8638
 8792SOL    HW238010   2.539   0.534  15.857 -0.7693  0.5940 -0.6584
 8793SOL     OW38011   2.584   3.088  14.488  0.4796 -0.2360 -0.0093
 8793SOL    HW138012   2.502   3.099  14.439  0.3262 -2.6094 -0.2563
 8793SOL    HW238013   2.564   3.064  14.578 -2.4566 -2.5825 -1.2772
 8794SOL     OW38014   4.350   3.992  10.694  0.0043  0.7618 -0.4894
 8794SOL    HW138015   4.390   3.906  10.709 -0.7044  0.5069 -0.0765
 8794SOL    HW238016   4.312   3.974  10.608 -0.4194  1.5734 -0.4676
 8795SOL     OW38017   3.906   2.399   5.707  0.5900  0.5146 -0.2464
 8795SOL    HW138018   3.851   2.475   5.687 -0.5754 -0.3305 -0.2949
 8795SOL    HW238019   3.961   2.436   5.775  0.0429 -0.9629  0.9842
 8796SOL     OW38020   1.452   1.016   8.045  0.0400 -0.7031  0.3366
 8796SOL    HW138021   1.363   0.989   8.065 -0.5181  1.5551  0.9056
 8796SOL    HW238022   1.476   1.064   8.124 -1.0052  0.0091  0.2181
 8797SOL     OW38023   2.929   4.328   4.444 -0.3175 -0.5552  0.1325
 8797SOL    HW138024   2.850   4.371   4.410  0.8358  1.8165  0.4630
 8797SOL    HW238025   2.996   4.330   4.376  0.2992 -2.3738  0.6733
 8798SOL     OW38026   1.435   2.010   2.798 -0.0716  0.6556 -0.6551
 8798SOL    HW138027   1.411   2.015   2.891  0.8802  2.8589 -0.5370
 8798SOL    HW238028   1.450   2.102   2.778  0.2044  1.0923  1.5155
 8799SOL     OW38029   0.358   4.341   4.744 -0.0718  0.1704 -0.1656
 8799SOL    HW138030   0.336   4.250   4.725 -0.2140 -0.0977  1.3291
 8799SOL    HW238031   0.296   4.366   4.813  1.0974  1.3474  0.4538
 8800SOL     OW38032   0.227   4.664   9.860  0.4185  0.6414  0.2045
 8800SOL    HW138033   0.251   4.577   9.830  0.0644  0.9899 -1.0975
 8800SOL    HW238034   0.286   4.723   9.814 -1.2435  1.8446 -0.3802
 8801SOL     OW38035   4.027   3.871   0.798 -0.1117  0.0620  0.0108
 8801SOL    HW138036   3.936   3.842   0.796  0.2558 -1.2129  1.7050
 8801SOL    HW238037   4.031   3.875   0.893 -1.2358  0.7548  0.0179
 8802SOL     OW38038   0.020   2.707  14.528 -0.3584 -0.3904 -0.2244
 8802SOL    HW138039   0.035   2.797  14.557  0.1721 -0.5457 -0.0201
 8802SOL    HW238040   0.072   2.693  14.449  0.3140  0.1708  0.1213
 8803SOL     OW38041   3.147   3.606   9.232 -0.2504  0.4736 -0.3578
 8803SOL    HW138042   3.095   3.596   9.153 -0.1664 -1.1831 -0.1895
 8803SOL    HW238043   3.087   3.630   9.303 -1.5876 -1.0894 -0.9770
 8804SOL     OW38044   1.047   0.368  16.127  0.2710 -0.3975 -0.2097
 8804SOL    HW138045   1.013   0.281  16.152 -0.9246 -0.1726 -1.0288
 8804SOL    HW238046   0.979   0.427  16.160 -1.1285 -1.2223 -1.5876
 8805SOL     OW38047   4.141   1.891   3.358  0.4622  0.0221  0.0398
 8805SOL    HW138048   4.168   1.899   3.267  1.9133  0.8660  0.5438
 8805SOL    HW238049   4.182   1.809   3.385  1.0159 -0.2051 -1.5190
 8806SOL     OW38050   1.871   4.016   4.153 -0.3817 -0.2806  0.3131
 8806SOL    HW138051   1.900   3.940   4.102  0.1930  1.3673 -1.7723
 8806SOL    HW238052   1.906   4.092   4.107 -1.6342 -0.8395 -1.5664
 8807SOL     OW38053   2.177   1.278   0.613 -0.0269  0.3406  0.2858
 8807SOL    HW138054   2.188   1.360   0.564  0.2002  1.8276  2.8142
 8807SOL    HW238055   2.163   1.219   0.539 -1.1016  0.3415  0.4909
 8808SOL     OW38056   3.977   1.017  13.055  0.0350 -0.7798  1.1156
 8808SOL    HW138057   3.975   0.995  12.962  0.8468 -0.3172  0.9941
 8808SOL    HW238058   4.060   1.063  13.068 -0.4128 -0.1851  1.8757
 8809SOL     OW38059   2.787   4.149   0.659 -0.8729  0.0554  0.2720
 8809SOL    HW138060   2.810   4.230   0.615 -1.4471 -0.0752 -0.2636
 8809SOL    HW238061   2.732   4.121   0.586 -1.4716 -0.9701  1.1062
 8810SOL     OW38062   3.928   2.136   5.594 -0.0443  0.2881  0.0942
 8810SOL    HW138063   3.893   2.213   5.638  1.4060  0.3518  1.1222
 8810SOL    HW238064   3.936   2.075   5.668 -0.8400  0.9224  0.7061
 8811SOL     OW38065   0.466   3.629  16.385 -0.7615 -0.0987  0.3396
 8811SOL    HW138066   0.514   3.609  16.466 -0.7800 -1.1033  0.1060
 8811SOL    HW238067   0.386   3.577  16.394  0.7291 -2.4453  0.0626
 8812SOL     OW38068   0.002   3.894   1.018 -0.0862  0.2289 -0.0713
 8812SOL    HW138069   4.659   3.945   1.049 -0.6716  1.2257 -3.1101
 8812SOL    HW238070   0.026   3.957   0.949  0.2968 -0.2592 -0.3823
 8813SOL     OW38071   3.582   0.468   8.302 -0.6207 -0.5734 -0.8367
 8813SOL    HW138072   3.538   0.402   8.355  3.0873 -2.4123 -0.0469
 8813SOL    HW238073   3.623   0.423   8.228  0.4447 -0.8503 -0.0738
 8814SOL     OW38074   4.671   3.118   5.485  0.5261  0.0369  0.0370
 8814SOL    HW138075   4.641   3.183   5.549  3.4567  1.7093 -0.2793
 8814SOL    HW238076   4.724   3.177   5.432 -0.1595 -0.9279 -1.7269
 8815SOL     OW38077   2.402   1.029  14.907 -0.1059  0.1297  0.2096
 8815SOL    HW138078   2.353   1.086  14.849 -2.5762 -1.8237  0.3497
 8815SOL    HW238079   2.334   0.962  14.919  0.9616 -0.3659  3.5202
 8816SOL     OW38080   3.148   1.847  17.709  0.0662 -0.2021  0.3586
 8816SOL    HW138081   3.067   1.858   0.031 -1.7291 -1.3413 -2.3156
 8816SOL    HW238082   3.169   1.933  17.672  0.9399  0.3847  2.1911
 8817SOL     OW38083   1.197   0.755   4.830  0.0994 -0.3051  0.0623
 8817SOL    HW138084   1.125   0.819   4.828 -0.1717 -0.5387  1.9744
 8817SOL    HW238085   1.215   0.759   4.924  0.9170 -0.1675 -0.0997
 8818SOL     OW38086   1.886   1.608   4.614  0.0083 -0.2587  0.4479
 8818SOL    HW138087   1.902   1.702   4.613  2.5215 -0.6933  0.0769
 8818SOL    HW238088   1.792   1.620   4.626 -0.7390 -5.2172 -0.2032
 8819SOL     OW38089   3.160   4.109   3.063 -0.1013  0.1030 -0.1135
 8819SOL    HW138090   3.211   4.046   3.113  0.9810  0.2850 -0.9919
 8819SOL    HW238091   3.076   4.099   3.108 -1.3972  0.8649 -2.3928
 8820SOL     OW38092   0.559   1.751  13.870 -0.1016  0.0576 -1.0136
 8820SOL    HW138093   0.622   1.790  13.808 -0.2797  1.3241 -0.3942
 8820SOL    HW238094   0.486   1.742  13.808 -0.2775 -2.7724 -0.3869
 8821SOL     OW38095   3.223   0.971   7.318 -0.0426 -0.0473 -0.4312
 8821SOL    HW138096   3.308   1.013   7.333 -0.7696  1.0792  0.4863
 8821SOL    HW238097   3.193   0.949   7.406  3.9281 -2.0120  0.4221
 8822SOL     OW38098   0.369   2.231   6.287 -0.0906 -0.2572 -0.1157
 8822SOL    HW138099   0.289   2.255   6.240  1.5477  2.2394 -1.6307
 8822SOL    HW238100   0.350   2.259   6.377 -0.3209  2.3081 -0.9523
 8823SOL     OW38101   1.898   4.243   8.494  0.6801 -0.0233  0.2939
 8823SOL    HW138102   1.883   4.252   8.400  1.5369  3.2626  0.4681
 8823SOL    HW238103   1.836   4.309   8.526 -1.3944 -0.1236 -3.4956
 8824SOL     OW38104   1.088   3.086   9.012  0.6063 -0.2445  0.4679
 8824SOL    HW138105   1.053   3.163   9.057  0.5097 -0.8847  1.4832
 8824SOL    HW238106   1.181   3.081   9.035  0.5753 -0.2370  0.5967
 8825SOL     OW38107   2.972   1.809   7.413 -0.1069 -0.5695 -0.4684
 8825SOL    HW138108   2.949   1.902   7.417 -2.4053 -1.1499  0.0199
 8825SOL    HW238109   2.969   1.794   7.507 -0.8296  0.5446 -0.3124
 8826SOL     OW38110   2.371   2.614   4.808 -0.6425 -0.0377 -0.3919
 8826SOL    HW138111   2.308   2.635   4.740  0.2525 -0.4213 -1.3361
 8826SOL    HW238112   2.381   2.698   4.852  2.5781 -0.5315 -0.1289
 8827SOL     OW38113   4.282   1.551  10.676  0.1377  0.1230 -0.0380
 8827SOL    HW138114   4.254   1.601  10.600  3.1085  2.8399  0.6589
 8827SOL    HW238115   4.335   1.486  10.629  1.1508 -0.3653  1.7972
 8828SOL     OW38116   0.993   2.217   5.921 -0.0272 -0.2433  0.2834
 8828SOL    HW138117   0.982   2.312   5.925 -2.2343 -0.5104  0.5241
 8828SOL    HW238118   0.928   2.192   5.855 -1.0706 -1.2925  1.7174
 8829SOL     OW38119   0.420   4.098   2.039 -0.0597 -0.1844 -0.1673
 8829SOL    HW138120   0.480   4.150   2.092  0.2939 -0.4701 -0.2843
 8829SOL    HW238121   0.434   4.135   1.952  0.4487 -2.0501 -0.8746
 8830SOL     OW38122   4.492   0.504   0.997  0.6025 -0.1590 -0.3782
 8830SOL    HW138123   4.526   0.437   1.055  0.5298 -0.7023 -0.9657
 8830SOL    HW238124   4.401   0.477   0.988  0.5006  0.1548 -0.2731
 8831SOL     OW38125   0.540   1.453   0.747  0.1253  0.9484 -0.0918
 8831SOL    HW138126   0.507   1.519   0.808  0.3324 -0.7916  1.9073
 8831SOL    HW238127   0.529   1.376   0.804  2.1667  0.2953 -0.6032
 8832SOL     OW38128   0.930   2.146   3.868  0.0766  0.2977  0.5870
 8832SOL    HW138129   0.913   2.239   3.884  2.0556  1.0098 -1.4377
 8832SOL    HW238130   0.845   2.103   3.878  0.4612 -0.2824  1.4075
 8833SOL     OW38131   3.275   1.730   7.027 -0.4327 -0.0498 -0.2495
 8833SOL    HW138132   3.215   1.695   7.093 -1.4042  2.1560  0.0446
 8833SOL    HW238133   3.229   1.690   6.952 -0.7059  0.9481 -0.6140
 8834SOL     OW38134   3.259   3.430   4.494 -0.3301 -0.3450 -0.1029
 8834SOL    HW138135   3.239   3.338   4.510 -0.1519 -0.5324 -0.9843
 8834SOL    HW238136   3.278   3.449   4.586  2.4247  2.3488 -1.2434
 8835SOL     OW38137   1.653   3.193   6.915 -0.2285 -0.0029  0.1027
 8835SOL    HW138138   1.637   3.122   6.976  1.2617  0.6401  1.2385
 8835SOL    HW238139   1.569   3.239   6.910  0.9843  2.0950 -1.4015
 8836SOL     OW38140   3.694   1.477   9.542  0.0380 -0.1254  0.0748
 8836SOL    HW138141   3.653   1.418   9.606  0.5038 -0.6497 -0.1168
 8836SOL    HW238142   3.752   1.517   9.607  0.1377 -1.2918  0.7101
 8837SOL     OW38143   1.132   4.040   5.581  0.1307 -0.2101 -0.3336
 8837SOL    HW138144   1.190   4.108   5.614  0.0758 -0.6345  0.6422
 8837SOL    HW238145   1.051   4.053   5.631  0.6665 -1.9813  1.0338
 8838SOL     OW38146   0.842   4.663   2.046 -0.1758 -0.4561  0.2853
 8838SOL    HW138147   0.925   4.693   2.082 -1.1490  1.1271  1.1970
 8838SOL    HW238148   0.786   4.702   2.113  0.8657  1.2849  0.1369
 8839SOL     OW38149   2.637   4.667   2.892  0.2699 -0.6208  0.2249
 8839SOL    HW138150   2.602   0.007   2.840 -0.5703 -0.5988  0.8155
 8839SOL    HW238151   2.648   4.716   2.974 -2.4192  1.8921 -0.9188
 8840SOL     OW38152   3.730   0.104  13.760  0.0674  0.1376 -0.0450
 8840SOL    HW138153   3.682   0.021  13.767  0.3589 -0.0408 -0.1446
 8840SOL    HW238154   3.682   0.162  13.701  0.0096 -1.1212 -1.2305
 8841SOL     OW38155   0.533   1.052   8.407  0.5574  0.0389 -0.0926
 8841SOL    HW138156   0.536   0.964   8.370 -1.2300 -0.2090  0.3328
 8841SOL    HW238157   0.452   1.079   8.362  1.4587  1.3276 -0.9399
 8842SOL     OW38158   2.248   1.996   5.972 -0.6951 -0.1158  0.2008
 8842SOL    HW138159   2.206   1.912   5.952  4.0469 -2.7462  1.1963
 8842SOL    HW238160   2.265   2.029   5.883 -0.3111 -0.2158  0.2357
 8843SOL     OW38161   0.737   3.042   2.573  0.7166 -0.1839  0.4100
 8843SOL    HW138162   0.811   3.102   2.582 -0.5707  1.8431 -2.5240
 8843SOL    HW238163   0.682   3.064   2.648  0.1503 -2.5265  0.6613
 8844SOL     OW38164   3.270   4.059   2.527 -0.0888  0.5149 -0.2263
 8844SOL    HW138165   3.192   4.081   2.476  1.4243 -0.7344 -3.0644
 8844SOL    HW238166   3.225   4.018   2.602  1.2873 -1.3620 -0.4187
 8845SOL     OW38167   0.636   3.649   0.316 -0.8851 -0.8294 -0.4657
 8845SOL    HW138168   0.660   3.674   0.227  0.6911  1.5167  0.6230
 8845SOL    HW238169   0.627   3.729   0.367 -1.8257 -0.5007 -1.1577
 8846SOL     OW38170   4.462   3.221   1.352  0.4815  0.5747 -0.6644
 8846SOL    HW138171   4.501   3.210   1.266 -1.1673  0.2435 -1.3720
 8846SOL    HW238172   4.490   3.147   1.406 -1.3418 -0.2539 -0.8698
 8847SOL     OW38173   1.552   1.760   9.876  0.0398 -0.7787 -0.6694
 8847SOL    HW138174   1.549   1.763   9.780  1.6536 -1.4151 -0.7391
 8847SOL    HW238175   1.536   1.670   9.904  1.7752 -1.2437 -1.1412
 8848SOL     OW38176   2.523   0.495  11.633  0.6660 -0.1457  0.1330
 8848SOL    HW138177   2.446   0.546  11.657 -0.0395 -0.2116 -1.9817
 8848SOL    HW238178   2.589   0.548  11.677  1.8801 -2.7083  1.4194
 8849SOL     OW38179   4.130   0.387  12.987 -0.2039 -0.5421 -0.4330
 8849SOL    HW138180   4.096   0.444  12.917 -0.4440  0.1787  0.2678
 8849SOL    HW238181   4.083   0.424  13.062 -0.9697 -0.4658 -0.9397
 8850SOL     OW38182   4.123   3.731   3.847 -0.0629  0.0204 -0.5523
 8850SOL    HW138183   4.054   3.745   3.911  0.1619  1.4795 -0.6110
 8850SOL    HW238184   4.154   3.649   3.884  2.0066  0.7004 -0.7776
 8851SOL     OW38185   1.151   1.288   6.632  0.5479 -0.1665 -0.1290
 8851SOL    HW138186   1.102   1.320   6.557  2.9904  0.3739 -1.5150
 8851SOL    HW238187   1.203   1.367   6.648  1.3265 -0.6656 -0.1683
 8852SOL     OW38188   0.888   2.944   3.486  0.3128 -0.0560  0.0913
 8852SOL    HW138189   0.861   2.969   3.397 -4.3414 -1.8729  1.0004
 8852SOL    HW238190   0.977   2.976   3.470 -0.8828  2.7459 -0.9817
 8853SOL     OW38191   3.652   1.713  15.319 -0.4147  0.1952  0.1457
 8853SOL    HW138192   3.698   1.630  15.326  0.0418  0.4126 -0.2145
 8853SOL    HW238193   3.726   1.761  15.355  2.6452 -1.3861 -4.0486
 8854SOL     OW38194   3.020   0.337  11.768  0.0777  0.6247 -0.5447
 8854SOL    HW138195   3.054   0.359  11.682 -0.0720 -0.1871 -0.8133
 8854SOL    HW238196   3.050   0.246  11.770 -1.1166  0.1941 -2.4681
 8855SOL     OW38197   0.764   3.486  13.824  0.3313  0.2599 -0.0959
 8855SOL    HW138198   0.749   3.557  13.886 -0.7712  0.0740 -0.1650
 8855SOL    HW238199   0.707   3.507  13.750  1.6775 -1.4353 -1.6099
 8856SOL     OW38200   2.444   2.440  14.949 -0.1254 -0.1656 -0.0962
 8856SOL    HW138201   2.440   2.471  15.040  0.1338 -1.0309  0.2083
 8856SOL    HW238202   2.528   2.393  14.947 -0.2945 -0.4338 -0.7567
 8857SOL     OW38203   0.433   3.581   0.914 -0.8656 -0.1681 -0.2402
 8857SOL    HW138204   0.462   3.516   0.977 -0.7974 -0.3158 -0.4254
 8857SOL    HW238205   0.344   3.555   0.889 -0.3180 -1.8003 -0.4358
 8858SOL     OW38206   4.053   2.774   6.143 -0.0126 -0.0181 -0.1215
 8858SOL    HW138207   3.980   2.822   6.106 -1.1538 -2.2337 -0.7699
 8858SOL    HW238208   4.066   2.816   6.228 -2.9608  1.6922 -0.5343
 8859SOL     OW38209   2.651   3.811   8.476  0.0000  0.2812  0.3418
 8859SOL    HW138210   2.570   3.808   8.527  0.5320 -1.1302  1.0883
 8859SOL    HW238211   2.648   3.907   8.468 -2.9297  0.1055 -0.9398
 8860SOL     OW38212   3.368   1.716   3.336  0.5476  0.0330 -0.0163
 8860SOL    HW138213   3.445   1.752   3.382 -0.3695 -0.4842  1.8999
 8860SOL    HW238214   3.369   1.772   3.258  0.7662  2.0840  1.4380
 8861SOL     OW38215   0.971   3.374   4.278 -0.1884  0.1407  0.0719
 8861SOL    HW138216   0.994   3.302   4.218  0.5190 -1.5415  2.3666
 8861SOL    HW238217   0.944   3.434   4.209  0.7192  1.2097  0.6447
 8862SOL     OW38218   1.715   3.524   5.019 -0.1688  0.5788  0.2705
 8862SOL    HW138219   1.675   3.611   5.007 -1.5526  0.1789  1.9310
 8862SOL    HW238220   1.764   3.552   5.097 -0.5884 -1.4607  1.2476
 8863SOL     OW38221   0.751   1.056   4.662 -0.1274  0.1131 -0.0071
 8863SOL    HW138222   0.718   1.011   4.740  0.5775 -1.5143 -0.6552
 8863SOL    HW238223   0.826   1.096   4.707 -0.0822  0.1618 -0.1262
 8864SOL     OW38224   1.466   0.754   4.791  0.0043  0.4377 -0.1007
 8864SOL    HW138225   1.370   0.751   4.795  0.1084  0.3606  2.1303
 8864SOL    HW238226   1.477   0.774   4.884  1.0845  0.7693 -0.3108
 8865SOL     OW38227   1.469   3.079   7.404  0.6296 -0.0749  0.0128
 8865SOL    HW138228   1.377   3.060   7.425  0.6625 -0.1111  0.1244
 8865SOL    HW238229   1.512   3.004   7.446 -0.5238 -1.3278 -1.0378
 8866SOL     OW38230   2.874   3.607   2.163  0.4560  0.2585 -0.0065
 8866SOL    HW138231   2.962   3.612   2.201 -0.6498 -2.5358  2.8590
 8866SOL    HW238232   2.838   3.530   2.206  1.5568 -1.1896 -1.7073
 8867SOL     OW38233   1.635   0.902  14.814  0.0473  0.0330 -0.4413
 8867SOL    HW138234   1.652   0.846  14.738  0.1444  0.3655 -0.6654
 8867SOL    HW238235   1.642   0.986  14.768  0.4807 -0.5215 -1.3958
 8868SOL     OW38236   3.403   2.879   8.626  0.3645 -0.2157  0.1353
 8868SOL    HW138237   3.452   2.922   8.696 -0.9243  0.3621  0.6758
 8868SOL    HW238238   3.319   2.885   8.672 -1.4646 -1.2346 -3.0535
 8869SOL     OW38239   4.348   0.867   8.457 -0.0415  0.3935 -0.7195
 8869SOL    HW138240   4.379   0.918   8.532 -1.2397 -1.3674  0.9640
 8869SOL    HW238241   4.257   0.850   8.482 -0.4278  1.2896 -1.5123
 8870SOL     OW38242   3.330   3.062   4.844  0.4853 -0.4991  0.1043
 8870SOL    HW138243   3.329   2.989   4.905  0.6999 -0.4746  0.1348
 8870SOL    HW238244   3.279   3.133   4.884 -0.0710 -1.8002  1.6965
 8871SOL     OW38245   1.840   3.145  13.670  0.3852  0.4134  0.4391
 8871SOL    HW138246   1.788   3.167  13.748 -0.2046  0.8199 -0.0768
 8871SOL    HW238247   1.781   3.078  13.635 -1.3693  2.5393 -0.6813
 8872SOL     OW38248   3.465   2.550   9.269  0.6819  0.0578  0.3867
 8872SOL    HW138249   3.373   2.545   9.243  0.9561 -1.0075 -0.3925
 8872SOL    HW238250   3.481   2.461   9.300  2.1042  1.1141  2.6415
 8873SOL     OW38251   3.821   1.405   8.256  0.1221  0.1713 -0.6431
 8873SOL    HW138252   3.913   1.402   8.229  0.8046 -1.6512  1.9099
 8873SOL    HW238253   3.823   1.347   8.332 -0.1654  0.7468 -0.2003
 8874SOL     OW38254   4.643   1.613   5.630  0.2023 -0.0348 -0.1727
 8874SOL    HW138255   4.629   1.555   5.705  1.1595  2.0611  1.6491
 8874SOL    HW238256   4.553   1.632   5.606 -0.1526 -0.0217  1.1356
 8875SOL     OW38257   0.268   3.035  11.208 -0.2677  0.6091  0.4908
 8875SOL    HW138258   0.226   3.096  11.147  0.3119  0.6278  0.1180
 8875SOL    HW238259   0.212   2.958  11.202  1.2965 -0.3405 -2.0869
 8876SOL     OW38260   1.158   2.109   1.954 -0.1693 -0.1974  0.1898
 8876SOL    HW138261   1.223   2.052   1.913 -2.4766 -0.5306 -2.9651
 8876SOL    HW238262   1.181   2.103   2.047  1.2225 -3.2995 -0.3426
 8877SOL     OW38263   0.510   0.195   8.027  0.2398  0.2423 -0.5076
 8877SOL    HW138264   0.424   0.160   8.051  0.6338  1.7878  3.1649
 8877SOL    HW238265   0.497   0.231   7.939 -0.9393  0.5230 -0.2149
 8878SOL     OW38266   4.374   2.659   2.150 -0.3773  0.4504 -0.1222
 8878SOL    HW138267   4.365   2.736   2.206 -2.5359  1.5981 -2.0561
 8878SOL    HW238268   4.327   2.592   2.200 -2.1828  1.2703 -0.6992
 8879SOL     OW38269   3.268   1.755   2.850 -0.5496 -0.2046 -0.0806
 8879SOL    HW138270   3.182   1.788   2.823  0.2938  1.5522 -0.6637
 8879SOL    HW238271   3.310   1.773   2.765  1.7419 -3.0001  0.4598
 8880SOL     OW38272   1.792   4.397   3.152 -0.2041 -0.2299 -0.6035
 8880SOL    HW138273   1.734   4.361   3.219 -1.3883  1.4106 -0.7359
 8880SOL    HW238274   1.881   4.380   3.184 -0.2135  2.0790  0.6740
 8881SOL     OW38275   1.862   1.893   4.570 -0.4334  0.4111  0.4852
 8881SOL    HW138276   1.926   1.881   4.500 -0.0360 -2.7168  1.3420
 8881SOL    HW238277   1.779   1.903   4.523 -0.8492  0.0379  1.1284
 8882SOL     OW38278   2.266   2.147  15.056 -0.7424 -0.2866 -0.1692
 8882SOL    HW138279   2.216   2.195  14.990 -2.2454 -1.5190  0.0636
 8882SOL    HW238280   2.213   2.154  15.136 -1.2482 -0.9165 -0.4469
 8883SOL     OW38281   2.734   0.540   8.422  0.0531 -0.2275  0.1880
 8883SOL    HW138282   2.764   0.452   8.397 -0.6457 -0.4536  0.1137
 8883SOL    HW238283   2.812   0.594   8.422 -0.5984  0.7161 -1.5052
 8884SOL     OW38284   3.358   3.989   4.810  0.1402  0.1811  0.3921
 8884SOL    HW138285   3.404   4.063   4.771 -0.3689  0.4896  0.3773
 8884SOL    HW238286   3.282   3.979   4.753  0.7220 -0.0234 -0.3408
 8885SOL     OW38287   0.070   4.020   7.725 -0.3203 -0.3146  0.5119
 8885SOL    HW138288   0.036   4.048   7.640 -0.0144  0.5516  0.6708
 8885SOL    HW238289   0.164   4.019   7.709 -0.2310  2.9030  0.8143
 8886SOL     OW38290   2.888   1.532  14.011  1.1971  0.0363  0.5316
 8886SOL    HW138291   2.848   1.487  13.937 -0.9397  0.2215  1.5855
 8886SOL    HW238292   2.981   1.533  13.988  1.1448 -2.8240  0.2648
 8887SOL     OW38293   2.313   2.077   3.473 -0.3989 -0.0153 -0.3688
 8887SOL    HW138294   2.402   2.107   3.489  0.1494 -2.0572  0.3343
 8887SOL    HW238295   2.276   2.092   3.560  1.5041  1.5246  0.1767
 8888SOL     OW38296   3.288   1.120   6.767 -0.1957  0.4977  0.3336
 8888SOL    HW138297   3.301   1.154   6.678 -1.3129  0.2237  0.0599
 8888SOL    HW238298   3.334   1.172   6.832 -0.6708  1.4803 -0.1257
 8889SOL     OW38299   2.278   1.329  10.161 -0.4434 -0.1683  0.2194
 8889SOL    HW138300   2.264   1.407  10.215 -1.1981  0.9680 -1.5857
 8889SOL    HW238301   2.314   1.269  10.225  0.7682 -0.2874 -0.5766
 8890SOL     OW38302   2.305   2.481   6.475 -0.2834 -0.7842 -0.4369
 8890SOL    HW138303   2.368   2.539   6.432  0.0439  0.5137  1.7627
 8890SOL    HW238304   2.246   2.476   6.400 -2.4991 -0.4631  1.2853
 8891SOL     OW38305   3.138   0.224  13.838  0.1761 -0.0735  0.1583
 8891SOL    HW138306   3.218   0.246  13.885 -0.2137  1.9601 -0.1619
 8891SOL    HW238307   3.158   0.131  13.826  0.2955 -0.3773  2.6715
 8892SOL     OW38308   4.030   1.045   1.797  0.0176  0.6186  0.1572
 8892SOL    HW138309   4.045   1.140   1.796 -0.2242  0.6565  0.2587
 8892SOL    HW238310   3.937   1.034   1.819  0.2470 -1.0664  0.2696
 8893SOL     OW38311   3.261   3.501   2.766  0.2529 -0.0341  0.4750
 8893SOL    HW138312   3.316   3.431   2.730 -1.2295 -0.0766 -1.6564
 8893SOL    HW238313   3.288   3.486   2.857  0.9972 -1.0225  0.0855
 8894SOL     OW38314   3.756   2.170   9.009 -0.0585 -0.3480  0.1372
 8894SOL    HW138315   3.843   2.208   9.020  0.0529 -0.0822 -1.6274
 8894SOL    HW238316   3.768   2.075   9.000  3.1127 -0.0712  1.5416
 8895SOL     OW38317   3.289   0.290   4.124 -0.1883  0.1201  0.2324
 8895SOL    HW138318   3.215   0.343   4.154  1.0425  1.1052  1.5268
 8895SOL    HW238319   3.242   0.213   4.093 -1.7567  1.3905 -0.5561
 8896SOL     OW38320   0.908   4.353  16.030  0.0225  0.7621  0.0398
 8896SOL    HW138321   0.868   4.300  15.961  1.5147  1.5240 -1.4305
 8896SOL    HW238322   0.901   4.441  15.993  0.1777 -0.0853 -2.0397
 8897SOL     OW38323   0.878   1.556   5.707 -0.3129  0.3992 -0.5274
 8897SOL    HW138324   0.843   1.637   5.745 -2.5004 -0.4390 -0.7933
 8897SOL    HW238325   0.948   1.587   5.648 -1.1409 -1.5122 -2.4971
 8898SOL     OW38326   1.911   3.682   2.263 -0.1184  0.0298 -0.3757
 8898SOL    HW138327   1.974   3.611   2.256  0.3351  0.1884  2.0700
 8898SOL    HW238328   1.845   3.659   2.197 -0.0453 -0.2551 -0.3507
 8899SOL     OW38329   3.143   2.144   7.473  0.1567  0.3242 -0.2355
 8899SOL    HW138330   3.207   2.133   7.544 -2.0461 -1.3066  1.4855
 8899SOL    HW238331   3.135   2.239   7.473 -1.3713  0.1945  1.2258
 8900SOL     OW38332   3.674   1.730   0.642  0.1798  0.3879  0.6804
 8900SOL    HW138333   3.680   1.741   0.547 -0.6990  0.8457  0.6672
 8900SOL    HW238334   3.740   1.662   0.643 -0.0109  0.2123  1.0586
 8901SOL     OW38335   0.666   2.311   6.637 -0.1990  0.1323 -0.1523
 8901SOL    HW138336   0.718   2.231   6.633 -0.5683 -0.0475 -1.1387
 8901SOL    HW238337   0.589   2.289   6.689 -0.4744 -1.7026 -1.3543
 8902SOL     OW38338   1.141   0.300   5.800 -0.0022  0.3735 -0.0176
 8902SOL    HW138339   1.196   0.347   5.738 -0.2733  0.6614 -0.0406
 8902SOL    HW238340   1.057   0.329   5.765  0.1227 -0.0819 -0.6901
 8903SOL     OW38341   0.461   0.505   9.022 -0.4179 -0.4435  0.0898
 8903SOL    HW138342   0.424   0.447   9.089  2.2624 -2.2143 -0.0074
 8903SOL    HW238343   0.554   0.487   9.027 -0.3351 -0.1904 -0.5248
 8904SOL     OW38344   3.172   3.137   8.647 -0.2760 -0.3651  0.1063
 8904SOL    HW138345   3.129   3.200   8.706  0.8233  0.8657 -0.4234
 8904SOL    HW238346   3.159   3.057   8.697  4.0818 -0.5831  0.8983
 8905SOL     OW38347   0.459   4.133   3.225 -0.0212  0.1742  0.1921
 8905SOL    HW138348   0.520   4.142   3.152 -1.5789  1.8555 -0.8952
 8905SOL    HW238349   0.487   4.195   3.293 -0.7266 -0.5828  1.1868
 8906SOL     OW38350   0.831   1.825  15.503 -0.3329  0.0830 -1.0319
 8906SOL    HW138351   0.893   1.756  15.480 -2.3798 -1.9557 -0.4514
 8906SOL    HW238352   0.766   1.777  15.555  1.0528 -1.8294 -1.0743
 8907SOL     OW38353   1.281   2.014   7.519  0.0320 -1.3068 -0.3987
 8907SOL    HW138354   1.228   1.936   7.536  2.8080 -2.8724  1.0642
 8907SOL    HW238355   1.223   2.068   7.572 -0.3876  0.1096 -2.2880
 8908SOL     OW38356   0.653   1.978   8.119  0.3398  0.0729  0.0257
 8908SOL    HW138357   0.709   1.948   8.048  0.8951  0.6147  0.2389
 8908SOL    HW238358   0.714   1.963   8.191  0.0865 -2.0461 -0.1814
 8909SOL     OW38359   0.090   1.091   3.280  0.5753  0.8058 -0.3345
 8909SOL    HW138360   0.176   1.096   3.239  0.3646  0.7763 -0.7892
 8909SOL    HW238361   0.105   1.127   3.367 -0.9198 -0.8227  0.5952
 8910SOL     OW38362   0.418   1.943  17.610 -0.2953 -0.6969 -0.2360
 8910SOL    HW138363   0.472   1.991  17.547  0.7147  1.9550  2.6716
 8910SOL    HW238364   0.414   1.998  17.688 -1.1022 -0.4576 -0.4456
 8911SOL     OW38365   0.554   1.642  12.071  0.6248 -0.1379 -0.0897
 8911SOL    HW138366   0.612   1.648  11.995 -0.4941  1.0462 -0.8425
 8911SOL    HW238367   0.618   1.637  12.142  0.2208 -3.7791 -0.0233
 8912SOL     OW38368   0.679   2.311   5.852 -0.6062 -0.0110 -0.1547
 8912SOL    HW138369   0.605   2.265   5.813 -0.2057 -0.8706  0.1120
 8912SOL    HW238370   0.623   2.363   5.910 -0.5206 -2.2229  1.8915
 8913SOL     OW38371   0.594   2.166   4.981  0.0923 -0.2181  0.4851
 8913SOL    HW138372   0.610   2.181   5.074 -1.2941  0.2925  0.6522
 8913SOL    HW238373   0.575   2.073   4.993 -0.6436 -0.0340  0.7821
 8914SOL     OW38374   4.478   2.199   7.217  0.3618 -0.1607  0.5454
 8914SOL    HW138375   4.535   2.217   7.292  1.2909 -1.8501  0.2619
 8914SOL    HW238376   4.496   2.105   7.210 -0.1285 -0.2562  0.5689
 8915SOL     OW38377   0.411   0.375   3.782  0.1360 -0.5391  0.1605
 8915SOL    HW138378   0.474   0.420   3.839  3.2291 -2.4802 -1.7533
 8915SOL    HW238379   0.436   0.421   3.702  2.0842  0.6563  1.4302
 8916SOL     OW38380   1.243   2.866   0.420 -0.4555 -0.5001  0.0386
 8916SOL    HW138381   1.162   2.823   0.447 -1.2775  0.4028 -0.9960
 8916SOL    HW238382   1.234   2.876   0.326  0.7358  3.6089  0.3328
 8917SOL     OW38383   3.959   1.556  16.000  0.1480 -0.2649 -0.2211
 8917SOL    HW138384   3.883   1.550  15.942 -0.1330  1.0217  0.0354
 8917SOL    HW238385   3.981   1.646  15.977 -0.4855 -0.0283  0.0970
 8918SOL     OW38386   0.616   1.932   4.574  0.5333  0.1949 -0.5892
 8918SOL    HW138387   0.566   1.984   4.636 -0.3659  0.4770 -1.5488
 8918SOL    HW238388   0.543   1.876   4.547  0.2624  1.5082 -2.5971
 8919SOL     OW38389   2.443   0.010   7.820  0.0503  0.6399 -0.8554
 8919SOL    HW138390   2.436   0.105   7.830 -0.4512  0.4522  0.4886
 8919SOL    HW238391   2.445   4.710   7.910 -3.4478 -0.7514 -1.2654
 8920SOL     OW38392   1.421   0.626   8.838  0.2102  0.3927  0.2443
 8920SOL    HW138393   1.420   0.534   8.865 -3.1285  0.9090  1.8617
 8920SOL    HW238394   1.413   0.680   8.917  1.3479  2.1213 -0.8042
 8921SOL     OW38395   1.215   4.283   6.023  0.1598 -0.0613  0.0102
 8921SOL    HW138396   1.151   4.311   6.088  0.8137  0.9256  0.2212
 8921SOL    HW238397   1.174   4.210   5.976  0.5614  0.6013 -1.3500
 8922SOL     OW38398   4.180   2.311   5.972 -0.4075 -0.3315 -0.0007
 8922SOL    HW138399   4.153   2.400   5.947 -1.8289 -1.5070 -2.6104
 8922SOL    HW238400   4.274   2.298   5.956 -0.5114 -0.9417 -0.0996
 8923SOL     OW38401   1.468   2.285   5.853 -0.0972  0.6484  0.4217
 8923SOL    HW138402   1.505   2.274   5.765  0.5631  1.4015  0.6032
 8923SOL    HW238403   1.545   2.323   5.895  0.4688 -1.1691  1.0072
 8924SOL     OW38404   2.455   0.058   6.273 -0.5988 -0.1076 -0.5166
 8924SOL    HW138405   2.464   4.697   6.252 -1.5381 -0.3648  0.2314
 8924SOL    HW238406   2.380   0.089   6.223 -0.0071 -0.1988 -1.4438
 8925SOL     OW38407   1.640   2.755  14.909  0.3013 -0.0282 -0.7887
 8925SOL    HW138408   1.640   2.844  14.875 -2.1597 -0.9088 -3.0973
 8925SOL    HW238409   1.713   2.723  14.856 -0.1662  0.8597 -1.9711
 8926SOL     OW38410   4.535   0.706  17.454  0.0725  0.2530 -0.1737
 8926SOL    HW138411   4.443   0.679  17.450  0.5885 -1.6366  1.0810
 8926SOL    HW238412   4.526   0.795  17.419 -0.4999  0.0455 -0.5509
 8927SOL     OW38413   4.522   2.175  17.496 -0.2572  0.3559 -0.3001
 8927SOL    HW138414   4.568   2.146  17.575 -1.6991 -0.3692  0.2884
 8927SOL    HW238415   4.506   2.268  17.511 -1.3169  0.8246 -4.2318
 8928SOL     OW38416   0.840   0.703  10.691 -0.1915  0.3560  0.9306
 8928SOL    HW138417   0.768   0.765  10.682 -0.2540  0.2004  0.3497
 8928SOL    HW238418   0.899   0.733  10.621 -0.9309 -0.3592 -0.0037
 8929SOL     OW38419   1.396   3.383   7.217 -0.0180  0.0128 -0.1623
 8929SOL    HW138420   1.445   3.442   7.160 -4.1604  1.1197 -2.5378
 8929SOL    HW238421   1.303   3.392   7.194 -0.0383 -0.6141 -0.3265
 8930SOL     OW38422   4.047   0.833  15.222  0.6898 -0.0492 -0.1009
 8930SOL    HW138423   4.035   0.866  15.311 -0.9479  0.0688 -0.3612
 8930SOL    HW238424   4.142   0.832  15.220  0.6803 -1.0541 -0.3259
 8931SOL     OW38425   2.200   0.471   5.409 -0.0843  0.4520  0.3616
 8931SOL    HW138426   2.173   0.399   5.467  0.9248 -0.5090 -0.3629
 8931SOL    HW238427   2.196   0.545   5.470  4.5333 -0.0187  1.2916
 8932SOL     OW38428   3.312   0.051  17.280 -0.0961 -0.2067  0.2258
 8932SOL    HW138429   3.309   0.146  17.292  1.2257 -0.4129  2.1492
 8932SOL    HW238430   3.341   0.028  17.368  1.1297  0.6390  0.0392
 8933SOL     OW38431   0.472   0.146   2.066 -0.3182 -0.3363 -1.5458
 8933SOL    HW138432   0.526   0.092   2.123 -0.5093 -0.7547 -1.7643
 8933SOL    HW238433   0.506   0.234   2.085 -0.3599 -0.7458  0.4403
 8934SOL     OW38434   4.144   2.450   4.764 -0.1637 -0.5986  0.2705
 8934SOL    HW138435   4.153   2.483   4.674 -2.3782 -1.7061 -0.3567
 8934SOL    HW238436   4.215   2.490   4.814 -2.4037  1.5554  1.7499
 8935SOL     OW38437   1.199   2.792   2.542  0.1067 -0.5220  0.2131
 8935SOL    HW138438   1.118   2.742   2.530  0.4616 -1.1701  0.5338
 8935SOL    HW238439   1.181   2.857   2.475  0.8890 -0.0811  0.4251
 8936SOL     OW38440   2.142   2.477   7.416 -0.2818 -0.0226 -0.1191
 8936SOL    HW138441   2.193   2.486   7.497  3.5736 -0.9959 -2.4371
 8936SOL    HW238442   2.057   2.445   7.446 -0.8876  4.1681  2.6329
 8937SOL     OW38443   1.000   2.331   0.228 -0.1170 -0.1691  0.1394
 8937SOL    HW138444   1.044   2.411   0.258  1.9692 -0.8208 -1.2092
 8937SOL    HW238445   0.908   2.357   0.228  0.3541  1.5009  0.8299
 8938SOL     OW38446   2.077   2.429   9.879  0.4246  0.4743 -0.0396
 8938SOL    HW138447   2.142   2.376   9.834  0.3718  2.3872 -2.3443
 8938SOL    HW238448   2.011   2.439   9.810  1.6400  2.3480 -0.9128
 8939SOL     OW38449   3.303   4.352   8.623  0.1035 -0.3294 -0.1910
 8939SOL    HW138450   3.301   4.261   8.596 -0.2108 -0.6857  1.0291
 8939SOL    HW238451   3.348   4.395   8.550  0.7404  0.4523  0.6630
 8940SOL     OW38452   0.626   3.608   3.319 -0.4196  0.3363  0.1905
 8940SOL    HW138453   0.638   3.703   3.322  1.2103  0.0942  1.6977
 8940SOL    HW238454   0.705   3.588   3.370 -0.5185 -0.3124  0.0850
 8941SOL     OW38455   3.229   3.488  15.051 -0.0143 -0.1031 -0.3123
 8941SOL    HW138456   3.304   3.456  15.101 -0.5144 -2.3901 -1.0457
 8941SOL    HW238457   3.258   3.572  15.015  0.6132  1.2629  3.3855
 8942SOL     OW38458   1.932   3.799   4.840  0.6967  0.3075  0.2197
 8942SOL    HW138459   1.981   3.873   4.806 -3.0836  2.8065  0.2798
 8942SOL    HW238460   1.843   3.818   4.809  1.0033 -0.7190 -1.2899
 8943SOL     OW38461   4.708   0.485   4.013 -0.2900 -0.0096 -0.0158
 8943SOL    HW138462   4.703   0.391   4.032  0.3666 -0.5396 -2.4385
 8943SOL    HW238463   4.709   0.484   3.917  0.3024 -1.4512 -0.0014
 8944SOL     OW38464   1.208   2.984  15.626 -0.0022  0.3380 -0.3413
 8944SOL    HW138465   1.269   2.956  15.695 -0.6779 -1.9567 -0.6602
 8944SOL    HW238466   1.221   2.920  15.556 -3.9075 -1.4828  0.5539
 8945SOL     OW38467   2.849   0.616   7.813  0.3313  0.6767  0.0156
 8945SOL    HW138468   2.761   0.642   7.839 -0.5988 -1.1967 -1.2618
 8945SOL    HW238469   2.879   0.587   7.899 -0.5576  0.8010  0.3641
 8946SOL     OW38470   1.923   0.747   7.724  0.7886 -0.4402 -0.0188
 8946SOL    HW138471   2.002   0.713   7.683  0.5455  0.8685 -1.5646
 8946SOL    HW238472   1.913   0.679   7.790 -1.1110  1.0475  1.2378
 8947SOL     OW38473   4.063   0.710  12.947  0.1454 -0.0162 -0.1427
 8947SOL    HW138474   4.094   0.722  13.037 -0.8757 -1.1881  0.3608
 8947SOL    HW238475   4.032   0.800  12.930  2.2134  0.9964  1.5276
 8948SOL     OW38476   3.423   3.043   5.561 -0.0771  0.1846  0.0534
 8948SOL    HW138477   3.510   3.038   5.600 -0.0795  0.6387  0.1161
 8948SOL    HW238478   3.445   3.098   5.486 -0.3179 -1.1291 -0.9730
 8949SOL     OW38479   0.055   4.171   8.013  0.6764 -0.1386  0.1858
 8949SOL    HW138480   4.719   4.207   7.957  1.3408  0.7581 -0.0283
 8949SOL    HW238481   0.126   4.214   7.966  1.1044 -2.3237 -1.1722
 8950SOL     OW38482   3.985   1.363  16.566  0.1759 -0.5039  0.1042
 8950SOL    HW138483   4.023   1.363  16.479  0.4190  0.4620  0.2082
 8950SOL    HW238484   3.905   1.416  16.557 -1.1412 -2.1396  2.2700
 8951SOL     OW38485   4.162   0.046   0.001 -0.4943  0.6844  0.0185
 8951SOL    HW138486   4.104   0.001  17.667  0.8222 -1.1657  0.1250
 8951SOL    HW238487   4.183   0.121  17.673 -1.2131  0.8567 -0.0228
 8952SOL     OW38488   4.487   3.877   6.310 -0.4644  0.1001 -0.8029
 8952SOL    HW138489   4.486   3.962   6.353  0.4360  0.3999 -1.3615
 8952SOL    HW238490   4.403   3.838   6.335  0.0355  0.1798  0.9634
 8953SOL     OW38491   0.370   0.515   0.603 -0.2217 -0.3420 -0.7031
 8953SOL    HW138492   0.411   0.544   0.522  1.4552 -0.1566  0.2179
 8953SOL    HW238493   0.302   0.582   0.602  1.7149  1.6216  0.0265
 8954SOL     OW38494   1.405   0.879   2.587 -0.0114  0.0993 -0.3728
 8954SOL    HW138495   1.401   0.937   2.511  4.5222  1.2086  0.2454
 8954SOL    HW238496   1.336   0.922   2.638 -1.5001 -2.5027 -0.1819
 8955SOL     OW38497   0.304   3.117   9.590  0.0008 -0.0202 -0.0174
 8955SOL    HW138498   0.270   3.067   9.516 -1.0412  0.5531  0.0603
 8955SOL    HW238499   0.226   3.144   9.638  0.2573 -4.9472  3.0537
 8956SOL     OW38500   0.677   4.043   2.488 -0.3621  0.5204  0.3450
 8956SOL    HW138501   0.687   4.070   2.579  0.2533  0.1644  0.3868
 8956SOL    HW238502   0.614   3.973   2.504 -1.0482  1.0715  0.0255
 8957SOL     OW38503   3.056   3.083  17.378  0.1811 -0.3091  0.0842
 8957SOL    HW138504   3.036   3.000  17.334 -1.9956 -0.3455  1.1563
 8957SOL    HW238505   3.148   3.090  17.352  0.0778 -0.8008 -0.4309
 8958SOL     OW38506   2.512   1.439  16.096 -0.6680 -0.8757 -0.5170
 8958SOL    HW138507   2.553   1.498  16.032  0.4072 -0.4498  0.5829
 8958SOL    HW238508   2.499   1.505  16.164  0.1895 -0.5593 -0.6597
 8959SOL     OW38509   2.150   0.281   3.115 -0.3290  0.2007  0.1531
 8959SOL    HW138510   2.111   0.355   3.162 -1.6735 -1.2802  1.3585
 8959SOL    HW238511   2.075   0.221   3.108 -0.3947  0.6186 -2.6036
 8960SOL     OW38512   1.327   4.496   0.835 -0.1397 -0.3808 -0.1546
 8960SOL    HW138513   1.325   4.544   0.917  0.9324 -0.7287  0.0715
 8960SOL    HW238514   1.297   4.408   0.856  1.3025 -0.9536 -0.4997
 8961SOL     OW38515   0.868   0.730   7.346  0.1031 -0.1157  0.2569
 8961SOL    HW138516   0.926   0.657   7.370  0.4730  0.7601  2.0238
 8961SOL    HW238517   0.878   0.785   7.424  3.3946 -0.5206  0.1476
 8962SOL     OW38518   1.801   3.585   3.507 -0.1422  0.7383  0.1317
 8962SOL    HW138519   1.864   3.654   3.483  0.3244 -0.3096 -1.6771
 8962SOL    HW238520   1.800   3.524   3.432  0.1187  0.5676  0.2668
 8963SOL     OW38521   0.899   3.267   5.008 -0.3419  0.3691 -0.2131
 8963SOL    HW138522   0.964   3.220   5.060 -0.5198 -0.7534 -1.0277
 8963SOL    HW238523   0.816   3.221   5.020 -1.2902  2.1735  0.1516
 8964SOL     OW38524   1.082   1.697   5.569 -0.2961 -0.5458  0.0467
 8964SOL    HW138525   1.140   1.671   5.497  0.0176  1.1616 -0.3071
 8964SOL    HW238526   1.138   1.759   5.615 -1.7355  1.7478 -1.3165
 8965SOL     OW38527   4.489   0.427   9.018 -0.3037 -0.0158 -0.3067
 8965SOL    HW138528   4.460   0.387   8.937  3.3495 -1.7200 -0.7596
 8965SOL    HW238529   4.548   0.361   9.053  0.7900 -0.1652 -2.4453
 8966SOL     OW38530   1.862   0.924   2.379  0.1390  0.4593 -0.3865
 8966SOL    HW138531   1.857   0.878   2.462  1.5695 -1.1401 -1.1912
 8966SOL    HW238532   1.956   0.941   2.385  0.4212 -0.2622 -2.4993
 8967SOL     OW38533   2.303   2.379  10.573 -0.0660  0.1609  0.5763
 8967SOL    HW138534   2.357   2.443  10.619  0.1086  0.0604  0.5134
 8967SOL    HW238535   2.282   2.420  10.490 -0.2461 -1.3410 -0.1270
 8968SOL     OW38536   3.538   1.309  10.234 -0.2738 -0.1903 -0.0672
 8968SOL    HW138537   3.461   1.310  10.290  0.4185  0.1496  0.8730
 8968SOL    HW238538   3.613   1.273  10.282 -0.3921  2.0479  1.8073
 8969SOL     OW38539   2.331   3.209   6.232 -0.0886  0.0638  0.2132
 8969SOL    HW138540   2.316   3.182   6.141 -2.8412 -0.1655  0.7394
 8969SOL    HW238541   2.404   3.150   6.254 -1.9463 -2.3160  0.0691
 8970SOL     OW38542   0.561   2.311  11.228  0.0270 -0.2133  0.2265
 8970SOL    HW138543   0.526   2.264  11.152 -1.1658 -1.3722  1.5035
 8970SOL    HW238544   0.605   2.237  11.269  0.3945 -0.2861 -0.2897
 8971SOL     OW38545   2.771   4.714   3.479  0.6124  0.4659 -0.3069
 8971SOL    HW138546   2.823   4.680   3.551  0.8659  0.8964 -0.2890
 8971SOL    HW238547   2.831   0.047   3.443  0.2171  1.5414  0.9923
 8972SOL     OW38548   2.432   1.067  14.361  0.4655 -0.3617  0.1438
 8972SOL    HW138549   2.496   1.112  14.416 -1.2530  1.9571  0.2484
 8972SOL    HW238550   2.479   0.987  14.337  0.6176 -0.2818  0.1793
 8973SOL     OW38551   1.638   0.049   8.444 -0.4541  0.7267  0.3491
 8973SOL    HW138552   1.669   4.717   8.508  0.7835  1.4255  0.4420
 8973SOL    HW238553   1.548   0.018   8.446  0.2156 -1.5213 -2.4584
 8974SOL     OW38554   2.971   4.543   0.462  0.3441 -0.2110  0.3478
 8974SOL    HW138555   3.040   4.553   0.396 -0.2646 -1.8962 -0.5256
 8974SOL    HW238556   2.956   4.450   0.453  1.2564 -0.2583 -0.7325
 8975SOL     OW38557   0.474   1.534   4.860 -0.4603 -0.1703  0.5607
 8975SOL    HW138558   0.436   1.622   4.859  1.0978  0.4621 -1.2431
 8975SOL    HW238559   0.438   1.506   4.776 -0.2244 -0.8139  0.6722
 8976SOL     OW38560   4.528   1.026   5.789  0.0426  0.5217  0.6819
 8976SOL    HW138561   4.479   1.079   5.727 -1.5377 -1.5093  0.1739
 8976SOL    HW238562   4.459   0.970   5.825  0.8471  0.7432  2.5520
 8977SOL     OW38563   3.286   1.283   6.990 -0.3070 -0.2587 -0.2169
 8977SOL    HW138564   3.319   1.280   7.080 -0.7843 -0.0195 -0.0337
 8977SOL    HW238565   3.193   1.264   7.005 -0.8515  2.5042 -0.2096
 8978SOL     OW38566   2.806   2.835   4.293  0.7746  0.3664 -0.3074
 8978SOL    HW138567   2.820   2.913   4.239 -1.2864 -0.5698 -2.1894
 8978SOL    HW238568   2.844   2.770   4.234 -1.2208 -1.2318  0.1708
 8979SOL     OW38569   4.051   4.029   4.186  0.5461 -0.5105  0.1878
 8979SOL    HW138570   3.973   3.979   4.163  1.0254 -1.0473 -0.2709
 8979SOL    HW238571   4.089   4.065   4.106  1.1438  0.2337  0.7938
 8980SOL     OW38572   1.772   4.038   2.527  0.5111 -0.1257 -0.2653
 8980SOL    HW138573   1.854   4.057   2.483  1.2187 -1.8595  0.3099
 8980SOL    HW238574   1.719   4.117   2.515 -0.7875 -0.7199  1.4754
 8981SOL     OW38575   0.886   1.160   6.359 -0.0493 -0.0284 -0.2209
 8981SOL    HW138576   0.917   1.072   6.382  1.7857  0.0485 -2.3506
 8981SOL    HW238577   0.966   1.209   6.381 -0.2789 -1.3089  3.5840
 8982SOL     OW38578   1.550   0.286  14.294  0.2775 -0.3837  0.3331
 8982SOL    HW138579   1.468   0.334  14.288  0.6473 -0.0982 -2.2358
 8982SOL    HW238580   1.559   0.252  14.383 -0.0781  1.0661  0.9287
 8983SOL     OW38581   2.587   3.317   8.531 -0.2932 -0.3930 -0.1761
 8983SOL    HW138582   2.648   3.276   8.592  1.8120  1.4456 -1.0247
 8983SOL    HW238583   2.622   3.405   8.512  0.0103 -0.5844 -0.5079
 8984SOL     OW38584   4.273   3.288   4.296 -0.1338 -0.6378  0.1615
 8984SOL    HW138585   4.313   3.281   4.209 -0.6287  0.5332 -0.1627
 8984SOL    HW238586   4.185   3.261   4.269  0.0143  0.7856 -1.7697
 8985SOL     OW38587   2.426   3.749   7.022  0.1784  0.0402 -0.1165
 8985SOL    HW138588   2.408   3.842   7.009  2.5770  0.7872  1.8536
 8985SOL    HW238589   2.510   3.739   6.978 -0.5821  0.7940 -1.7208
 8986SOL     OW38590   3.329   2.004   3.750  0.1426  0.5865 -0.1541
 8986SOL    HW138591   3.399   2.033   3.809 -0.8289  0.9068  0.8292
 8986SOL    HW238592   3.356   1.912   3.737  0.1747  0.6575 -0.5842
 8987SOL     OW38593   2.829   1.911   4.066  0.3612  0.3380  0.1199
 8987SOL    HW138594   2.917   1.930   4.034  0.6670 -1.2340  0.0174
 8987SOL    HW238595   2.799   1.853   3.996 -1.7408  0.1314  1.2162
 8988SOL     OW38596   3.644   0.571  11.139  0.6370 -0.4771 -0.2631
 8988SOL    HW138597   3.703   0.617  11.199 -2.2088  0.1895  1.9991
 8988SOL    HW238598   3.593   0.521  11.202  1.1619  0.6366  1.0459
 8989SOL     OW38599   0.592   4.251   3.773 -0.1551 -0.4172  0.0868
 8989SOL    HW138600   0.567   4.251   3.865  1.1801  3.0226  0.4508
 8989SOL    HW238601   0.513   4.286   3.732  0.6480 -0.9205 -1.8804
 8990SOL     OW38602   0.675   1.230  11.259 -0.8256 -0.1336  0.3504
 8990SOL    HW138603   0.651   1.142  11.289 -0.6988 -0.5195 -0.6645
 8990SOL    HW238604   0.759   1.240  11.304 -1.0343 -1.4312  1.0181
 8991SOL     OW38605   1.539   4.173   5.754 -0.3282 -0.6958  0.4998
 8991SOL    HW138606   1.486   4.244   5.792  0.2276  0.7388 -1.4008
 8991SOL    HW238607   1.489   4.169   5.672  0.2710  0.0081  0.0995
 8992SOL     OW38608   0.657   0.380   1.846 -0.1398 -0.1050  0.2410
 8992SOL    HW138609   0.744   0.344   1.833 -0.0949 -0.4009  1.4077
 8992SOL    HW238610   0.621   0.350   1.762  1.7316 -0.0623 -0.5688
 8993SOL     OW38611   1.416   0.878   6.077  0.8380  0.2209  0.1150
 8993SOL    HW138612   1.480   0.811   6.054  1.9549  0.9244  1.1326
 8993SOL    HW238613   1.338   0.829   6.104  0.8104 -0.3714 -1.0346
 8994SOL     OW38614   0.299   3.636  12.658  0.4146 -0.1593  0.2077
 8994SOL    HW138615   0.216   3.613  12.700 -0.7112  0.2584 -1.7776
 8994SOL    HW238616   0.355   3.563  12.686  2.0028  1.2659  0.6958
 8995SOL     OW38617   2.900   0.601   5.734  0.0778 -0.0320  0.1621
 8995SOL    HW138618   2.902   0.532   5.801  0.5908  1.8808  2.1269
 8995SOL    HW238619   2.976   0.584   5.679 -0.2263  2.0344 -0.8883
 8996SOL     OW38620   4.629   3.328   4.845 -0.1099 -0.1787 -0.4837
 8996SOL    HW138621   4.602   3.242   4.877 -0.7047 -0.0948 -0.7666
 8996SOL    HW238622   4.563   3.385   4.883  1.2050  1.4346 -0.5993
 8997SOL     OW38623   4.383   0.846  10.243  0.4387  0.2787  0.1038
 8997SOL    HW138624   4.324   0.808  10.309 -0.7901  4.3106  1.3006
 8997SOL    HW238625   4.319   0.887  10.185  1.3803  1.3455 -0.1867
 8998SOL     OW38626   0.996   2.815   6.166  0.6228 -0.0469  0.2473
 8998SOL    HW138627   0.964   2.789   6.080 -1.0476  0.3559  0.7373
 8998SOL    HW238628   1.021   2.729   6.199  0.6605 -0.0069  0.3237
 8999SOL     OW38629   2.441   0.662   3.384 -0.4083  0.0600  0.5497
 8999SOL    HW138630   2.445   0.635   3.293  1.2945  4.1167 -0.5753
 8999SOL    HW238631   2.469   0.580   3.425  1.4293  0.7595  0.6873
 9000SOL     OW38632   3.475   2.877   2.158 -0.3901  0.1299  0.3651
 9000SOL    HW138633   3.517   2.834   2.084 -2.0716 -2.2293  0.7575
 9000SOL    HW238634   3.451   2.960   2.117  2.3779  1.0835  0.7382
 9001SOL     OW38635   0.925   0.152   5.943  0.0458  0.1375 -0.2185
 9001SOL    HW138636   0.893   0.089   5.878  1.1665 -1.0266  0.3474
 9001SOL    HW238637   0.992   0.199   5.893 -1.1049  0.9686 -0.9568
 9002SOL     OW38638   3.143   2.342  11.889 -0.5617  0.1322  0.1784
 9002SOL    HW138639   3.133   2.268  11.950  0.2656 -0.6135 -0.5860
 9002SOL    HW238640   3.082   2.406  11.925  0.5627  1.5584 -0.4594
 9003SOL     OW38641   2.944   3.864  14.481 -0.1542  0.3786  0.0146
 9003SOL    HW138642   2.865   3.916  14.492 -1.6764 -1.5494 -2.0259
 9003SOL    HW238643   2.956   3.860  14.386  2.4504  0.5993  0.3140
 9004SOL     OW38644   1.392   1.134  17.577  0.1131 -0.5651 -0.5316
 9004SOL    HW138645   1.361   1.079  17.505 -1.3079 -2.5713  1.6058
 9004SOL    HW238646   1.473   1.165  17.536  0.7709  0.3340  1.4649
 9005SOL     OW38647   2.043   1.231  13.247  0.0239  0.7868 -0.7989
 9005SOL    HW138648   2.074   1.257  13.334 -0.9994  0.0568 -0.2144
 9005SOL    HW238649   2.114   1.258  13.189 -0.2835 -0.0558 -1.5621
 9006SOL     OW38650   4.009   2.030   7.522 -0.0632 -0.2989 -0.6682
 9006SOL    HW138651   4.091   1.984   7.542  0.4157  0.2395 -1.3621
 9006SOL    HW238652   3.947   1.958   7.532  0.2312 -0.4624 -0.0347
 9007SOL     OW38653   1.582   3.268   3.325 -0.0583 -0.1109  0.5959
 9007SOL    HW138654   1.649   3.266   3.256 -0.0587 -0.6601  0.6145
 9007SOL    HW238655   1.556   3.360   3.327 -1.3114 -0.4021 -1.5548
 9008SOL     OW38656   1.619   2.339   8.368 -0.1364 -0.7855  0.0205
 9008SOL    HW138657   1.539   2.383   8.397  0.4989 -0.2751  0.9716
 9008SOL    HW238658   1.628   2.375   8.280 -0.5620  0.0629  0.3263
 9009SOL     OW38659   3.353   2.789   3.293  0.3064  0.0541  0.3409
 9009SOL    HW138660   3.382   2.698   3.300  0.7504  0.1798  0.1060
 9009SOL    HW238661   3.423   2.848   3.264  0.5179 -0.6475 -0.5789
 9010SOL     OW38662   1.558   3.995  17.133  0.0392  0.0233  0.7003
 9010SOL    HW138663   1.652   4.004  17.119  0.3712 -0.3513  2.6447
 9010SOL    HW238664   1.522   4.048  17.062 -2.0185 -3.4754 -0.8698
 9011SOL     OW38665   1.435   2.588  14.982 -0.6368 -0.1157 -0.2419
 9011SOL    HW138666   1.514   2.631  14.950  0.2316 -2.4845 -1.2139
 9011SOL    HW238667   1.371   2.650  14.946 -2.0176 -1.5214 -0.1995
 9012SOL     OW38668   1.989   4.156  16.949 -0.6663  0.1402 -0.2468
 9012SOL    HW138669   1.982   4.238  16.900 -0.9057 -0.7988 -1.7822
 9012SOL    HW238670   2.083   4.138  16.949 -0.7204 -0.1635 -1.8522
 9013SOL     OW38671   0.680   2.897   6.302 -0.1886 -0.5961 -0.4250
 9013SOL    HW138672   0.758   2.947   6.278  0.2435  0.2814  2.9335
 9013SOL    HW238673   0.690   2.860   6.389  1.5704  0.4578 -0.1859
 9014SOL     OW38674   2.137   1.701  16.868 -0.0203  0.7565 -0.2555
 9014SOL    HW138675   2.057   1.668  16.907  0.1318  0.9975  0.2633
 9014SOL    HW238676   2.176   1.620  16.834 -0.9347  0.0687  0.3632
 9015SOL     OW38677   0.559   3.755   5.177 -0.3646 -0.3685 -0.6617
 9015SOL    HW138678   0.643   3.735   5.218  0.7265  1.1610 -2.1620
 9015SOL    HW238679   0.586   3.820   5.112 -1.1253  1.5833  0.9829
 9016SOL     OW38680   1.578   2.282   4.618  0.0977 -0.1534 -0.0482
 9016SOL    HW138681   1.566   2.273   4.524  1.0494  0.1611 -0.1983
 9016SOL    HW238682   1.673   2.267   4.617  0.1122  0.0602 -1.7487
 9017SOL     OW38683   0.604   0.241  14.914 -0.6768  0.6103  0.5379
 9017SOL    HW138684   0.563   0.161  14.947  2.1514 -0.3286  1.7647
 9017SOL    HW238685   0.630   0.202  14.831  0.5249  0.2238  1.1054
 9018SOL     OW38686   2.907   0.031   0.583 -0.5349 -0.2880  0.4638
 9018SOL    HW138687   2.917   0.079   0.501 -2.0739  0.8088  0.9289
 9018SOL    HW238688   2.930   4.679   0.543 -1.2965 -0.5871  0.6646
 9019SOL     OW38689   1.919   1.013  14.100  0.0999 -0.1250  0.2043
 9019SOL    HW138690   1.960   0.930  14.125  0.4111 -0.0451 -0.0284
 9019SOL    HW238691   1.829   0.984  14.111 -0.3676  0.7172 -1.2705
 9020SOL     OW38692   3.621   4.098   9.265  0.2558 -0.1218  0.8486
 9020SOL    HW138693   3.588   4.060   9.346  1.4674 -0.7909  1.0245
 9020SOL    HW238694   3.707   4.057   9.254  1.6224  3.7396 -2.9380
 9021SOL     OW38695   4.014   4.277   6.050  0.1350  0.2195  0.1310
 9021SOL    HW138696   4.063   4.202   6.084 -0.3490 -0.0840  0.1682
 9021SOL    HW238697   3.926   4.275   6.088 -0.3383  0.5223 -0.9327
 9022SOL     OW38698   1.149   4.331   8.033 -0.0976  0.0848  0.3531
 9022SOL    HW138699   1.143   4.335   7.938 -0.8458 -1.9538  0.3170
 9022SOL    HW238700   1.076   4.271   8.048 -0.0414 -0.1720 -0.4259
 9023SOL     OW38701   2.816   1.527   5.329 -0.1136 -0.0504  1.1180
 9023SOL    HW138702   2.819   1.607   5.278 -0.2258 -0.8774 -0.2004
 9023SOL    HW238703   2.855   1.558   5.410 -1.5678  0.2301  1.7207
 9024SOL     OW38704   3.864   0.866  14.302 -0.1318 -0.0008 -0.1827
 9024SOL    HW138705   3.878   0.836  14.212  0.4746  1.3253 -0.5199
 9024SOL    HW238706   3.924   0.809  14.350 -0.1716 -0.6192 -0.8625
 9025SOL     OW38707   3.952   0.890   2.176 -0.0561  0.3967  0.4657
 9025SOL    HW138708   3.910   0.941   2.245  2.6882  1.7748  1.1048
 9025SOL    HW238709   3.910   0.806   2.195 -0.7327  0.2373 -1.7391
 9026SOL     OW38710   3.240   3.454  15.483 -0.2578  0.1794  0.4103
 9026SOL    HW138711   3.189   3.532  15.462 -2.3326 -1.2989 -0.0511
 9026SOL    HW238712   3.237   3.467  15.578  3.1573 -1.3285  0.7262
 9027SOL     OW38713   4.234   1.207   0.714 -0.3358  0.1646 -0.0619
 9027SOL    HW138714   4.250   1.194   0.807  0.4838 -2.2092 -0.5195
 9027SOL    HW238715   4.201   1.119   0.696  0.7085 -0.1727 -0.3271
 9028SOL     OW38716   0.780   3.236   5.701  0.1620  0.4379  0.1678
 9028SOL    HW138717   0.871   3.208   5.691  0.1780  0.8859 -0.9896
 9028SOL    HW238718   0.765   3.286   5.781  0.7677 -0.2387  0.7012
 9029SOL     OW38719   1.890   3.869   6.065 -0.3428 -0.0250  0.0848
 9029SOL    HW138720   1.965   3.822   6.101  0.2605  1.5522  0.9277
 9029SOL    HW238721   1.887   3.833   5.977  0.1504  0.3709 -0.0979
 9030SOL     OW38722   2.533   2.597   5.327  0.5301  0.2477  0.3358
 9030SOL    HW138723   2.574   2.604   5.241  1.1166  1.9198  0.7481
 9030SOL    HW238724   2.584   2.529   5.371 -0.8867  1.1660  3.3998
 9031SOL     OW38725   3.274   1.872   4.701  0.2039  0.5892  0.1055
 9031SOL    HW138726   3.232   1.880   4.787 -0.3519  0.9721 -0.2045
 9031SOL    HW238727   3.250   1.781   4.683 -1.8577  1.1342  0.0686
 9032SOL     OW38728   2.104   2.024   8.336 -0.2936 -0.1499  0.2387
 9032SOL    HW138729   2.133   2.103   8.291  0.5061 -0.0646  0.9243
 9032SOL    HW238730   2.132   1.961   8.269  0.6197  2.2079 -1.5916
 9033SOL     OW38731   4.461   4.133  11.889  0.2949  0.0772  0.3914
 9033SOL    HW138732   4.556   4.135  11.892  0.3168  0.0552 -0.4865
 9033SOL    HW238733   4.452   4.052  11.839 -1.8032  1.7265 -1.9275
 9034SOL     OW38734   1.139   2.664   3.577 -0.0966 -0.1462  0.0249
 9034SOL    HW138735   1.056   2.626   3.548  0.0836  0.0330 -0.7299
 9034SOL    HW238736   1.182   2.684   3.493 -2.7905  0.6288 -1.1791
 9035SOL     OW38737   0.137   1.128  17.702  0.2581 -0.0930 -0.5289
 9035SOL    HW138738   0.217   1.106   0.021  0.2600 -1.1491 -1.0395
 9035SOL    HW238739   0.169   1.157  17.617 -0.6463  1.7348 -0.2547
 9036SOL     OW38740   3.147   2.478   7.642 -0.0494 -0.2802  0.1031
 9036SOL    HW138741   3.224   2.422   7.633  2.1375  3.0976 -2.1448
 9036SOL    HW238742   3.133   2.460   7.735  1.1647  0.9863  0.5302
 9037SOL     OW38743   2.212   2.958   8.883  0.3895  0.2208  0.0090
 9037SOL    HW138744   2.178   3.040   8.848 -0.2168  0.0889  0.2818
 9037SOL    HW238745   2.149   2.896   8.846  0.3896  0.4353 -0.3503
 9038SOL     OW38746   0.157   0.524   3.539 -0.1036 -0.2174 -0.2229
 9038SOL    HW138747   0.216   0.586   3.494 -0.2015 -0.4331 -0.6538
 9038SOL    HW238748   0.138   0.465   3.466  1.0967 -0.9698  0.0684
 9039SOL     OW38749   1.026   3.633  13.845  0.5035  0.0091 -0.1887
 9039SOL    HW138750   0.962   3.569  13.876  0.3938  0.5325  0.6663
 9039SOL    HW238751   1.063   3.598  13.764  0.6237 -2.1685  0.8162
 9040SOL     OW38752   4.500   3.568   5.771  0.2905 -0.0629  0.2803
 9040SOL    HW138753   4.586   3.537   5.800 -0.5102  0.5101  3.2857
 9040SOL    HW238754   4.479   3.483   5.733  0.1090 -0.1261  0.5257
 9041SOL     OW38755   2.927   0.755  11.718 -0.3946  0.0332 -0.0423
 9041SOL    HW138756   3.017   0.787  11.732 -0.9169 -0.2152  3.8251
 9041SOL    HW238757   2.941   0.688  11.651 -2.1878 -0.0835 -0.2841
 9042SOL     OW38758   3.400   3.553  16.182 -0.0601 -0.4529 -0.6125
 9042SOL    HW138759   3.459   3.555  16.257 -0.9302  1.8557  0.0100
 9042SOL    HW238760   3.412   3.641  16.145 -1.7763  0.5737  1.3184
 9043SOL     OW38761   1.150   2.465  10.428 -0.0547  0.3124  0.4335
 9043SOL    HW138762   1.138   2.422  10.513  0.1306 -0.3657  0.1219
 9043SOL    HW238763   1.211   2.531  10.458  1.1166  0.0158 -1.2534
 9044SOL     OW38764   4.119   2.237   5.410  0.1306  0.4061 -0.3613
 9044SOL    HW138765   4.184   2.294   5.453  0.8603 -0.5460 -0.2018
 9044SOL    HW238766   4.071   2.204   5.486  0.7532  0.5955  0.1194
 9045SOL     OW38767   0.697   4.030   5.556 -0.6436 -0.1229  0.8596
 9045SOL    HW138768   0.678   3.940   5.528 -3.4276  0.7259  0.0406
 9045SOL    HW238769   0.635   4.069   5.494 -1.2917 -0.0995  1.5259
 9046SOL     OW38770   3.341   4.499   6.053  0.4448  0.4655  0.7003
 9046SOL    HW138771   3.432   4.485   6.081  0.7219  0.5760 -0.1510
 9046SOL    HW238772   3.351   4.587   6.016 -0.5163 -0.1771 -1.0846
 9047SOL     OW38773   2.834   0.763   9.872 -0.7920 -0.2040  0.4298
 9047SOL    HW138774   2.785   0.837   9.907 -1.8808 -1.6229  1.8917
 9047SOL    HW238775   2.815   0.701   9.943  0.2747  0.9546  1.7361
 9048SOL     OW38776   2.386   0.440   9.015 -0.2606  0.4938 -0.1837
 9048SOL    HW138777   2.351   0.422   9.102 -0.8351  0.6455 -0.3797
 9048SOL    HW238778   2.418   0.526   9.042 -1.0807  0.3141  1.3439
 9049SOL     OW38779   4.640   2.410   8.127  0.3084 -0.2398 -0.2076
 9049SOL    HW138780   4.721   2.358   8.127  2.5731  3.3072 -2.1030
 9049SOL    HW238781   4.586   2.379   8.200  0.8599 -2.4184 -0.7253
 9050SOL     OW38782   1.102   1.359  17.395  0.3209  0.1187 -0.0928
 9050SOL    HW138783   1.032   1.299  17.420 -1.0944  1.8456  0.1078
 9050SOL    HW238784   1.165   1.296  17.360 -2.1019 -1.9767 -0.6587
 9051SOL     OW38785   4.268   4.057   9.851  0.3146 -0.6414 -0.0352
 9051SOL    HW138786   4.279   4.081   9.943 -0.9287  2.1579 -0.6290
 9051SOL    HW238787   4.347   4.098   9.817  0.4200 -0.8002  0.0196
 9052SOL     OW38788   1.578   2.040  12.977 -0.1845 -0.2006  0.1975
 9052SOL    HW138789   1.658   2.033  12.924 -0.3115 -0.3897  0.0306
 9052SOL    HW238790   1.619   2.100  13.039 -0.6841  1.7439 -1.3288
 9053SOL     OW38791   3.762   4.524   7.711 -0.2533 -0.1328  0.3371
 9053SOL    HW138792   3.852   4.507   7.683 -0.2084  0.6556  0.0206
 9053SOL    HW238793   3.709   4.461   7.662  1.9476 -0.1849 -1.9734
 9054SOL     OW38794   2.195   0.759   1.709 -0.2998  0.3562  0.7714
 9054SOL    HW138795   2.105   0.728   1.724  0.0115 -1.9892 -2.1183
 9054SOL    HW238796   2.211   0.811   1.788 -0.6161  0.4453  0.7798
 9055SOL     OW38797   0.382   2.893   7.368  0.5798  0.7586  0.2745
 9055SOL    HW138798   0.293   2.925   7.360 -0.0870 -1.1435  0.0015
 9055SOL    HW238799   0.357   2.825   7.305  0.6089  0.3024  0.7562
 9056SOL     OW38800   3.669   0.753   4.012 -0.2664 -0.1114  0.1826
 9056SOL    HW138801   3.671   0.705   3.929 -1.0288 -0.0811  0.1478
 9056SOL    HW238802   3.576   0.750   4.036 -0.1256  1.6668  0.9281
 9057SOL     OW38803   0.303   1.257   0.593 -0.1362  0.3928 -0.4821
 9057SOL    HW138804   0.377   1.254   0.653 -0.4607 -0.9724 -0.1500
 9057SOL    HW238805   0.322   1.179   0.542 -0.1603  0.9146 -1.2831
 9058SOL     OW38806   1.958   1.410   7.041 -0.1503  0.8015 -0.0307
 9058SOL    HW138807   1.986   1.493   7.079  1.0409 -0.7221  2.4152
 9058SOL    HW238808   1.991   1.350   7.108 -2.1832 -0.5797 -0.2920
 9059SOL     OW38809   0.873   1.397  15.471  0.2902 -0.0736 -0.2659
 9059SOL    HW138810   0.855   1.490  15.455 -0.7410 -0.2007  0.1731
 9059SOL    HW238811   0.933   1.400  15.546  2.0784  2.9548 -1.7732
 9060SOL     OW38812   1.124   2.287   1.669  0.3472  0.1042  0.5445
 9060SOL    HW138813   1.171   2.204   1.662 -0.6650 -0.3815 -0.5008
 9060SOL    HW238814   1.052   2.270   1.729 -0.7450 -0.3114 -0.8807
 9061SOL     OW38815   1.350   3.080   9.127  0.2581 -0.2298  0.4761
 9061SOL    HW138816   1.305   2.996   9.136  1.3509 -1.3156 -4.1038
 9061SOL    HW238817   1.385   3.092   9.215 -0.7893 -1.2141  1.0368
 9062SOL     OW38818   4.219   0.439   9.085  0.2637  0.1189  0.3663
 9062SOL    HW138819   4.236   0.372   9.152 -1.6572 -1.8731 -1.1240
 9062SOL    HW238820   4.306   0.452   9.049  0.7453 -0.7589  1.2131
 9063SOL     OW38821   0.747   0.355   9.021  0.0459 -0.2618  0.5219
 9063SOL    HW138822   0.726   0.365   8.928  0.3709  0.7613  0.5534
 9063SOL    HW238823   0.825   0.410   9.025 -0.8715  0.9514  1.6682
 9064SOL     OW38824   0.856   1.611   8.909 -0.5626 -0.1320 -0.0161
 9064SOL    HW138825   0.825   1.536   8.858 -0.1173 -0.3120 -0.0234
 9064SOL    HW238826   0.778   1.636   8.959 -0.6694  1.8177 -1.1713
 9065SOL     OW38827   1.664   4.599   2.568 -0.0966 -0.3166  0.3093
 9065SOL    HW138828   1.709   4.683   2.569 -1.4361  0.3873  1.6609
 9065SOL    HW238829   1.708   4.550   2.498 -2.3653 -1.2754 -0.4386
 9066SOL     OW38830   2.158   3.700   3.181  0.1606 -0.1586 -0.1576
 9066SOL    HW138831   2.134   3.657   3.264 -0.5361  0.4521 -0.0360
 9066SOL    HW238832   2.162   3.783   3.228 -0.1381  0.8652 -1.9682
 9067SOL     OW38833   2.935   0.627   3.645 -0.0654 -0.0070  0.0749
 9067SOL    HW138834   2.912   0.610   3.737 -0.1062  2.1793  0.4871
 9067SOL    HW238835   2.864   0.685   3.615  0.6340  0.8282  0.0382
 9068SOL     OW38836   4.682   3.136   1.948 -0.2731 -0.3271  0.0678
 9068SOL    HW138837   0.016   3.186   1.900  0.6132 -0.6367  0.9504
 9068SOL    HW238838   4.725   3.148   2.033 -1.3372 -0.8562  0.6729
 9069SOL     OW38839   3.001   3.766   2.632 -0.7474  0.4421  0.1597
 9069SOL    HW138840   3.093   3.754   2.609 -1.0892  0.8351 -1.4463
 9069SOL    HW238841   3.009   3.852   2.672 -1.4458  0.2875  0.6306
 9070SOL     OW38842   0.460   4.105  13.363 -0.4783 -0.3273  0.0070
 9070SOL    HW138843   0.456   4.097  13.458 -1.4235  2.2890  0.1999
 9070SOL    HW238844   0.370   4.135  13.347 -0.0727 -0.1220 -1.9083
 9071SOL     OW38845   0.958   2.274   2.532  0.5881  0.3683 -0.2799
 9071SOL    HW138846   1.019   2.295   2.461  0.4246 -2.4296 -1.2612
 9071SOL    HW238847   0.884   2.239   2.482  0.7305  1.4198 -1.2344
 9072SOL     OW38848   0.317   4.260   2.970 -0.2663  0.3983  0.2511
 9072SOL    HW138849   0.231   4.222   2.986  0.7396 -1.3942  1.4442
 9072SOL    HW238850   0.373   4.187   2.995  0.2024 -0.2279 -2.6629
 9073SOL     OW38851   1.661   3.417   2.882 -0.2609  0.1588  0.8821
 9073SOL    HW138852   1.753   3.409   2.858 -0.3676 -0.3245  0.6411
 9073SOL    HW238853   1.654   3.509   2.858  3.0112 -0.2299 -1.3966
 9074SOL     OW38854   0.933   1.046   8.385 -0.4346 -0.4860  0.1547
 9074SOL    HW138855   0.872   1.119   8.383  1.5041  1.2060  2.7620
 9074SOL    HW238856   0.884   0.979   8.337  0.0937  0.4293 -1.6572
 9075SOL     OW38857   3.397   3.860   1.051  0.0341  0.3290 -0.1893
 9075SOL    HW138858   3.376   3.826   1.138  1.7422 -0.7497 -0.1917
 9075SOL    HW238859   3.365   3.787   0.999  2.7156  0.0057 -1.4097
 9076SOL     OW38860   4.248   0.198   2.427  0.0487 -0.7376 -0.0374
 9076SOL    HW138861   4.286   0.239   2.504 -1.5761  0.2394  0.2412
 9076SOL    HW238862   4.160   0.227   2.448  0.5035 -0.2867  1.2228
 9077SOL     OW38863   0.348   3.570  11.665 -0.7138 -0.7861 -0.0306
 9077SOL    HW138864   0.427   3.522  11.693 -0.6683 -1.3145 -1.0860
 9077SOL    HW238865   0.270   3.528  11.701 -0.2629 -0.8300  0.8971
 9078SOL     OW38866   2.037   1.251  14.087 -0.4220  0.4040  0.4421
 9078SOL    HW138867   2.001   1.163  14.087  0.3216  0.0989 -0.5756
 9078SOL    HW238868   2.123   1.242  14.128  0.1535  1.0040 -0.6553
 9079SOL     OW38869   2.382   4.020  13.187 -0.1915  0.3689  0.0098
 9079SOL    HW138870   2.412   3.984  13.271 -0.7888 -0.1214  0.0080
 9079SOL    HW238871   2.289   4.036  13.201 -0.8434 -2.3705 -1.3030
 9080SOL     OW38872   0.114   4.103  14.957 -0.7279 -0.1342 -0.4245
 9080SOL    HW138873   0.029   4.144  14.975  0.0238  1.9465 -1.6133
 9080SOL    HW238874   0.083   4.013  14.949  0.4992 -0.5240 -0.7489
 9081SOL     OW38875   0.373   3.956   7.348 -0.4118 -0.0787  0.6126
 9081SOL    HW138876   0.311   4.019   7.312 -0.5429  0.2146  1.3484
 9081SOL    HW238877   0.436   3.953   7.277  0.5339  1.3004  1.3937
 9082SOL     OW38878   1.976   0.828   0.641 -0.1131 -0.3013 -0.0282
 9082SOL    HW138879   2.058   0.875   0.632 -2.0782  3.3588  1.4655
 9082SOL    HW238880   1.931   0.875   0.711 -0.6072 -0.2767 -0.3560
 9083SOL     OW38881   4.491   2.697   5.275 -0.2998 -0.0269  0.0845
 9083SOL    HW138882   4.572   2.658   5.243 -0.4430 -0.3185  0.0801
 9083SOL    HW238883   4.525   2.756   5.343  2.9897 -0.4018 -1.1992
 9084SOL     OW38884   1.336   0.062   8.137  0.2768 -0.2913  0.2445
 9084SOL    HW138885   1.302   4.709   8.110  1.9717 -1.0343  0.4373
 9084SOL    HW238886   1.282   0.086   8.213 -1.0209 -3.2119  0.2683
 9085SOL     OW38887   4.148   2.287   9.240  0.0113 -0.0983 -0.1905
 9085SOL    HW138888   4.218   2.324   9.294 -1.8984 -0.1805  2.3065
 9085SOL    HW238889   4.190   2.307   9.156  2.4794  0.1883  1.1026
 9086SOL     OW38890   2.240   4.209   8.139 -0.0283 -0.1493  0.4637
 9086SOL    HW138891   2.272   4.230   8.051  3.4675 -1.4341  1.4216
 9086SOL    HW238892   2.185   4.287   8.152 -0.7079 -0.4752 -0.3904
 9087SOL     OW38893   4.298   3.663   0.801 -0.4271 -0.2007  0.0261
 9087SOL    HW138894   4.254   3.669   0.886 -0.1670  0.5551  0.1094
 9087SOL    HW238895   4.229   3.669   0.735  0.1511  1.5939 -0.4089
 9088SOL     OW38896   0.212   4.461   2.275 -0.0006 -0.1654  0.2075
 9088SOL    HW138897   0.220   4.378   2.323 -2.4452 -0.8033 -0.4761
 9088SOL    HW238898   0.117   4.464   2.259  0.1802 -2.3379 -1.3241
 9089SOL     OW38899   4.158   2.618   6.510  0.0841  0.7836 -0.1065
 9089SOL    HW138900   4.135   2.527   6.529 -1.5760  1.4346  1.0096
 9089SOL    HW238901   4.147   2.623   6.415 -1.4661  1.2767  0.1033
 9090SOL     OW38902   3.532   1.846   5.566 -0.1780  0.0743  0.2450
 9090SOL    HW138903   3.495   1.913   5.509 -0.1564  0.5005  0.7338
 9090SOL    HW238904   3.492   1.767   5.532  0.1390 -0.0514  0.1627
 9091SOL     OW38905   1.596   3.753   7.075  0.2462  0.1715 -0.0310
 9091SOL    HW138906   1.667   3.708   7.121 -0.8682 -1.0130  0.5257
 9091SOL    HW238907   1.545   3.690   7.024  0.5730 -0.7948  0.8326
 9092SOL     OW38908   3.030   3.008  11.363  0.0557  0.8102  0.8410
 9092SOL    HW138909   2.973   3.083  11.348 -2.0046 -0.6518  1.4015
 9092SOL    HW238910   3.076   3.018  11.280  0.6415 -3.7972  0.5613
 9093SOL     OW38911   3.483   3.215  12.143  0.3467 -0.0371  0.0153
 9093SOL    HW138912   3.442   3.231  12.058 -2.0168 -1.0268  0.9851
 9093SOL    HW238913   3.407   3.224  12.200  0.1886 -1.1542 -0.0266
 9094SOL     OW38914   3.188   3.148  13.776 -0.1550 -0.2086  0.1831
 9094SOL    HW138915   3.188   3.136  13.871 -2.0787 -0.8307  0.1046
 9094SOL    HW238916   3.228   3.067  13.746  1.6417  0.5388  0.5293
 9095SOL     OW38917   4.682   4.493  12.595 -0.0323 -0.7746 -0.5217
 9095SOL    HW138918   4.686   4.561  12.663 -1.6551  1.3211 -2.5423
 9095SOL    HW238919   4.652   4.417  12.646 -1.2473  0.8761  1.2191
 9096SOL     OW38920   3.220   0.627   8.226 -0.0292 -0.0929 -0.1324
 9096SOL    HW138921   3.314   0.637   8.212 -0.1718  0.8325 -0.3756
 9096SOL    HW238922   3.193   0.708   8.268 -0.1930 -0.0622 -0.2930
 9097SOL     OW38923   3.704   0.886   4.402  0.1311  0.1653  0.0716
 9097SOL    HW138924   3.674   0.914   4.315 -2.7962  2.2682  1.7306
 9097SOL    HW238925   3.738   0.801   4.376 -0.6649 -0.1517  0.0687
 9098SOL     OW38926   4.542   3.828  17.001  0.1081  0.3371 -0.1003
 9098SOL    HW138927   4.525   3.922  16.992 -0.4646  0.3876  1.4355
 9098SOL    HW238928   4.557   3.815  17.095  2.7184  1.0121 -0.4146
 9099SOL     OW38929   0.408   1.117   8.055  0.2328 -0.2080  0.4132
 9099SOL    HW138930   0.398   1.172   7.977  0.1405 -2.0302 -0.8530
 9099SOL    HW238931   0.432   1.035   8.012  1.7010  0.5019 -0.1280
 9100SOL     OW38932   1.651   1.005   8.354 -0.0377 -0.0386 -0.0009
 9100SOL    HW138933   1.646   0.909   8.358  0.3083 -0.0475  0.2110
 9100SOL    HW238934   1.569   1.019   8.400 -0.5695  1.6632 -1.4814
 9101SOL     OW38935   3.859   2.259   6.277  0.2768 -0.1850 -0.4988
 9101SOL    HW138936   3.879   2.252   6.184  0.3977 -2.1269 -0.3410
 9101SOL    HW238937   3.855   2.354   6.284  0.2076 -0.1735 -0.6903
 9102SOL     OW38938   4.062   1.442   3.515  0.3130 -0.3031 -0.1637
 9102SOL    HW138939   3.967   1.428   3.513  0.4086 -1.2627  1.4507
 9102SOL    HW238940   4.059   1.529   3.555 -1.1992 -0.5490  0.2509
 9103SOL     OW38941   2.187   2.693   5.746 -0.0399 -0.1247  0.1815
 9103SOL    HW138942   2.269   2.694   5.796  1.2443  0.9738 -1.9441
 9103SOL    HW238943   2.228   2.651   5.670  1.2441  1.0102  0.2588
 9104SOL     OW38944   4.173   1.918   1.201  0.1514 -0.2593 -0.6357
 9104SOL    HW138945   4.205   1.839   1.159 -2.1053 -1.8533  0.6150
 9104SOL    HW238946   4.154   1.871   1.283  0.7848 -0.5648 -0.6647
 9105SOL     OW38947   2.366   0.492   3.975 -0.5631  0.0217 -0.0996
 9105SOL    HW138948   2.396   0.526   3.890 -3.9756 -3.8241 -2.8346
 9105SOL    HW238949   2.374   0.397   3.965 -1.8352 -0.1130  0.2259
 9106SOL     OW38950   3.539   1.429   7.643 -0.1472  0.4325  0.4880
 9106SOL    HW138951   3.516   1.469   7.727  1.4341  2.1071  0.1370
 9106SOL    HW238952   3.630   1.414   7.669  0.6321 -0.0200 -2.5099
 9107SOL     OW38953   1.584   0.281   6.698  0.0179 -0.3976  0.5949
 9107SOL    HW138954   1.648   0.340   6.739 -0.0800  0.4842 -0.5058
 9107SOL    HW238955   1.507   0.323   6.735 -1.3792  1.3782 -4.2711
 9108SOL     OW38956   0.401   3.690   5.710 -0.0054 -0.2572 -0.1843
 9108SOL    HW138957   0.415   3.657   5.621 -0.1375  0.0205 -0.3087
 9108SOL    HW238958   0.411   3.783   5.692 -0.8496  0.1450  1.4533
 9109SOL     OW38959   2.520   2.372   4.190  0.4033  0.2306  0.2753
 9109SOL    HW138960   2.475   2.393   4.271 -0.9520 -0.5959 -0.2743
 9109SOL    HW238961   2.605   2.416   4.202  0.2306  0.8744 -0.8245
 9110SOL     OW38962   1.860   4.291  15.612 -0.9428 -0.3096 -0.0254
 9110SOL    HW138963   1.834   4.330  15.529  0.1262 -0.1278 -0.2716
 9110SOL    HW238964   1.905   4.214  15.578 -1.5956 -1.0251  0.7095
 9111SOL     OW38965   0.357   3.603   3.783  0.1435  0.3285 -0.4668
 9111SOL    HW138966   0.392   3.623   3.870  0.9213 -0.7475 -0.5390
 9111SOL    HW238967   0.423   3.542   3.751 -0.9630 -1.5609  0.8848
 9112SOL     OW38968   2.377   2.202  12.245 -0.1806  0.4795 -0.5501
 9112SOL    HW138969   2.407   2.282  12.288  2.0041  0.7058 -2.5005
 9112SOL    HW238970   2.283   2.200  12.259 -0.2598  0.0687 -1.1216
 9113SOL     OW38971   3.888   0.019   5.447 -0.2651  0.6053 -0.3131
 9113SOL    HW138972   3.958   0.036   5.383  0.6206  2.1121  1.0663
 9113SOL    HW238973   3.934   0.054   5.523 -0.6548 -0.3760  0.3746
 9114SOL     OW38974   4.459   0.008   0.218 -0.1502  0.3427 -0.8108
 9114SOL    HW138975   4.479   4.707   0.306  1.6681  0.0511 -1.3429
 9114SOL    HW238976   4.386   4.689   0.184 -0.9768  1.9353 -1.4516
 9115SOL     OW38977   0.195   3.740   7.958  0.3728  0.2513  0.4549
 9115SOL    HW138978   0.134   3.693   8.015  2.0177  0.1330  2.0927
 9115SOL    HW238979   0.141   3.798   7.904 -0.6055 -0.2930  0.8391
 9116SOL     OW38980   0.049   2.152   5.805 -0.1011 -0.2992 -1.1421
 9116SOL    HW138981   0.016   2.175   5.892 -0.5947  2.0434 -1.9656
 9116SOL    HW238982   4.729   2.076   5.781  1.2153 -0.7005 -2.7100
 9117SOL     OW38983   1.196   3.757  15.521  0.4400  0.0642  0.1846
 9117SOL    HW138984   1.268   3.793  15.573  1.0579 -2.0997  0.8170
 9117SOL    HW238985   1.233   3.749  15.433 -0.3671 -0.9218 -0.0749
 9118SOL     OW38986   0.287   3.269   2.796 -0.4244  0.0991 -0.2329
 9118SOL    HW138987   0.206   3.221   2.780  0.0950 -1.1736  1.0258
 9118SOL    HW238988   0.320   3.289   2.708  0.8183 -0.6336  0.0689
 9119SOL     OW38989   4.442   0.759   2.184  0.1844  0.2602 -0.3919
 9119SOL    HW138990   4.453   0.751   2.090  0.8717  2.5985 -0.5112
 9119SOL    HW238991   4.499   0.836   2.190 -2.0794  1.8943  0.3521
 9120SOL     OW38992   3.174   4.697   1.520 -0.3174 -0.0423 -0.3975
 9120SOL    HW138993   3.191   0.057   1.503  1.6460 -0.3550 -0.1999
 9120SOL    HW238994   3.263   4.665   1.541  0.2047  1.8910  0.3001
 9121SOL     OW38995   1.149   2.180  16.299  0.2933  0.4123 -0.6822
 9121SOL    HW138996   1.210   2.111  16.274 -3.2391 -2.3681 -1.6228
 9121SOL    HW238997   1.184   2.255  16.251  0.8296  0.3754 -0.3428
 9122SOL     OW38998   4.634   4.719  12.436  0.0274 -0.2140  0.0895
 9122SOL    HW138999   4.655   4.626  12.432  1.3142  0.0988 -0.3803
 9122SOL    HW239000   4.722   0.019  12.457  0.0533  0.0998 -0.4934
 9123SOL     OW39001   2.474   3.396   3.727 -0.7985 -0.5765 -0.8272
 9123SOL    HW139002   2.522   3.383   3.645  0.9833  3.6360 -0.4492
 9123SOL    HW239003   2.530   3.352   3.790 -2.7813  1.0291  2.0252
 9124SOL     OW39004   2.201   3.798  13.404  0.0530 -0.0653 -0.4315
 9124SOL    HW139005   2.130   3.738  13.379  1.0093 -1.2732 -0.2282
 9124SOL    HW239006   2.160   3.882  13.384 -0.5999 -0.7182 -1.8521
 9125SOL     OW39007   2.068   3.036   3.744 -0.3142 -0.3995  0.4472
 9125SOL    HW139008   2.131   2.970   3.716 -2.4028 -2.2336  0.0216
 9125SOL    HW239009   1.983   2.996   3.725 -0.2369  0.3441 -1.3732
 9126SOL     OW39010   1.561   1.716   8.752 -0.0502  0.3604  0.0887
 9126SOL    HW139011   1.531   1.645   8.810  0.8368 -0.1080 -0.0299
 9126SOL    HW239012   1.484   1.727   8.695  0.4952  0.7677 -0.5639
 9127SOL     OW39013   1.937   1.659   7.796  0.6158  0.2113 -0.4033
 9127SOL    HW139014   1.964   1.573   7.764 -0.5847  0.3647 -1.8373
 9127SOL    HW239015   1.907   1.640   7.885  0.0762 -0.9265 -0.8139
 9128SOL     OW39016   4.405   0.957   0.397  0.6360 -0.1849  0.5046
 9128SOL    HW139017   4.473   1.022   0.382 -1.5586  1.9335 -0.2698
 9128SOL    HW239018   4.432   0.879   0.349 -0.5670  0.5679 -1.3653
 9129SOL     OW39019   2.466   2.973   5.120  0.2648 -0.0106  0.1277
 9129SOL    HW139020   2.371   2.978   5.132  0.2361  0.7468 -0.4191
 9129SOL    HW239021   2.493   3.044   5.178  1.2940  1.0777 -1.6937
 9130SOL     OW39022   2.813   0.047   6.662  0.5796 -0.1833  0.3924
 9130SOL    HW139023   2.819   0.131   6.708 -0.0424 -0.5096  1.0732
 9130SOL    HW239024   2.881   0.002   6.714  0.5134  0.1629  0.7790
 9131SOL     OW39025   3.698   1.926   4.590 -0.2665 -0.4945 -0.5329
 9131SOL    HW139026   3.696   1.906   4.496 -3.7215 -1.9867 -0.1423
 9131SOL    HW239027   3.723   2.018   4.585 -1.6550 -0.0959 -0.0769
 9132SOL     OW39028   0.683   4.182   3.438 -0.1028  0.6365  0.0683
 9132SOL    HW139029   0.684   4.119   3.510 -0.1560  0.0260 -0.4601
 9132SOL    HW239030   0.767   4.167   3.395  0.9904 -0.8284  2.7224
 9133SOL     OW39031   0.586   2.644   1.833  0.3601 -0.0675  0.0343
 9133SOL    HW139032   0.666   2.693   1.815  0.0829  0.7092  0.9109
 9133SOL    HW239033   0.525   2.693   1.777  0.6273  1.5317  1.1453
 9134SOL     OW39034   4.185   0.040   6.201  0.3236  0.0965  0.0771
 9134SOL    HW139035   4.252   0.038   6.270 -2.8613 -1.8866  3.0813
 9134SOL    HW239036   4.161   4.680   6.197  0.7883 -0.0681  0.9989
 9135SOL     OW39037   4.046   3.896  12.917  0.0600  0.3523  0.2968
 9135SOL    HW139038   4.035   3.989  12.899 -1.4771  0.4931  1.9997
 9135SOL    HW239039   3.958   3.869  12.941  0.2055  1.2433  1.8139
 9136SOL     OW39040   1.482   1.660  17.529 -0.5730  0.2502  0.1355
 9136SOL    HW139041   1.571   1.691  17.515 -0.8870  1.4285  0.7238
 9136SOL    HW239042   1.499   1.576  17.572 -0.0308  0.3253  0.0631
 9137SOL     OW39043   2.987   0.586  11.464 -0.1399 -0.1330  0.3437
 9137SOL    HW139044   2.938   0.504  11.458  2.0037 -1.5125  1.5370
 9137SOL    HW239045   3.009   0.618  11.377  0.6610 -2.0343 -0.1403
 9138SOL     OW39046   3.925   4.707   8.377  0.1447 -0.2662 -0.0663
 9138SOL    HW139047   3.999   4.650   8.357 -0.8508 -2.0432  1.3496
 9138SOL    HW239048   3.934   0.046   8.312  0.9221  0.5453  0.9281
 9139SOL     OW39049   3.719   0.058  13.351  0.0934 -0.3470  0.2744
 9139SOL    HW139050   3.789   0.040  13.414  0.3931  0.3156  0.1303
 9139SOL    HW239051   3.762   0.137  13.319 -2.2641 -0.2477 -2.5946
 9140SOL     OW39052   1.734   3.427  16.722  0.2401 -0.3480  0.2487
 9140SOL    HW139053   1.694   3.500  16.676 -3.0648 -0.8324  2.3101
 9140SOL    HW239054   1.733   3.358  16.656  0.9935  1.0768 -1.2284
 9141SOL     OW39055   2.160   4.197  14.027 -0.5103  0.2378  0.1014
 9141SOL    HW139056   2.186   4.250  13.951 -0.9315 -0.0949 -0.2783
 9141SOL    HW239057   2.081   4.236  14.064 -0.6499 -1.8851  2.0260
 9142SOL     OW39058   3.329   4.722   4.978 -0.4092 -0.3983 -0.0197
 9142SOL    HW139059   3.356   0.008   4.888  0.5641 -1.1803  0.1233
 9142SOL    HW239060   3.363   4.639   5.011 -0.3241 -0.5941 -0.5977
 9143SOL     OW39061   1.502   0.972   7.774  0.0799 -0.3195 -0.4694
 9143SOL    HW139062   1.487   0.979   7.868 -1.0493  1.0997 -0.7487
 9143SOL    HW239063   1.493   0.877   7.766  2.6332 -0.4789 -1.6590
 9144SOL     OW39064   3.967   3.506   9.135  0.5122 -0.1876  0.7765
 9144SOL    HW139065   4.059   3.497   9.160  0.6683 -2.0266 -0.4394
 9144SOL    HW239066   3.925   3.562   9.200 -0.0875  0.7178 -0.3724
 9145SOL     OW39067   4.483   1.317   9.182 -0.3170 -0.4793  0.2874
 9145SOL    HW139068   4.533   1.335   9.103 -1.2615  3.3943  0.5680
 9145SOL    HW239069   4.428   1.394   9.170  1.3792  0.3750 -1.9318
 9146SOL     OW39070   2.564   1.130   7.148 -0.4043  0.2838  0.1910
 9146SOL    HW139071   2.508   1.171   7.213 -0.0005  0.1423  0.6306
 9146SOL    HW239072   2.571   1.192   7.076  1.5567 -1.6069 -1.2807
 9147SOL     OW39073   1.630   1.671   4.677 -0.4536  0.0210  0.4722
 9147SOL    HW139074   1.550   1.633   4.641 -0.6013  2.3290 -1.5959
 9147SOL    HW239075   1.581   1.743   4.716 -0.5484 -0.4183  1.1648
 9148SOL     OW39076   1.659   0.800   3.198  0.0335  0.5759 -0.2428
 9148SOL    HW139077   1.585   0.859   3.179 -0.6554 -1.0004 -2.4757
 9148SOL    HW239078   1.726   0.854   3.155  0.2629 -1.0998 -1.9907
 9149SOL     OW39079   1.213   3.942  10.081  0.3394  0.1296 -0.0671
 9149SOL    HW139080   1.225   4.001  10.007 -1.9799 -1.2082 -1.5185
 9149SOL    HW239081   1.153   3.880  10.038  0.7284 -1.7635  2.1106
 9150SOL     OW39082   2.325   2.827   4.108 -0.3620  0.1090 -0.3839
 9150SOL    HW139083   2.372   2.769   4.049 -1.5106 -0.9476 -0.2542
 9150SOL    HW239084   2.317   2.910   4.060 -1.1140  1.1158  1.4579
 9151SOL     OW39085   1.946   3.620   8.301 -0.4271  0.6328 -0.2332
 9151SOL    HW139086   1.896   3.637   8.222 -0.0051 -0.1195 -0.6616
 9151SOL    HW239087   1.869   3.616   8.357  1.2782 -1.8603  1.9684
 9152SOL     OW39088   4.604   2.623   5.595 -0.5415 -0.4204 -0.2968
 9152SOL    HW139089   4.606   2.698   5.535 -1.6056 -1.2958 -1.4196
 9152SOL    HW239090   4.695   2.602   5.576  0.2831  1.6290  1.3192
 9153SOL     OW39091   3.569   4.337   2.141  0.1386  0.0212  0.4041
 9153SOL    HW139092   3.511   4.261   2.150  0.8852 -0.8450 -2.1785
 9153SOL    HW239093   3.544   4.373   2.226  1.0906  0.3549  0.5331
 9154SOL     OW39094   3.670   0.658  17.461 -0.6296 -0.2620  0.2816
 9154SOL    HW139095   3.724   0.683  17.536  1.0839 -0.9165 -0.7290
 9154SOL    HW239096   3.645   0.740  17.418  0.6504  0.1568  0.3334
 9155SOL     OW39097   1.856   1.351  15.375 -0.0406  0.1295 -0.3111
 9155SOL    HW139098   1.838   1.270  15.328 -2.0329  0.3039  0.1565
 9155SOL    HW239099   1.949   1.369  15.360  0.0786  0.4024  0.7623
 9156SOL     OW39100   2.844   2.877   9.296 -0.0492 -0.0296 -0.1300
 9156SOL    HW139101   2.848   2.955   9.351 -0.9505  2.3123 -3.3385
 9156SOL    HW239102   2.767   2.880   9.240 -0.2652 -0.9703  0.1270
 9157SOL     OW39103   0.341   1.367   6.969 -0.1039 -0.2288 -0.1923
 9157SOL    HW139104   0.373   1.277   6.960  0.7654 -0.0059  0.7080
 9157SOL    HW239105   0.300   1.382   6.883  0.7955  0.8013 -0.4411
 9158SOL     OW39106   2.642   3.536   8.700 -0.3494 -0.2733 -0.6194
 9158SOL    HW139107   2.640   3.609   8.639 -0.4911 -0.1886 -0.5142
 9158SOL    HW239108   2.549   3.519   8.713 -0.1705 -2.1005 -1.8473
 9159SOL     OW39109   2.735   3.673  11.249 -0.3882 -0.2110 -0.0465
 9159SOL    HW139110   2.672   3.671  11.321  2.2613 -4.1820  2.1777
 9159SOL    HW239111   2.763   3.764  11.253  2.3375 -1.0769  0.8160
 9160SOL     OW39112   0.989   3.280   4.756 -0.1160  0.0867  0.2715
 9160SOL    HW139113   0.938   3.266   4.836 -1.2585  1.0217 -0.2962
 9160SOL    HW239114   1.054   3.340   4.794  0.2677 -0.3344  0.2799
 9161SOL     OW39115   3.520   1.020   5.553 -0.4545 -0.2900 -0.7063
 9161SOL    HW139116   3.606   1.051   5.526 -0.1474 -0.5673 -0.0343
 9161SOL    HW239117   3.539   0.936   5.596 -0.8461 -0.3832 -0.7108
 9162SOL     OW39118   3.366   4.675   4.194 -0.5244  0.0759  0.5943
 9162SOL    HW139119   3.325   4.627   4.266  0.8138 -0.9232  0.6843
 9162SOL    HW239120   3.370   0.025   4.243  2.6403 -0.1896  0.7699
 9163SOL     OW39121   0.436   2.677   5.857  0.6145 -0.3651  0.5497
 9163SOL    HW139122   0.496   2.699   5.785 -0.1155  0.9371  0.3534
 9163SOL    HW239123   0.361   2.629   5.823  1.3062 -1.2705  0.2791
 9164SOL     OW39124   1.965   1.510  16.958 -0.3070 -0.2399  0.0099
 9164SOL    HW139125   2.038   1.480  17.012  0.9545 -0.7193 -1.9633
 9164SOL    HW239126   1.900   1.456  17.004 -0.3101 -0.4995 -0.2989
 9165SOL     OW39127   1.313   1.504   9.203  0.2201  0.1792 -0.5107
 9165SOL    HW139128   1.322   1.543   9.290  2.2241  2.0283 -1.5635
 9165SOL    HW239129   1.227   1.463   9.212  0.1888  1.0301  3.0654
 9166SOL     OW39130   1.471   1.383   0.566  0.1047 -0.3769  0.3705
 9166SOL    HW139131   1.496   1.444   0.497  0.8826  0.0122  1.0013
 9166SOL    HW239132   1.376   1.393   0.568  0.3557  1.5729  1.3606
 9167SOL     OW39133   4.161   0.046  14.534  0.6660 -0.3926 -0.3045
 9167SOL    HW139134   4.156   0.102  14.612  4.3364 -0.4513 -0.0119
 9167SOL    HW239135   4.110   0.100  14.474 -0.6940 -2.0456 -0.6174
 9168SOL     OW39136   2.862   3.094   6.531 -0.0833 -0.1274 -0.4161
 9168SOL    HW139137   2.849   3.162   6.465  0.4544 -1.4220 -1.8696
 9168SOL    HW239138   2.901   3.016   6.492  2.2357  0.6312  0.3891
 9169SOL     OW39139   0.782   1.629   2.474 -0.2030  0.2615  0.3278
 9169SOL    HW139140   0.865   1.606   2.433 -0.7627  1.0522 -1.2389
 9169SOL    HW239141   0.781   1.550   2.529 -0.6899 -0.6115 -0.9376
 9170SOL     OW39142   2.008   0.990   4.810  0.4507 -0.1038 -0.5826
 9170SOL    HW139143   2.059   0.993   4.729  2.0014  1.1551  0.4409
 9170SOL    HW239144   2.074   0.961   4.872 -0.3090 -0.8988 -0.1422
 9171SOL     OW39145   4.517   3.078   5.182 -0.0654 -0.1862  0.3356
 9171SOL    HW139146   4.449   3.011   5.194  1.4658 -1.6973  0.6657
 9171SOL    HW239147   4.558   3.078   5.269 -0.2952 -0.6147  0.4445
 9172SOL     OW39148   0.505   2.879  11.096 -0.1222  0.2257 -0.1649
 9172SOL    HW139149   0.459   2.936  11.158  0.9604 -0.2777  1.0778
 9172SOL    HW239150   0.471   2.794  11.122  0.2272  0.4867  1.1348
 9173SOL     OW39151   0.868   0.901   4.969 -0.3065 -0.0656 -0.1190
 9173SOL    HW139152   0.848   0.871   5.058  2.7778  0.9061  0.9112
 9173SOL    HW239153   0.809   0.976   4.976  0.7852  0.9294 -1.5238
 9174SOL     OW39154   2.109   1.742   2.746 -0.0720 -0.5527  0.1681
 9174SOL    HW139155   2.041   1.807   2.734  0.7870 -0.1369 -2.6482
 9174SOL    HW239156   2.077   1.669   2.692  0.6322 -2.6518  2.5706
 9175SOL     OW39157   3.945   4.331   3.769 -0.0402  0.3748  0.1240
 9175SOL    HW139158   3.898   4.393   3.714  1.2970  0.5806 -0.7801
 9175SOL    HW239159   3.909   4.356   3.854 -0.6029 -0.5414  0.1521
 9176SOL     OW39160   1.299   4.635   4.834 -0.3743  0.2762  0.1867
 9176SOL    HW139161   1.363   4.692   4.791 -0.8587  0.4570 -0.2852
 9176SOL    HW239162   1.316   4.665   4.923 -0.2802  0.3887  0.1312
 9177SOL     OW39163   1.340   1.519   1.076 -0.3007  0.7270  0.5689
 9177SOL    HW139164   1.248   1.523   1.048  0.0116 -2.7254 -0.9081
 9177SOL    HW239165   1.381   1.516   0.990 -4.0561 -1.0728 -1.1682
 9178SOL     OW39166   4.078   3.628   9.614  0.1879  0.2541  0.2233
 9178SOL    HW139167   4.097   3.719   9.638 -0.0878  0.6227 -0.9445
 9178SOL    HW239168   4.143   3.618   9.544  0.1920  0.0566  0.2545
 9179SOL     OW39169   4.063   0.550   1.753  0.2218  0.4836 -0.2455
 9179SOL    HW139170   4.110   0.470   1.776  0.7850  0.1894 -2.4496
 9179SOL    HW239171   4.079   0.567   1.660  0.0341  0.0918 -0.3511
 9180SOL     OW39172   4.120   0.345   8.204  0.0277  0.2727  0.2233
 9180SOL    HW139173   4.092   0.384   8.122  0.9947  1.5357  0.4927
 9180SOL    HW239174   4.111   0.253   8.180  0.4695  0.5967 -1.1497
 9181SOL     OW39175   0.333   3.911  16.074  0.1132 -0.2096  0.0269
 9181SOL    HW139176   0.339   3.815  16.081  0.3139 -0.2702 -0.9919
 9181SOL    HW239177   0.251   3.917  16.123 -1.1803  0.1683 -2.1995
 9182SOL     OW39178   0.190   0.302  13.113  0.3552  0.0290 -0.6818
 9182SOL    HW139179   0.247   0.292  13.037  2.3434  1.1185  0.6698
 9182SOL    HW239180   0.231   0.381  13.148 -0.5442  0.9808 -1.7506
 9183SOL     OW39181   0.962   0.707   2.498  0.1034 -0.0695 -0.0892
 9183SOL    HW139182   0.968   0.722   2.592 -1.7625 -0.2788  0.0653
 9183SOL    HW239183   1.027   0.637   2.490  0.2981  0.0206  0.7247
 9184SOL     OW39184   0.746   2.862  10.149  0.6931 -0.0387 -0.2567
 9184SOL    HW139185   0.710   2.873  10.237  1.3327 -1.0188  0.1255
 9184SOL    HW239186   0.769   2.769  10.141  0.6151 -0.0770 -0.0295
 9185SOL     OW39187   0.415   2.127  14.585 -0.4767 -0.1640  0.1801
 9185SOL    HW139188   0.509   2.146  14.586 -0.4671 -0.0694 -2.1000
 9185SOL    HW239189   0.388   2.161  14.500 -0.8829  1.8650  1.1166
 9186SOL     OW39190   0.262   4.634   2.824 -0.1731  0.0210 -0.3775
 9186SOL    HW139191   0.287   4.608   2.736 -0.9079 -1.0878 -0.2422
 9186SOL    HW239192   0.266   4.730   2.817  1.9382 -0.0325 -0.1934
 9187SOL     OW39193   4.436   3.793   3.998  0.0704  0.3041  0.3440
 9187SOL    HW139194   4.401   3.840   4.073  1.9927  0.6152  1.0535
 9187SOL    HW239195   4.394   3.838   3.925 -0.4359 -0.0571  0.4115
 9188SOL     OW39196   0.307   1.081   3.090  0.1444 -0.0644 -0.2273
 9188SOL    HW139197   0.366   1.083   3.014  1.3744 -1.9969  0.7021
 9188SOL    HW239198   0.340   1.000   3.127  2.0659  1.0638  0.5075
 9189SOL     OW39199   0.234   3.700   3.042 -0.0065  0.0094  0.0329
 9189SOL    HW139200   0.238   3.625   3.102  0.8502  0.5783  0.6663
 9189SOL    HW239201   0.140   3.719   3.043 -0.3566 -1.7294  0.5139
 9190SOL     OW39202   3.385   0.147   8.660 -0.1647  0.0683 -0.3460
 9190SOL    HW139203   3.313   0.086   8.680 -0.2457  0.3054  0.0935
 9190SOL    HW239204   3.442   0.149   8.737 -0.0987  1.2422 -0.4371
 9191SOL     OW39205   2.516   0.227   7.003  0.3206  0.1947 -0.1796
 9191SOL    HW139206   2.550   0.207   6.916 -0.1429 -0.9279 -0.1113
 9191SOL    HW239207   2.444   0.282   6.972 -0.8887 -1.3693 -0.2043
 9192SOL     OW39208   1.846   0.756   4.754 -0.0699 -0.4711  0.0782
 9192SOL    HW139209   1.922   0.809   4.777 -1.3257  1.2548  0.2613
 9192SOL    HW239210   1.779   0.795   4.810 -1.5575 -0.6194 -1.5856
 9193SOL     OW39211   0.228   2.551   1.528 -0.1620 -0.7686 -0.3191
 9193SOL    HW139212   0.253   2.644   1.521  1.1785 -1.1456 -0.6035
 9193SOL    HW239213   0.135   2.550   1.550  0.3627  0.4729  1.9860
 9194SOL     OW39214   3.579   1.052   8.726  0.2775 -0.5332 -0.4789
 9194SOL    HW139215   3.524   1.078   8.652 -1.0249  0.7805  0.9439
 9194SOL    HW239216   3.665   1.040   8.687  1.5058 -0.0376  2.1052
 9195SOL     OW39217   2.119   2.827  11.050 -0.1603  0.2983 -0.1975
 9195SOL    HW139218   2.064   2.894  11.009 -0.6636  0.9120  1.4673
 9195SOL    HW239219   2.093   2.827  11.142 -1.6559 -0.9761 -0.6392
 9196SOL     OW39220   2.976   0.917   9.399 -0.1174  0.4796 -0.0543
 9196SOL    HW139221   2.967   0.874   9.484  1.8253  0.5010  0.1522
 9196SOL    HW239222   2.997   0.847   9.337 -2.7198  1.1766 -1.7525
 9197SOL     OW39223   0.173   3.207   1.828  0.1578 -0.1997 -0.4304
 9197SOL    HW139224   0.202   3.298   1.820 -0.3132  0.0732  0.9801
 9197SOL    HW239225   0.254   3.180   1.872 -1.0291 -2.1360  0.5785
 9198SOL     OW39226   4.711   1.766   7.406 -0.0386 -0.1961  0.1378
 9198SOL    HW139227   4.632   1.815   7.386 -0.1433 -0.6905 -0.6575
 9198SOL    HW239228   4.668   1.736   7.486 -2.2071 -1.0096 -1.3227
 9199SOL     OW39229   0.975   1.484   1.951 -0.1246 -0.1401 -0.0341
 9199SOL    HW139230   1.039   1.451   1.887 -0.9430 -0.2120 -0.8225
 9199SOL    HW239231   0.901   1.500   1.892  0.3025  1.5148 -0.1188
 9200SOL     OW39232   3.639   0.658   7.166 -0.5905  0.0704 -0.5242
 9200SOL    HW139233   3.666   0.748   7.150  0.0577 -0.1252 -0.5363
 9200SOL    HW239234   3.580   0.645   7.092 -1.1060 -0.5283 -0.0072
 9201SOL     OW39235   3.069   3.736  13.282 -0.2439 -0.3112  0.6674
 9201SOL    HW139236   3.073   3.812  13.224  1.4419 -0.9396 -0.0387
 9201SOL    HW239237   2.981   3.700  13.275 -0.4849  0.6937 -1.7542
 9202SOL     OW39238   4.366   0.730   8.848  0.3233  0.3471  0.3343
 9202SOL    HW139239   4.428   0.790   8.890  0.4271 -0.4032  1.2438
 9202SOL    HW239240   4.292   0.743   8.907  1.7912 -0.1700  2.3110
 9203SOL     OW39241   2.603   2.693   7.830  0.9170 -0.3875  0.0396
 9203SOL    HW139242   2.631   2.778   7.796 -0.7345  0.5239  1.0194
 9203SOL    HW239243   2.680   2.636   7.828  0.7542 -0.5821 -0.6019
 9204SOL     OW39244   1.068   4.611  16.323  0.6749 -0.4216  0.0364
 9204SOL    HW139245   1.082   4.521  16.293 -1.9324 -1.3257  1.4955
 9204SOL    HW239246   1.152   4.647  16.297  0.8768  0.1806  1.5663
 9205SOL     OW39247   2.996   1.362   3.849  0.3979 -0.6286  0.3224
 9205SOL    HW139248   3.053   1.361   3.772  1.4717 -2.4836  1.1447
 9205SOL    HW239249   3.062   1.335   3.912 -1.1899  0.4733  2.4871
 9206SOL     OW39250   3.090   1.527   9.306  0.4878  0.6295 -0.5769
 9206SOL    HW139251   3.170   1.537   9.255  1.2742 -0.0779  0.5169
 9206SOL    HW239252   3.124   1.516   9.395 -3.1628 -1.2352  0.6020
 9207SOL     OW39253   2.153   1.675  11.463  1.0144 -0.6528 -0.0517
 9207SOL    HW139254   2.125   1.584  11.451  0.0618 -0.6019  1.6876
 9207SOL    HW239255   2.153   1.714  11.376  0.8478 -2.2786 -0.7833
 9208SOL     OW39256   0.437   3.711   6.102 -0.7272 -1.1899  1.2230
 9208SOL    HW139257   0.343   3.694   6.108 -1.0924  1.2743  2.4809
 9208SOL    HW239258   0.440   3.806   6.112  0.8853 -1.2894  1.7459
 9209SOL     OW39259   3.544   3.369  15.959  0.3121 -0.2426 -0.2042
 9209SOL    HW139260   3.453   3.354  15.932 -0.0132  2.7757 -0.7080
 9209SOL    HW239261   3.549   3.322  16.042  1.9658 -1.0024 -0.7298
 9210SOL     OW39262   3.297   4.440   4.702 -0.5078 -0.2308  0.3477
 9210SOL    HW139263   3.250   4.357   4.705 -0.9575  0.0558  1.1588
 9210SOL    HW239264   3.220   4.495   4.692 -1.2415 -1.2631  0.2307
 9211SOL     OW39265   4.429   3.705   8.527  0.3728 -0.4404  0.0050
 9211SOL    HW139266   4.470   3.711   8.441 -0.1695 -3.0206 -0.4265
 9211SOL    HW239267   4.350   3.758   8.521  0.5292 -0.2811 -0.6872
 9212SOL     OW39268   2.403   0.821   6.255 -0.0200  0.2168 -0.3443
 9212SOL    HW139269   2.315   0.792   6.281  0.3652 -0.2900  0.3955
 9212SOL    HW239270   2.384   0.879   6.182 -1.1236 -0.5683 -0.6860
 9213SOL     OW39271   3.100   1.564   4.094 -0.1670 -0.2488  0.4372
 9213SOL    HW139272   3.027   1.548   4.155 -0.9987 -2.9162 -1.2679
 9213SOL    HW239273   3.177   1.524   4.134  0.2329  0.6360  0.5363
 9214SOL     OW39274   3.199   1.760   5.679 -0.5194 -0.8696  0.3410
 9214SOL    HW139275   3.175   1.767   5.772 -0.8977  0.1754  0.1686
 9214SOL    HW239276   3.289   1.728   5.688 -0.0499  0.2788 -0.2073
 9215SOL     OW39277   4.433   0.886  12.501  0.3830 -0.4098 -0.2880
 9215SOL    HW139278   4.391   0.886  12.415  0.7258 -2.4233 -0.4437
 9215SOL    HW239279   4.524   0.897  12.474 -0.0909  0.0243 -1.7299
 9216SOL     OW39280   3.884   3.728   3.967 -1.1898  0.0458 -0.3433
 9216SOL    HW139281   3.855   3.640   3.941 -0.8177  0.0137 -0.6411
 9216SOL    HW239282   3.817   3.748   4.032 -0.9481  0.1182 -0.1170
 9217SOL     OW39283   4.615   3.817   5.445  0.1761 -0.3505  0.1456
 9217SOL    HW139284   4.685   3.881   5.432 -2.3896  2.3947 -0.3699
 9217SOL    HW239285   4.661   3.734   5.456  0.5861 -0.1049  0.2627
 9218SOL     OW39286   3.931   3.267   9.056 -0.5423  0.9219 -0.5694
 9218SOL    HW139287   3.950   3.245   9.147  2.4095  0.5812 -1.2596
 9218SOL    HW239288   3.961   3.357   9.064  2.3652 -0.2585  1.6924
 9219SOL     OW39289   1.304   0.447  17.296 -0.2394  0.1620 -0.1405
 9219SOL    HW139290   1.319   0.361  17.258  3.7958  0.8291  0.0104
 9219SOL    HW239291   1.385   0.461  17.343 -0.0471 -0.0288 -0.4143
 9220SOL     OW39292   0.298   2.458   6.944 -0.0377 -0.1316 -0.0259
 9220SOL    HW139293   0.224   2.445   7.003 -0.2514  0.1082 -0.2410
 9220SOL    HW239294   0.375   2.448   7.000 -0.2122  0.3702  0.3028
 9221SOL     OW39295   2.569   2.245  14.366  0.2706 -0.0163  0.0518
 9221SOL    HW139296   2.608   2.232  14.280  0.1241  0.1844 -0.0448
 9221SOL    HW239297   2.547   2.335  14.345 -2.5807 -0.8206 -0.3764
 9222SOL     OW39298   0.800   4.238  15.829  0.2697 -0.0671 -0.8984
 9222SOL    HW139299   0.745   4.286  15.767  2.6472  2.1449 -1.2538
 9222SOL    HW239300   0.881   4.222  15.781  0.3566  0.4497 -0.9189
 9223SOL     OW39301   4.302   3.977   3.841 -0.3542 -0.6752 -0.0510
 9223SOL    HW139302   4.247   3.902   3.816  0.1383 -1.4817  1.2742
 9223SOL    HW239303   4.236   4.038   3.873  0.9668  0.0722  1.2371
 9224SOL     OW39304   1.534   0.735   0.171  0.2165 -0.1648  0.0723
 9224SOL    HW139305   1.544   0.814   0.225  0.7981  0.5138 -1.0059
 9224SOL    HW239306   1.598   0.680   0.217  0.6292  0.3648  0.1374
 9225SOL     OW39307   4.652   2.988   4.322 -0.4822 -0.2000  0.6909
 9225SOL    HW139308   4.727   2.963   4.376 -0.9869 -0.9940  1.0207
 9225SOL    HW239309   4.698   3.011   4.241  0.3672 -2.1232  0.6315
 9226SOL     OW39310   0.020   2.177  11.804 -0.2511 -0.1340 -0.3040
 9226SOL    HW139311   4.680   2.192  11.864  0.4322  0.2633  0.4202
 9226SOL    HW239312   0.063   2.262  11.804  0.8818 -0.6833 -2.1204
 9227SOL     OW39313   1.702   2.434   7.698 -0.3502 -0.0804 -0.1062
 9227SOL    HW139314   1.760   2.460   7.770 -0.2359 -0.8252  0.0653
 9227SOL    HW239315   1.623   2.484   7.719 -0.1507  1.2926 -2.6633
 9228SOL     OW39316   3.406   2.308  14.900  0.1308 -0.1021 -0.3981
 9228SOL    HW139317   3.486   2.350  14.867  1.4164 -0.7213  1.8911
 9228SOL    HW239318   3.421   2.219  14.870 -1.9344 -0.0217 -1.5907
 9229SOL     OW39319   4.677   0.688   1.269 -0.8745 -1.0215 -0.5396
 9229SOL    HW139320   4.711   0.604   1.300  1.4077 -0.5516 -1.7701
 9229SOL    HW239321   4.721   0.745   1.332  0.0061  0.4719 -2.4804
 9230SOL     OW39322   2.587   3.026   4.406 -0.0139 -0.4711  0.1993
 9230SOL    HW139323   2.677   3.044   4.380 -1.3010  0.9715 -3.3631
 9230SOL    HW239324   2.568   2.934   4.386 -2.7514 -0.3873  2.4824
 9231SOL     OW39325   0.273   0.512   8.062 -0.1984 -0.7972  0.1844
 9231SOL    HW139326   0.279   0.495   8.156  1.3930  0.3573  0.2974
 9231SOL    HW239327   0.205   0.450   8.039  1.0324 -1.6162 -1.2881
 9232SOL     OW39328   0.982   2.810   3.913  0.0101  0.0746 -0.0150
 9232SOL    HW139329   1.056   2.752   3.893 -0.5073  0.4767 -3.0309
 9232SOL    HW239330   0.917   2.759   3.865 -1.7268  3.0311 -0.8179
 9233SOL     OW39331   3.998   3.029  10.845 -0.1938 -0.4964 -0.0602
 9233SOL    HW139332   4.024   2.957  10.903  1.1949  1.0822  1.2857
 9233SOL    HW239333   3.970   2.985  10.765 -2.3664 -1.4185  1.2180
 9234SOL     OW39334   3.705   3.154  15.540 -0.2915  0.7944  0.2582
 9234SOL    HW139335   3.609   3.159  15.546 -0.1989  1.3125  1.1679
 9234SOL    HW239336   3.725   3.137  15.632 -0.2094  0.3751  0.1670
 9235SOL     OW39337   0.071   0.527   6.425  0.0102  0.1533  0.0296
 9235SOL    HW139338   0.160   0.562   6.422  0.9538 -2.2026  0.0632
 9235SOL    HW239339   0.094   0.452   6.480 -1.4721  0.2718  0.8153
 9236SOL     OW39340   3.540   2.990   3.217 -0.4699  0.6684  0.7128
 9236SOL    HW139341   3.568   3.043   3.142  0.2061 -0.4539  0.1715
 9236SOL    HW239342   3.620   3.002   3.268  0.4287  0.7096 -0.7129
 9237SOL     OW39343   2.434   0.215   3.113  0.2856 -0.2110 -0.8408
 9237SOL    HW139344   2.338   0.222   3.116  0.5115  1.6863  1.7050
 9237SOL    HW239345   2.451   0.145   3.049 -0.8697 -0.7110 -0.6055
 9238SOL     OW39346   0.047   0.294  15.752 -0.3124  0.0933 -0.0610
 9238SOL    HW139347   0.112   0.226  15.735 -1.3260 -0.4843 -1.5761
 9238SOL    HW239348   4.716   0.285  15.681 -0.5103  0.7811  0.0234
 9239SOL     OW39349   2.298   3.984  10.828 -0.5461 -0.0534  0.2328
 9239SOL    HW139350   2.369   3.974  10.892  0.4748 -1.4441 -1.1250
 9239SOL    HW239351   2.222   3.940  10.866  0.1809 -0.7045  0.9473
 9240SOL     OW39352   2.540   1.989   3.977 -0.5265  0.1439  0.1207
 9240SOL    HW139353   2.628   1.966   3.948 -0.5368 -0.2693  0.4191
 9240SOL    HW239354   2.483   1.972   3.901 -0.7166  1.6308 -0.0667
 9241SOL     OW39355   2.920   4.225   5.387  0.1284  0.3130  0.1821
 9241SOL    HW139356   2.912   4.150   5.446  1.0335 -0.4254 -0.6268
 9241SOL    HW239357   2.857   4.290   5.418 -1.5457 -0.4601 -1.5643
 9242SOL     OW39358   4.317   0.468  10.839 -0.2535  0.0841 -0.3765
 9242SOL    HW139359   4.325   0.514  10.923 -2.1907 -1.8965  0.8851
 9242SOL    HW239360   4.311   0.378  10.868  2.1509  0.7489  2.1665
 9243SOL     OW39361   3.065   3.897   3.497  0.2573  0.3337 -0.3197
 9243SOL    HW139362   3.085   3.804   3.511 -0.3658  0.7787  3.3824
 9243SOL    HW239363   3.128   3.912   3.427 -0.1230  0.7126 -0.5803
 9244SOL     OW39364   0.928   1.918   0.669  0.2944 -0.3540  0.2933
 9244SOL    HW139365   0.986   1.895   0.596 -1.2851 -0.9765 -0.7813
 9244SOL    HW239366   0.907   1.831   0.703  3.3402 -0.2272  2.4691
 9245SOL     OW39367   3.180   2.209   2.727  0.5644 -0.0384  0.5632
 9245SOL    HW139368   3.273   2.230   2.731  0.7921 -0.8362 -0.3401
 9245SOL    HW239369   3.139   2.295   2.741 -1.2320 -1.0154  1.3092
 9246SOL     OW39370   3.493   1.655   8.600  0.2682  0.4777 -0.1515
 9246SOL    HW139371   3.468   1.691   8.685  0.5337 -0.1775  0.2073
 9246SOL    HW239372   3.414   1.602   8.586  0.3781  0.7464 -1.7936
 9247SOL     OW39373   1.705   2.529   1.427 -0.3248 -0.4003  0.1016
 9247SOL    HW139374   1.659   2.475   1.491 -1.8235  0.9900  0.1913
 9247SOL    HW239375   1.652   2.608   1.435  1.3216  0.7438 -0.2598
 9248SOL     OW39376   3.820   1.117   5.735 -0.1009  0.4348  0.3207
 9248SOL    HW139377   3.780   1.041   5.777  0.3839 -0.6963 -1.2405
 9248SOL    HW239378   3.767   1.194   5.758 -2.6633 -0.7603 -1.5190
 9249SOL     OW39379   4.717   2.985  10.338 -0.2558 -0.1354  0.2758
 9249SOL    HW139380   4.653   2.948  10.399 -0.4729 -0.5395 -0.1927
 9249SOL    HW239381   0.055   2.996  10.402 -0.2111 -2.0532  0.5517
 9250SOL     OW39382   4.388   0.287  12.545  0.1457  0.0038  0.1345
 9250SOL    HW139383   4.453   0.227  12.582 -2.8677 -2.7556  0.9771
 9250SOL    HW239384   4.413   0.270  12.454  0.5095  1.0872  0.0255
 9251SOL     OW39385   2.704   2.355   6.039 -1.2044 -0.0895 -0.2742
 9251SOL    HW139386   2.746   2.310   6.112 -0.0315  0.1170 -0.8310
 9251SOL    HW239387   2.611   2.345   6.060 -1.3814  0.3886 -0.8259
 9252SOL     OW39388   1.349   3.336   6.376 -0.0995  0.2158 -0.0857
 9252SOL    HW139389   1.378   3.396   6.445 -1.6191  1.4337 -0.5050
 9252SOL    HW239390   1.389   3.387   6.305  0.3653 -0.4112 -0.2751
 9253SOL     OW39391   2.263   1.352   5.751 -0.1835  0.7704  0.1843
 9253SOL    HW139392   2.288   1.396   5.670 -0.9284 -1.1159 -1.0847
 9253SOL    HW239393   2.303   1.266   5.738 -1.4698  0.2563 -0.3651
 9254SOL     OW39394   1.658   2.338   1.185  0.5407 -0.4683 -0.1740
 9254SOL    HW139395   1.604   2.329   1.264  0.4596  0.4859 -0.1182
 9254SOL    HW239396   1.719   2.405   1.215  1.4759 -0.9631 -0.9569
 9255SOL     OW39397   0.162   1.421   1.352 -0.0004 -0.3098 -0.0633
 9255SOL    HW139398   0.142   1.345   1.406  3.6642 -0.3875  1.1893
 9255SOL    HW239399   0.107   1.491   1.386  0.4244 -0.5024  1.0173
 9256SOL     OW39400   4.014   4.535   6.161 -0.1214 -0.0753 -0.0962
 9256SOL    HW139401   3.948   4.597   6.130  0.4346  0.0795 -0.9775
 9256SOL    HW239402   3.974   4.453   6.132 -0.3034 -0.1578  0.3968
 9257SOL     OW39403   3.985   0.980  12.803 -0.2071  0.8618  0.1530
 9257SOL    HW139404   4.054   0.939  12.750  0.6250 -1.2422  2.8808
 9257SOL    HW239405   3.962   1.055  12.748  0.7535  2.0448  1.3942
 9258SOL     OW39406   0.682   4.305   1.977 -0.4036  0.5028 -0.0824
 9258SOL    HW139407   0.644   4.383   1.937  0.5966 -1.0885 -4.1255
 9258SOL    HW239408   0.687   4.338   2.067  2.5005  0.0311 -0.0582
 9259SOL     OW39409   1.728   0.644  10.914 -0.1183  0.2873  0.4561
 9259SOL    HW139410   1.658   0.628  10.978 -0.4269  0.4756  0.1652
 9259SOL    HW239411   1.783   0.705  10.964 -0.5080  1.7216 -0.8764
 9260SOL     OW39412   3.142   0.911   8.221  0.1744 -0.2946 -0.3785
 9260SOL    HW139413   3.122   0.994   8.178 -0.7062 -0.6144 -0.5688
 9260SOL    HW239414   3.084   0.917   8.297 -0.0891  2.0162 -0.7528
 9261SOL     OW39415   4.259   1.026   4.245 -0.5119 -0.5776  0.1967
 9261SOL    HW139416   4.187   0.991   4.192 -0.8900 -0.2866  0.5187
 9261SOL    HW239417   4.333   0.980   4.205 -0.0511  0.5842 -0.3165
 9262SOL     OW39418   4.606   2.551  10.293  0.9797  0.0072  0.0619
 9262SOL    HW139419   4.518   2.515  10.301  1.6683 -1.5276  0.6734
 9262SOL    HW239420   4.660   2.511  10.361 -1.0077  1.4137  2.4528
 9263SOL     OW39421   3.885   0.796  11.072 -0.5268  0.0887  0.2131
 9263SOL    HW139422   3.908   0.734  11.141  0.7314  2.4595  1.9246
 9263SOL    HW239423   3.858   0.860  11.138  1.6926 -0.2256  1.4209
 9264SOL     OW39424   0.501   2.765   5.280 -0.1665 -0.0097 -0.4033
 9264SOL    HW139425   0.597   2.762   5.284 -0.2101 -0.1059  0.8336
 9264SOL    HW239426   0.473   2.680   5.246  2.1393 -1.4763  1.3917
 9265SOL     OW39427   3.696   0.201   7.851  0.0835  0.2323 -0.7740
 9265SOL    HW139428   3.634   0.165   7.787 -0.1666  0.1866 -0.5083
 9265SOL    HW239429   3.746   0.256   7.791 -0.4993  1.1373 -0.4332
 9266SOL     OW39430   0.976   3.464  11.392  0.4154 -0.5605 -0.1684
 9266SOL    HW139431   1.060   3.471  11.345 -0.8124  0.8031 -2.1704
 9266SOL    HW239432   0.927   3.429  11.318 -1.7066 -1.5790  1.7190
 9267SOL     OW39433   2.935   0.234  12.449 -0.1326  0.5213  0.5602
 9267SOL    HW139434   2.864   0.250  12.510 -0.2827 -0.1650  0.5658
 9267SOL    HW239435   2.981   0.317  12.458 -0.0680  0.4740  0.6630
 9268SOL     OW39436   2.651   0.791   2.870 -0.5541  0.0271  0.3146
 9268SOL    HW139437   2.634   0.879   2.902 -1.2880 -0.7059  1.8983
 9268SOL    HW239438   2.594   0.793   2.793 -0.4432 -1.3039  0.1994
 9269SOL     OW39439   4.248   1.648  10.158 -0.3825 -0.4555 -0.6294
 9269SOL    HW139440   4.266   1.670  10.067 -1.2228 -0.4521 -0.8007
 9269SOL    HW239441   4.227   1.555  10.149  0.0733 -0.4341 -1.8203
 9270SOL     OW39442   1.810   2.935   3.746 -0.9285 -0.5358  0.5291
 9270SOL    HW139443   1.767   2.985   3.815  0.1012 -0.6483  1.2467
 9270SOL    HW239444   1.804   2.842   3.766  0.5343 -0.9073 -0.6691
 9271SOL     OW39445   0.668   2.896  10.665 -0.6598  0.4073  0.4228
 9271SOL    HW139446   0.752   2.916  10.625  0.3814  2.1583  3.5256
 9271SOL    HW239447   0.669   2.960  10.736 -0.2741  0.4067  0.4135
 9272SOL     OW39448   2.081   1.617  17.236  0.2678  0.9383  0.0533
 9272SOL    HW139449   2.014   1.589  17.299 -0.4817 -1.2785 -1.7033
 9272SOL    HW239450   2.087   1.528  17.201 -0.8742 -0.1889  2.7547
 9273SOL     OW39451   0.916   3.336  15.035 -0.1046  0.1589  0.3620
 9273SOL    HW139452   0.960   3.395  15.096 -1.3113  0.1963  1.1848
 9273SOL    HW239453   0.966   3.342  14.953 -0.7603  0.1972 -0.0349
 9274SOL     OW39454   0.807   3.746   2.494  0.6707  0.0622 -0.5260
 9274SOL    HW139455   0.835   3.819   2.439 -0.3929 -1.1357 -2.6542
 9274SOL    HW239456   0.721   3.722   2.462  1.0388 -2.3589  0.3184
 9275SOL     OW39457   2.698   2.438  13.297  0.4022  0.4152 -0.0980
 9275SOL    HW139458   2.623   2.381  13.318 -0.2396  1.6789  1.0677
 9275SOL    HW239459   2.753   2.366  13.268  0.3130  0.3439 -0.0922
 9276SOL     OW39460   0.533   0.535   7.959  0.7287  0.7269 -0.2640
 9276SOL    HW139461   0.442   0.542   7.988  0.2293  2.6843 -2.3467
 9276SOL    HW239462   0.527   0.449   7.918  0.2549 -0.0567  1.4531
 9277SOL     OW39463   4.621   4.442   3.366  0.8650  0.6010 -0.1732
 9277SOL    HW139464   4.619   4.468   3.458  0.5595  0.4654 -0.1418
 9277SOL    HW239465   4.711   4.414   3.353  0.5577 -0.6478  0.4143
 9278SOL     OW39466   0.654   0.663   6.944 -0.7121 -0.8687 -0.0560
 9278SOL    HW139467   0.728   0.677   7.003 -1.6833 -3.5458  1.8075
 9278SOL    HW239468   0.699   0.678   6.861  0.7739 -1.7406  0.6120
 9279SOL     OW39469   0.469   3.785   3.115  0.3406 -0.4647 -0.0490
 9279SOL    HW139470   0.458   3.780   3.210  1.3236  1.4696  0.1623
 9279SOL    HW239471   0.382   3.776   3.078  0.3529  1.1880 -0.4622
 9280SOL     OW39472   1.461   1.118   7.060  0.1739  0.5262  0.4056
 9280SOL    HW139473   1.408   1.195   7.040 -1.7121 -0.8150  0.2843
 9280SOL    HW239474   1.551   1.149   7.047  0.0473 -0.0950 -1.8640
 9281SOL     OW39475   3.782   2.132  17.542  0.1765  0.0599 -0.0182
 9281SOL    HW139476   3.849   2.069  17.516 -0.4314 -0.4439 -0.3513
 9281SOL    HW239477   3.831   2.208  17.573  1.7076 -1.1040  0.4416
 9282SOL     OW39478   2.035   2.706   3.990 -0.4020  0.6333 -0.3271
 9282SOL    HW139479   2.046   2.648   3.915  1.0327  0.0656  0.3010
 9282SOL    HW239480   1.963   2.760   3.960 -0.5836  1.6749  1.9742
 9283SOL     OW39481   1.713   2.651   1.084 -0.5992 -0.2866 -0.4110
 9283SOL    HW139482   1.626   2.619   1.059  0.3181 -0.5348 -3.2878
 9283SOL    HW239483   1.685   2.739   1.107  0.2790 -0.1303  0.0455
 9284SOL     OW39484   3.828   2.704   4.571  0.2022  0.1631 -0.4261
 9284SOL    HW139485   3.759   2.702   4.637 -1.0605  1.3176 -1.6964
 9284SOL    HW239486   3.796   2.643   4.505  1.2522 -0.3533 -0.4666
 9285SOL     OW39487   0.581   2.881   5.000 -0.3057 -0.7851 -0.0956
 9285SOL    HW139488   0.606   2.810   5.059 -1.1362 -0.1832  0.9942
 9285SOL    HW239489   0.487   2.868   5.015 -0.8055 -0.5695 -3.0053
 9286SOL     OW39490   2.036   1.193  17.300 -0.3219 -0.7385  0.8543
 9286SOL    HW139491   2.103   1.128  17.279  1.3498  0.8240  1.2729
 9286SOL    HW239492   1.993   1.156  17.377 -0.0429 -2.2628  0.2782
 9287SOL     OW39493   0.858   2.024  17.376  0.1291 -0.6674  0.2570
 9287SOL    HW139494   0.942   2.027  17.422 -0.3171  0.1557  1.0170
 9287SOL    HW239495   0.885   1.994  17.289 -0.4638 -0.0821 -0.1255
 9288SOL     OW39496   2.854   0.545   5.098  0.1399 -0.0554 -0.1224
 9288SOL    HW139497   2.861   0.624   5.044 -1.5933  0.1335 -0.0831
 9288SOL    HW239498   2.817   0.487   5.032  0.6187 -1.0026  0.4431
 9289SOL     OW39499   1.201   0.821   7.918  0.2458  0.3315 -0.1920
 9289SOL    HW139500   1.150   0.741   7.908  1.5355 -0.4521 -0.5556
 9289SOL    HW239501   1.197   0.871   7.836  2.8138 -0.2683 -0.6825
 9290SOL     OW39502   1.657   3.416  12.877  0.6812  0.3133 -0.6269
 9290SOL    HW139503   1.744   3.393  12.843  0.7907  1.0900 -0.8517
 9290SOL    HW239504   1.607   3.345  12.837  3.0529 -2.6854  1.6896
 9291SOL     OW39505   0.739   0.120  12.428 -0.1086 -0.0610 -0.2331
 9291SOL    HW139506   0.773   0.172  12.501 -1.0085 -0.1331  0.2290
 9291SOL    HW239507   0.741   0.185  12.358 -2.0559 -1.3794 -1.4840
 9292SOL     OW39508   0.258   3.583   2.731 -0.6295 -0.0856  0.6170
 9292SOL    HW139509   0.237   3.516   2.797  2.0181 -0.7056  0.8372
 9292SOL    HW239510   0.296   3.657   2.778 -4.4001  0.9194  2.1029
 9293SOL     OW39511   3.377   4.338   0.010  0.1705 -0.1303 -0.3098
 9293SOL    HW139512   3.331   4.404  17.688  0.0653 -2.4141 -3.2304
 9293SOL    HW239513   3.449   4.312  17.680  0.0131 -0.0056 -0.5567
 9294SOL     OW39514   0.511   4.345   7.665  0.2511  0.5425  0.0639
 9294SOL    HW139515   0.433   4.391   7.633 -0.6589 -1.4594 -0.6030
 9294SOL    HW239516   0.520   4.394   7.747 -1.3393  0.9673 -0.0090
 9295SOL     OW39517   3.470   0.017   6.645  0.3549  0.0378  0.0642
 9295SOL    HW139518   3.531   0.009   6.718 -1.8492 -0.1637  1.8739
 9295SOL    HW239519   3.520   0.056   6.573 -0.9521  0.2652 -0.7045
 9296SOL     OW39520   0.865   1.727   5.214  0.1562 -0.6851 -0.3824
 9296SOL    HW139521   0.959   1.713   5.229  0.7075  0.7001 -2.4972
 9296SOL    HW239522   0.864   1.719   5.118  0.1178  1.0873 -0.5311
 9297SOL     OW39523   1.833   3.501   2.491  0.3366  0.6368 -0.6348
 9297SOL    HW139524   1.759   3.441   2.484  0.2941  0.6743 -0.5117
 9297SOL    HW239525   1.848   3.522   2.399  3.3565  1.7365  0.1257
 9298SOL     OW39526   1.027   3.229   7.521  0.6038  0.3068  0.5276
 9298SOL    HW139527   1.110   3.183   7.520 -1.0534 -2.7491  4.1673
 9298SOL    HW239528   0.992   3.197   7.604 -3.3554  0.1984 -1.1811
 9299SOL     OW39529   1.345   2.294  12.763 -0.2080  0.4946  0.4673
 9299SOL    HW139530   1.434   2.327  12.750 -0.4640  0.6617 -0.8088
 9299SOL    HW239531   1.363   2.202  12.779  0.2630  0.3261 -1.0578
 9300SOL     OW39532   3.232   2.085   5.245  0.6731  0.1909 -0.0645
 9300SOL    HW139533   3.234   2.156   5.309 -0.4813 -3.0961  3.6365
 9300SOL    HW239534   3.138   2.079   5.229  0.9036 -0.3709 -1.2307
 9301SOL     OW39535   1.860   2.285  10.752  0.0850 -0.0763  0.0962
 9301SOL    HW139536   1.930   2.297  10.688 -1.5390  1.6040 -1.3550
 9301SOL    HW239537   1.910   2.304  10.831 -0.8469 -1.8740  1.1169
 9302SOL     OW39538   3.735   4.316   6.873  0.2721 -0.3439  0.0720
 9302SOL    HW139539   3.813   4.285   6.827  0.2402 -0.2271 -0.0595
 9302SOL    HW239540   3.672   4.292   6.805 -0.0313  3.1904 -0.8923
 9303SOL     OW39541   2.480   4.514   8.859 -0.4500  0.0836 -0.4621
 9303SOL    HW139542   2.544   4.448   8.885 -2.6481 -1.7212  0.3049
 9303SOL    HW239543   2.528   4.597   8.866 -0.0169 -0.4235  2.4945
 9304SOL     OW39544   1.419   3.294  16.807 -0.1446 -0.1890 -0.6873
 9304SOL    HW139545   1.372   3.370  16.772 -1.2162  0.1338  1.4358
 9304SOL    HW239546   1.378   3.285  16.893  0.1086 -0.2313 -0.5712
 9305SOL     OW39547   3.755   1.886   8.878 -0.1914  0.0390 -0.5749
 9305SOL    HW139548   3.679   1.827   8.881  0.8041 -1.2145  0.5393
 9305SOL    HW239549   3.812   1.845   8.944 -2.2126  2.2588  2.5819
 9306SOL     OW39550   1.091   1.092   2.651 -0.3239  0.1165 -0.0277
 9306SOL    HW139551   1.140   1.031   2.707 -0.7793  0.2387  0.4963
 9306SOL    HW239552   1.022   1.121   2.710  0.7780  0.1693  1.2342
 9307SOL     OW39553   1.041   4.001   7.085  0.8966 -0.3170 -0.2896
 9307SOL    HW139554   0.975   4.062   7.118  0.1234 -0.4909 -1.4995
 9307SOL    HW239555   1.103   4.063   7.047  0.1419  1.7034  1.7653
 9308SOL     OW39556   1.822   4.283   6.711 -0.3345 -0.3243 -0.1657
 9308SOL    HW139557   1.863   4.285   6.624  1.2060  0.2681  0.5633
 9308SOL    HW239558   1.751   4.347   6.715  0.5212  0.6738 -0.5889
 9309SOL     OW39559   0.341   4.661   6.422 -0.1497  0.0598 -0.2089
 9309SOL    HW139560   0.378   4.691   6.339 -0.5003 -0.8271 -0.6877
 9309SOL    HW239561   0.328   4.571   6.390  0.6827  0.0282 -0.4667
 9310SOL     OW39562   4.345   3.657   5.224  0.1167  0.0611 -0.2417
 9310SOL    HW139563   4.357   3.629   5.133  1.6112  2.1608 -0.6864
 9310SOL    HW239564   4.383   3.590   5.280 -0.3919 -0.2988 -0.3313
 9311SOL     OW39565   3.156   0.495   4.300 -0.0440 -0.3843  0.5969
 9311SOL    HW139566   3.138   0.580   4.260 -2.5315 -1.3734 -0.4125
 9311SOL    HW239567   3.151   0.524   4.391 -3.2800  2.8890 -0.6110
 9312SOL     OW39568   3.562   2.560   4.123 -0.4151 -1.1746 -0.1396
 9312SOL    HW139569   3.574   2.523   4.035 -1.0040  0.4774 -0.9241
 9312SOL    HW239570   3.552   2.489   4.186  0.5974 -2.2125 -1.1467
 9313SOL     OW39571   1.791   1.098   4.707 -0.7236 -0.7897 -0.9512
 9313SOL    HW139572   1.873   1.048   4.711 -0.9818 -1.0957  0.6790
 9313SOL    HW239573   1.742   1.051   4.775  0.9759 -0.5574  0.4411
 9314SOL     OW39574   0.493   0.546   7.130  0.6694 -0.4775 -1.0819
 9314SOL    HW139575   0.443   0.467   7.111  0.7149 -0.4959 -1.1260
 9314SOL    HW239576   0.502   0.594   7.047 -0.1374 -0.3642 -1.0983
 9315SOL     OW39577   2.389   0.421  12.887  0.6799 -0.4868  0.2121
 9315SOL    HW139578   2.337   0.354  12.843 -0.6107 -0.1787  1.2970
 9315SOL    HW239579   2.456   0.437  12.820 -0.6920  0.2341 -0.9720
 9316SOL     OW39580   3.385   0.624   8.580  0.5670 -0.7118 -0.3077
 9316SOL    HW139581   3.427   0.661   8.502 -4.3386  0.2331 -2.4787
 9316SOL    HW239582   3.393   0.695   8.643 -0.1643 -1.0766  0.1899
 9317SOL     OW39583   1.013   4.128   8.450 -0.8817 -0.0022  0.1154
 9317SOL    HW139584   1.047   4.039   8.449 -0.5453  0.1248  0.0697
 9317SOL    HW239585   0.992   4.142   8.542 -2.1792  0.0052 -0.1938
 9318SOL     OW39586   2.312   3.826  14.536 -0.7210 -0.3620  0.8704
 9318SOL    HW139587   2.340   3.918  14.539  1.9266 -1.0955 -1.0249
 9318SOL    HW239588   2.359   3.788  14.610 -0.8664 -1.2361  0.5128
 9319SOL     OW39589   4.002   3.260   0.135  0.7779 -0.1271  0.3561
 9319SOL    HW139590   3.945   3.185   0.152 -0.0663  0.3064 -0.5505
 9319SOL    HW239591   3.950   3.327   0.179 -2.2678 -0.4230 -2.7697
 9320SOL     OW39592   4.536   2.895  12.419 -0.5286 -0.4803  0.6458
 9320SOL    HW139593   4.519   2.845  12.339 -1.2857 -0.7627  0.9733
 9320SOL    HW239594   4.448   2.898  12.456 -0.3693 -0.5710  1.0320
 9321SOL     OW39595   2.047   0.880   9.208  0.0694  0.0851  0.2974
 9321SOL    HW139596   2.069   0.958   9.157 -0.9737 -0.6907 -1.3187
 9321SOL    HW239597   2.050   0.923   9.294  0.0159  0.2386  0.2229
 9322SOL     OW39598   3.113   4.032   4.245 -0.1844  0.5598 -0.1056
 9322SOL    HW139599   3.155   4.001   4.325  0.9001  0.2632 -0.7814
 9322SOL    HW239600   3.121   4.127   4.239  1.5487  0.5837  2.3664
 9323SOL     OW39601   1.281   0.688   1.228  0.2799 -0.5199 -0.1957
 9323SOL    HW139602   1.240   0.774   1.240  1.6993 -0.0496  1.3425
 9323SOL    HW239603   1.263   0.637   1.307 -1.0338 -1.7109 -1.2591
 9324SOL     OW39604   3.273   2.861  15.506  0.1686  0.4403 -0.3157
 9324SOL    HW139605   3.272   2.811  15.424 -1.3863 -2.0592  1.2344
 9324SOL    HW239606   3.178   2.858  15.520 -0.1520  1.8881 -2.1294
 9325SOL     OW39607   3.801   3.907  13.046 -0.2440 -0.4124  0.0113
 9325SOL    HW139608   3.833   3.941  13.129 -3.2423 -0.8604  1.3363
 9325SOL    HW239609   3.711   3.884  13.066 -0.2992  0.3007  0.5675
 9326SOL     OW39610   4.444   3.922   0.697  0.2190  0.4372 -0.2147
 9326SOL    HW139611   4.403   3.859   0.756  1.8483 -0.9850 -0.5868
 9326SOL    HW239612   4.530   3.882   0.680  1.0400  0.8324  3.0697
 9327SOL     OW39613   4.177   3.836   2.434  0.4800 -0.3272  0.0658
 9327SOL    HW139614   4.262   3.851   2.475 -0.5754  1.3479  1.6771
 9327SOL    HW239615   4.132   3.802   2.512  2.3913 -0.9012  0.9186
 9328SOL     OW39616   2.835   3.416   5.305 -0.7229  0.2507  0.6027
 9328SOL    HW139617   2.769   3.433   5.238 -0.8860 -0.1434  0.6629
 9328SOL    HW239618   2.771   3.406   5.375 -1.3048  2.8981  0.4212
 9329SOL     OW39619   1.468   4.705   0.095  0.8373  0.1606 -0.2284
 9329SOL    HW139620   1.417   4.635   0.054  0.5080 -0.0925  0.5956
 9329SOL    HW239621   1.541   4.653   0.129  2.0064  1.8626 -0.1863
 9330SOL     OW39622   1.098   3.731   2.937  0.4226 -0.1328 -0.7596
 9330SOL    HW139623   1.099   3.647   2.982 -1.6993  0.3821  0.2649
 9330SOL    HW239624   1.071   3.702   2.850 -2.4438  2.0440 -0.6241
 9331SOL     OW39625   2.287   2.366  11.886 -0.2226 -0.0773  0.0933
 9331SOL    HW139626   2.227   2.312  11.937 -0.6577 -0.4823 -0.8478
 9331SOL    HW239627   2.237   2.447  11.877  0.3556  0.0587 -2.1066
 9332SOL     OW39628   3.650   0.701   0.686  0.2718 -0.7474 -0.4177
 9332SOL    HW139629   3.634   0.783   0.733 -0.6801 -1.2390  0.1098
 9332SOL    HW239630   3.737   0.673   0.716  0.6766 -0.5748 -1.4139
 9333SOL     OW39631   1.325   4.223  16.103 -0.0486  0.4622  0.3775
 9333SOL    HW139632   1.377   4.253  16.177  1.2793  0.0861 -0.4132
 9333SOL    HW239633   1.256   4.173  16.147 -1.4070  1.3737 -0.6939
 9334SOL     OW39634   1.319   0.604   2.675 -0.6994 -0.1033  0.0672
 9334SOL    HW139635   1.300   0.609   2.769  1.2745  0.6480  0.4226
 9334SOL    HW239636   1.376   0.680   2.667 -0.8983 -0.0788 -1.2246
 9335SOL     OW39637   1.663   3.242   7.575 -0.6338 -0.3198 -0.2773
 9335SOL    HW139638   1.677   3.237   7.669  2.4384  0.2923 -0.6876
 9335SOL    HW239639   1.744   3.195   7.551 -1.4059 -2.1296  0.6290
 9336SOL     OW39640   4.283   2.022   4.653 -0.6146  0.3493 -0.1441
 9336SOL    HW139641   4.235   1.994   4.575  1.2957 -1.2705 -0.7380
 9336SOL    HW239642   4.279   1.946   4.712  2.6069 -0.4085 -0.9209
 9337SOL     OW39643   3.667   3.601  10.771 -0.1376 -0.6349  0.0219
 9337SOL    HW139644   3.680   3.521  10.720 -0.9704 -1.8361  1.7284
 9337SOL    HW239645   3.624   3.572  10.851 -2.0820  1.6354 -0.1674
 9338SOL     OW39646   1.734   2.514   5.641 -0.4527 -0.4783 -0.7756
 9338SOL    HW139647   1.789   2.439   5.663  0.0411  0.3728  0.8811
 9338SOL    HW239648   1.715   2.508   5.548 -0.5489  1.5669 -0.8955
 9339SOL     OW39649   0.925   2.187   3.417 -0.2807  0.1535  0.1372
 9339SOL    HW139650   0.927   2.092   3.414 -0.9136 -0.0077  4.4675
 9339SOL    HW239651   0.988   2.192   3.489 -0.2490 -1.5018  0.2223
 9340SOL     OW39652   1.735   1.249   3.480 -0.2493  0.2673 -0.2358
 9340SOL    HW139653   1.655   1.206   3.511  0.0556 -0.6342 -0.6863
 9340SOL    HW239654   1.754   1.332   3.523  0.9506 -0.5378  0.8012
 9341SOL     OW39655   3.616   1.744   2.887  0.4741  0.0207 -0.0272
 9341SOL    HW139656   3.590   1.676   2.825 -2.7880  1.1244  0.1206
 9341SOL    HW239657   3.527   1.769   2.912  0.5350  1.0976 -0.9391
 9342SOL     OW39658   1.782   1.220  12.559 -0.2305 -0.5817  0.5176
 9342SOL    HW139659   1.793   1.307  12.519 -3.4750 -0.3844  0.0599
 9342SOL    HW239660   1.825   1.163  12.495  2.5555  1.6478  0.3832
 9343SOL     OW39661   1.989   3.770   5.344 -0.0239 -0.1110  0.0567
 9343SOL    HW139662   2.021   3.809   5.263 -0.3271 -1.5053 -0.7354
 9343SOL    HW239663   1.936   3.696   5.315 -1.1235  1.1880 -1.2861
 9344SOL     OW39664   2.684   4.616   7.754  0.1549 -0.6042  0.4321
 9344SOL    HW139665   2.593   4.640   7.734 -0.1036 -0.8036  1.3964
 9344SOL    HW239666   2.704   4.668   7.831 -0.6822  0.1936  0.1168
 9345SOL     OW39667   3.008   2.999   5.828  0.0358 -0.0514  0.1613
 9345SOL    HW139668   3.054   2.921   5.861  0.4480 -0.3432 -1.1321
 9345SOL    HW239669   3.022   2.990   5.734  1.5820 -1.5652  0.5373
 9346SOL     OW39670   1.951   3.212  15.182  0.0079 -0.2328  0.0032
 9346SOL    HW139671   1.974   3.305  15.179 -0.5074 -0.0701  1.1375
 9346SOL    HW239672   1.879   3.215  15.119  0.0742  0.0666 -0.0579
 9347SOL     OW39673   4.292   2.850   1.926 -0.4368 -0.5640  0.1396
 9347SOL    HW139674   4.315   2.801   2.004 -1.5429 -1.6861 -0.2315
 9347SOL    HW239675   4.250   2.927   1.966  1.2112  1.7376 -2.5046
 9348SOL     OW39676   2.583   3.822   5.054 -0.2712  0.2290  0.4192
 9348SOL    HW139677   2.530   3.890   5.012 -0.9257 -0.3842  0.2597
 9348SOL    HW239678   2.523   3.753   5.025  0.3825 -0.0827 -0.1849
 9349SOL     OW39679   2.348   1.889   2.426  0.4817 -0.0945  0.1877
 9349SOL    HW139680   2.351   1.865   2.334 -0.9316  1.7195 -0.3380
 9349SOL    HW239681   2.437   1.882   2.460  0.2230 -3.1394  0.1886
 9350SOL     OW39682   1.051   1.759   4.295 -0.3416 -0.0677 -0.0605
 9350SOL    HW139683   1.050   1.708   4.215 -3.3920 -0.3313  0.1164
 9350SOL    HW239684   1.145   1.757   4.311 -0.2915  2.9993  0.0245
 9351SOL     OW39685   4.406   4.462  16.389  0.6555 -0.1975  0.0605
 9351SOL    HW139686   4.404   4.543  16.439  0.6591 -0.4044  0.4016
 9351SOL    HW239687   4.387   4.397  16.457 -0.2784 -1.5967 -1.5153
 9352SOL     OW39688   2.546   4.537   4.641  0.1162 -0.4522  0.2487
 9352SOL    HW139689   2.476   4.526   4.577 -0.2454 -1.2090  0.7741
 9352SOL    HW239690   2.492   4.527   4.720  2.0542  3.7019  2.0839
 9353SOL     OW39691   3.047   3.318   7.126 -0.3181  0.1505 -0.1033
 9353SOL    HW139692   3.031   3.410   7.102  0.5195  0.1935 -0.4813
 9353SOL    HW239693   2.956   3.288   7.133 -0.0245 -0.2248  1.9359
 9354SOL     OW39694   3.867   3.407  12.749  0.0279  0.3834 -0.6218
 9354SOL    HW139695   3.953   3.444  12.728  0.4178 -1.0445 -1.5100
 9354SOL    HW239696   3.826   3.482  12.792  0.7653  1.4537 -1.7910
 9355SOL     OW39697   2.660   0.293   3.237  0.2397 -0.6774 -0.3882
 9355SOL    HW139698   2.574   0.282   3.197  0.2117 -1.1986 -0.1819
 9355SOL    HW239699   2.663   0.389   3.236 -1.2188 -0.6414 -0.8463
 9356SOL     OW39700   1.398   1.071   9.727 -0.0206 -0.2208 -0.3057
 9356SOL    HW139701   1.416   0.981   9.702  0.8078 -0.4606  1.1740
 9356SOL    HW239702   1.303   1.075   9.733  0.0798  0.4031  0.9147
 9357SOL     OW39703   1.865   0.049   5.737  0.2080 -0.3699  0.2104
 9357SOL    HW139704   1.902   4.701   5.774  1.5256  0.9507  1.6793
 9357SOL    HW239705   1.916   0.069   5.658  0.2555 -0.2023  0.2849
 9358SOL     OW39706   4.697   0.102   7.762 -0.2354 -0.1240  0.0869
 9358SOL    HW139707   4.700   0.013   7.729 -0.4768  0.2495 -0.9450
 9358SOL    HW239708   4.643   0.144   7.695 -1.5402 -2.2719 -0.1886
 9359SOL     OW39709   0.693   2.775   1.490  0.1607  0.3875 -0.0040
 9359SOL    HW139710   0.687   2.741   1.401  0.5165 -1.5610  0.7313
 9359SOL    HW239711   0.758   2.723   1.537 -1.6673 -1.4550  0.4615
 9360SOL     OW39712   3.650   3.445   5.524  0.1510 -0.6641  0.1462
 9360SOL    HW139713   3.739   3.481   5.521  1.5875 -4.1542  0.8440
 9360SOL    HW239714   3.624   3.452   5.616  0.3611 -2.1408  0.3135
 9361SOL     OW39715   2.050   2.435   3.844 -0.2040  0.8682  0.4609
 9361SOL    HW139716   2.038   2.347   3.809 -0.5068  0.6137  1.2017
 9361SOL    HW239717   2.000   2.433   3.926 -0.9587 -1.3786 -0.0596
 9362SOL     OW39718   1.940   1.646   9.454 -0.1450 -0.1960 -0.0097
 9362SOL    HW139719   1.967   1.599   9.532  2.0028 -0.8815 -1.1752
 9362SOL    HW239720   1.849   1.615   9.446 -0.3876  0.4933  0.0775
 9363SOL     OW39721   0.451   2.422   1.923  0.4995  0.3993  0.8085
 9363SOL    HW139722   0.501   2.501   1.902  1.9781 -0.4163  1.2409
 9363SOL    HW239723   0.416   2.400   1.837 -1.1068  0.3782  1.4650
 9364SOL     OW39724   1.237   1.048   0.496  0.0631 -0.2142 -0.2199
 9364SOL    HW139725   1.329   1.069   0.489  0.2904 -1.3138 -0.5961
 9364SOL    HW239726   1.213   0.991   0.423  2.4184 -1.1047 -0.2967
 9365SOL     OW39727   2.498   3.936   3.885  0.7883 -0.0576 -0.0561
 9365SOL    HW139728   2.501   3.848   3.847  1.0324  0.3206 -0.9162
 9365SOL    HW239729   2.546   3.921   3.966 -0.7721  1.0647  1.0786
 9366SOL     OW39730   3.890   3.507  11.044 -0.3299  0.4994 -0.6800
 9366SOL    HW139731   3.915   3.424  11.003 -1.0783  0.2841 -0.7083
 9366SOL    HW239732   3.944   3.566  10.992  0.4395  0.0197 -0.4215
 9367SOL     OW39733   4.555   3.201   1.085 -0.6209  0.3847  0.1692
 9367SOL    HW139734   4.553   3.132   1.018  0.0954 -0.1066  0.6574
 9367SOL    HW239735   4.516   3.274   1.036 -0.3363  0.6578  0.3420
 9368SOL     OW39736   2.109   3.524  14.623 -0.5059 -0.3923  0.2285
 9368SOL    HW139737   2.152   3.496  14.542 -1.8016  2.3897 -1.4249
 9368SOL    HW239738   2.053   3.598  14.597  1.1782  0.0212 -2.2728
 9369SOL     OW39739   2.221   0.565   5.887  0.1005  0.2227 -0.1408
 9369SOL    HW139740   2.292   0.530   5.942  0.8699 -1.2050 -2.0521
 9369SOL    HW239741   2.264   0.595   5.807  1.5698  0.4151  0.7134
 9370SOL     OW39742   0.878   3.511   7.685  0.3083  0.3046  0.0505
 9370SOL    HW139743   0.965   3.473   7.676 -0.0118 -0.8947  1.8794
 9370SOL    HW239744   0.867   3.492   7.779 -1.1528  0.8855 -0.0003
 9371SOL     OW39745   0.454   0.003   4.521  0.4077  0.3493  0.2664
 9371SOL    HW139746   0.399   0.034   4.592  3.8335  1.5801  2.4068
 9371SOL    HW239747   0.408   4.652   4.511 -3.8688  2.4909  2.4833
 9372SOL     OW39748   3.271   0.143  10.388  0.2535 -0.3070 -0.0506
 9372SOL    HW139749   3.363   0.131  10.365  0.1753 -2.0964  0.5828
 9372SOL    HW239750   3.227   0.074  10.338 -1.6695 -1.3816  3.1021
 9373SOL     OW39751   2.647   3.875   3.557  0.5029  0.1479  0.0227
 9373SOL    HW139752   2.671   3.827   3.636  0.7495 -0.9995 -0.7483
 9373SOL    HW239753   2.553   3.858   3.566  0.3889 -0.0809 -1.6123
 9374SOL     OW39754   2.960   3.004   4.113  0.0244 -0.2844 -1.1973
 9374SOL    HW139755   2.993   3.090   4.138 -0.2554 -0.0571 -1.6128
 9374SOL    HW239756   3.040   2.964   4.081  0.3842  0.5376 -1.3386
 9375SOL     OW39757   1.902   1.987   0.110  0.0760  0.8011 -0.3455
 9375SOL    HW139758   1.886   1.976   0.017  0.5517 -3.6205  0.1247
 9375SOL    HW239759   1.809   1.978   0.134  0.3955  1.1048  1.0060
 9376SOL     OW39760   1.742   3.275  16.494 -0.2192  0.2884 -0.0537
 9376SOL    HW139761   1.732   3.181  16.479  0.8266  0.2646 -0.5693
 9376SOL    HW239762   1.827   3.304  16.462 -1.8007  2.9986 -1.7008
 9377SOL     OW39763   3.378   1.524   5.706 -0.2178 -0.5360  0.4717
 9377SOL    HW139764   3.400   1.431   5.703  0.4259 -0.3152 -2.4773
 9377SOL    HW239765   3.377   1.548   5.798 -0.1190  0.0129  0.3305
 9378SOL     OW39766   1.971   2.232  10.107  0.0573  0.1668 -0.4070
 9378SOL    HW139767   1.977   2.162  10.041 -2.5775 -1.1586  0.7536
 9378SOL    HW239768   1.989   2.189  10.190  1.3512 -0.0262 -0.7959
 9379SOL     OW39769   4.018   3.176   7.909 -0.4074  0.2501 -0.3242
 9379SOL    HW139770   3.970   3.129   7.841 -0.0362  1.6657 -1.5564
 9379SOL    HW239771   3.942   3.177   7.967  0.3677  1.6714  0.6771
 9380SOL     OW39772   1.431   1.292  12.051  0.0361  0.7345  0.0457
 9380SOL    HW139773   1.348   1.310  12.095  1.3931  3.1693  1.6017
 9380SOL    HW239774   1.425   1.197  12.057  2.1950  0.5416 -0.8091
 9381SOL     OW39775   0.088   0.877   8.361  0.1068 -0.3689 -0.4638
 9381SOL    HW139776   0.130   0.793   8.380  3.1134  1.1644 -0.3959
 9381SOL    HW239777   0.002   0.871   8.404  0.0756  0.2549 -0.4457
 9382SOL     OW39778   2.854   0.479   4.211  0.2895 -0.0561 -0.1772
 9382SOL    HW139779   2.833   0.503   4.302 -0.0750 -0.6445 -0.1127
 9382SOL    HW239780   2.788   0.412   4.195  0.1500  0.3357 -1.2084
 9383SOL     OW39781   1.598   0.750   3.472 -0.1476 -0.0571 -0.0650
 9383SOL    HW139782   1.633   0.762   3.384  0.6844 -0.4883  0.2044
 9383SOL    HW239783   1.662   0.689   3.509 -0.6654  0.1757  1.2346
 9384SOL     OW39784   0.282   1.604   7.681 -0.0649 -0.2715  0.4656
 9384SOL    HW139785   0.271   1.550   7.760 -2.8235  0.4892  0.6173
 9384SOL    HW239786   0.197   1.592   7.639 -0.0922  0.9500  0.1619
 9385SOL     OW39787   0.587   0.354   2.434 -0.0078  0.2127  0.4989
 9385SOL    HW139788   0.636   0.394   2.507  0.4307 -0.2202  0.4439
 9385SOL    HW239789   0.544   0.283   2.483  1.3871 -1.0576 -0.1042
 9386SOL     OW39790   0.227   0.323   8.992  0.4066  0.5267 -0.8512
 9386SOL    HW139791   0.264   0.410   8.975  3.5870 -0.5961  0.2847
 9386SOL    HW239792   0.183   0.298   8.911 -0.6155  0.9524 -0.4287
 9387SOL     OW39793   2.440   1.121   4.739 -0.0609 -0.0951  0.7268
 9387SOL    HW139794   2.477   1.203   4.704 -0.0806 -1.0813 -1.5795
 9387SOL    HW239795   2.498   1.061   4.691 -0.5648  1.6655 -2.0729
 9388SOL     OW39796   1.659   4.267  12.418  0.1974 -0.2269 -0.0489
 9388SOL    HW139797   1.696   4.337  12.472 -2.1656  1.0829 -0.1441
 9388SOL    HW239798   1.704   4.291  12.338 -1.2321  0.7807 -0.5534
 9389SOL     OW39799   3.527   2.409   5.561 -0.4363 -0.0160 -0.1604
 9389SOL    HW139800   3.465   2.448   5.500  1.5442  1.1683 -1.4243
 9389SOL    HW239801   3.592   2.479   5.569  0.8135 -1.3191  1.1979
 9390SOL     OW39802   0.965   3.912  12.867 -0.1051  1.0006 -0.4871
 9390SOL    HW139803   1.009   3.928  12.951 -0.5897  0.6874 -0.1737
 9390SOL    HW239804   0.909   3.988  12.854 -1.6198 -0.1353 -0.6257
 9391SOL     OW39805   0.462   3.276   6.590  0.6432 -0.0641  0.4036
 9391SOL    HW139806   0.547   3.240   6.566  0.9350  1.7409 -1.2985
 9391SOL    HW239807   0.462   3.276   6.685 -1.1750 -0.6361  0.4145
 9392SOL     OW39808   2.445   4.396   6.610  0.0035 -0.1294 -0.5233
 9392SOL    HW139809   2.488   4.362   6.531  0.5428 -0.4495 -0.0858
 9392SOL    HW239810   2.474   4.487   6.612 -0.4333 -0.0098  0.3977
 9393SOL     OW39811   4.272   2.984   3.997  0.2695 -0.6818 -0.0397
 9393SOL    HW139812   4.218   3.062   3.984  1.0870 -0.1254 -0.0952
 9393SOL    HW239813   4.256   2.954   4.086 -3.0364  0.6623 -0.1947
 9394SOL     OW39814   3.183   2.108  17.667 -0.0179  0.3799  0.3948
 9394SOL    HW139815   3.262   2.131  17.716  1.1223 -0.0623 -1.2011
 9394SOL    HW239816   3.141   2.191  17.642 -0.5896 -0.1817 -0.5293
 9395SOL     OW39817   3.707   3.567   1.981 -0.3092  0.7194 -0.3901
 9395SOL    HW139818   3.707   3.564   1.885 -1.1750 -1.1151 -0.3244
 9395SOL    HW239819   3.774   3.631   2.005  0.1838  1.0011 -2.5595
 9396SOL     OW39820   0.423   3.479   9.336  0.2831  0.4758  0.1293
 9396SOL    HW139821   0.369   3.531   9.276 -0.5278  2.3425  2.4783
 9396SOL    HW239822   0.512   3.481   9.299 -0.9608  1.6939 -2.7717
 9397SOL     OW39823   3.557   2.999   5.293 -0.2282 -0.0507 -0.1643
 9397SOL    HW139824   3.511   2.923   5.327  0.7462  0.1640  1.6547
 9397SOL    HW239825   3.628   2.957   5.245 -0.7140  0.3511 -1.2399
 9398SOL     OW39826   0.070   0.336   5.897  0.3072 -0.1340  0.6063
 9398SOL    HW139827   0.007   0.324   5.968 -0.8090  1.7015 -0.0853
 9398SOL    HW239828   0.023   0.390   5.833  1.2386 -2.5360 -2.0999
 9399SOL     OW39829   0.147   1.394   8.943  0.4833 -0.4840 -0.5684
 9399SOL    HW139830   0.182   1.480   8.919 -0.7778  0.2876  0.3786
 9399SOL    HW239831   0.204   1.386   9.020  0.3995 -0.4432 -0.5029
 9400SOL     OW39832   1.689   3.267   2.359  0.3735  0.2829  0.0255
 9400SOL    HW139833   1.678   3.202   2.428 -4.0576 -1.3885 -2.2914
 9400SOL    HW239834   1.598   3.276   2.329  0.0334 -2.8114  0.1054
 9401SOL     OW39835   0.823   1.426   3.917  0.1516 -0.2218  0.0718
 9401SOL    HW139836   0.873   1.495   3.960  0.4156  0.1659 -0.8530
 9401SOL    HW239837   0.734   1.457   3.902  0.7698  1.5310  0.0443
 9402SOL     OW39838   1.776   2.740  13.963  0.0423  0.4588  0.7150
 9402SOL    HW139839   1.845   2.718  14.026 -1.2428  0.1837  2.0255
 9402SOL    HW239840   1.820   2.805  13.908 -0.3457 -1.0988 -1.4571
 9403SOL     OW39841   4.213   0.255   7.872 -0.3831  0.1197  0.1935
 9403SOL    HW139842   4.178   0.338   7.904 -0.7380  0.8518 -2.0816
 9403SOL    HW239843   4.305   0.278   7.859  0.0065 -2.0611 -0.7446
 9404SOL     OW39844   1.900   0.770  17.413 -0.2027 -0.2062  0.4898
 9404SOL    HW139845   1.835   0.833  17.442  0.4791  0.8755 -0.3214
 9404SOL    HW239846   1.845   0.695  17.390  1.7355 -1.3857 -0.3143
 9405SOL     OW39847   1.040   2.815  15.834  0.2320  1.0806  0.9403
 9405SOL    HW139848   1.081   2.790  15.751 -1.0380  2.0973  0.0277
 9405SOL    HW239849   1.116   2.835  15.889  1.2957  0.6127 -0.3435
 9406SOL     OW39850   3.907   1.835   6.938 -0.5018  0.0269 -0.3250
 9406SOL    HW139851   3.877   1.848   6.848 -0.4952  0.0324 -0.3263
 9406SOL    HW239852   3.962   1.912   6.952 -0.0252 -0.1945 -0.9647
 9407SOL     OW39853   3.714   1.898  17.213 -0.3292 -0.1517 -0.2894
 9407SOL    HW139854   3.667   1.826  17.255 -3.0923  1.1696 -1.1463
 9407SOL    HW239855   3.651   1.963  17.246  0.2472  0.6536 -0.7789
 9408SOL     OW39856   3.723   2.994   9.551  0.5169 -0.0544  0.6800
 9408SOL    HW139857   3.701   2.908   9.516 -1.6930  0.4156  0.9487
 9408SOL    HW239858   3.817   2.998   9.530  1.0708  1.1489  3.3588
 9409SOL     OW39859   0.824   4.408   8.403  0.2755  0.1882 -0.4478
 9409SOL    HW139860   0.804   4.391   8.311 -1.3053  2.1294 -0.4674
 9409SOL    HW239861   0.744   4.372   8.440  0.1062  0.3250 -0.6827
 9410SOL     OW39862   1.637   2.142   2.038  0.3892  0.0813  0.7667
 9410SOL    HW139863   1.547   2.151   2.006  0.5701 -0.8202  0.0004
 9410SOL    HW239864   1.630   2.086   2.115  1.9173 -0.6349  0.3866
 9411SOL     OW39865   1.664   2.126  15.453 -0.1858 -0.8849  0.5042
 9411SOL    HW139866   1.614   2.101  15.376 -0.4348  0.4340  0.2244
 9411SOL    HW239867   1.674   2.035  15.480  1.1878 -1.3159 -1.4586
 9412SOL     OW39868   2.390   0.628   2.345 -0.0299  0.4836  0.1582
 9412SOL    HW139869   2.394   0.575   2.425 -1.1775  0.3982  0.1556
 9412SOL    HW239870   2.425   0.714   2.368  1.4418 -0.1604  0.2979
 9413SOL     OW39871   0.754   2.826  15.837 -0.3394 -0.4818  0.3827
 9413SOL    HW139872   0.749   2.920  15.856 -0.2283 -0.4485  0.2409
 9413SOL    HW239873   0.845   2.803  15.852 -0.1923 -0.7467 -0.9298
 9414SOL     OW39874   2.139   1.382  17.139 -0.1558  0.1007  0.0341
 9414SOL    HW139875   2.086   1.324  17.194  1.3128 -0.9451  0.3451
 9414SOL    HW239876   2.190   1.320  17.086  1.7988  0.8609  1.0131
 9415SOL     OW39877   4.010   3.406  16.697 -0.3427 -0.2294  0.4303
 9415SOL    HW139878   4.097   3.405  16.657  1.3698  1.2580  4.1266
 9415SOL    HW239879   4.021   3.468  16.770  0.0546  0.3863 -0.1537
 9416SOL     OW39880   4.605   0.534  10.159 -0.9029  0.0981  0.2784
 9416SOL    HW139881   4.562   0.489  10.232 -0.2576 -1.1861 -0.1340
 9416SOL    HW239882   4.620   0.469  10.090  1.1919  0.7090  0.1736
 9417SOL     OW39883   2.224   2.296   8.296  0.0352 -0.7349 -0.6010
 9417SOL    HW139884   2.154   2.327   8.354  0.7974  0.3712 -0.2628
 9417SOL    HW239885   2.290   2.273   8.362  0.8679 -1.9084 -1.8495
 9418SOL     OW39886   0.499   2.879   4.407  0.1307  0.0738 -0.3960
 9418SOL    HW139887   0.551   2.876   4.327 -1.3405  1.5439 -1.4095
 9418SOL    HW239888   0.529   2.965   4.436  2.2348 -0.9240  0.3717
 9419SOL     OW39889   4.299   4.653  10.464 -0.2458  0.2628 -0.0583
 9419SOL    HW139890   4.368   4.620  10.406 -1.3402 -0.1588 -1.1182
 9419SOL    HW239891   4.246   4.575  10.480 -0.2569  1.2682  4.8811
 9420SOL     OW39892   3.908   3.556   7.150  0.1682  0.0244 -0.0060
 9420SOL    HW139893   3.881   3.472   7.115  3.1745 -0.7805 -0.4454
 9420SOL    HW239894   3.944   3.524   7.233  0.6440 -1.3098 -0.7272
 9421SOL     OW39895   0.245   3.144   1.154  0.9437 -0.3321 -0.0722
 9421SOL    HW139896   0.269   3.055   1.177  3.4419 -0.2093 -2.2410
 9421SOL    HW239897   0.320   3.191   1.192 -0.2148  2.3083 -0.9898
 9422SOL     OW39898   0.143   2.599   4.391  0.2452 -0.0210  0.4023
 9422SOL    HW139899   0.048   2.606   4.399  0.2138  2.1934 -1.8277
 9422SOL    HW239900   0.174   2.687   4.368  2.8146 -1.0363 -0.0421
 9423SOL     OW39901   2.117   0.355   6.145  0.3046 -0.1170  0.5143
 9423SOL    HW139902   2.033   0.371   6.188  0.1046 -1.3386  0.5879
 9423SOL    HW239903   2.117   0.422   6.077  0.6762 -0.9917 -0.3617
 9424SOL     OW39904   0.818   3.004  14.875 -0.2706 -0.0946  0.6196
 9424SOL    HW139905   0.773   3.021  14.791  1.6683 -1.1412 -0.6176
 9424SOL    HW239906   0.836   2.910  14.873 -1.1419 -0.2101 -1.9355
 9425SOL     OW39907   3.249   0.837   4.626 -0.0035  0.4651  0.3979
 9425SOL    HW139908   3.312   0.893   4.581 -0.4188  0.6135 -0.0012
 9425SOL    HW239909   3.309   0.796   4.688  0.0006 -0.8499 -0.4810
 9426SOL     OW39910   2.844   4.066   3.461 -0.4268 -0.0056 -0.1923
 9426SOL    HW139911   2.767   4.029   3.503 -0.2275 -1.8333 -1.4643
 9426SOL    HW239912   2.913   4.016   3.504 -0.8767 -0.1865  0.3207
 9427SOL     OW39913   1.082   1.719  10.904 -0.4904  0.2909  0.3003
 9427SOL    HW139914   1.006   1.681  10.946  2.1445 -2.0188  2.9838
 9427SOL    HW239915   1.143   1.715  10.978  0.0648  1.0278 -0.1163
 9428SOL     OW39916   3.520   0.587   4.279 -0.4598  0.1934 -0.4067
 9428SOL    HW139917   3.503   0.678   4.256  0.5569  0.4223 -0.2767
 9428SOL    HW239918   3.516   0.540   4.197  1.2766  0.7835 -0.8335
 9429SOL     OW39919   2.035   1.744   5.249 -0.0251 -0.0634 -0.0579
 9429SOL    HW139920   1.975   1.765   5.178 -1.2349 -3.6484 -0.0862
 9429SOL    HW239921   2.122   1.769   5.218  0.2175 -1.6570 -0.6326
 9430SOL     OW39922   1.352   2.680   7.178 -0.4743 -0.2803  0.4199
 9430SOL    HW139923   1.275   2.652   7.130  0.5309 -1.1415 -0.7038
 9430SOL    HW239924   1.411   2.681   7.103 -1.7265 -0.9529 -0.5706
 9431SOL     OW39925   0.885   3.449   2.357  1.0052  0.9599  0.9816
 9431SOL    HW139926   0.881   3.460   2.452 -1.0558  0.0367  0.9940
 9431SOL    HW239927   0.968   3.497   2.346  1.1906 -0.2495 -2.8868
 9432SOL     OW39928   0.438   2.431   4.624  0.1664  0.2972 -0.6881
 9432SOL    HW139929   0.405   2.500   4.566  0.9552  0.9608 -0.3470
 9432SOL    HW239930   0.525   2.470   4.637  1.5399 -2.2275 -2.4848
 9433SOL     OW39931   3.072   0.850   1.906 -0.4223 -0.1628 -0.3632
 9433SOL    HW139932   3.074   0.907   1.829 -1.8038  1.0000  0.4720
 9433SOL    HW239933   3.152   0.800   1.887 -1.8212 -2.4132 -0.4081
 9434SOL     OW39934   0.685   2.930   3.689  0.3732 -0.0571  0.3554
 9434SOL    HW139935   0.759   2.943   3.629 -0.2072  1.4323 -0.0269
 9434SOL    HW239936   0.703   2.836   3.684 -0.0784 -0.2931  3.0806
 9435SOL     OW39937   3.604   1.793   9.426  0.0649 -0.5221  0.0261
 9435SOL    HW139938   3.528   1.736   9.440  0.3401 -1.0436 -0.6285
 9435SOL    HW239939   3.604   1.799   9.330  1.8902 -0.2073  0.0584
 9436SOL     OW39940   0.286   1.433   3.553  0.0043  0.7063  0.0453
 9436SOL    HW139941   0.345   1.378   3.500  0.4971 -1.6954  3.0852
 9436SOL    HW239942   0.347   1.505   3.565 -0.7935  1.4144 -0.1767
 9437SOL     OW39943   3.539   3.714   1.526 -0.0116  0.0563 -0.0616
 9437SOL    HW139944   3.487   3.635   1.512 -0.5476  0.1287  1.4592
 9437SOL    HW239945   3.625   3.694   1.488 -0.2879 -0.2058 -0.5380
 9438SOL     OW39946   4.596   0.023   9.663  0.0085  0.4418  0.8189
 9438SOL    HW139947   4.665   0.082   9.695  2.0211 -0.7145 -1.3752
 9438SOL    HW239948   4.624   4.665   9.677  0.9409  0.7557  1.0253
 9439SOL     OW39949   3.040   2.136  15.191 -0.1377  0.3230  0.3833
 9439SOL    HW139950   2.974   2.188  15.237  0.3622 -0.7921  2.3968
 9439SOL    HW239951   3.124   2.178  15.205 -0.9642  1.8712  0.7820
 9440SOL     OW39952   1.328   2.855   1.949  0.2310 -0.3728  0.1874
 9440SOL    HW139953   1.421   2.839   1.938  0.2623  0.9843 -1.4637
 9440SOL    HW239954   1.298   2.795   1.881  0.3628 -2.5989  2.0747
 9441SOL     OW39955   0.532   2.645   4.236 -0.3866 -0.2136 -0.0709
 9441SOL    HW139956   0.470   2.697   4.185 -2.6740 -2.4154  0.4807
 9441SOL    HW239957   0.487   2.571   4.277 -0.4724  0.1741  0.5292
 9442SOL     OW39958   3.928   2.717   8.852  0.1305 -0.8188 -0.0512
 9442SOL    HW139959   3.916   2.626   8.877 -2.4591  0.1309  2.1775
 9442SOL    HW239960   4.006   2.717   8.797  0.5765 -1.9903  0.5942
 9443SOL     OW39961   0.254   0.116   9.174  0.2018 -0.3119  0.5979
 9443SOL    HW139962   0.239   0.191   9.117  2.6693 -0.1750  0.0979
 9443SOL    HW239963   0.349   0.108   9.161  0.2903  2.0595 -0.1820
 9444SOL     OW39964   3.683   2.525   3.647  0.1161  1.1387  0.4146
 9444SOL    HW139965   3.748   2.458   3.629 -0.9071  0.7770 -1.9767
 9444SOL    HW239966   3.735   2.597   3.682  0.4379  0.2204  1.8387
 9445SOL     OW39967   1.377   4.636   5.551  0.6211  0.1105  0.6327
 9445SOL    HW139968   1.460   4.671   5.582  0.9758  0.9596 -1.2615
 9445SOL    HW239969   1.364   4.565   5.613  0.3911 -1.3313 -1.0686
 9446SOL     OW39970   4.038   2.989  17.596 -0.1656 -0.3065 -0.2104
 9446SOL    HW139971   4.055   3.078  17.627 -1.4340 -0.3676  0.6853
 9446SOL    HW239972   4.105   2.933  17.634 -0.2691 -1.9605 -2.5255
 9447SOL     OW39973   1.785   0.227   4.044  0.0130  0.0779 -0.8997
 9447SOL    HW139974   1.705   0.176   4.059  1.2433 -1.8707 -0.9537
 9447SOL    HW239975   1.776   0.289   4.116  0.9445 -0.0343 -0.6892
 9448SOL     OW39976   2.667   0.070   5.182  0.6535  0.1130 -0.1895
 9448SOL    HW139977   2.616   0.152   5.179 -0.6257 -0.7594 -1.9957
 9448SOL    HW239978   2.630   0.044   5.098 -1.6757  0.6252  0.6909
 9449SOL     OW39979   2.349   3.048   3.030 -0.1179 -1.1880  0.2716
 9449SOL    HW139980   2.274   2.995   3.055  0.0559 -1.8315 -0.5575
 9449SOL    HW239981   2.327   3.125   3.082 -1.5327 -1.4711  0.0960
 9450SOL     OW39982   2.462   0.773   9.348  0.5799  0.3507  0.4926
 9450SOL    HW139983   2.443   0.746   9.259  1.4626 -0.9599  0.6967
 9450SOL    HW239984   2.429   0.862   9.350  0.1054  0.2019 -1.1879
 9451SOL     OW39985   4.204   2.933   2.644  0.2502  0.0399  0.2522
 9451SOL    HW139986   4.299   2.923   2.634  0.1835  1.0524 -1.4672
 9451SOL    HW239987   4.199   3.026   2.623 -0.6679 -0.4955 -1.9050
 9452SOL     OW39988   0.018   4.202   1.517  0.1232  0.2312 -0.0284
 9452SOL    HW139989   0.082   4.163   1.576  0.7169  2.6785  0.9514
 9452SOL    HW239990   0.055   4.290   1.512  0.3049 -0.0399 -3.2452
 9453SOL     OW39991   2.006   4.526  10.694 -0.4440 -0.0243 -0.0704
 9453SOL    HW139992   1.952   4.479  10.757 -1.3573 -0.5391 -1.2391
 9453SOL    HW239993   2.054   4.587  10.750 -0.6346  0.3419 -0.3075
 9454SOL     OW39994   4.455   4.336   0.474 -0.5012 -0.1918  0.3378
 9454SOL    HW139995   4.487   4.423   0.452  2.9696 -2.1880 -2.4150
 9454SOL    HW239996   4.373   4.329   0.425 -1.3338 -1.8249  1.9258
 9455SOL     OW39997   2.475   0.145  10.945  0.5072  0.0453 -0.0607
 9455SOL    HW139998   2.453   0.204  11.018 -0.3378 -0.0003 -0.2744
 9455SOL    HW239999   2.412   0.164  10.875  0.8027 -0.1130 -0.3710
 9456SOL     OW40000   4.679   2.157   3.947  0.0957  0.6468 -0.1043
 9456SOL    HW140001   0.007   2.086   3.968  0.3144  0.8224 -0.1409
 9456SOL    HW240002   4.603   2.104   3.925  0.7063 -0.2672  0.0106
 9457SOL     OW40003   1.211   4.441   2.107 -0.0471 -0.5270 -0.0795
 9457SOL    HW140004   1.118   4.447   2.128 -0.0716 -1.4132  0.0682
 9457SOL    HW240005   1.224   4.348   2.087 -1.6835 -0.5051 -1.2138
 9458SOL     OW40006   2.191   3.276   3.050 -0.1114 -0.5247 -0.8436
 9458SOL    HW140007   2.130   3.344   3.078  1.5843  1.3667 -1.7782
 9458SOL    HW240008   2.140   3.214   2.997 -0.3781 -0.8150 -0.2514
 9459SOL     OW40009   4.600   4.144  16.490  0.7053 -0.4879  0.5845
 9459SOL    HW140010   4.682   4.154  16.443 -0.1521  1.7729 -0.4496
 9459SOL    HW240011   4.611   4.219  16.548 -3.4981  0.8489 -0.3139
 9460SOL     OW40012   0.970   2.583   2.853  0.2890  0.5616  0.1115
 9460SOL    HW140013   0.904   2.531   2.807  0.6406  1.1415 -1.0635
 9460SOL    HW240014   1.048   2.540   2.817 -0.5721 -0.6982 -0.2156
 9461SOL     OW40015   0.731   1.171  16.409 -0.4867 -0.0755  0.2760
 9461SOL    HW140016   0.799   1.154  16.343 -0.5048 -2.5901  0.9218
 9461SOL    HW240017   0.658   1.150  16.351 -0.4015  1.4970 -0.4174
 9462SOL     OW40018   1.999   1.758   6.831 -0.1666 -0.4722  0.2763
 9462SOL    HW140019   2.049   1.752   6.749  1.8859 -0.4276  1.5195
 9462SOL    HW240020   1.980   1.852   6.824  1.3810 -0.2791 -1.6163
 9463SOL     OW40021   2.778   1.813   9.027 -0.3626 -0.2770 -0.3926
 9463SOL    HW140022   2.865   1.825   9.064 -1.8614  0.2728  2.9937
 9463SOL    HW240023   2.788   1.817   8.932  1.1924  2.9049 -0.1182
 9464SOL     OW40024   1.179   0.477   0.117  0.5883 -0.4160 -0.0816
 9464SOL    HW140025   1.227   0.528   0.182  0.3844 -0.1159 -0.1663
 9464SOL    HW240026   1.224   0.506   0.037 -1.2106  0.1764 -0.8826
 9465SOL     OW40027   4.541   1.078   4.027 -0.3931  0.0694  0.0941
 9465SOL    HW140028   4.630   1.050   4.005  0.2788  0.6142  2.1170
 9465SOL    HW240029   4.508   1.103   3.941  1.6666  1.4192 -0.3103
 9466SOL     OW40030   2.539   1.464   1.876 -0.0946 -0.4857  0.1505
 9466SOL    HW140031   2.586   1.544   1.898 -0.8861 -0.2931  1.0991
 9466SOL    HW240032   2.532   1.427   1.963  0.4069  1.6214  1.0858
 9467SOL     OW40033   0.644   0.467   2.981 -0.2195  0.1879  0.2593
 9467SOL    HW140034   0.666   0.512   3.063 -1.0526  1.9004 -0.4629
 9467SOL    HW240035   0.647   0.380   3.022  2.2595  0.2581  0.2448
 9468SOL     OW40036   0.065   3.978   6.325  0.2011  0.0781  0.1972
 9468SOL    HW140037   0.153   3.980   6.286  1.1756 -1.6096  2.3090
 9468SOL    HW240038   0.023   4.008   6.245  0.4317  1.8965  0.7537
 9469SOL     OW40039   0.285   0.368  12.477  0.2249 -0.2414 -0.0407
 9469SOL    HW140040   0.356   0.337  12.421 -1.2262 -2.5833 -0.5703
 9469SOL    HW240041   0.210   0.343  12.424 -0.6468  0.5074  0.8424
 9470SOL     OW40042   0.793   3.998   5.117 -0.1346  0.9100 -0.2102
 9470SOL    HW140043   0.825   3.975   5.204  0.4043  1.7232 -0.1892
 9470SOL    HW240044   0.872   4.043   5.086  0.7159  0.3965  1.2049
 9471SOL     OW40045   0.355   4.653   2.533  0.2905  0.0326  0.6039
 9471SOL    HW140046   0.318   4.688   2.453  1.5621  1.4694  0.6351
 9471SOL    HW240047   0.405   4.731   2.558  2.0163 -1.1074  0.7216
 9472SOL     OW40048   1.395   1.761  15.392  0.1594 -0.0658 -0.2550
 9472SOL    HW140049   1.386   1.701  15.319  1.6023 -1.3596  0.6575
 9472SOL    HW240050   1.333   1.715  15.450 -1.6122  0.6176 -1.5972
 9473SOL     OW40051   3.805   2.545   6.576  0.0603  0.9037 -0.2706
 9473SOL    HW140052   3.732   2.604   6.596 -0.3050 -0.1011  1.3768
 9473SOL    HW240053   3.801   2.542   6.480 -2.1115  0.4848 -0.1589
 9474SOL     OW40054   3.860   2.076   3.307  0.0818  0.1714  0.2018
 9474SOL    HW140055   3.854   1.995   3.257 -0.2293 -1.2136  2.4743
 9474SOL    HW240056   3.948   2.090   3.271  1.2860 -1.2365  2.5629
 9475SOL     OW40057   0.839   4.298   1.662  0.1222 -0.4927 -0.0334
 9475SOL    HW140058   0.868   4.361   1.596  0.3489  0.9045  1.3930
 9475SOL    HW240059   0.858   4.353   1.738  0.8989 -1.7171  0.6625
 9476SOL     OW40060   1.221   2.723   6.754 -0.2767  0.0859  0.4176
 9476SOL    HW140061   1.213   2.718   6.658 -0.0685 -0.3180  0.4223
 9476SOL    HW240062   1.131   2.744   6.781  0.3775  0.6341  2.1648
 9477SOL     OW40063   3.539   0.131   8.874 -0.2926  0.2157  0.5386
 9477SOL    HW140064   3.618   0.184   8.887 -1.7450  2.1633  1.5063
 9477SOL    HW240065   3.546   0.078   8.953 -0.1349 -0.1629  0.2665
 9478SOL     OW40066   4.247   4.120   3.459 -0.7539 -0.3035  0.1954
 9478SOL    HW140067   4.220   4.201   3.417 -1.1271 -0.3100  0.4196
 9478SOL    HW240068   4.275   4.163   3.540 -1.6286  3.6818 -1.6466
 9479SOL     OW40069   2.421   3.144   1.791 -0.1104  0.4087 -0.6884
 9479SOL    HW140070   2.355   3.075   1.803  0.0886  0.4836  0.8967
 9479SOL    HW240071   2.428   3.128   1.697 -1.0375  1.5323 -0.9545
 9480SOL     OW40072   3.054   4.210   6.059 -0.2355 -0.3041 -0.4749
 9480SOL    HW140073   3.046   4.218   6.154 -1.5939  1.5900 -0.7537
 9480SOL    HW240074   3.149   4.203   6.052 -0.2828 -1.5820  0.0881
 9481SOL     OW40075   3.765   1.256   5.395 -0.0815  0.1672  0.3781
 9481SOL    HW140076   3.804   1.314   5.329 -1.8656  0.7234 -0.1943
 9481SOL    HW240077   3.683   1.229   5.354 -0.3666  0.4542  0.7594
 9482SOL     OW40078   2.411   0.378   4.500  0.0950  0.8370  0.1221
 9482SOL    HW140079   2.328   0.421   4.479  0.0935  1.3173  1.1271
 9482SOL    HW240080   2.436   0.362   4.409 -0.2428  0.8848  0.0203
 9483SOL     OW40081   1.804   2.268   5.713  0.1751 -0.3393 -0.2838
 9483SOL    HW140082   1.742   2.311   5.771 -0.5862 -0.0940 -1.2713
 9483SOL    HW240083   1.744   2.219   5.657 -0.7347 -0.0219  0.4314
 9484SOL     OW40084   4.696   0.870   4.683 -0.0544  0.1872  0.3991
 9484SOL    HW140085   0.031   0.930   4.649  2.6787 -2.9259  0.2559
 9484SOL    HW240086   0.002   0.785   4.661 -1.1122  0.4561 -2.4826
 9485SOL     OW40087   1.961   1.011  14.559  0.0349  0.4019  0.2263
 9485SOL    HW140088   1.912   0.929  14.562  1.2471 -0.3018  0.9074
 9485SOL    HW240089   1.894   1.073  14.530 -0.1436 -0.1143 -0.4621
 9486SOL     OW40090   2.870   3.748  12.704 -0.5464 -0.4438  0.6510
 9486SOL    HW140091   2.881   3.708  12.617  1.8546  1.3179  0.1193
 9486SOL    HW240092   2.836   3.670  12.747  1.8978 -1.0299  1.5168
 9487SOL     OW40093   1.129   1.699   5.127 -0.3007  0.2074  0.0590
 9487SOL    HW140094   1.128   1.607   5.100  1.1368  0.5777 -1.2433
 9487SOL    HW240095   1.216   1.699   5.168 -0.2990 -0.9037  0.0626
 9488SOL     OW40096   0.235   3.195  13.313 -0.3940 -0.3910  0.2041
 9488SOL    HW140097   0.140   3.188  13.328 -0.0692  0.4625  2.5393
 9488SOL    HW240098   0.251   3.127  13.247 -1.4142  0.3670 -0.8302
 9489SOL     OW40099   1.672   3.379   8.450  0.1341  0.0220 -0.1443
 9489SOL    HW140100   1.710   3.390   8.537 -1.6940  2.2165  0.3809
 9489SOL    HW240101   1.592   3.431   8.458  1.6751  2.3495  0.1379
 9490SOL     OW40102   0.677   0.739   8.086 -0.0408  0.0320 -0.7387
 9490SOL    HW140103   0.645   0.650   8.071 -1.3978  0.5154 -0.6681
 9490SOL    HW240104   0.697   0.763   7.996 -0.1680 -2.0189 -1.3097
 9491SOL     OW40105   3.981   4.283   4.824  0.4554  0.2762 -0.2836
 9491SOL    HW140106   3.915   4.345   4.856  0.3117  0.3518 -0.7218
 9491SOL    HW240107   4.063   4.330   4.836 -0.4250  1.8995 -0.6631
 9492SOL     OW40108   1.201   1.802   8.072 -0.1120 -0.0377  0.5346
 9492SOL    HW140109   1.165   1.819   7.985  0.6759 -0.2647  0.1567
 9492SOL    HW240110   1.212   1.895   8.092  1.0561  0.0799 -0.5984
 9493SOL     OW40111   1.127   3.880   8.422 -0.5251  0.0819  0.3049
 9493SOL    HW140112   1.200   3.936   8.451 -1.9766  1.9207  0.4198
 9493SOL    HW240113   1.184   3.813   8.384  1.5611  2.5348 -0.9094
 9494SOL     OW40114   0.521   1.750  11.599  0.5091  0.3089  0.0547
 9494SOL    HW140115   0.602   1.800  11.592  1.1697 -0.9324 -1.1367
 9494SOL    HW240116   0.484   1.776  11.514  2.4556 -1.2648 -1.2736
 9495SOL     OW40117   2.612   0.036   8.905  0.7249  0.4948  0.2704
 9495SOL    HW140118   2.575   0.118   8.939  1.5753  0.9084  0.2033
 9495SOL    HW240119   2.657   4.731   8.981 -0.0799 -2.7901 -0.8513
 9496SOL     OW40120   0.328   2.552   3.302 -0.0548  0.0682  0.0002
 9496SOL    HW140121   0.404   2.566   3.359  0.7991  0.5473 -1.2554
 9496SOL    HW240122   0.322   2.457   3.314 -0.8564  0.1641  0.3466
 9497SOL     OW40123   4.353   2.287   7.459  0.3448  0.3588  0.2059
 9497SOL    HW140124   4.371   2.250   7.545 -1.4702 -0.1532  0.3674
 9497SOL    HW240125   4.311   2.215   7.412  0.7222  0.0995  0.2721
 9498SOL     OW40126   2.602   2.750   5.111 -0.3958  0.3739 -0.0705
 9498SOL    HW140127   2.555   2.834   5.111  1.6056  1.4929  2.3221
 9498SOL    HW240128   2.611   2.749   5.015  1.7245 -2.0758  0.1718
 9499SOL     OW40129   2.589   2.830   5.463  0.5938  0.2000  0.1392
 9499SOL    HW140130   2.574   2.748   5.414  0.0724  0.2734  0.1807
 9499SOL    HW240131   2.542   2.815   5.545  1.2960 -0.8157  0.3673
 9500SOL     OW40132   0.022   3.303   0.659  0.4175  0.0244  0.6039
 9500SOL    HW140133   0.051   3.298   0.568 -0.3348 -4.2959  0.5887
 9500SOL    HW240134   4.665   3.266   0.661 -0.7343  2.6845 -2.0527
 9501SOL     OW40135   0.258   3.820   8.958  0.3458  0.0449  0.3402
 9501SOL    HW140136   0.335   3.875   8.972  0.2475  0.2625  0.0041
 9501SOL    HW240137   0.305   3.739   8.938 -1.9845 -1.3995  0.6779
 9502SOL     OW40138   3.749   0.811  13.645 -0.0443  0.6978  0.1143
 9502SOL    HW140139   3.695   0.820  13.566  0.9475 -0.4179 -0.6961
 9502SOL    HW240140   3.680   0.837  13.706  1.0977  0.9678  1.2833
 9503SOL     OW40141   3.362   3.030   9.695  0.1349 -0.5676  0.2590
 9503SOL    HW140142   3.411   3.093   9.642 -0.5137 -0.4762 -0.2280
 9503SOL    HW240143   3.288   3.087   9.715 -1.6004 -1.7857 -2.7703
 9504SOL     OW40144   0.218   1.917   2.491  0.2269 -0.0744  0.1048
 9504SOL    HW140145   0.124   1.918   2.475  0.1876  1.1191  0.4123
 9504SOL    HW240146   0.224   1.935   2.585 -0.3796  0.3586  0.0594
 9505SOL     OW40147   1.036   2.764   0.043  0.3951  0.1642 -0.1979
 9505SOL    HW140148   1.045   2.677   0.083  0.6946  1.4964  2.6274
 9505SOL    HW240149   1.040   2.820   0.120 -1.0134 -0.2737  0.1889
 9506SOL     OW40150   1.705   2.133  17.622 -0.0336  0.3902 -0.2758
 9506SOL    HW140151   1.719   2.171  17.709  0.2662  1.2638 -0.7112
 9506SOL    HW240152   1.610   2.143  17.617  0.0382  0.8685 -0.6488
 9507SOL     OW40153   1.102   1.837   6.510  0.5043 -0.5795 -0.3161
 9507SOL    HW140154   1.072   1.907   6.452 -0.9286 -0.1711  0.9197
 9507SOL    HW240155   1.100   1.770   6.442 -0.6126 -1.7487  0.8651
 9508SOL     OW40156   4.397   2.622   6.786 -0.0106 -0.0447  0.6041
 9508SOL    HW140157   4.436   2.624   6.699 -0.7210 -0.1699  0.2795
 9508SOL    HW240158   4.335   2.550   6.776  0.1569  0.1097 -1.4798
 9509SOL     OW40159   1.114   2.559   5.640 -0.1727 -0.5191 -0.2105
 9509SOL    HW140160   1.071   2.476   5.659 -1.2976 -0.0281 -0.6069
 9509SOL    HW240161   1.181   2.558   5.708 -0.1348 -1.2169 -0.2606
 9510SOL     OW40162   3.380   3.842   9.684  0.5531  0.2683 -0.0062
 9510SOL    HW140163   3.393   3.880   9.597 -1.3498 -0.0825 -0.4367
 9510SOL    HW240164   3.293   3.805   9.668 -0.3873  1.7129  1.7137
 9511SOL     OW40165   2.004   1.214   7.251  0.3032  0.4204 -1.0569
 9511SOL    HW140166   2.058   1.294   7.256 -0.5146  0.6750  3.4252
 9511SOL    HW240167   2.058   1.151   7.203  2.5964  2.1151 -0.7336
 9512SOL     OW40168   1.401   2.558   6.257 -0.8704  0.4868 -0.5793
 9512SOL    HW140169   1.458   2.618   6.209  1.7282 -1.9325 -0.5055
 9512SOL    HW240170   1.459   2.545   6.332 -2.6697 -0.1109  0.7159
 9513SOL     OW40171   3.288   3.637   4.250  0.1471 -0.3342  0.3931
 9513SOL    HW140172   3.215   3.612   4.307 -0.2440 -0.9138 -0.3697
 9513SOL    HW240173   3.318   3.550   4.223 -1.6021 -1.2125  1.2248
 9514SOL     OW40174   2.685   1.028   6.240 -0.0162 -0.2538  0.1545
 9514SOL    HW140175   2.657   0.996   6.325 -0.1433  0.6104  0.4399
 9514SOL    HW240176   2.607   1.073   6.207 -1.4493 -2.5506  0.4761
 9515SOL     OW40177   0.402   0.744  12.369 -0.2908  0.0273  0.0598
 9515SOL    HW140178   0.368   0.807  12.432 -0.8421 -1.4585  1.2718
 9515SOL    HW240179   0.461   0.696  12.428 -0.4917  0.4955  0.6350
 9516SOL     OW40180   0.807   2.394  10.628 -0.1527 -0.0534 -0.0201
 9516SOL    HW140181   0.896   2.366  10.648 -0.2720 -0.3962  0.0464
 9516SOL    HW240182   0.822   2.484  10.601 -0.4585  0.0288  0.0824
 9517SOL     OW40183   1.729   1.473   3.271 -0.1773  0.6816  0.6537
 9517SOL    HW140184   1.691   1.550   3.229 -0.8431  1.5206  2.8244
 9517SOL    HW240185   1.644   1.443   3.302 -0.5649  1.9934  0.8698
 9518SOL     OW40186   4.526   0.281   1.925 -0.5121 -0.1099  0.4816
 9518SOL    HW140187   4.463   0.252   1.992 -1.9806  1.8503 -0.0493
 9518SOL    HW240188   4.471   0.355   1.900  1.8656  1.3971 -0.2540
 9519SOL     OW40189   0.280   2.375  10.508 -0.3101  0.1134 -0.3104
 9519SOL    HW140190   0.369   2.367  10.472  0.1813  1.7815  0.5008
 9519SOL    HW240191   0.281   2.325  10.589  1.6570  0.8416  0.1319
 9520SOL     OW40192   3.483   2.114   5.472  0.3468  0.0962 -0.2337
 9520SOL    HW140193   3.508   2.188   5.527 -1.5027  2.0455 -2.0027
 9520SOL    HW240194   3.516   2.137   5.385 -1.9160  1.3138 -0.7834
 9521SOL     OW40195   1.901   3.360   3.379  0.2250 -0.2263  0.5431
 9521SOL    HW140196   1.884   3.308   3.457 -1.8719  0.3648  0.4729
 9521SOL    HW240197   1.863   3.314   3.304 -1.7377  0.7592  0.9531
 9522SOL     OW40198   0.230   3.438  15.807 -0.0229  0.2375 -0.3329
 9522SOL    HW140199   0.143   3.407  15.783 -1.0121  2.3307  0.5758
 9522SOL    HW240200   0.226   3.410  15.899  0.4984 -1.7191 -0.8956
 9523SOL     OW40201   3.071   4.682  14.607  0.2147 -0.5889 -0.0399
 9523SOL    HW140202   3.155   4.669  14.652  0.2927 -0.7253 -0.2236
 9523SOL    HW240203   3.046   0.042  14.615  1.4538 -0.4235  1.8161
 9524SOL     OW40204   2.090   1.271  14.579 -0.6396 -0.2439  0.2945
 9524SOL    HW140205   2.033   1.202  14.545 -2.4667  1.4349 -0.0559
 9524SOL    HW240206   2.039   1.346  14.549 -0.8722 -0.8334 -0.7637
 9525SOL     OW40207   3.306   3.895  16.252 -0.0180 -0.2418 -0.2203
 9525SOL    HW140208   3.216   3.865  16.262 -0.1592  0.5111  0.8193
 9525SOL    HW240209   3.326   3.861  16.165  0.2815 -0.4282 -0.0799
 9526SOL     OW40210   1.148   1.321  12.137 -0.0374 -0.3397  0.5734
 9526SOL    HW140211   1.110   1.235  12.119 -0.4680 -0.3181  1.3935
 9526SOL    HW240212   1.090   1.353  12.206  0.4909  0.6452  0.5634
 9527SOL     OW40213   3.192   3.269   2.350 -0.1824 -0.1996 -0.0872
 9527SOL    HW140214   3.123   3.210   2.380 -1.3085  1.2279  0.1550
 9527SOL    HW240215   3.200   3.237   2.260 -0.5272 -1.7552  0.4390
 9528SOL     OW40216   3.652   4.684   7.926  0.3833 -0.5152 -0.3333
 9528SOL    HW140217   3.689   0.034   7.893  0.0589  0.5112  1.8762
 9528SOL    HW240218   3.674   4.617   7.861 -0.4174  1.2034 -2.3558
 9529SOL     OW40219   0.216   3.417   2.176  0.6044 -0.5250  0.0228
 9529SOL    HW140220   0.289   3.478   2.185  0.7027 -0.7959  1.0537
 9529SOL    HW240221   0.142   3.474   2.196  1.3771 -0.4806  2.8460
 9530SOL     OW40222   2.614   2.469   6.634  1.1136  0.5551  0.4773
 9530SOL    HW140223   2.585   2.412   6.562 -0.1440  0.5552  0.9784
 9530SOL    HW240224   2.709   2.469   6.626  0.8630 -0.7533 -2.3172
 9531SOL     OW40225   4.278   0.540   8.401 -0.1727 -0.1121  0.4580
 9531SOL    HW140226   4.206   0.574   8.348  0.0837 -0.2294  0.0298
 9531SOL    HW240227   4.343   0.569   8.336 -0.8133  0.1233 -0.0795
 9532SOL     OW40228   3.878   0.822   7.602 -0.6958  0.0380 -0.2018
 9532SOL    HW140229   3.793   0.789   7.632 -2.1113  3.3150 -0.6024
 9532SOL    HW240230   3.862   0.833   7.509 -0.7445  0.1090 -0.1848
 9533SOL     OW40231   1.880   4.620  16.381 -0.0800  0.4262 -0.6591
 9533SOL    HW140232   1.933   4.649  16.306  1.1370 -2.4692 -0.9251
 9533SOL    HW240233   1.944   4.583  16.443  0.6506  0.1612 -1.5640
 9534SOL     OW40234   1.847   0.573   6.054 -0.5022 -0.1975  0.0932
 9534SOL    HW140235   1.856   0.538   5.965  0.7303  0.1316  0.0951
 9534SOL    HW240236   1.922   0.633   6.055 -1.2786  0.8088 -1.9953
 9535SOL     OW40237   1.961   1.061  17.570  0.5934  0.2866 -0.3227
 9535SOL    HW140238   1.874   1.021  17.564 -0.2042  1.7318  1.8073
 9535SOL    HW240239   2.017   0.984  17.582 -1.6484 -1.3430 -0.3777
 9536SOL     OW40240   0.005   2.462   4.609  0.0297 -0.4743  0.0562
 9536SOL    HW140241   0.075   2.459   4.544 -0.0766  0.3238 -0.0949
 9536SOL    HW240242   4.665   2.408   4.575 -0.2200  0.7291 -1.3235
 9537SOL     OW40243   3.994   1.208   2.355  0.4303  0.3315  0.1646
 9537SOL    HW140244   4.037   1.292   2.371 -0.4664  1.1944 -1.8947
 9537SOL    HW240245   3.974   1.220   2.262  2.4659  2.6364  0.0192
 9538SOL     OW40246   4.096   3.787   9.192 -0.9006 -0.0924  0.5727
 9538SOL    HW140247   4.096   3.775   9.097 -2.1808  0.0931  0.5552
 9538SOL    HW240248   4.019   3.842   9.206 -1.1477 -0.4652  0.6814
 9539SOL     OW40249   0.531   2.650  10.493  0.0004  0.5927  0.1033
 9539SOL    HW140250   0.507   2.562  10.524  1.8436 -0.1032 -0.4368
 9539SOL    HW240251   0.599   2.638  10.427 -0.6745 -3.8039  0.1624
 9540SOL     OW40252   4.681   3.659   4.506  0.2322 -0.3486  0.1421
 9540SOL    HW140253   0.022   3.657   4.568 -0.0017  1.2612  0.4709
 9540SOL    HW240254   4.629   3.728   4.547 -2.2851 -1.9242 -0.4454
 9541SOL     OW40255   1.810   3.934  13.435 -0.7267  0.3929 -0.0781
 9541SOL    HW140256   1.848   3.893  13.357  0.7211 -1.2677  1.4985
 9541SOL    HW240257   1.837   4.026  13.437 -1.6129  0.6403  0.0869
 9542SOL     OW40258   0.778   0.125   7.452 -0.4047  0.2974  0.0431
 9542SOL    HW140259   0.783   0.031   7.437 -0.8734  0.6314 -2.1223
 9542SOL    HW240260   0.725   0.151   7.377  1.6246  0.6554 -1.2697
 9543SOL     OW40261   1.591   2.958   7.869  0.4765  0.1164  0.3607
 9543SOL    HW140262   1.649   3.031   7.892  1.1603 -0.1798 -0.3978
 9543SOL    HW240263   1.502   2.991   7.862  0.4745 -0.1156 -0.7501
 9544SOL     OW40264   4.225   1.267   4.325 -0.1773 -0.1985  0.0921
 9544SOL    HW140265   4.181   1.308   4.250  0.6120  0.0556 -0.2336
 9544SOL    HW240266   4.221   1.174   4.302  2.5556 -1.0750  3.2724
 9545SOL     OW40267   3.878   3.122   8.130 -0.5685  0.0937 -0.0885
 9545SOL    HW140268   3.801   3.085   8.174 -1.0798  0.3313 -0.7814
 9545SOL    HW240269   3.929   3.154   8.203  0.6703 -0.3094 -0.7838
 9546SOL     OW40270   3.196   3.178  15.689  0.3214 -0.5459  0.2333
 9546SOL    HW140271   3.118   3.179  15.635  0.0456 -1.0350  0.6287
 9546SOL    HW240272   3.179   3.136  15.773 -1.2947 -0.6708 -0.1514
 9547SOL     OW40273   0.315   3.532   6.368  0.4247  0.6542 -0.2250
 9547SOL    HW140274   0.343   3.450   6.409 -0.0347 -0.5829 -2.3806
 9547SOL    HW240275   0.299   3.592   6.441 -0.6371 -1.6979  1.4753
 9548SOL     OW40276   0.393   4.285   1.840 -0.5455  0.3177 -0.5521
 9548SOL    HW140277   0.443   4.367   1.840 -1.2558  0.7490 -2.0011
 9548SOL    HW240278   0.310   4.313   1.879 -0.0585  2.3160 -0.9404
 9549SOL     OW40279   4.133   2.659   8.355  0.1020  0.0075 -0.3243
 9549SOL    HW140280   4.147   2.703   8.271  2.6294  1.2307  0.7141
 9549SOL    HW240281   4.202   2.593   8.349 -0.2352 -0.4562  0.9491
 9550SOL     OW40282   2.586   0.332   8.202  0.7645  0.1267  0.0337
 9550SOL    HW140283   2.636   0.290   8.272  1.9354  0.7457 -0.4272
 9550SOL    HW240284   2.518   0.267   8.182  0.3572  0.2383  1.0790
 9551SOL     OW40285   2.903   0.523   9.573  0.6711 -0.2720  0.4473
 9551SOL    HW140286   2.891   0.617   9.584 -0.1233  0.0998 -3.3972
 9551SOL    HW240287   2.832   0.492   9.629  2.1978 -1.4671  1.7506
 9552SOL     OW40288   3.343   2.470   5.007 -1.2495 -0.0209 -0.0011
 9552SOL    HW140289   3.333   2.459   4.913  0.7665 -1.2179 -0.0653
 9552SOL    HW240290   3.254   2.453   5.038 -0.6386 -0.9788  1.2213
 9553SOL     OW40291   4.022   0.593  14.628 -0.1276  0.4458  0.1036
 9553SOL    HW140292   4.008   0.635  14.713  1.7199  0.2315  0.5214
 9553SOL    HW240293   3.978   0.511  14.650  1.7620 -0.4295  0.6409
 9554SOL     OW40294   4.206   2.544   5.111  0.5293 -0.3192 -0.1458
 9554SOL    HW140295   4.206   2.623   5.057  0.9212  1.1358  1.9934
 9554SOL    HW240296   4.286   2.506   5.075  0.2712 -1.4645  0.4922
 9555SOL     OW40297   3.763   1.648  11.353 -0.0034  0.4811  0.2165
 9555SOL    HW140298   3.693   1.595  11.316  0.4225 -1.7153  2.4785
 9555SOL    HW240299   3.816   1.591  11.410 -1.2371 -0.3921  0.4827
 9556SOL     OW40300   2.730   0.203  15.406 -0.5444 -0.2240  0.4734
 9556SOL    HW140301   2.802   0.160  15.360 -1.1972 -1.4346  0.5943
 9556SOL    HW240302   2.665   0.193  15.337 -2.0520  1.2872  1.6818
 9557SOL     OW40303   3.242   2.420   8.698 -0.0041  0.1194 -0.1816
 9557SOL    HW140304   3.201   2.479   8.634 -1.4450 -0.5761  0.0884
 9557SOL    HW240305   3.187   2.343   8.684  0.5059 -0.4329  0.8408
 9558SOL     OW40306   1.258   0.910   7.130  0.4796  0.3771 -0.7944
 9558SOL    HW140307   1.333   0.951   7.088  1.1258 -1.4112 -1.3805
 9558SOL    HW240308   1.196   0.924   7.058 -1.4726 -1.1880  0.5980
 9559SOL     OW40309   1.346   1.370   2.290 -0.6095 -0.3366 -0.0669
 9559SOL    HW140310   1.270   1.341   2.239 -0.2861  0.4285 -0.9784
 9559SOL    HW240311   1.416   1.380   2.226  0.6597 -0.0836  1.3569
 9560SOL     OW40312   0.817   1.656   9.321 -0.4621 -0.6137 -0.3046
 9560SOL    HW140313   0.867   1.649   9.240 -0.2234  0.6380 -0.2562
 9560SOL    HW240314   0.888   1.647   9.385 -0.4868  0.0478 -0.1881
 9561SOL     OW40315   2.294   4.664   4.977  0.4517 -0.0177 -0.1788
 9561SOL    HW140316   2.259   4.626   5.058 -2.6954  0.6758 -1.2223
 9561SOL    HW240317   2.276   0.025   4.993  1.1686 -0.4401  3.0736
 9562SOL     OW40318   0.686   0.007  11.241 -0.4587 -0.2357  0.3055
 9562SOL    HW140319   0.606   0.028  11.193 -0.4073 -1.2059 -0.1943
 9562SOL    HW240320   0.721   4.663  11.195 -2.9566 -0.6188 -0.9606
 9563SOL     OW40321   0.749   1.631  17.330  0.2315 -0.6152  0.8431
 9563SOL    HW140322   0.764   1.565  17.262  3.0509 -0.6060  1.4504
 9563SOL    HW240323   0.715   1.708  17.284  1.5790 -0.3766  0.2562
 9564SOL     OW40324   3.449   2.733   7.807 -0.2003 -0.0138 -0.2551
 9564SOL    HW140325   3.393   2.739   7.885  1.1561 -1.6887  0.8312
 9564SOL    HW240326   3.388   2.741   7.734  2.1715  3.4857 -1.8723
 9565SOL     OW40327   3.742   2.525  12.826 -0.2954 -0.6053 -0.0358
 9565SOL    HW140328   3.719   2.598  12.769 -0.3466  0.1320  0.9354
 9565SOL    HW240329   3.829   2.502  12.794 -0.1752 -0.5345  0.2399
 9566SOL     OW40330   2.787   1.794  13.809 -0.6077  0.3563 -0.0041
 9566SOL    HW140331   2.716   1.738  13.841  0.7114  0.0006  2.3257
 9566SOL    HW240332   2.777   1.777  13.715  0.8074 -0.6097  0.0108
 9567SOL     OW40333   2.233   1.452   8.589  0.0690  0.1179 -0.1047
 9567SOL    HW140334   2.227   1.359   8.609  0.5963  0.0595 -0.2189
 9567SOL    HW240335   2.214   1.453   8.495 -0.9253  3.9741  0.1393
 9568SOL     OW40336   1.149   4.580  15.760 -0.5126  0.0396 -0.6815
 9568SOL    HW140337   1.188   4.532  15.832 -0.4927  1.1844  0.0760
 9568SOL    HW240338   1.200   4.661  15.765  1.1952 -0.9964 -1.6492
 9569SOL     OW40339   2.481   3.567   8.398  0.2653  0.1003  1.1867
 9569SOL    HW140340   2.442   3.540   8.481  1.2978  0.5127  1.8126
 9569SOL    HW240341   2.400   3.552   8.350 -0.5931  0.7671  2.4153
 9570SOL     OW40342   4.670   0.682   7.009  0.2462  0.1960  0.2612
 9570SOL    HW140343   4.585   0.656   6.973 -0.3164  2.5891 -0.1536
 9570SOL    HW240344   4.664   0.661   7.102 -2.1001  0.4195  0.1574
 9571SOL     OW40345   0.872   0.263   4.272  0.1928 -0.4833  0.5382
 9571SOL    HW140346   0.830   0.296   4.351 -0.5263  2.7685 -1.2010
 9571SOL    HW240347   0.846   0.172   4.285 -3.5558  0.5666  0.2543
   4.73210   4.73210  17.72802
