Membrane in water
40347
    1TMC1    C1    1   2.781   3.854  11.272  1.1036  0.5417  0.1003
    1TMC1    C2    2   2.883   3.939  11.300 -0.4520 -0.2392  0.0249
    1TMC1    C3    3   3.004   3.915  11.237 -0.2901 -0.3882 -0.2532
    1TMC1    C4    4   2.796   3.744  11.194 -0.2051  0.1668  0.1171
    1TMC1    C5    5   2.924   3.717  11.140  0.2809  0.5228 -0.6867
    1TMC1    C6    6   3.025   3.812  11.155  0.5699  0.1674  0.4343
    1TMC1     C    7   2.652   3.886  11.327 -0.1589  0.3002  0.3702
    1TMC1     O    8   2.639   3.988  11.388  0.0579 -0.1537  0.2966
    1TMC1     H    9   2.862   4.030  11.353 -2.0443 -0.8423  0.4223
    1TMC1    H1   10   2.714   3.675  11.173  0.1666  0.1143 -1.1575
    1TMC1    H2   11   3.126   3.791  11.121  0.4451  3.4064 -1.9384
    1TMC1    C7   12   2.956   3.588  11.062  0.1316  0.5571  0.1310
    1TMC1    C8   13   3.124   4.001  11.270  0.0240 -0.2991 -0.2150
    1TMC1    O1   14   3.049   3.571  10.985  0.0969  0.1001  0.2469
    1TMC1    O2   15   3.118   4.100  11.341 -0.0003  0.0479  0.0728
    1TMC1    O3   16   2.870   3.491  11.099  0.3664  0.0031 -0.1888
    1TMC1    H3   17   2.815   3.513  11.178 -1.6817 -2.0356 -1.0908
    1TMC1    O5   18   3.234   3.973  11.198  0.2251  0.5516 -0.2116
    1TMC1    H5   19   3.220   3.920  11.117 -1.6602  0.7596 -0.0167
    2MPD2     C   20   2.196   3.726  11.501  0.1373 -0.4572 -0.5708
    2MPD2    C1   21   2.291   3.802  11.562  0.4223 -0.0478 -0.3109
    2MPD2    C2   22   2.410   3.831  11.501  0.0753 -0.6461  0.0196
    2MPD2    C3   23   2.441   3.763  11.382  0.4819 -0.3467 -0.1975
    2MPD2    C4   24   2.352   3.678  11.329  0.4495 -0.1304  0.6409
    2MPD2    C5   25   2.228   3.664  11.381  0.8129 -0.3686  0.6934
    2MPD2     H   26   2.479   3.906  11.538 -0.5305  0.4077 -0.9878
    2MPD2    H1   27   2.369   3.629  11.234  0.0535  1.3297 -0.1896
    2MPD2    H2   28   2.094   3.722  11.537 -0.1362  0.9522 -1.1909
    2MPD2    H3   29   2.154   3.601  11.333 -0.7357  2.7606 -1.0128
    2MPD2     N   30   2.561   3.783  11.302 -0.4734  0.5248 -0.2701
    2MPD2    H5   31   2.584   3.728  11.220 -0.6394  0.8136 -0.5106
    2MPD2    N1   32   2.264   3.859  11.690 -0.8015 -0.7305 -0.5795
    2MPD2    H7   33   2.325   3.935  11.716 -0.2806 -1.7250  1.0711
    3TMC1    C1   34   1.309   1.029  10.124 -0.2938 -1.0616  0.1144
    3TMC1    C2   35   1.193   1.043  10.199  0.1433  0.3760 -0.0251
    3TMC1    C3   36   1.095   0.948  10.171  0.1001  0.4729  0.6713
    3TMC1    C4   37   1.321   0.943  10.021 -0.3046 -0.3161 -0.6910
    3TMC1    C5   38   1.214   0.859   9.992  0.0794 -0.2624  0.6960
    3TMC1    C6   39   1.094   0.871  10.058  0.0507  0.0616  0.1854
    3TMC1     C   40   1.397   1.143  10.126 -0.2177 -0.2732  0.3325
    3TMC1     O   41   1.429   1.188  10.017  0.0977  0.6052  0.2980
    3TMC1     H   42   1.179   1.104  10.287 -0.6385 -0.5890  0.5165
    3TMC1    H1   43   1.406   0.951   9.954  0.3410  1.1867  0.3144
    3TMC1    H2   44   1.009   0.810  10.028 -0.3224  0.9955 -0.6836
    3TMC1    C7   45   1.208   0.819   9.864 -0.0111  0.1385  0.5352
    3TMC1    C8   46   0.981   0.945  10.258 -0.4546  0.7064 -0.9606
    3TMC1    O1   47   1.101   0.826   9.808 -0.1880 -0.1414 -0.0819
    3TMC1    O2   48   0.954   1.039  10.334  0.4415  0.2268  0.0611
    3TMC1    O3   49   1.312   0.734   9.837  0.5587 -0.7026  0.2604
    3TMC1    H3   50   1.380   0.717   9.905 -1.1689  0.1875  2.2148
    3TMC1    O5   51   0.957   0.815  10.276  0.0044 -0.1944 -0.0136
    3TMC1    H5   52   1.018   0.758  10.224 -0.3651 -0.3565 -0.2697
    4MPD2     C   53   1.652   1.524  10.352  0.1859  0.5697 -0.4201
    4MPD2    C1   54   1.578   1.459  10.454  0.6679  0.2270  0.4059
    4MPD2    C2   55   1.506   1.345  10.415 -0.7795 -0.3280 -0.3515
    4MPD2    C3   56   1.498   1.299  10.285 -1.9568 -0.0122  0.0083
    4MPD2    C4   57   1.568   1.366  10.190 -0.2399 -0.4284  0.1483
    4MPD2    C5   58   1.653   1.473  10.224 -0.1745  0.2716  0.2605
    4MPD2     H   59   1.449   1.285  10.485 -1.2243  0.8324  0.2913
    4MPD2    H1   60   1.576   1.336  10.086  1.7106  0.8449 -0.0847
    4MPD2    H2   61   1.706   1.618  10.356 -1.0027  1.2315  0.1024
    4MPD2    H3   62   1.705   1.524  10.144 -0.3357 -1.0336 -0.6744
    4MPD2     N   63   1.413   1.195  10.252 -0.1493 -0.0768 -0.0077
    4MPD2    H5   64   1.360   1.155  10.329 -0.8694 -1.1374 -1.0508
    4MPD2    N1   65   1.574   1.500  10.587  0.1631 -0.2102 -0.3223
    4MPD2    H7   66   1.531   1.442  10.658  1.2550 -1.9475 -1.0710
    5TCq1    O1   67   2.188   2.715  11.140  0.1603  0.0497  0.5403
    5TCq1    C1   68   2.305   2.778  11.160 -0.5820  0.3964 -0.2703
    5TCq1    O2   69   2.370   2.839  11.078  0.2603 -0.2187 -0.4081
    5TCq1    C2   70   2.375   2.697  11.251 -0.6165  1.1293 -0.3818
    5TCq1    C3   71   2.313   2.676  11.368 -0.5897  0.1522  0.3258
    5TCq1    C4   72   2.328   2.553  11.423 -0.2934 -0.0233  0.5261
    5TCq1    C5   73   2.402   2.455  11.366  0.3821 -0.4720 -0.9178
    5TCq1    C6   74   2.459   2.484  11.244  0.4360  0.2592 -0.5975
    5TCq1    C7   75   2.445   2.604  11.186 -0.4210 -0.5025  0.8511
    5TCq1    C8   76   2.528   2.382  11.171 -0.2043 -0.0747 -0.0654
    5TCq1    O4   77   2.503   2.273  11.214 -0.2248 -0.0034 -0.4845
    5TCq1    C9   78   2.248   2.510  11.538  0.0758 -0.1357 -0.1740
    5TCq1    O5   79   2.191   2.597  11.606 -0.3733  0.6325 -0.2122
    5TCq1    O6   80   2.242   2.381  11.558  0.4681  0.1402 -0.1019
    5TCq1    H1   81   2.175   2.637  11.198 -0.3715 -0.3428 -0.0996
    5TCq1    H2   82   2.255   2.750  11.421 -0.7795  1.3361 -1.5363
    5TCq1    H3   83   2.418   2.358  11.411  2.3900  0.0600 -0.4989
    5TCq1    H4   84   2.480   2.628  11.086  1.4100 -0.0746  1.6015
    6MPD2     C   85   2.796   2.430  10.918  0.2252  0.2532 -0.6103
    6MPD2    C1   86   2.699   2.363  10.988  0.1446  0.0635 -0.0095
    6MPD2    C2   87   2.702   2.222  10.986 -0.5178  0.3191 -0.3244
    6MPD2    C3   88   2.802   2.159  10.920 -0.0895  0.0725 -0.1192
    6MPD2    C4   89   2.897   2.233  10.846  0.6276  1.1202  0.0984
    6MPD2    C5   90   2.899   2.371  10.852 -0.3019 -0.0708 -0.4662
    6MPD2     H   91   2.635   2.162  11.047 -1.0391 -0.7231 -1.8972
    6MPD2    H1   92   2.966   2.189  10.775  2.1051  2.8239  0.4637
    6MPD2    H2   93   2.816   2.537  10.913  1.9863 -0.0217  0.5648
    6MPD2    H3   94   2.970   2.430  10.794  2.1013 -2.7196 -0.2065
    6MPD2     N   95   2.806   2.015  10.923  0.4272 -0.0904  0.2073
    6MPD2    H5   96   2.729   1.971  10.973 -1.9703  0.7646 -2.6735
    6MPD2    N1   97   2.621   2.437  11.082  1.2199 -0.3826 -0.1176
    6MPD2    H7   98   2.646   2.535  11.076 -3.3085  0.7952  0.2036
    7TCq1    O1   99   4.357   2.039  13.366 -0.4728 -0.5051 -0.7952
    7TCq1    C1  100   4.416   1.921  13.396 -0.2229  0.1292 -0.5121
    7TCq1    O2  101   4.390   1.872  13.508 -0.1491 -0.0411  0.4448
    7TCq1    C2  102   4.545   1.905  13.326  0.3449 -0.2228 -0.0308
    7TCq1    C3  103   4.599   2.001  13.244  0.1617  0.0618  0.6685
    7TCq1    C4  104   4.729   1.991  13.207  0.2470  0.8130 -0.3704
    7TCq1    C5  105   0.068   1.885  13.236 -0.0408  0.2895  0.7739
    7TCq1    C6  106   0.015   1.789  13.317 -0.2379  0.2640  0.7988
    7TCq1    C7  107   4.623   1.792  13.359  0.7537  0.1053 -0.3584
    7TCq1    C8  108   0.088   1.666  13.353 -0.0103 -0.1648 -0.1966
    7TCq1    O4  109   0.024   1.569  13.386 -0.2120  0.4885  0.5729
    7TCq1    C9  110   0.052   2.102  13.144 -0.4654  0.6056 -0.6767
    7TCq1    O5  111   4.717   2.200  13.122 -0.5516 -0.0297  0.0295
    7TCq1    O6  112   0.177   2.104  13.131 -0.5607 -0.2610  0.1173
    7TCq1    H1  113   4.375   2.060  13.272 -4.6481 -1.7204 -1.8667
    7TCq1    H2  114   4.549   2.093  13.214 -0.3379 -0.2749  0.4721
    7TCq1    H3  115   0.169   1.883  13.200 -0.1278  0.0495  0.5465
    7TCq1    H4  116   4.573   1.723  13.425  0.7335  0.5473  0.0882
    8MPD2     C  117   0.555   1.437  13.374  0.0580  0.0361  0.0364
    8MPD2    C1  118   0.430   1.376  13.384 -0.3906 -0.7729 -0.9826
    8MPD2    C2  119   0.321   1.462  13.391 -0.3724 -0.3523  0.1928
    8MPD2    C3  120   0.329   1.598  13.369  0.0222  0.0960 -0.0791
    8MPD2    C4  121   0.454   1.653  13.346  0.1456 -0.7548  0.1096
    8MPD2    C5  122   0.564   1.569  13.358  0.4907 -0.2088  0.2398
    8MPD2     H  123   0.224   1.424  13.418 -0.5046  0.5545  0.9927
    8MPD2    H1  124   0.469   1.759  13.328  1.5924 -1.1501 -1.0036
    8MPD2    H2  125   0.648   1.383  13.385  0.6682  1.2439  0.8631
    8MPD2    H3  126   0.660   1.618  13.354  1.0902 -1.4319 -0.2490
    8MPD2     N  127   0.226   1.685  13.338  0.0468 -0.0941  0.2196
    8MPD2    H5  128   0.260   1.778  13.316 -0.4523  0.4970  2.0191
    8MPD2    N1  129   0.432   1.237  13.411  0.1542  0.5091  0.1105
    8MPD2    H7  130   0.521   1.191  13.426 -0.7884 -1.6783 -0.8193
    9TMC1    C1  131   3.069   0.180  11.212 -0.3464  0.4965  0.0803
    9TMC1    C2  132   3.158   0.138  11.118  0.0791 -0.8214  0.5936
    9TMC1    C3  133   3.233   0.228  11.054  0.5670 -0.0227  0.0348
    9TMC1    C4  134   3.040   0.311  11.227  0.8802  0.7604  0.5247
    9TMC1    C5  135   3.108   0.395  11.142  0.0899  0.4123 -0.0791
    9TMC1    C6  136   3.221   0.359  11.075  0.4401 -0.2019  0.6682
    9TMC1     C  137   2.998   0.080  11.284  0.7939  0.2442 -0.7408
    9TMC1     O  138   3.005   4.703  11.251  0.0762 -0.7790  0.3871
    9TMC1     H  139   3.191   0.035  11.103 -1.2526 -0.7525 -2.7722
    9TMC1    H1  140   2.951   0.336  11.283 -0.7708 -2.7146 -0.5755
    9TMC1    H2  141   3.292   0.435  11.042  0.5263 -1.1606 -1.3372
    9TMC1    C7  142   3.098   0.532  11.166 -0.2788  0.1421 -0.7985
    9TMC1    C8  143   3.344   0.186  10.977 -0.3526 -0.1690  0.5228
    9TMC1    O1  144   3.040   0.583  11.263  0.1415  0.2031  0.4413
    9TMC1    O2  145   3.405   0.082  10.987 -0.2291  0.2941  0.5271
    9TMC1    O3  146   3.117   0.589  11.043  0.3077 -0.1334  0.1301
    9TMC1    H3  147   3.138   0.529  10.968 -1.3157 -0.8069  0.2131
    9TMC1    O5  148   3.356   0.272  10.877  0.3249 -0.1184  0.0684
    9TMC1    H5  149   3.289   0.343  10.886  2.1791  1.5668  0.7524
   10MPD2     C  150   2.771   4.686  11.415  0.1907  0.0240 -0.1945
   10MPD2    C1  151   2.822   0.063  11.462 -0.1165 -0.2019  0.4802
   10MPD2    C2  152   2.776   0.110  11.585  0.2825  0.0518  0.3060
   10MPD2    C3  153   2.692   0.034  11.669  0.6014  0.0972 -0.7282
   10MPD2    C4  154   2.650   4.657  11.626  0.0486  0.2273  0.2008
   10MPD2    C5  155   2.701   4.610  11.503  0.0043  0.4234  0.2140
   10MPD2     H  156   2.819   0.201  11.624  0.8462  0.6703 -1.7260
   10MPD2    H1  157   2.602   4.581  11.687 -2.2513  2.0168  0.6429
   10MPD2    H2  158   2.784   4.637  11.319  0.5554  1.0850 -0.6853
   10MPD2    H3  159   2.667   4.513  11.470  0.5010 -0.0612  1.1229
   10MPD2     N  160   2.631   0.080  11.791 -0.0954 -0.3187 -0.1615
   10MPD2    H5  161   2.586   0.012  11.851  0.4283 -0.4847  0.0474
   10MPD2    N1  162   2.920   0.132  11.390 -0.2685  0.0603  0.5684
   10MPD2    H7  163   2.951   0.222  11.426 -0.8718  0.8826 -0.9787
   11TCq1    O1  164   3.653   4.737  13.102 -0.9026  0.4726  0.7014
   11TCq1    C1  165   3.522   0.022  13.125 -0.2883  0.1164 -0.2552
   11TCq1    O2  166   3.429   4.710  13.060 -0.4364 -0.0600 -0.0077
   11TCq1    C2  167   3.516   0.035  13.269 -0.6357 -0.0885  0.3669
   11TCq1    C3  168   3.570   4.673  13.350 -0.2153 -0.0935 -0.2873
   11TCq1    C4  169   3.529   4.677  13.484 -0.1032  0.0710 -0.1019
   11TCq1    C5  170   3.445   0.032  13.535  0.1952  0.3101  0.0370
   11TCq1    C6  171   3.396   0.123  13.444  0.9290 -0.4005  0.7340
   11TCq1    C7  172   3.439   0.133  13.317  0.2728  0.2594  0.0763
   11TCq1    C8  173   3.285   0.202  13.489 -0.1135 -0.4529 -0.6175
   11TCq1    O4  174   3.275   0.310  13.429 -0.2112  0.7551 -0.2058
   11TCq1    C9  175   3.582   4.579  13.578  0.5733 -0.2520 -0.1022
   11TCq1    O5  176   3.532   4.577  13.694  0.3905  0.3851 -0.0361
   11TCq1    O6  177   3.662   4.499  13.525  0.3210  0.8714 -0.3124
   11TCq1    H1  178   3.712   0.027  13.174  0.5876  0.1222 -0.3587
   11TCq1    H2  179   3.625   4.587  13.312  1.6152  1.2805 -0.7495
   11TCq1    H3  180   3.415   0.023  13.639 -0.1572 -0.2605 -0.1183
   11TCq1    H4  181   3.396   0.200  13.243 -1.7747  1.7271  2.5894
   12MPD2     C  182   3.021   0.299  13.622  0.6502 -0.0914  0.1960
   12MPD2    C1  183   3.069   0.168  13.614  0.1182  0.5278 -0.1442
   12MPD2    C2  184   2.987   0.058  13.638  0.3758 -0.0088  0.6083
   12MPD2    C3  185   2.854   0.067  13.670 -0.0559 -0.4928  0.5530
   12MPD2    C4  186   2.803   0.202  13.673 -0.5310 -0.4055 -0.1639
   12MPD2    C5  187   2.885   0.310  13.652  0.8353  0.0319  0.1139
   12MPD2     H  188   3.029   4.699  13.629  3.1174  1.3009 -1.2194
   12MPD2    H1  189   2.701   0.233  13.691 -0.1428  1.1199 -0.6423
   12MPD2    H2  190   3.077   0.390  13.603 -0.6656  0.6681 -0.0204
   12MPD2    H3  191   2.855   0.413  13.634  2.0991  0.7677  2.2236
   12MPD2     N  192   2.758   4.704  13.695  0.1107  0.0658 -0.6808
   12MPD2    H5  193   2.659   4.726  13.702 -0.2726 -1.8902 -0.0305
   12MPD2    N1  194   3.203   0.137  13.578  0.2188 -0.0132  0.5214
   12MPD2    H7  195   3.244   0.049  13.608  1.1336 -0.3710 -1.8409
   13TCq1    O1  196   2.888   0.264  10.944 -0.2618  0.5918 -0.3951
   13TCq1    C1  197   2.902   0.243  10.809  0.5869  0.3145 -0.3958
   13TCq1    O2  198   2.975   0.310  10.737 -0.1345  0.1187 -0.4824
   13TCq1    C2  199   2.928   0.096  10.805 -0.2934  0.2654  0.0174
   13TCq1    C3  200   2.986   0.053  10.689 -0.5352  0.6269  0.0216
   13TCq1    C4  201   3.036   4.666  10.682 -0.2822 -0.1479 -0.7603
   13TCq1    C5  202   3.004   4.583  10.784 -0.5725  0.2193  0.7134
   13TCq1    C6  203   2.938   4.623  10.890  0.1416  0.7259 -0.6210
   13TCq1    C7  204   2.895   0.009  10.908 -0.7239  0.4981 -0.0116
   13TCq1    C8  205   2.901   4.534  10.995 -0.0245 -0.5402  0.0063
   13TCq1    O4  206   2.961   4.429  10.996  0.1741 -0.3062 -0.2932
   13TCq1    C9  207   3.105   4.625  10.562  0.1963  0.0168 -0.3212
   13TCq1    O5  208   3.120   4.724  10.489 -0.3215 -0.3566  0.0999
   13TCq1    O6  209   3.133   4.502  10.546  0.2604  0.0238 -0.2293
   13TCq1    H1  210   2.837   0.195  10.991 -1.5697  2.1715  0.5498
   13TCq1    H2  211   2.996   0.115  10.600 -1.8787  0.9645  0.1141
   13TCq1    H3  212   3.053   4.487  10.775  0.8404  0.9203  1.0766
   13TCq1    H4  213   2.861   0.039  11.006  0.8049  0.7393  0.4432
   14MPD2     C  214   2.768   4.374  11.197 -0.1155 -0.9038  0.3541
   14MPD2    C1  215   2.708   4.484  11.138 -0.1377 -0.0207  0.0355
   14MPD2    C2  216   2.581   4.520  11.181  0.5034 -0.6675 -0.5004
   14MPD2    C3  217   2.511   4.437  11.268  0.1043  0.2286 -0.1414
   14MPD2    C4  218   2.577   4.328  11.317  0.2719 -0.0130 -0.5650
   14MPD2    C5  219   2.704   4.298  11.290 -0.0842 -0.2803  0.5560
   14MPD2     H  220   2.532   4.608  11.141 -0.5606 -0.6119  0.9273
   14MPD2    H1  221   2.528   4.248  11.371 -0.0209  0.8715  0.4676
   14MPD2    H2  222   2.868   4.338  11.180 -0.7928 -1.9849 -1.3556
   14MPD2    H3  223   2.755   4.210  11.328  1.5317  0.6529  0.5684
   14MPD2     N  224   2.385   4.479  11.306 -0.3420 -0.0923 -0.1277
   14MPD2    H5  225   2.347   4.569  11.277 -1.0328 -0.4674 -0.3920
   14MPD2    N1  226   2.776   4.570  11.046 -0.2920  0.4466  0.0947
   14MPD2    H7  227   2.728   4.651  11.008  3.1873  1.5411 -1.9037
   15TCq1    O1  228   0.713   4.328   1.160  0.7254 -0.4742  0.1620
   15TCq1    C1  229   0.666   4.450   1.194  0.1833 -0.1982 -0.3131
   15TCq1    O2  230   0.726   4.555   1.188 -0.3985 -0.4139 -0.6449
   15TCq1    C2  231   0.528   4.428   1.239  0.3994  0.5383  0.0697
   15TCq1    C3  232   0.494   4.518   1.329 -0.2835 -0.1776  0.0910
   15TCq1    C4  233   0.364   4.513   1.369 -0.1233 -0.0503 -0.4453
   15TCq1    C5  234   0.270   4.422   1.328  0.3124  0.1499  0.5633
   15TCq1    C6  235   0.317   4.328   1.240 -0.1391  0.6930  0.0133
   15TCq1    C7  236   0.450   4.325   1.195  0.6781 -0.2626  0.1727
   15TCq1    C8  237   0.245   4.207   1.204 -0.9435  0.1425 -0.5004
   15TCq1    O4  238   0.308   4.118   1.152  0.3331 -0.0314  0.2336
   15TCq1    C9  239   0.327   4.613   1.470  0.1229  0.0274 -0.6479
   15TCq1    O5  240   0.207   4.620   1.508 -0.0042  0.3647  0.3097
   15TCq1    O6  241   0.424   4.685   1.518 -0.3193  0.1982 -0.0019
   15TCq1    H1  242   0.652   4.253   1.178  1.7386 -1.4702 -0.5325
   15TCq1    H2  243   0.567   4.591   1.361 -1.5203  0.1955  2.0545
   15TCq1    H3  244   0.170   4.430   1.369  0.6540 -0.5215  1.5268
   15TCq1    H4  245   0.481   4.241   1.133  2.1387  0.2717  0.1850
   16MPD2     C  246   4.629   4.096   1.251  0.4246  0.1536 -0.1051
   16MPD2    C1  247   0.026   4.087   1.232  0.1877 -0.0299  0.0331
   16MPD2    C2  248   0.088   3.962   1.222  0.6458  0.3637  0.9619
   16MPD2    C3  249   0.007   3.848   1.221  0.3541 -0.1616  0.3229
   16MPD2    C4  250   4.610   3.864   1.247 -0.0475 -0.7253  0.0191
   16MPD2    C5  251   4.545   3.991   1.255 -0.4782  0.3519  0.1499
   16MPD2     H  252   0.195   3.944   1.218  0.4695 -0.6652  0.7616
   16MPD2    H1  253   4.554   3.773   1.262  1.5121 -1.7968 -0.6481
   16MPD2    H2  254   4.594   4.198   1.266  1.2557  0.6395 -1.4838
   16MPD2    H3  255   4.441   3.997   1.284 -0.7885 -0.1004 -0.8832
   16MPD2     N  256   0.076   3.730   1.201  0.3410 -0.3362 -0.1805
   16MPD2    H5  257   0.176   3.738   1.191  0.5762 -1.5394  1.1404
   16MPD2    N1  258   0.110   4.206   1.237  0.4540  0.7215 -0.3324
   16MPD2    H7  259   0.067   4.293   1.268 -0.7819 -0.1820  0.4600
   17TMC1    C1  260   1.865   4.051  11.822 -0.1987 -0.4278 -0.8713
   17TMC1    C2  261   1.934   4.164  11.797  0.6964 -0.1065 -0.4685
   17TMC1    C3  262   1.937   4.261  11.894 -0.1627 -0.5575  0.0761
   17TMC1    C4  263   1.826   4.025  11.953 -0.0266  0.4441 -0.2227
   17TMC1    C5  264   1.828   4.123  12.049  0.1007  0.4183  0.1248
   17TMC1    C6  265   1.883   4.246  12.019  0.1111 -0.3281  0.2052
   17TMC1     C  266   1.853   3.937  11.727 -0.4472  0.3705 -0.6852
   17TMC1     O  267   1.805   3.829  11.767  1.1238  0.0990 -0.1252
   17TMC1     H  268   1.985   4.191  11.705 -0.4672  2.3256 -0.4170
   17TMC1    H1  269   1.798   3.923  11.979 -1.7972  0.5237 -1.7902
   17TMC1    H2  270   1.919   4.301  12.105 -1.8270 -1.7368  1.9193
   17TMC1    C7  271   1.834   4.077  12.185 -0.0644 -0.0719 -0.2867
   17TMC1    C8  272   2.004   4.384  11.857 -0.1974  0.1494  0.3991
   17TMC1    O1  273   1.940   4.101  12.239  0.0916 -0.7018  0.0090
   17TMC1    O2  274   2.097   4.389  11.772  0.9411 -0.4864 -0.3265
   17TMC1    O3  275   1.750   3.967  12.199  0.1349  0.0883 -0.8501
   17TMC1    H3  276   1.684   3.962  12.127  0.1457  0.6299 -0.8928
   17TMC1    O5  277   1.931   4.487  11.903 -0.3070 -0.2548 -0.1532
   17TMC1    H5  278   1.862   4.458  11.966 -0.3669  0.5754  0.1681
   18MPD2     C  279   1.853   3.778  11.477 -0.6718 -0.2256  0.2022
   18MPD2    C1  280   1.901   3.904  11.484 -0.3832 -0.0863 -0.1621
   18MPD2    C2  281   1.967   3.958  11.375  0.0077  0.3280  0.0246
   18MPD2    C3  282   1.991   3.879  11.260 -0.8881  0.6941 -0.2371
   18MPD2    C4  283   1.942   3.749  11.256  0.5431 -0.8865  0.1433
   18MPD2    C5  284   1.864   3.704  11.359  0.0015  0.2590 -0.0705
   18MPD2     H  285   2.019   4.053  11.387  1.6350 -0.6346  0.5789
   18MPD2    H1  286   1.956   3.685  11.169  0.1647 -0.5714 -0.1512
   18MPD2    H2  287   1.803   3.731  11.560  1.6396  0.0144  1.7324
   18MPD2    H3  288   1.832   3.601  11.358  1.2803 -0.1483  1.3928
   18MPD2     N  289   2.067   3.938  11.155  0.5639  0.3875  0.9871
   18MPD2    H5  290   2.120   3.878  11.092  1.1046  0.4084  1.4187
   18MPD2    N1  291   1.895   3.979  11.603 -0.3302 -0.0883 -0.1446
   18MPD2    H7  292   1.910   4.079  11.591  1.7716 -0.7959 -3.3083
   19TMC2    C1  293   3.780   4.632  14.181  0.1622  0.4322 -1.0335
   19TMC2    C2  294   3.706   4.738  14.130 -0.3198  0.0495 -0.2811
   19TMC2    C3  295   3.616   4.716  14.032 -0.4460  0.5703 -0.5116
   19TMC2    C4  296   3.762   4.510  14.122  0.5919 -0.7071  0.0139
   19TMC2    C5  297   3.658   4.497  14.034  0.2210 -0.3543 -0.1938
   19TMC2    C6  298   3.580   4.599  13.987 -0.8121  0.2835 -0.0019
   19TMC2     C  299   3.908   4.663  14.250 -0.7809  0.5076 -0.4251
   19TMC2     O  300   3.918   0.044  14.280 -0.2872 -0.1960  0.2422
   19TMC2     H  301   3.714   0.094  14.179 -0.0867  0.1225 -0.4638
   19TMC2    H1  302   3.807   4.415  14.150 -0.9064 -1.3606  0.1692
   19TMC2    H2  303   3.489   4.588  13.929  0.2799 -3.1578 -1.0548
   19TMC2    C7  304   3.609   4.358  14.006 -0.3526 -0.0983 -0.4922
   19TMC2    C8  305   3.541   0.084  13.974 -0.7034 -0.1232  0.1480
   19TMC2    O1  306   3.624   4.277  14.092  0.2880  0.4744 -0.2988
   19TMC2    O2  307   3.551   0.199  14.016 -0.3172  0.0486  0.3311
   19TMC2    O5  308   3.539   0.050  13.844  0.3183  0.1222 -0.6412
   19TMC2    H5  309   3.557   4.697  13.819  0.4694 -0.3444  1.2465
   20MPD2     C  310   4.208   4.680  14.298  0.9956 -0.0070 -0.3434
   20MPD2    C1  311   4.134   4.561  14.287  0.3294 -0.1072  0.5054
   20MPD2    C2  312   4.192   4.436  14.300 -0.2315  0.2120 -0.0763
   20MPD2    C3  313   4.332   4.435  14.316  0.3551  0.6708  0.0662
   20MPD2    C4  314   4.401   4.553  14.335  0.1892  0.0218  0.2729
   20MPD2    C5  315   4.339   4.674  14.329 -0.0677 -0.3552 -0.1297
   20MPD2     H  316   4.129   4.348  14.302 -2.0823  1.5141 -1.5685
   20MPD2    H1  317   4.505   4.556  14.364  0.1199  3.6489  0.1523
   20MPD2    H2  318   4.165   0.037  14.277 -0.7079 -0.7145 -0.1465
   20MPD2    H3  319   4.401   0.021  14.345 -0.3632  0.1405 -1.6830
   20MPD2     N  320   4.405   4.316  14.314 -0.2116  0.3546  0.6199
   20MPD2    H5  321   4.505   4.330  14.325 -0.1762  1.8098 -1.6301
   20MPD2    N1  322   3.997   4.553  14.252 -1.0278 -0.0405 -0.0540
   20MPD2    H7  323   3.970   4.465  14.208 -1.6274  0.3749 -0.5010
   21TMC2    C1  324   1.842   4.682  14.751  0.2017  0.0936 -0.1606
   21TMC2    C2  325   1.817   4.553  14.793 -0.2918  0.2774  0.7455
   21TMC2    C3  326   1.730   4.532  14.902 -0.1361 -0.3744 -0.7754
   21TMC2    C4  327   1.783   0.040  14.824  0.4184  0.0230  0.1928
   21TMC2    C5  328   1.701   0.015  14.927 -0.3721 -0.1257  0.3765
   21TMC2    C6  329   1.663   4.630  14.964  0.1510 -0.4850  0.4764
   21TMC2     C  330   1.919   4.713  14.633 -0.5559 -0.0244  0.7815
   21TMC2     O  331   1.975   4.613  14.593  0.1551  0.9263  0.0480
   21TMC2     H  332   1.859   4.464  14.746  1.1629 -0.4922  3.4747
   21TMC2    H1  333   1.836   0.135  14.826  0.3745  0.0635 -0.7654
   21TMC2    H2  334   1.622   4.610  15.062 -1.1781  1.6220  0.3480
   21TMC2    C7  335   1.678   0.125  15.020 -0.3516  0.4129  0.0301
   21TMC2    C8  336   1.716   4.396  14.957 -0.4812  0.2766  0.0719
   21TMC2    O1  337   1.659   0.097  15.140  0.5426 -0.4050 -0.0404
   21TMC2    O2  338   1.803   4.312  14.938 -0.0228 -0.1580 -0.0713
   21TMC2    O5  339   1.587   4.371  14.958 -0.7503  0.2483  0.2497
   21TMC2    H5  340   1.526   4.437  14.918 -2.3495 -2.2233 -1.3713
   22MPD2     C  341   2.036   0.200  14.201  0.0899 -0.8359  0.4679
   22MPD2    C1  342   2.112   0.114  14.283  0.5151 -0.5492 -0.4235
   22MPD2    C2  343   2.062   0.085  14.409  0.1605 -0.6192  0.1552
   22MPD2    C3  344   1.935   0.135  14.450  0.5059  0.1870 -0.2381
   22MPD2    C4  345   1.866   0.222  14.365  0.2612 -0.4704 -0.0978
   22MPD2    C5  346   1.920   0.256  14.248 -0.2076  0.3314 -0.0515
   22MPD2     H  347   2.115   0.018  14.475 -0.2837  0.4848  1.6238
   22MPD2    H1  348   1.780   0.273  14.407 -0.6348 -0.3845 -2.0196
   22MPD2    H2  349   2.065   0.229  14.101  1.0776  1.1332  1.3376
   22MPD2    H3  350   1.871   0.323  14.178 -0.2213 -0.5037 -0.8419
   22MPD2     N  351   1.872   0.085  14.563  0.1461 -0.2033  0.3389
   22MPD2    H5  352   1.790   0.135  14.597  1.8263  2.2004  0.8516
   22MPD2    N1  353   2.232   0.056  14.234  0.1264  0.1901  0.0677
   22MPD2    H7  354   2.278   4.728  14.293  1.9516  0.6432 -0.8517
   23TMC2    C1  355   3.098   1.441  14.755 -0.6238  0.0343 -0.2506
   23TMC2    C2  356   3.125   1.532  14.656  0.1469 -0.8225  0.5055
   23TMC2    C3  357   3.020   1.558  14.573 -0.6204  0.0699 -0.8485
   23TMC2    C4  358   2.981   1.370  14.772 -0.1514 -0.3641 -0.2053
   23TMC2    C5  359   2.881   1.394  14.680 -0.2817  1.2264  0.1111
   23TMC2    C6  360   2.898   1.489  14.577 -1.0085 -0.7381 -0.2870
   23TMC2     C  361   3.202   1.395  14.844  0.5724  0.2363 -0.3432
   23TMC2     O  362   3.173   1.314  14.933  0.3608 -0.0029 -0.6265
   23TMC2     H  363   3.210   1.599  14.659 -2.4353  2.5347 -1.1249
   23TMC2    H1  364   2.969   1.294  14.848 -1.4828  0.0560  0.0002
   23TMC2    H2  365   2.812   1.514  14.516  1.3694  1.4564 -2.7490
   23TMC2    C7  366   2.752   1.331  14.712  0.1212 -0.8292  0.4420
   23TMC2    C8  367   3.029   1.637  14.450  0.5407 -0.1054  0.3848
   23TMC2    O1  368   2.746   1.274  14.823  0.0654 -0.0857 -0.0197
   23TMC2    O2  369   2.925   1.694  14.413 -0.9524 -0.9173  0.3821
   23TMC2    O5  370   3.150   1.689  14.441 -0.6020  0.5919 -0.4863
   23TMC2    H5  371   3.230   1.639  14.469 -0.0068  2.4176  1.0389
   24MPD2     C  372   3.661   1.172  14.906 -1.0096 -0.1872  0.3243
   24MPD2    C1  373   3.554   1.177  14.993 -0.3491  0.6293 -0.0170
   24MPD2    C2  374   3.448   1.260  14.955  0.3795  0.3642  0.4856
   24MPD2    C3  375   3.439   1.329  14.836  0.3150  0.2019 -0.0527
   24MPD2    C4  376   3.543   1.313  14.750  0.1257  0.9786  0.4318
   24MPD2    C5  377   3.651   1.236  14.788  0.0653  0.3135 -0.1028
   24MPD2     H  378   3.370   1.277  15.029  0.9764 -2.4835  1.7774
   24MPD2    H1  379   3.537   1.360  14.653  1.0540 -0.3441 -0.2649
   24MPD2    H2  380   3.755   1.124  14.934  0.4262  2.7198  0.4539
   24MPD2    H3  381   3.738   1.235  14.724  1.1568  3.0986  1.3346
   24MPD2     N  382   3.328   1.402  14.788 -0.5804  0.4010 -0.0424
   24MPD2    H5  383   3.340   1.436  14.693  1.6996 -1.2771 -0.3547
   24MPD2    N1  384   3.552   1.120  15.126 -0.0676  0.4277  0.2947
   24MPD2    H7  385   3.461   1.134  15.170 -1.5056 -2.4343 -1.7605
   25TMC2    C1  386   2.403   3.430  11.625 -0.1561 -0.6688  0.1701
   25TMC2    C2  387   2.498   3.527  11.642  0.3333  0.4234  0.7231
   25TMC2    C3  388   2.504   3.586  11.768 -0.6523 -0.5059  0.3504
   25TMC2    C4  389   2.308   3.391  11.714  0.2229  0.1910 -0.1382
   25TMC2    C5  390   2.321   3.457  11.834  0.2494  0.1150  0.7126
   25TMC2    C6  391   2.416   3.553  11.860  0.8899  0.5186  0.3074
   25TMC2     C  392   2.398   3.377  11.491 -0.1510 -0.3227  0.1024
   25TMC2     O  393   2.502   3.387  11.429 -0.1132 -0.3473 -0.3769
   25TMC2     H  394   2.556   3.561  11.556  1.8672  2.6903  2.6714
   25TMC2    H1  395   2.238   3.311  11.692 -1.6432  1.3617  1.5497
   25TMC2    H2  396   2.430   3.589  11.961  1.2209  1.8789 -0.2269
   25TMC2    C7  397   2.227   3.445  11.942  0.6484  0.7570  0.2898
   25TMC2    C8  398   2.595   3.701  11.781 -0.3957 -0.0509 -0.2600
   25TMC2    O1  399   2.238   3.515  12.044  0.5558  0.4417 -0.3902
   25TMC2    O2  400   2.668   3.735  11.682  0.7720 -0.3608 -0.1496
   25TMC2    O5  401   2.531   3.778  11.869  0.3057 -0.4905 -0.3771
   25TMC2    H5  402   2.520   3.734  11.956 -1.1837  0.4873 -0.0675
   26MPD2     C  403   2.184   3.137  11.086  0.0683  0.3495 -0.2490
   26MPD2    C1  404   2.115   3.095  11.200  1.1356  1.0752 -0.1930
   26MPD2    C2  405   2.151   3.146  11.326  0.3777 -0.0629 -0.7595
   26MPD2    C3  406   2.257   3.236  11.338 -0.1265  0.5303  0.6361
   26MPD2    C4  407   2.331   3.269  11.221  0.0104  0.1245  0.2531
   26MPD2    C5  408   2.285   3.228  11.097 -0.4028 -0.0840 -0.0015
   26MPD2     H  409   2.098   3.116  11.416  3.0191 -2.5742 -0.0163
   26MPD2    H1  410   2.425   3.324  11.220 -0.5764  1.1779  1.4742
   26MPD2    H2  411   2.159   3.097  10.989 -2.9020  1.6976 -0.0467
   26MPD2    H3  412   2.351   3.247  11.013 -0.0386 -2.8294 -0.3434
   26MPD2     N  413   2.282   3.298  11.464 -0.0866  0.4191 -0.2309
   26MPD2    H5  414   2.197   3.305  11.520  2.6593  0.7206  3.8500
   26MPD2    N1  415   2.016   3.005  11.166  0.0287  0.0921  0.0343
   26MPD2    H7  416   2.002   2.989  11.067 -1.1134  1.2596  0.0105
   27TMC2    C1  417   1.077   0.646  12.059  0.0659 -0.3333  0.1030
   27TMC2    C2  418   1.000   0.662  11.950  0.0665  0.1135 -0.1122
   27TMC2    C3  419   1.017   0.772  11.866 -1.2232  0.1961 -0.0529
   27TMC2    C4  420   1.177   0.735  12.101 -0.7283  0.0893  0.3957
   27TMC2    C5  421   1.180   0.850  12.020 -0.3434 -0.1488 -0.4777
   27TMC2    C6  422   1.101   0.871  11.906  0.3861 -0.1237  0.2531
   27TMC2     C  423   1.034   0.564  12.168  0.2646  0.4732 -0.3728
   27TMC2     O  424   1.120   0.517  12.240  0.2251 -0.0504 -0.2590
   27TMC2     H  425   0.915   0.599  11.924  0.9007 -0.7102 -0.8340
   27TMC2    H1  426   1.234   0.717  12.191  2.9304 -0.1555 -1.9958
   27TMC2    H2  427   1.118   0.964  11.853  0.8347 -0.3355  0.0243
   27TMC2    C7  428   1.215   0.970  12.087  0.2456  0.6039  0.4725
   27TMC2    C8  429   0.931   0.795  11.750  0.2192  0.1130  0.3744
   27TMC2    O1  430   1.270   1.059  12.025 -0.5525  0.3455  0.6035
   27TMC2    O2  431   0.949   0.901  11.692  0.3072 -0.1023  0.4829
   27TMC2    O5  432   0.892   0.673  11.706  0.2538 -0.5183 -0.6906
   27TMC2    H5  433   0.925   0.588  11.743  0.0998 -0.1311  0.3249
   28MPD2     C  434   0.689   0.425  12.519  0.5086 -0.7796 -0.7187
   28MPD2    C1  435   0.640   0.528  12.447  0.1229  0.0591 -0.1566
   28MPD2    C2  436   0.722   0.590  12.350 -0.5006 -0.3389 -0.0307
   28MPD2    C3  437   0.837   0.527  12.308  0.5698  0.6967 -0.1677
   28MPD2    C4  438   0.886   0.419  12.387 -0.4698 -0.6240  0.2569
   28MPD2    C5  439   0.808   0.373  12.492  0.6102 -0.3678 -0.2932
   28MPD2     H  440   0.692   0.681  12.299  0.8099  0.5171  0.7196
   28MPD2    H1  441   0.978   0.368  12.362 -0.9048 -1.2777 -0.0098
   28MPD2    H2  442   0.621   0.385  12.594 -0.5088 -0.7415 -1.6089
   28MPD2    H3  443   0.825   0.281  12.546  0.6924  0.0921  0.4705
   28MPD2     N  444   0.903   0.590  12.200 -0.0489 -0.1714  0.3060
   28MPD2    H5  445   0.856   0.665  12.149 -1.0328 -2.0963 -1.5970
   28MPD2    N1  446   0.518   0.579  12.491  0.1622  0.3755 -0.7071
   28MPD2    H7  447   0.490   0.540  12.580  1.0501 -0.3609 -0.7507
   29TMC2    C1  448   0.308   3.467  14.133  0.2243 -0.0787 -0.2867
   29TMC2    C2  449   0.194   3.468  14.213  0.1290 -0.1827  0.6352
   29TMC2    C3  450   0.191   3.576  14.295 -0.2727 -0.1051  0.8356
   29TMC2    C4  451   0.413   3.556  14.140  0.4159  0.2480 -0.0517
   29TMC2    C5  452   0.399   3.653  14.236 -0.4559  0.2401  0.1489
   29TMC2    C6  453   0.294   3.667  14.320 -0.8119  0.4226 -0.5436
   29TMC2     C  454   0.324   3.347  14.054  0.2789 -0.6599 -0.3018
   29TMC2     O  455   0.437   3.323  14.021 -0.1612  0.6139  0.7523
   29TMC2     H  456   0.114   3.396  14.213 -0.2492  0.2627 -2.1573
   29TMC2    H1  457   0.500   3.548  14.076 -0.2033 -0.6622 -0.7729
   29TMC2    H2  458   0.285   3.750  14.389 -1.3674 -1.1702  1.3160
   29TMC2    C7  459   0.492   3.761  14.234  0.2141  0.6960  0.6157
   29TMC2    C8  460   0.105   3.558  14.407 -0.5582 -0.4068 -0.0955
   29TMC2    O1  461   0.563   3.752  14.137 -0.1088 -0.4093  0.5305
   29TMC2    O2  462   4.731   3.511  14.395 -0.3232  0.0226 -0.0824
   29TMC2    O5  463   0.190   3.526  14.506 -0.0885  0.4633  0.4041
   29TMC2    H5  464   0.286   3.526  14.483 -0.5645 -1.1242 -1.6411
   30MPD2     C  465   0.146   2.910  13.835  0.4676  0.5010 -0.2090
   30MPD2    C1  466   0.263   2.934  13.903  0.3962  0.5492 -0.2226
   30MPD2    C2  467   0.284   3.063  13.952  0.6309  0.1775  0.0017
   30MPD2    C3  468   0.189   3.165  13.949  1.0343 -0.1980  0.6198
   30MPD2    C4  469   0.072   3.136  13.878 -0.4513  0.3897  0.5118
   30MPD2    C5  470   0.050   3.010  13.826  0.3322  0.9884 -0.1759
   30MPD2     H  471   0.380   3.075  14.000  0.5705  1.6843 -0.2662
   30MPD2    H1  472   0.007   3.222  13.860 -0.8975 -0.2833 -1.0320
   30MPD2    H2  473   0.122   2.812  13.794  1.0759  0.2439  0.0402
   30MPD2    H3  474   4.703   2.991  13.763  3.1308 -1.5473 -3.2757
   30MPD2     N  475   0.203   3.296  13.997 -0.3750  0.2453  0.2357
   30MPD2    H5  476   0.120   3.355  13.998 -0.3020  0.3505 -0.0825
   30MPD2    N1  477   0.376   2.851  13.916  0.2392 -0.4779  0.1579
   30MPD2    H7  478   0.465   2.888  13.950 -0.2127  2.5132 -1.8917
   31TMC2    C1  479   2.795   2.023  15.539  0.0806  0.0724  0.4464
   31TMC2    C2  480   2.665   2.066  15.562 -0.5775 -0.1100  0.2627
   31TMC2    C3  481   2.623   2.053  15.690  0.2615 -0.6308  0.5266
   31TMC2    C4  482   2.879   1.979  15.643 -0.4948 -0.6857  0.4880
   31TMC2    C5  483   2.827   1.960  15.766 -0.2881  0.1573  0.3986
   31TMC2    C6  484   2.697   2.000  15.796  0.9328  0.8828  0.4115
   31TMC2     C  485   2.844   2.033  15.402  0.4097 -1.8729  0.3852
   31TMC2     O  486   2.777   2.101  15.330  0.0950 -0.0875 -0.2336
   31TMC2     H  487   2.598   2.111  15.489 -1.2025 -1.3500  0.0645
   31TMC2    H1  488   2.981   1.943  15.638 -1.2789 -2.7575 -0.6966
   31TMC2    H2  489   2.660   2.004  15.898  0.3145 -3.6866  0.3582
   31TMC2    C7  490   2.922   1.927  15.876  0.4133  0.6552  0.0450
   31TMC2    C8  491   2.479   2.075  15.696 -0.0926 -0.2324 -0.0977
   31TMC2    O1  492   3.027   1.872  15.844  0.0447  0.2960  0.2761
   31TMC2    O2  493   2.425   2.166  15.628 -0.1536 -0.2040 -0.1600
   31TMC2    O5  494   2.420   2.002  15.798  0.0595  0.0191  0.0926
   31TMC2    H5  495   2.467   1.924  15.835 -0.6673 -0.3323  0.2778
   32MPD2     C  496   3.227   2.027  15.069  0.3280  0.3529  0.4855
   32MPD2    C1  497   3.112   2.105  15.070  0.1819 -0.4792 -0.0168
   32MPD2    C2  498   3.021   2.095  15.174  0.1345 -0.0518  0.1661
   32MPD2    C3  499   3.049   2.005  15.276 -0.6966  0.2710  0.2595
   32MPD2    C4  500   3.165   1.922  15.268  0.1101  0.0664  0.2309
   32MPD2    C5  501   3.258   1.943  15.171 -0.1902  0.3705  0.2548
   32MPD2     H  502   2.940   2.167  15.188 -0.5090 -1.1648  2.1212
   32MPD2    H1  503   3.200   1.872  15.357 -1.1552 -4.3963 -1.7998
   32MPD2    H2  504   3.300   2.035  14.989 -1.7026  1.1445 -1.3022
   32MPD2    H3  505   3.344   1.878  15.186  0.6462  1.6441  0.9614
   32MPD2     N  506   2.970   1.989  15.390 -0.0821  0.4533 -0.7598
   32MPD2    H5  507   3.007   1.922  15.456 -2.8942 -0.4765 -0.1139
   32MPD2    N1  508   3.088   2.189  14.963  0.1656  0.2164  0.4514
   32MPD2    H7  509   3.166   2.193  14.898 -0.2272  2.0354  0.0880
   33TMC2    C1  510   2.197   0.323  10.807 -0.1410 -0.3117 -0.3911
   33TMC2    C2  511   2.124   0.386  10.905 -0.3277  0.7789  0.1919
   33TMC2    C3  512   2.102   0.520  10.900 -0.1161  0.5570 -0.4054
   33TMC2    C4  513   2.246   0.402  10.710  0.3560 -0.0117  0.0013
   33TMC2    C5  514   2.223   0.536  10.696 -0.0452  0.5540 -0.2400
   33TMC2    C6  515   2.150   0.592  10.802  0.4460  1.0298 -0.7034
   33TMC2     C  516   2.265   0.210  10.848 -0.2823  0.1485  0.2183
   33TMC2     O  517   2.214   0.141  10.939  0.3934  0.7313  0.5377
   33TMC2     H  518   2.075   0.331  10.985  1.7795 -1.3103  0.0568
   33TMC2    H1  519   2.280   0.358  10.617 -0.7653  0.2483 -0.5205
   33TMC2    H2  520   2.130   0.698  10.803  0.2317  0.9729  0.1967
   33TMC2    C7  521   2.311   0.620  10.609 -0.1901  0.0144  0.0938
   33TMC2    C8  522   2.041   0.587  11.015 -0.7407 -0.0812  0.4870
   33TMC2    O1  523   2.359   0.561  10.517  0.5834  0.5875 -0.1735
   33TMC2    O2  524   2.087   0.678  11.074  0.5609 -0.2130 -0.2043
   33TMC2    O5  525   1.913   0.556  11.009 -0.7115  0.0132  0.7612
   33TMC2    H5  526   1.893   0.489  10.941 -0.0038  1.4226 -0.8394
   34MPD2     C  527   2.590   4.561  10.747  0.0244  0.3179 -0.1976
   34MPD2    C1  528   2.482   4.572  10.830 -0.2825 -0.5020  1.0004
   34MPD2    C2  529   2.409   4.686  10.838 -0.4268  0.7523 -0.3619
   34MPD2    C3  530   2.446   0.056  10.764 -0.2223  0.3213  0.0882
   34MPD2    C4  531   2.551   0.050  10.678  0.4915 -0.7724  0.4885
   34MPD2    C5  532   2.627   4.674  10.681  0.4812  0.2902  0.4315
   34MPD2     H  533   2.319   4.695  10.898 -1.3675 -0.6789 -1.5622
   34MPD2    H1  534   2.596   0.137  10.631 -0.5519 -0.8642 -0.7024
   34MPD2    H2  535   2.645   4.469  10.734  1.7404  1.3510 -0.1757
   34MPD2    H3  536   2.718   4.679  10.623 -0.8123  0.6476 -1.5970
   34MPD2     N  537   2.377   0.181  10.766 -0.2425 -0.3935  0.4008
   34MPD2    H5  538   2.412   0.250  10.701 -2.6579 -0.2579 -0.7919
   34MPD2    N1  539   2.444   4.452  10.892 -0.7282 -0.0489  0.5565
   34MPD2    H7  540   2.502   4.375  10.860 -1.1810  0.6529 -1.9762
   35TMC2    C1  541   4.496   1.013  11.281  0.4599  0.2899  0.2317
   35TMC2    C2  542   4.447   0.988  11.154 -0.1143  0.1826 -0.1141
   35TMC2    C3  543   4.310   0.992  11.134 -0.9533  0.3439  0.7049
   35TMC2    C4  544   4.404   1.037  11.383 -0.2825 -0.2451  0.3752
   35TMC2    C5  545   4.271   1.048  11.359  0.1299 -0.2199 -0.7081
   35TMC2    C6  546   4.222   1.031  11.231  0.3223  0.2736  0.1520
   35TMC2     C  547   4.613   0.924  11.319 -0.5470 -0.8354 -0.0881
   35TMC2     O  548   4.695   0.894  11.233  0.3142  0.0329 -0.3750
   35TMC2     H  549   4.509   0.955  11.071  0.6008 -0.8658  0.8448
   35TMC2    H1  550   4.429   1.041  11.489  2.0359 -2.6738 -0.1037
   35TMC2    H2  551   4.114   1.023  11.222  0.5503  0.0450 -2.2573
   35TMC2    C7  552   4.198   0.993  11.466 -0.5204 -0.8004  0.1001
   35TMC2    C8  553   4.277   0.982  10.991  0.1265  0.2324  0.1509
   35TMC2    O1  554   4.253   0.901  11.533 -0.0974 -0.1702 -0.7977
   35TMC2    O2  555   4.356   1.004  10.902 -0.1437 -0.1510  0.2622
   35TMC2    O5  556   4.148   0.962  10.970 -0.4664  0.0230  0.0403
   35TMC2    H5  557   4.087   0.946  11.045 -1.7575  2.7721 -0.4109
   36MPD2     C  558   0.117   0.664  11.681  0.0517 -0.3856  0.4425
   36MPD2    C1  559   4.728   0.678  11.720  0.4608 -0.3400  0.4726
   36MPD2    C2  560   4.635   0.739  11.638 -0.3660 -0.1461  0.2597
   36MPD2    C3  561   4.678   0.789  11.515  0.3174  0.4033 -0.0812
   36MPD2    C4  562   0.069   0.767  11.477 -0.2066  0.2450  0.0813
   36MPD2    C5  563   0.157   0.710  11.559 -0.2891 -0.4944 -0.7775
   36MPD2     H  564   4.533   0.761  11.668 -0.8110  0.4058 -1.6968
   36MPD2    H1  565   0.100   0.797  11.378  0.4479  0.9827  0.5039
   36MPD2    H2  566   0.187   0.616  11.748  0.6926  0.5519  0.4578
   36MPD2    H3  567   0.259   0.708  11.524 -0.8469  1.2545 -2.5275
   36MPD2     N  568   4.589   0.871  11.442  0.2835  0.0442 -0.2434
   36MPD2    H5  569   4.500   0.892  11.485 -0.4502 -0.3626 -1.5942
   36MPD2    N1  570   4.701   0.641  11.854  0.3415 -0.0711  0.3009
   36MPD2    H7  571   0.037   0.615  11.916  0.9336  1.2969  0.1508
   37TMC2    C1  572   1.698   2.011  11.490  0.1690 -0.2062  0.1299
   37TMC2    C2  573   1.668   2.122  11.411  0.1970 -0.3137 -0.4336
   37TMC2    C3  574   1.770   2.167  11.332 -0.0457  0.4032 -0.1009
   37TMC2    C4  575   1.820   1.952  11.491 -0.0529  0.0641 -1.0974
   37TMC2    C5  576   1.917   1.991  11.399  0.0418 -0.3663 -0.1790
   37TMC2    C6  577   1.886   2.098  11.319 -0.4616  0.0180 -0.1094
   37TMC2     C  578   1.585   1.938  11.541  0.3520  0.1997  0.0727
   37TMC2     O  579   1.474   1.984  11.521  0.6151 -0.2929  0.0804
   37TMC2     H  580   1.576   2.173  11.437  1.4915  3.0549 -2.4688
   37TMC2    H1  581   1.845   1.873  11.560 -0.6201  1.2090  0.4045
   37TMC2    H2  582   1.969   2.130  11.258 -1.3880 -0.3204 -1.5604
   37TMC2    C7  583   2.033   1.904  11.381 -0.4639 -0.0515  0.3742
   37TMC2    C8  584   1.743   2.276  11.236  0.0776 -0.6691  0.5784
   37TMC2    O1  585   2.029   1.794  11.437 -0.4352  0.0138 -0.3606
   37TMC2    O2  586   1.835   2.336  11.177 -0.2886  0.6404  0.2808
   37TMC2    O5  587   1.626   2.235  11.184  0.0580  0.0550 -0.0183
   37TMC2    H5  588   1.567   2.173  11.232  0.0659 -0.0604 -0.1567
   38MPD2     C  589   1.379   1.510  11.745 -0.2807 -0.3480 -0.4094
   38MPD2    C1  590   1.517   1.507  11.743 -0.6393  0.1857  0.2563
   38MPD2    C2  591   1.586   1.611  11.693  0.6476  0.2372  0.2808
   38MPD2    C3  592   1.528   1.721  11.652  0.0118  0.2417 -0.4079
   38MPD2    C4  593   1.392   1.727  11.659 -0.3111  0.3197 -0.9851
   38MPD2    C5  594   1.319   1.625  11.708  0.2984 -0.5199  0.3356
   38MPD2     H  595   1.691   1.594  11.715  0.6699 -0.0210 -0.0198
   38MPD2    H1  596   1.336   1.815  11.631  1.3811  1.4387 -0.8603
   38MPD2    H2  597   1.312   1.428  11.767  0.6747 -1.2084 -0.7610
   38MPD2    H3  598   1.211   1.634  11.705  0.1659 -0.9365  3.3345
   38MPD2     N  599   1.611   1.815  11.591 -0.6963  0.7080 -0.0198
   38MPD2    H5  600   1.707   1.781  11.583 -1.4087 -1.0802 -0.8759
   38MPD2    N1  601   1.591   1.397  11.789  0.0669 -0.2188 -0.0343
   38MPD2    H7  602   1.690   1.399  11.769  0.0397  0.0532 -0.1417
   39TMC2    C1  603   4.682   3.822   1.593 -0.7899 -0.1237 -0.0370
   39TMC2    C2  604   4.610   3.938   1.598  0.3877 -0.2286  0.2846
   39TMC2    C3  605   4.678   4.054   1.624  0.2835  0.0849 -0.0252
   39TMC2    C4  606   0.075   3.827   1.580 -0.1237 -0.6601 -0.0540
   39TMC2    C5  607   0.141   3.942   1.597 -0.7243  0.7513 -0.0963
   39TMC2    C6  608   0.071   4.062   1.619 -0.3534  0.3375 -0.0312
   39TMC2     C  609   4.600   3.707   1.571  0.5712  0.2612  0.7619
   39TMC2     O  610   4.491   3.713   1.514  0.4292  0.1758  0.3796
   39TMC2     H  611   4.503   3.935   1.615  0.1155 -1.4494 -1.7250
   39TMC2    H1  612   0.132   3.738   1.556  1.6021  0.1164  1.2122
   39TMC2    H2  613   0.128   4.154   1.610 -1.9444  1.5059  1.6914
   39TMC2    C7  614   0.280   3.953   1.549 -0.7893 -0.3882 -1.1334
   39TMC2    C8  615   4.605   4.177   1.593 -0.1620 -0.3798  0.2572
   39TMC2    O1  616   0.319   3.870   1.467  0.3981  0.7163 -0.4088
   39TMC2    O2  617   4.661   4.277   1.552  0.0387 -0.4299  0.0617
   39TMC2    O5  618   4.495   4.166   1.662 -1.0277  0.3388  0.2210
   39TMC2    H5  619   4.469   4.081   1.704  0.2327 -0.3068 -0.3033
   40MPD2     C  620   4.721   3.371   1.636  0.0505  1.1081 -0.2877
   40MPD2    C1  621   4.637   3.463   1.586  0.1074  0.4201 -0.6782
   40MPD2    C2  622   4.525   3.427   1.512 -0.1298  0.6210 -0.0552
   40MPD2    C3  623   4.503   3.294   1.484  0.8247 -0.2641 -0.0383
   40MPD2    C4  624   4.596   3.202   1.528 -0.2069  0.3949 -0.9042
   40MPD2    C5  625   4.708   3.245   1.599  0.3809  0.1292 -0.0389
   40MPD2     H  626   4.463   3.498   1.460 -1.2625 -0.4861 -0.2208
   40MPD2    H1  627   4.582   3.095   1.527  2.1327  0.0553  0.6474
   40MPD2    H2  628   0.067   3.400   1.694  0.7657  1.2420 -1.4155
   40MPD2    H3  629   0.041   3.175   1.637  1.7816  1.3892 -0.3824
   40MPD2     N  630   4.392   3.240   1.413 -0.0540  0.1209  0.7746
   40MPD2    H5  631   4.384   3.140   1.396  1.1989  0.4562 -1.7933
   40MPD2    N1  632   4.668   3.594   1.614 -0.3546  0.3168  0.2855
   40MPD2    H7  633   0.009   3.613   1.672 -0.9195  1.8408  0.5898
   41TMC2    C1  634   4.295   1.117  14.329 -0.0767 -0.2139  0.0700
   41TMC2    C2  635   4.380   1.189  14.409  0.5402 -0.5718 -0.0035
   41TMC2    C3  636   4.417   1.316  14.370  0.2758 -0.7660 -0.3190
   41TMC2    C4  637   4.253   1.165  14.214 -0.2276 -0.0014  0.0618
   41TMC2    C5  638   4.296   1.288  14.176 -0.8684  0.0106 -0.1568
   41TMC2    C6  639   4.360   1.376  14.261  0.3316  0.1011  0.3242
   41TMC2     C  640   4.198   1.035  14.401  0.1515  0.2011  0.3924
   41TMC2     O  641   4.136   0.941  14.351  0.5318  0.4577 -0.1518
   41TMC2     H  642   4.429   1.148  14.497  0.4335 -0.9722 -0.1312
   41TMC2    H1  643   4.182   1.106  14.158 -0.3450 -1.4807  1.7660
   41TMC2    H2  644   4.391   1.474  14.228 -0.9994  0.2060 -0.5807
   41TMC2    C7  645   4.279   1.339  14.045 -0.8212  0.8273 -0.4613
   41TMC2    C8  646   4.462   1.406  14.473 -0.1407 -0.0105 -0.0581
   41TMC2    O1  647   4.267   1.461  14.039  0.3953  0.1871  0.9889
   41TMC2    O2  648   4.439   1.525  14.461  0.7503 -0.1807 -0.3029
   41TMC2    O5  649   4.587   1.362  14.500 -0.3000  0.7540  0.3467
   41TMC2    H5  650   4.608   1.291  14.436  0.1228  0.5350  0.7277
   42MPD2     C  651   4.056   0.900  14.629 -0.7275 -0.1555  0.2645
   42MPD2    C1  652   4.121   1.021  14.638  0.0651  0.9870  0.0081
   42MPD2    C2  653   4.101   1.090  14.760 -0.1327  0.0836 -0.1841
   42MPD2    C3  654   4.026   1.036  14.867  0.1428  0.1223 -0.3827
   42MPD2    C4  655   3.980   0.908  14.850 -0.1596 -0.7257 -0.3152
   42MPD2    C5  656   3.984   0.838  14.733 -0.0544 -0.3465 -0.0533
   42MPD2     H  657   4.153   1.185  14.767  0.5120 -0.3203  0.4282
   42MPD2    H1  658   3.921   0.866  14.930  2.9856 -1.0124  1.8520
   42MPD2    H2  659   4.064   0.843  14.537  0.5922 -1.0709  0.9460
   42MPD2    H3  660   3.944   0.740  14.712 -0.8208  0.0882 -0.6666
   42MPD2     N  661   4.004   1.102  14.990  0.1914  0.9495 -0.0870
   42MPD2    H5  662   3.943   1.050  15.053  1.2077 -1.6823 -1.2718
   42MPD2    N1  663   4.198   1.080  14.535 -0.5170  0.4963  0.2093
   42MPD2    H7  664   4.252   1.165  14.548 -1.6527  1.2251  0.2594
   43TMC2    C1  665   1.070   4.315   1.124 -0.1948  0.9996  0.2354
   43TMC2    C2  666   1.148   4.233   1.200  0.3781  0.4657 -0.3231
   43TMC2    C3  667   1.186   4.285   1.323 -0.4128  0.3173 -0.1655
   43TMC2    C4  668   1.034   4.443   1.148 -0.0103  0.1306 -0.4524
   43TMC2    C5  669   1.088   4.489   1.267  0.9043 -1.1543 -0.0954
   43TMC2    C6  670   1.172   4.420   1.354  0.5815  0.6383 -0.1453
   43TMC2     C  671   1.049   4.269   0.989  0.1611 -0.6448 -0.0849
   43TMC2     O  672   1.139   4.197   0.950  0.0120  0.5280 -0.0892
   43TMC2     H  673   1.170   4.131   1.171  0.3631  0.6150 -0.8702
   43TMC2    H1  674   0.961   4.506   1.098 -0.5610 -0.3081 -0.2002
   43TMC2    H2  675   1.187   4.455   1.455  2.8635 -1.0801  0.1127
   43TMC2    C7  676   1.075   4.632   1.313 -0.4838  0.9659 -0.3592
   43TMC2    C8  677   1.197   4.175   1.420 -0.3725 -0.4162  0.5317
   43TMC2    O1  678   1.167   4.675   1.382 -0.7800 -0.3453 -0.3048
   43TMC2    O2  679   1.215   4.061   1.382 -0.2739 -0.4247  0.0956
   43TMC2    O5  680   1.095   4.207   1.498 -0.3846  0.3083 -0.8039
   43TMC2    H5  681   1.069   4.300   1.477  0.7532  0.2410 -2.4541
   44MPD2     C  682   0.763   4.084   0.609 -0.4125  0.5251  0.0198
   44MPD2    C1  683   0.899   4.061   0.640 -0.9894  0.4747 -0.7907
   44MPD2    C2  684   0.951   4.129   0.750 -0.0317  0.3316  0.7624
   44MPD2    C3  685   0.866   4.216   0.830  0.3353  0.2806 -0.5625
   44MPD2    C4  686   0.729   4.215   0.802 -0.0815 -0.5501 -0.0679
   44MPD2    C5  687   0.679   4.155   0.688 -0.6039 -0.6946  0.1191
   44MPD2     H  688   1.058   4.116   0.761 -0.3696 -2.0732  1.2547
   44MPD2    H1  689   0.654   4.258   0.867  0.6713  0.6425  0.0194
   44MPD2    H2  690   0.715   4.037   0.524  2.0645 -0.2776 -0.9305
   44MPD2    H3  691   0.572   4.153   0.676 -0.5541 -0.5548 -0.3741
   44MPD2     N  692   0.917   4.273   0.945  0.2867  0.2569 -0.4381
   44MPD2    H5  693   0.852   4.311   1.014 -0.8150  0.1092 -1.3897
   44MPD2    N1  694   0.985   3.982   0.558  0.5815 -0.1778 -0.0343
   44MPD2    H7  695   1.086   3.981   0.573  0.7810  0.6433 -1.2984
   45TMC2    C1  696   1.311   1.177   9.635 -0.2057 -0.7739  0.0096
   45TMC2    C2  697   1.413   1.091   9.607  1.2088 -0.1368  0.1130
   45TMC2    C3  698   1.530   1.117   9.660 -0.9851 -0.2126  0.1991
   45TMC2    C4  699   1.332   1.297   9.709  0.1059  0.0480  0.1028
   45TMC2    C5  700   1.457   1.322   9.754  0.0613  0.0089  0.4104
   45TMC2    C6  701   1.553   1.228   9.739  0.1454  0.7524  0.0551
   45TMC2     C  702   1.182   1.143   9.582 -0.2407  0.6651 -0.6028
   45TMC2     O  703   1.182   1.031   9.532  0.0122 -0.4575 -0.3164
   45TMC2     H  704   1.403   1.005   9.542 -0.3084 -0.3416  0.5978
   45TMC2    H1  705   1.252   1.362   9.741  0.5822 -0.0423  1.4925
   45TMC2    H2  706   1.650   1.241   9.787  0.1384  1.7536 -0.2072
   45TMC2    C7  707   1.491   1.458   9.794 -0.0078 -0.1820 -0.8248
   45TMC2    C8  708   1.626   1.009   9.662 -0.1434 -1.2526 -0.4205
   45TMC2    O1  709   1.407   1.533   9.837 -0.2649 -0.2911  0.3592
   45TMC2    O2  710   1.612   0.883   9.671 -1.0957  0.6556 -0.1931
   45TMC2    O5  711   1.745   1.072   9.634 -0.2338  0.3313  0.0354
   45TMC2    H5  712   1.734   1.169   9.622 -1.1359  0.3592  1.0211
   46MPD2     C  713   0.910   1.138   9.474  0.3997 -0.1198  0.1329
   46MPD2    C1  714   0.959   1.252   9.529  0.1483  0.3081 -0.7819
   46MPD2    C2  715   0.874   1.363   9.537  0.5858 -0.0573 -0.0798
   46MPD2    C3  716   0.745   1.357   9.488 -0.1546  0.2708  0.5301
   46MPD2    C4  717   0.705   1.240   9.423  0.9057 -0.0750 -0.0751
   46MPD2    C5  718   0.786   1.134   9.412  0.3541 -0.2734  0.0473
   46MPD2     H  719   0.904   1.452   9.591  0.8856  0.3027 -0.8422
   46MPD2    H1  720   0.608   1.233   9.376 -0.5325 -1.3075  3.0587
   46MPD2    H2  721   0.966   1.046   9.463  0.5080 -0.2506  1.7285
   46MPD2    H3  722   0.760   1.043   9.358 -0.8186 -0.1167  0.3366
   46MPD2     N  723   0.667   1.477   9.496 -0.3242  0.8382 -0.3945
   46MPD2    H5  724   0.723   1.553   9.535  1.3900 -0.9058  0.5607
   46MPD2    N1  725   1.089   1.252   9.581 -0.0015  0.2763 -0.0400
   46MPD2    H7  726   1.131   1.340   9.607 -1.1416  0.7838  0.1182
   47TMC2    C1  727   3.155   1.997   9.593  0.1581  0.0861 -0.2187
   47TMC2    C2  728   3.179   1.889   9.506 -0.3337 -0.0038  0.0564
   47TMC2    C3  729   3.073   1.813   9.467 -0.5838 -0.0010 -0.3792
   47TMC2    C4  730   3.035   2.044   9.625 -0.5140 -0.0541  0.3310
   47TMC2    C5  731   2.931   1.980   9.558  0.8222  0.2335 -0.6279
   47TMC2    C6  732   2.947   1.869   9.480 -0.6916  0.0555 -0.6974
   47TMC2     C  733   3.273   2.060   9.643  0.2662  0.1820 -0.3908
   47TMC2     O  734   3.265   2.179   9.658  0.4092 -0.2125  0.1956
   47TMC2     H  735   3.281   1.862   9.480 -1.3695 -2.5750 -1.3827
   47TMC2    H1  736   3.019   2.133   9.685 -0.7687 -0.9181  1.5455
   47TMC2    H2  737   2.861   1.813   9.444 -0.5369  1.0159 -2.5335
   47TMC2    C7  738   2.791   2.018   9.574  0.0716  0.5084  0.2760
   47TMC2    C8  739   3.082   1.695   9.384 -0.3687  0.1747  0.1598
   47TMC2    O1  740   2.717   1.976   9.492 -0.6843  0.2868 -0.4794
   47TMC2    O2  741   2.989   1.650   9.319  0.5143  0.0678 -0.1619
   47TMC2    O5  742   3.201   1.627   9.401  0.3849  0.4120 -0.2952
   47TMC2    H5  743   3.259   1.668   9.468  0.4230  0.5645 -0.4225
   48MPD2     C  744   3.525   2.116   9.808  0.9249  0.5639  0.7615
   48MPD2    C1  745   3.483   1.991   9.764  0.5352  0.0099 -0.1103
   48MPD2    C2  746   3.555   1.880   9.800 -0.2851 -0.0200 -0.2539
   48MPD2    C3  747   3.676   1.894   9.870 -0.0882 -0.7330 -0.5116
   48MPD2    C4  748   3.714   2.020   9.910 -0.5103  0.2860  0.0835
   48MPD2    C5  749   3.642   2.127   9.881  0.3133  0.6734 -0.0374
   48MPD2     H  750   3.535   1.778   9.771 -0.9464 -0.3299  1.2725
   48MPD2    H1  751   3.803   2.044   9.969 -0.8960  0.6395  0.5259
   48MPD2    H2  752   3.468   2.208   9.799  0.7765  0.5061  1.0877
   48MPD2    H3  753   3.666   2.229   9.909 -0.8888  0.4526  1.8002
   48MPD2     N  754   3.743   1.769   9.904  0.4163 -0.7898 -0.1736
   48MPD2    H5  755   3.698   1.680   9.891 -1.2444  0.1728 -0.9483
   48MPD2    N1  756   3.368   1.970   9.688 -0.2238 -0.7647 -0.1305
   48MPD2    H7  757   3.349   1.872   9.667  0.0855 -0.6756 -0.8435
   49TMC2    C1  758   1.735   3.368  10.463  0.0218  0.4245  0.6078
   49TMC2    C2  759   1.723   3.319  10.337 -0.2025 -0.2603  0.6568
   49TMC2    C3  760   1.685   3.186  10.321  0.4665 -0.7055  0.0427
   49TMC2    C4  761   1.684   3.301  10.571 -0.8246  0.0744  0.8268
   49TMC2    C5  762   1.624   3.181  10.546 -0.5253 -0.7516 -0.0810
   49TMC2    C6  763   1.639   3.109  10.425  0.0655 -0.0980 -0.0775
   49TMC2     C  764   1.793   3.499  10.472 -0.1413 -0.0743 -0.3391
   49TMC2     O  765   1.859   3.533  10.375 -0.2035  0.4150 -0.0298
   49TMC2     H  766   1.750   3.380  10.251 -1.9977 -0.6795 -0.2071
   49TMC2    H1  767   1.706   3.323  10.675 -0.4894 -2.2951  1.2558
   49TMC2    H2  768   1.606   3.007  10.411  0.1723  0.1546 -2.2678
   49TMC2    C7  769   1.560   3.099  10.656  0.2287  0.0827  0.2330
   49TMC2    C8  770   1.687   3.118  10.194 -1.0540 -0.1909 -0.0054
   49TMC2    O1  771   1.518   2.988  10.618 -0.0373 -0.3636 -0.1395
   49TMC2    O2  772   1.621   3.017  10.175  0.1978 -0.0092  0.9060
   49TMC2    O5  773   1.807   3.149  10.135 -0.1832  0.0470 -0.3106
   49TMC2    H5  774   1.865   3.214  10.181 -0.7640  1.8719 -2.1442
   50MPD2     C  775   1.839   3.795  10.516  0.1447 -0.7507 -0.9971
   50MPD2    C1  776   1.795   3.708  10.614  0.5698  0.5753  0.1561
   50MPD2    C2  777   1.781   3.758  10.739 -0.2610 -0.1282 -0.2854
   50MPD2    C3  778   1.793   3.895  10.763 -0.0104 -0.1251 -0.0937
   50MPD2    C4  779   1.845   3.976  10.667  0.9858 -0.4132 -0.0386
   50MPD2    C5  780   1.882   3.924  10.547 -0.1591  0.8198 -0.5424
   50MPD2     H  781   1.731   3.695  10.811  0.5994 -0.2805  0.1790
   50MPD2    H1  782   1.859   4.081  10.693  2.2537 -0.7516  0.6651
   50MPD2    H2  783   1.840   3.757  10.414  1.6386  0.4554 -1.4396
   50MPD2    H3  784   1.927   3.997  10.482  0.4092  1.3207  0.4095
   50MPD2     N  785   1.771   3.942  10.892 -0.2088 -0.1456  0.7027
   50MPD2    H5  786   1.786   4.042  10.897  1.8896 -0.3802 -0.9926
   50MPD2    N1  787   1.766   3.568  10.591  0.5016 -0.2123  0.3767
   50MPD2    H7  788   1.731   3.520  10.674 -0.4228 -1.0443 -0.4837
   51TMC2    C1  789   1.761   3.499   0.993  0.2811  0.2537  0.2229
   51TMC2    C2  790   1.741   3.488   0.852  0.5112 -0.2731  0.3070
   51TMC2    C3  791   1.751   3.602   0.782  0.2696  0.0742 -0.7878
   51TMC2    C4  792   1.800   3.616   1.047  0.5438 -0.2494 -0.1458
   51TMC2    C5  793   1.802   3.734   0.972  0.1643 -0.3105 -0.0995
   51TMC2    C6  794   1.771   3.728   0.836  0.3776 -0.4167  0.4564
   51TMC2     C  795   1.754   3.385   1.079 -0.0680  0.4316 -0.4885
   51TMC2     O  796   1.784   3.274   1.035 -0.3844 -0.2383  0.5842
   51TMC2     H  797   1.716   3.399   0.796  1.0958 -0.4294  0.2940
   51TMC2    H1  798   1.813   3.619   1.155  0.5264 -0.7553 -0.1270
   51TMC2    H2  799   1.802   3.813   0.777  0.5862 -0.4997  0.4430
   51TMC2    C7  800   1.857   3.847   1.036  0.5557  0.3795 -0.1709
   51TMC2    C8  801   1.748   3.597   0.634  0.6025 -0.9343 -0.5231
   51TMC2    O1  802   1.920   3.830   1.137 -0.2750 -0.0162 -0.0378
   51TMC2    O2  803   1.701   3.691   0.575  0.0557  0.0592  0.2976
   51TMC2    O5  804   1.820   3.495   0.583  0.4684  0.4060 -0.8125
   51TMC2    H5  805   1.870   3.450   0.655  0.6835 -1.0151 -1.8621
   52MPD2     C  806   1.703   3.175   1.545  0.2997 -0.0445  0.0958
   52MPD2    C1  807   1.780   3.134   1.438  0.3039 -0.6249 -0.1989
   52MPD2    C2  808   1.780   3.204   1.318 -0.1436  0.5005  0.1619
   52MPD2    C3  809   1.702   3.327   1.309  0.9325  0.4932 -0.7579
   52MPD2    C4  810   1.631   3.367   1.422 -0.2127 -0.1099 -0.4892
   52MPD2    C5  811   1.637   3.296   1.537 -0.7600  0.5050 -0.7635
   52MPD2     H  812   1.839   3.180   1.229  1.5886 -0.9945  1.7059
   52MPD2    H1  813   1.585   3.465   1.426 -0.3053 -0.1344 -0.9042
   52MPD2    H2  814   1.714   3.135   1.646  1.0525  1.9249  0.7898
   52MPD2    H3  815   1.573   3.319   1.621  0.0847  0.8323 -0.2185
   52MPD2     N  816   1.704   3.411   1.200  0.2391 -0.2291 -0.0168
   52MPD2    H5  817   1.655   3.499   1.211 -1.1589 -1.0344  0.2059
   52MPD2    N1  818   1.863   3.021   1.453 -0.5314 -0.2413 -0.4507
   52MPD2    H7  819   1.912   2.997   1.368  0.6887 -1.0826  0.4941
   53TMC2    C1  820   2.569   1.390  11.361  0.0996  0.0912 -0.2156
   53TMC2    C2  821   2.638   1.294  11.295  0.2542  0.1013  0.0928
   53TMC2    C3  822   2.635   1.167  11.349 -0.0489 -0.2437 -0.2324
   53TMC2    C4  823   2.491   1.361  11.467 -0.3833 -0.6708  0.0226
   53TMC2    C5  824   2.495   1.231  11.522  0.0987  0.0884 -0.0618
   53TMC2    C6  825   2.565   1.131  11.462 -0.0411  0.5593  0.1445
   53TMC2     C  826   2.567   1.524  11.296  0.0628 -0.2209 -0.6858
   53TMC2     O  827   2.676   1.555  11.253  0.3750 -0.5143  0.1969
   53TMC2     H  828   2.711   1.319  11.219  0.7155  0.7404  0.7416
   53TMC2    H1  829   2.431   1.439  11.512  1.8050  0.8299  0.3533
   53TMC2    H2  830   2.588   1.031  11.498 -1.6388 -0.2774 -1.2069
   53TMC2    C7  831   2.444   1.211  11.660  0.1911 -0.1690 -0.5038
   53TMC2    C8  832   2.754   1.091  11.315 -0.3313  0.1911 -0.5965
   53TMC2    O1  833   2.379   1.296  11.708  0.0450 -0.5464  0.1615
   53TMC2    O2  834   2.849   1.137  11.257  0.1183 -0.1588  0.5244
   53TMC2    O5  835   2.697   0.976  11.286 -0.0320 -0.0343 -0.1248
   53TMC2    H5  836   2.613   0.954  11.332  0.8357 -1.0509  0.9883
   54MPD2     C  837   2.509   1.803  11.216 -0.6680  0.8922 -0.3237
   54MPD2    C1  838   2.416   1.724  11.275 -0.2459  0.7433 -0.0386
   54MPD2    C2  839   2.296   1.774  11.322 -0.7019  0.3201 -0.6470
   54MPD2    C3  840   2.266   1.906  11.294  0.1323  0.3252  0.6068
   54MPD2    C4  841   2.366   1.987  11.243  0.2724 -0.7602  0.1367
   54MPD2    C5  842   2.487   1.936  11.211  0.3278 -0.3277  0.4391
   54MPD2     H  843   2.226   1.702  11.364  0.6919  0.9388  2.7103
   54MPD2    H1  844   2.354   2.093  11.228 -0.3642 -0.7767  0.5259
   54MPD2    H2  845   2.606   1.761  11.190 -1.3161 -1.6129  1.2404
   54MPD2    H3  846   2.561   1.996  11.160 -1.7312  0.7613 -1.2393
   54MPD2     N  847   2.142   1.970  11.325 -0.4332 -0.0739  0.0209
   54MPD2    H5  848   2.131   2.070  11.320 -1.8760 -0.3836 -3.6198
   54MPD2    N1  849   2.443   1.587  11.307  0.7214 -0.2429 -0.0623
   54MPD2    H7  850   2.368   1.523  11.333  0.9085 -0.9123 -1.1875
   55TMC2    C1  851   3.439   3.923   0.063  0.3452 -0.4636  0.1935
   55TMC2    C2  852   3.405   3.860  17.700 -0.1222 -0.5703 -0.0855
   55TMC2    C3  853   3.407   3.724  17.700  0.1517 -0.5636 -0.5889
   55TMC2    C4  854   3.454   3.854   0.181  0.2405  0.3637 -0.0554
   55TMC2    C5  855   3.450   3.715   0.170 -0.1065 -0.3215 -0.2616
   55TMC2    C6  856   3.415   3.652   0.055  0.1016  0.7691  0.7299
   55TMC2     C  857   3.404   4.058   0.069  0.8341 -0.2738  0.2266
   55TMC2     O  858   3.374   4.103   0.179  0.1848 -0.2235  0.2412
   55TMC2     H  859   3.369   3.910  17.611 -2.0705 -0.5239  0.7366
   55TMC2    H1  860   3.479   3.912   0.270 -0.1672  0.7577 -0.1923
   55TMC2    H2  861   3.396   3.545   0.058  0.7220  0.6507  0.4946
   55TMC2    C7  862   3.430   3.628   0.292  0.2623  0.4309 -0.5990
   55TMC2    C8  863   3.382   3.644  17.577 -0.8699  0.3765 -0.3280
   55TMC2    O1  864   3.435   3.510   0.278  0.1975 -0.0998  0.7794
   55TMC2    O2  865   3.335   3.530  17.586 -0.0086  0.0763 -0.1287
   55TMC2    O5  866   3.395   3.726  17.468  0.0013  0.2568 -0.3281
   55TMC2    H5  867   3.463   3.795  17.488  1.4883 -1.4602  0.5206
   56MPD2     C  868   3.459   4.333  17.581 -0.8983  0.0442  0.4189
   56MPD2    C1  869   3.418   4.273  17.698  0.0938  0.1870 -0.2125
   56MPD2    C2  870   3.334   4.345   0.028  0.0324 -0.5543  0.0795
   56MPD2    C3  871   3.292   4.474  17.757  0.0635 -0.3520  0.3056
   56MPD2    C4  872   3.341   4.540  17.646 -0.5205  0.6428  0.6230
   56MPD2    C5  873   3.418   4.459  17.563 -0.0437 -0.2840  0.0014
   56MPD2     H  874   3.304   4.311   0.127  0.2328 -0.1672  0.2716
   56MPD2    H1  875   3.325   4.643  17.616 -0.9934  0.0903 -0.9969
   56MPD2    H2  876   3.506   4.276  17.503 -0.4832  0.0679  0.6516
   56MPD2    H3  877   3.456   4.504  17.472  1.2931 -1.5799 -0.0869
   56MPD2     N  878   3.194   4.531   0.087  0.1289 -0.1666  0.2610
   56MPD2    H5  879   3.161   4.472   0.163 -3.7313  0.7512 -0.6913
   56MPD2    N1  880   3.451   4.133  17.722 -0.2661 -0.2774  0.4304
   56MPD2    H7  881   3.508   4.095  17.647 -1.3070 -0.6126 -0.1928
   57TMC2    C1  882   2.530   0.850  13.606 -0.3320  0.4956  0.1502
   57TMC2    C2  883   2.469   0.967  13.569 -0.1047  0.2695 -0.6554
   57TMC2    C3  884   2.502   1.024  13.454 -0.8962 -0.5685  0.2010
   57TMC2    C4  885   2.622   0.794  13.523  0.4149  0.8812 -0.0678
   57TMC2    C5  886   2.668   0.871  13.417  0.4468 -0.0793 -0.2529
   57TMC2    C6  887   2.591   0.973  13.370 -0.5411  0.3173  0.1392
   57TMC2     C  888   2.478   0.775  13.717  0.2301  0.1405  0.8340
   57TMC2     O  889   2.402   0.830  13.795  0.1027  0.0592 -0.8127
   57TMC2     H  890   2.373   0.990  13.613  0.0272  1.9739 -1.2570
   57TMC2    H1  891   2.678   0.707  13.554 -0.5120  0.2496 -0.1866
   57TMC2    H2  892   2.607   1.015  13.271 -2.5863 -0.7552 -0.6512
   57TMC2    C7  893   2.769   0.813  13.327  0.1921  0.5576 -0.4092
   57TMC2    C8  894   2.420   1.140  13.408 -1.3956  0.5267 -0.6822
   57TMC2    O1  895   2.836   0.894  13.264  0.2378  0.2946 -0.5704
   57TMC2    O2  896   2.318   1.162  13.468 -0.3017  0.2032  0.1293
   57TMC2    O5  897   2.516   1.232  13.395 -0.5159  0.2875 -0.3947
   57TMC2    H5  898   2.594   1.209  13.339  0.0653 -1.0857  0.9721
   58MPD2     C  899   2.483   0.405  14.072  0.2044  0.4143 -0.3135
   58MPD2    C1  900   2.429   0.532  14.084  0.3039 -0.0607  0.3858
   58MPD2    C2  901   2.439   0.611  13.973  0.4590 -0.1080  0.6541
   58MPD2    C3  902   2.498   0.569  13.851  0.0965  0.0439  0.0250
   58MPD2    C4  903   2.558   0.444  13.846 -0.4994 -0.3703  1.1283
   58MPD2    C5  904   2.548   0.363  13.956  0.1291 -0.4452 -0.2494
   58MPD2     H  905   2.377   0.699  13.983 -0.1133 -0.4440  0.0726
   58MPD2    H1  906   2.602   0.402  13.757 -0.3144  0.8897  0.6255
   58MPD2    H2  907   2.473   0.331  14.150 -1.0956  1.5173  0.5615
   58MPD2    H3  908   2.584   0.262  13.943 -0.5460 -0.5916 -1.0245
   58MPD2     N  909   2.517   0.644  13.732 -0.2790  0.0908 -0.1946
   58MPD2    H5  910   2.555   0.593  13.653  0.4649  0.1829  0.1073
   58MPD2    N1  911   2.369   0.582  14.201  0.0085 -0.3013  0.4218
   58MPD2    H7  912   2.321   0.671  14.209  0.8982 -0.1297  3.6024
   59TMC2    C1  913   0.337   0.258  13.034  0.6114  0.0853  0.1456
   59TMC2    C2  914   0.392   0.162  13.112  0.2961 -0.1146  0.2750
   59TMC2    C3  915   0.369   0.033  13.079 -0.0036  0.1735  0.6783
   59TMC2    C4  916   0.255   0.232  12.934 -0.9964 -0.1020 -0.0316
   59TMC2    C5  917   0.224   0.102  12.904  0.7775 -0.1364  0.5216
   59TMC2    C6  918   0.280   0.000  12.979 -0.4343  0.3145 -0.4875
   59TMC2     C  919   0.370   0.402  13.067 -0.5339  0.2117  0.9837
   59TMC2     O  920   0.320   0.495  13.006  0.5944  0.0132 -0.1087
   59TMC2     H  921   0.448   0.184  13.202 -2.0124 -1.5061  2.0618
   59TMC2    H1  922   0.200   0.311  12.884 -1.6624  2.0987  4.1986
   59TMC2    H2  923   0.260   4.638  12.951  1.0019 -0.5823  1.7823
   59TMC2    C7  924   0.130   0.069  12.801  0.1799  0.9875  0.5158
   59TMC2    C8  925   0.382   4.666  13.180  0.6402 -0.1354  0.1247
   59TMC2    O1  926   0.095   4.692  12.802 -0.1036 -0.5422 -0.2554
   59TMC2    O2  927   0.312   4.668  13.280 -0.6180  0.2575 -0.0329
   59TMC2    O5  928   0.415   4.557  13.106 -0.3239  0.1978  0.0778
   59TMC2    H5  929   0.476   4.591  13.038  0.7449 -0.2195  0.8175
   60MPD2     C  930   0.483   0.659  13.161 -0.1612 -0.7336 -0.5492
   60MPD2    C1  931   0.515   0.538  13.221 -0.1961  0.3875 -0.2060
   60MPD2    C2  932   0.599   0.536  13.332  0.0261  0.5000 -0.8726
   60MPD2    C3  933   0.643   0.652  13.394 -0.0749  0.1922  0.4868
   60MPD2    C4  934   0.598   0.770  13.343 -0.6620  0.3662  0.3961
   60MPD2    C5  935   0.527   0.770  13.228  0.0382  0.1685  0.5557
   60MPD2     H  936   0.653   0.443  13.345  1.0850  0.9351 -2.0827
   60MPD2    H1  937   0.622   0.868  13.383  1.6914 -0.2654  0.5329
   60MPD2    H2  938   0.442   0.668  13.061 -0.0544 -0.9548 -0.6122
   60MPD2    H3  939   0.489   0.862  13.185 -1.4207 -0.1811  1.1127
   60MPD2     N  940   0.726   0.644  13.509  0.0521  0.3633 -0.4670
   60MPD2    H5  941   0.758   0.550  13.530 -0.9358  0.7383  2.7068
   60MPD2    N1  942   0.475   0.416  13.156 -0.2505 -0.1140  0.2829
   60MPD2    H7  943   0.509   0.329  13.196  0.2898 -0.8955 -1.8477
   61TMC2    C1  944   4.336   1.571  15.478  0.0652  0.5187 -0.2489
   61TMC2    C2  945   4.249   1.540  15.576  0.3959 -0.5067  0.2324
   61TMC2    C3  946   4.192   1.640  15.645 -0.3641  0.4087  0.7963
   61TMC2    C4  947   4.375   1.703  15.453  0.0148 -0.0795 -0.1752
   61TMC2    C5  948   4.333   1.802  15.541 -0.4658  0.6407 -0.6027
   61TMC2    C6  949   4.237   1.768  15.635 -0.4813 -0.1061  0.0197
   61TMC2     C  950   4.352   1.475  15.368 -0.3240 -0.4136  0.1371
   61TMC2     O  951   4.253   1.407  15.337 -0.1116 -0.4282 -0.1075
   61TMC2     H  952   4.225   1.436  15.592 -1.4897 -0.3522 -1.5343
   61TMC2    H1  953   4.445   1.733  15.376 -1.9391  1.0022 -1.5446
   61TMC2    H2  954   4.214   1.843  15.710 -0.6765 -0.6025  0.4544
   61TMC2    C7  955   4.357   1.941  15.502  0.4969  0.1032  0.0598
   61TMC2    C8  956   4.116   1.598  15.763 -0.1008 -0.7444 -0.0726
   61TMC2    O1  957   4.446   1.968  15.429 -0.5978  0.6019 -0.5080
   61TMC2    O2  958   4.100   1.487  15.807 -0.5642 -0.0552  0.4323
   61TMC2    O5  959   4.036   1.708  15.795  0.8540  0.0007 -0.3712
   61TMC2    H5  960   4.020   1.769  15.720 -1.3645 -3.3649 -2.5820
   62MPD2     C  961   4.384   1.407  15.061  0.2224 -0.0170 -0.1042
   62MPD2    C1  962   4.463   1.488  15.139  0.4916 -0.6898  0.4554
   62MPD2    C2  963   4.555   1.568  15.075  0.0493  0.5493 -0.0049
   62MPD2    C3  964   4.565   1.551  14.932 -0.1525 -0.6809 -0.3745
   62MPD2    C4  965   4.472   1.486  14.854 -0.8019 -0.4883  0.6177
   62MPD2    C5  966   4.385   1.407  14.920 -0.0779  0.2667  0.2534
   62MPD2     H  967   4.622   1.637  15.125  1.1915 -1.0571  0.6477
   62MPD2    H1  968   4.479   1.494  14.746  1.0825  0.0076  0.7702
   62MPD2    H2  969   4.310   1.343  15.108 -0.4353 -1.5355 -3.1548
   62MPD2    H3  970   4.320   1.345  14.860  1.0045 -2.2909  1.7230
   62MPD2     N  971   4.645   1.647  14.863  0.1087  0.2358 -0.5844
   62MPD2    H5  972   4.624   1.665  14.766 -1.4480 -1.2708 -0.5309
   62MPD2    N1  973   4.455   1.503  15.284  0.1599 -0.2337 -0.0828
   62MPD2    H7  974   4.523   1.565  15.327  1.1418 -1.3226 -0.0380
   63TMC2    C1  975   3.353   1.911  10.793 -0.2573 -0.0923 -0.1682
   63TMC2    C2  976   3.341   2.029  10.869  0.4598  0.4404 -0.1751
   63TMC2    C3  977   3.311   2.151  10.802 -0.1655 -0.2243 -0.0353
   63TMC2    C4  978   3.321   1.917  10.655 -0.1486 -0.0083 -0.2575
   63TMC2    C5  979   3.294   2.039  10.601 -0.2669 -0.0731  0.8927
   63TMC2    C6  980   3.289   2.160  10.666  0.1504 -0.2503  0.9101
   63TMC2     C  981   3.403   1.798  10.865 -0.2654 -0.0556  0.3760
   63TMC2     O  982   3.453   1.808  10.978 -0.7553 -0.2654 -0.5375
   63TMC2     H  983   3.360   2.029  10.976  1.8077 -0.6162 -0.4157
   63TMC2    H1  984   3.309   1.834  10.586  1.1496 -0.4165  0.0005
   63TMC2    H2  985   3.270   2.255  10.618  1.5110 -0.2330  0.4006
   63TMC2    C7  986   3.276   2.053  10.457 -0.0168 -0.4417  0.7447
   63TMC2    C8  987   3.243   2.256  10.878 -0.1220 -0.2525 -0.2802
   63TMC2    O1  988   3.177   2.001  10.410 -0.1285  0.6666 -0.2260
   63TMC2    O2  989   3.261   2.372  10.873 -0.0043  0.1306  1.0218
   63TMC2    O5  990   3.164   2.192  10.963 -0.7641 -0.3512 -0.2972
   63TMC2    H5  991   3.150   2.099  10.933 -0.8047 -0.3886 -0.1624
   64MPD2     C  992   3.474   1.290  10.915 -0.2502  0.4504 -0.1278
   64MPD2    C1  993   3.473   1.320  10.781  0.5413 -0.1955  0.4375
   64MPD2    C2  994   3.452   1.449  10.739 -0.2291 -0.1716  0.6323
   64MPD2    C3  995   3.427   1.554  10.826 -0.0266  0.0118 -1.1301
   64MPD2    C4  996   3.412   1.521  10.961 -0.3298 -0.0893 -0.1420
   64MPD2    C5  997   3.437   1.393  11.003  0.3898 -0.2497 -0.2544
   64MPD2     H  998   3.456   1.467  10.632 -2.9958  0.4103  0.6405
   64MPD2    H1  999   3.379   1.593  11.035 -2.0085 -0.7098 -0.2761
   64MPD2    H2 1000   3.503   1.193  10.953 -0.1535  0.1036 -1.0744
   64MPD2    H3 1001   3.443   1.367  11.108  2.1765  3.7282  0.6573
   64MPD2     N 1002   3.423   1.687  10.783 -0.0982 -0.1336 -0.0832
   64MPD2    H5 1003   3.414   1.695  10.682  1.4555  0.6733 -0.1483
   64MPD2    N1 1004   3.516   1.231  10.681 -0.1174 -0.3810  0.7198
   64MPD2    H7 1005   3.546   1.260  10.589 -0.6035  0.3406  0.7919
   65TMC2    C1 1006   0.143   1.568  15.404  0.2486 -0.4116 -0.5232
   65TMC2    C2 1007   0.243   1.492  15.358 -0.1249  0.4287 -0.0287
   65TMC2    C3 1008   0.333   1.561  15.287 -0.2860 -0.2949 -0.5185
   65TMC2    C4 1009   0.124   1.699  15.366 -0.3898 -0.3383  0.5404
   65TMC2    C5 1010   0.214   1.758  15.284 -0.3652  0.8701 -0.6947
   65TMC2    C6 1011   0.325   1.691  15.250  0.2069  0.3944  0.0558
   65TMC2     C 1012   0.035   1.507  15.469  0.6641 -0.0861 -0.1132
   65TMC2     O 1013   4.690   1.589  15.505  0.0387  0.2914  0.2021
   65TMC2     H 1014   0.267   1.401  15.411 -1.2213 -1.8045 -3.3991
   65TMC2    H1 1015   0.029   1.749  15.383  0.5045  1.4260  0.4137
   65TMC2    H2 1016   0.399   1.722  15.176  0.0960  1.0059  0.1991
   65TMC2    C7 1017   0.209   1.892  15.251  0.3437  0.3776  0.2898
   65TMC2    C8 1018   0.427   1.487  15.203 -0.4413  0.9448 -0.1523
   65TMC2    O1 1019   0.283   1.925  15.159 -0.0319  0.1961 -0.0830
   65TMC2    O2 1020   0.536   1.527  15.165 -0.2634  0.1609 -0.2990
   65TMC2    O5 1021   0.394   1.355  15.211 -0.4494  0.0056  0.2148
   65TMC2    H5 1022   0.298   1.339  15.224 -0.0321 -1.9512  0.9092
   66MPD2     C 1023   4.558   1.327  15.584  0.3112 -0.3706  0.1838
   66MPD2    C1 1024   4.668   1.287  15.512 -0.8095  0.4281 -0.1133
   66MPD2    C2 1025   4.668   1.156  15.466  0.5845  0.4533  0.5146
   66MPD2    C3 1026   4.563   1.069  15.489 -0.8662 -0.3805  0.0440
   66MPD2    C4 1027   4.456   1.113  15.560 -0.5715 -0.0481  0.0469
   66MPD2    C5 1028   4.455   1.235  15.613 -0.0075 -0.5614 -0.6521
   66MPD2     H 1029   0.006   1.121  15.399  0.2868 -0.0684  0.4355
   66MPD2    H1 1030   4.374   1.047  15.589 -1.7657  1.2863 -0.3025
   66MPD2    H2 1031   4.547   1.427  15.623  1.6640 -0.1984  0.1248
   66MPD2    H3 1032   4.371   1.267  15.674 -1.1698 -1.3544 -1.8099
   66MPD2     N 1033   4.554   0.940  15.437 -0.2167 -0.5731  0.1128
   66MPD2    H5 1034   4.469   0.894  15.469  0.6209  0.2863  3.5942
   66MPD2    N1 1035   0.031   1.374  15.466  0.2238 -0.3672  0.1064
   66MPD2    H7 1036   0.105   1.317  15.427  1.9895  1.7589  0.3613
   67TMC2    C1 1037   0.218   0.788  14.208 -0.1601  1.0484  0.0152
   67TMC2    C2 1038   0.134   0.888  14.244 -0.1872 -0.4421 -0.4211
   67TMC2    C3 1039   0.144   0.938  14.371 -0.1838 -0.4047  0.2421
   67TMC2    C4 1040   0.308   0.729  14.295 -0.0131  0.1317  0.4087
   67TMC2    C5 1041   0.316   0.791  14.416 -0.8596  0.1620  0.0358
   67TMC2    C6 1042   0.237   0.892  14.457 -0.2450  0.3811  1.1665
   67TMC2     C 1043   0.183   0.711  14.088  0.1821  1.1623 -0.2590
   67TMC2     O 1044   0.187   0.587  14.097  0.0796 -0.5221 -0.4211
   67TMC2     H 1045   0.046   0.919  14.189  1.0516  0.3906 -1.9325
   67TMC2    H1 1046   0.369   0.650  14.253  0.1841 -0.5952  2.1061
   67TMC2    H2 1047   0.244   0.940  14.554  0.1773  0.4361  1.1120
   67TMC2    C7 1048   0.415   0.749  14.505 -1.2520  0.0888 -0.6735
   67TMC2    C8 1049   0.047   1.041  14.407  0.5525 -0.8374 -0.9047
   67TMC2    O1 1050   0.508   0.683  14.458 -0.2614 -0.7525 -0.5052
   67TMC2    O2 1051   4.671   1.029  14.376 -0.2415  0.3318  0.2215
   67TMC2    O5 1052   0.095   1.118  14.500  0.3490 -0.0916  0.1339
   67TMC2    H5 1053   0.189   1.108  14.525  0.2691 -0.4891  0.2831
   68MPD2     C 1054   0.022   0.630  13.848  0.0239  0.3583 -0.8295
   68MPD2    C1 1055   0.060   0.757  13.875 -0.0564 -0.3645  0.1878
   68MPD2    C2 1056   0.024   0.855  13.783  0.7838  0.9475 -0.1499
   68MPD2    C3 1057   4.695   0.833  13.664  0.3235  0.2407  0.5956
   68MPD2    C4 1058   4.650   0.707  13.649 -0.2232  0.2648 -0.1120
   68MPD2    C5 1059   4.690   0.607  13.732 -0.0266 -0.2009  0.4210
   68MPD2     H 1060   0.066   0.953  13.801  2.6670  0.6757 -3.0347
   68MPD2    H1 1061   4.601   0.682  13.556  2.2641 -0.5420 -1.2007
   68MPD2    H2 1062   0.052   0.542  13.903  0.3730  1.3201  0.5024
   68MPD2    H3 1063   4.652   0.509  13.707 -1.2830  0.9162 -2.0582
   68MPD2     N 1064   4.661   0.928  13.566 -0.8590 -0.5695  0.5566
   68MPD2    H5 1065   4.606   0.901  13.486 -0.4473 -1.0484  0.4372
   68MPD2    N1 1066   0.129   0.792  13.993 -0.5295  0.2777  0.4313
   68MPD2    H7 1067   0.151   0.890  14.003  1.1354 -0.0337 -0.1788
   69TMC2    C1 1068   1.878   1.803  12.407  0.3868 -0.5082  0.4952
   69TMC2    C2 1069   1.757   1.820  12.347  1.2579  0.0673 -0.3059
   69TMC2    C3 1070   1.740   1.919  12.260 -0.2257 -0.3417 -1.0185
   69TMC2    C4 1071   1.987   1.877  12.379 -0.1686 -0.0045 -0.4954
   69TMC2    C5 1072   1.967   1.968  12.282 -0.1133 -0.2234  0.6028
   69TMC2    C6 1073   1.848   1.986  12.213  0.3090 -0.3621  0.1817
   69TMC2     C 1074   1.905   1.671  12.461  0.5118  0.0857  0.4437
   69TMC2     O 1075   1.813   1.613  12.522  0.0577  0.4452  0.4561
   69TMC2     H 1076   1.677   1.753  12.377  1.1895  1.1734  1.9282
   69TMC2    H1 1077   2.080   1.861  12.434 -1.1781  2.3813  1.9299
   69TMC2    H2 1078   1.834   2.069  12.145  1.4910  0.5149  1.0298
   69TMC2    C7 1079   2.089   1.982  12.211  0.0716 -0.5968  1.0197
   69TMC2    C8 1080   1.607   1.946  12.225  1.2163 -0.7494 -1.0130
   69TMC2    O1 1081   2.183   1.912  12.248 -0.4208 -0.6423  0.1319
   69TMC2    O2 1082   1.511   1.910  12.295 -0.3366 -0.1803  0.0808
   69TMC2    O5 1083   1.593   2.035  12.125 -0.2768  0.2397 -0.0470
   69TMC2    H5 1084   1.679   2.039  12.078 -0.4030  2.2290 -0.1083
   70MPD2     C 1085   2.216   1.481  12.430  0.1016 -0.1278  0.6072
   70MPD2    C1 1086   2.090   1.512  12.476  0.4040  0.2523  0.0877
   70MPD2    C2 1087   2.030   1.429  12.572 -0.6488  0.1821  0.0805
   70MPD2    C3 1088   2.098   1.318  12.616 -0.7935 -0.0220 -0.5718
   70MPD2    C4 1089   2.218   1.280  12.565  0.6383  0.0093  0.1693
   70MPD2    C5 1090   2.278   1.360  12.469  0.0739  0.3300 -0.9911
   70MPD2     H 1091   1.933   1.455  12.612 -0.6620  0.1354  0.0786
   70MPD2    H1 1092   2.277   1.198  12.605  2.4494  1.2293 -0.0158
   70MPD2    H2 1093   2.278   1.549  12.373 -0.3290  1.0525  1.5535
   70MPD2    H3 1094   2.379   1.336  12.437  0.6003  2.1716 -0.6794
   70MPD2     N 1095   2.054   1.242  12.728 -0.1860  0.3452  0.2897
   70MPD2    H5 1096   2.126   1.176  12.756 -0.6794  0.3163  1.4587
   70MPD2    N1 1097   2.030   1.630  12.433 -0.4818 -0.0276  0.0627
   70MPD2    H7 1098   2.099   1.675  12.374  0.1813 -2.4392 -1.0355
   71TMC2    C1 1099   3.598   3.265   1.654 -0.2791 -0.1214  0.1147
   71TMC2    C2 1100   3.635   3.356   1.756  0.9016  0.4993  0.3136
   71TMC2    C3 1101   3.529   3.414   1.834  0.7674 -0.1674 -0.4046
   71TMC2    C4 1102   3.469   3.230   1.637  0.1746  0.4804  0.1027
   71TMC2    C5 1103   3.371   3.273   1.723  0.2455  0.1176 -0.0592
   71TMC2    C6 1104   3.398   3.374   1.815 -0.2636  0.4696  0.5517
   71TMC2     C 1105   3.697   3.196   1.576 -0.7867  0.4380  0.0830
   71TMC2     O 1106   3.809   3.197   1.625 -0.3133 -0.5691  0.2433
   71TMC2     H 1107   3.742   3.372   1.768  1.0370  0.4840 -0.8430
   71TMC2    H1 1108   3.436   3.157   1.565 -1.7003 -0.5610  2.0157
   71TMC2    H2 1109   3.326   3.409   1.888  1.4927  1.3549  1.8557
   71TMC2    C7 1110   3.229   3.252   1.699  0.0528 -0.6656 -1.0710
   71TMC2    C8 1111   3.572   3.494   1.945 -0.2188  0.2138  0.4399
   71TMC2    O1 1112   3.151   3.316   1.768 -0.8249  0.1563 -0.5214
   71TMC2    O2 1113   3.532   3.498   2.062 -0.8057 -0.2155 -0.0570
   71TMC2    O5 1114   3.619   3.607   1.884 -0.6009 -1.0518 -0.4909
   71TMC2    H5 1115   3.617   3.610   1.786  1.1135  0.6736 -0.4734
   72MPD2     C 1116   3.806   2.902   1.175  0.6726  0.1758 -0.4824
   72MPD2    C1 1117   3.861   2.918   1.304 -0.0881  0.2840 -0.3389
   72MPD2    C2 1118   3.808   3.005   1.394 -0.3393 -0.0913 -0.2988
   72MPD2    C3 1119   3.698   3.079   1.356 -0.0275  0.2140  0.2000
   72MPD2    C4 1120   3.631   3.063   1.235  0.3767  0.3363 -0.5691
   72MPD2    C5 1121   3.687   2.968   1.147  0.4126 -0.0005  0.2209
   72MPD2     H 1122   3.838   3.010   1.498  1.5283 -0.1045 -0.8323
   72MPD2    H1 1123   3.546   3.126   1.210  0.8489  0.5815 -1.5500
   72MPD2    H2 1124   3.846   2.841   1.095  4.1261  0.8161  0.7466
   72MPD2    H3 1125   3.640   2.951   1.051  0.9328  0.7682 -0.1712
   72MPD2     N 1126   3.650   3.174   1.448 -0.3812 -0.2786 -0.1760
   72MPD2    H5 1127   3.566   3.223   1.418 -0.2822  0.5574  0.9224
   72MPD2    N1 1128   3.976   2.843   1.345  0.4078  0.3359  0.3493
   72MPD2    H7 1129   4.018   2.869   1.434  1.5866 -1.1292  0.2357
   73TMC2    C1 1130   4.279   4.033  13.912 -0.2480  0.0264  0.0650
   73TMC2    C2 1131   4.176   3.987  13.994  0.0736 -0.1901  1.3841
   73TMC2    C3 1132   4.189   3.854  14.042 -0.2599 -0.9937  0.3470
   73TMC2    C4 1133   4.381   3.955  13.872 -0.4320  0.0228  0.1118
   73TMC2    C5 1134   4.394   3.834  13.934  0.4993 -1.2887 -0.6127
   73TMC2    C6 1135   4.301   3.780  14.014 -0.0467 -0.4125 -0.4195
   73TMC2     C 1136   4.335   4.157  13.955  0.4274 -0.2147  0.1157
   73TMC2     O 1137   4.453   4.143  13.987  0.2055  0.2327 -0.7768
   73TMC2     H 1138   4.102   4.057  14.031 -0.4004  0.4011 -0.6635
   73TMC2    H1 1139   4.454   4.008  13.812  0.3418  1.7397  2.5487
   73TMC2    H2 1140   4.327   3.693  14.074  1.7292  1.0981  0.9944
   73TMC2    C7 1141   4.526   3.785  13.972 -0.2582  0.0637 -0.1561
   73TMC2    C8 1142   4.119   3.816  14.166 -0.8116 -0.1015 -0.0958
   73TMC2    O1 1143   4.554   3.677  14.011 -0.4645 -0.2302 -0.0504
   73TMC2    O2 1144   4.187   3.765  14.257 -0.1352 -0.2246 -0.5592
   73TMC2    O5 1145   3.994   3.767  14.122  0.2461 -0.2860 -0.7937
   73TMC2    H5 1146   3.971   3.823  14.045 -1.3647 -1.6683 -1.3172
   74MPD2     C 1147   4.430   4.655  13.901 -0.1456  0.0762 -0.1521
   74MPD2    C1 1148   4.492   4.564  13.982 -0.1324 -0.4590  0.5283
   74MPD2    C2 1149   4.432   4.436  13.984  0.1166 -0.3272 -0.6308
   74MPD2    C3 1150   4.318   4.401  13.915 -0.0628  0.1670 -0.6125
   74MPD2    C4 1151   4.257   4.502  13.841  0.8169 -0.0444  0.9847
   74MPD2    C5 1152   4.323   4.626  13.826  0.3861 -0.0603  0.1052
   74MPD2     H 1153   4.475   4.359  14.047 -2.2175 -0.2304  1.0912
   74MPD2    H1 1154   4.168   4.484  13.781  0.9162  1.1517  0.4721
   74MPD2    H2 1155   4.478   0.012  13.905 -2.8846  1.4683 -1.1997
   74MPD2    H3 1156   4.280   4.701  13.762  0.6307 -0.4869 -0.5540
   74MPD2     N 1157   4.263   4.272  13.924  0.0259 -0.2014  0.0386
   74MPD2    H5 1158   4.175   4.242  13.882  0.0416  0.6171 -0.5738
   74MPD2    N1 1159   4.610   4.595  14.057 -0.1075 -0.3409  0.4283
   74MPD2    H7 1160   4.641   4.691  14.071 -2.9852  0.5249  0.8986
   75TMC2    C1 1161   4.640   1.159  13.481 -0.7632 -0.2061 -0.2618
   75TMC2    C2 1162   4.630   1.285  13.536 -0.1981 -0.9377 -0.5517
   75TMC2    C3 1163   4.545   1.373  13.485  0.6474 -0.1045 -0.5629
   75TMC2    C4 1164   4.544   1.118  13.391  0.0199 -0.5693  0.1224
   75TMC2    C5 1165   4.444   1.208  13.354 -0.1353 -0.5133  0.1153
   75TMC2    C6 1166   4.437   1.335  13.406  0.3002  0.5563 -0.1416
   75TMC2     C 1167   4.704   1.066  13.572 -0.2027  0.0786  0.7493
   75TMC2     O 1168   0.037   1.115  13.656 -0.1411  0.2235 -0.2640
   75TMC2     H 1169   4.710   1.320  13.599 -1.5839 -1.0842  1.3022
   75TMC2    H1 1170   4.559   1.023  13.340 -1.1534 -1.0574  0.6960
   75TMC2    H2 1171   4.341   1.383  13.391 -0.2137 -0.3626  0.1974
   75TMC2    C7 1172   4.352   1.169  13.252 -0.1230  0.1003  0.3638
   75TMC2    C8 1173   4.527   1.494  13.561  0.1435  0.0224  0.2267
   75TMC2    O1 1174   4.320   1.050  13.243 -0.3387 -0.0218 -0.6607
   75TMC2    O2 1175   4.575   1.502  13.674  0.2991 -0.1514 -0.8980
   75TMC2    O5 1176   4.415   1.562  13.518 -0.5031  0.5252 -0.3838
   75TMC2    H5 1177   4.402   1.559  13.421  0.7170  0.2612 -0.5394
   76TMC2    C1 1178   3.523   1.511  12.504  0.0758  0.5812  0.2302
   76TMC2    C2 1179   3.649   1.551  12.519 -0.1241  0.1534  0.0585
   76TMC2    C3 1180   3.741   1.459  12.571 -0.0473  0.8394  0.6213
   76TMC2    C4 1181   3.484   1.397  12.562  0.0627  0.0066 -0.1980
   76TMC2    C5 1182   3.568   1.319  12.633 -0.1260 -0.1239  0.6012
   76TMC2    C6 1183   3.703   1.349  12.639 -0.1132 -0.2150 -0.7871
   76TMC2     C 1184   3.437   1.560  12.397 -0.4301 -0.0157  0.0070
   76TMC2     O 1185   3.358   1.486  12.342 -0.1110 -0.1149  0.0856
   76TMC2     H 1186   3.706   1.621  12.461  0.5985  0.4124  1.0781
   76TMC2    H1 1187   3.387   1.352  12.541  0.0570 -0.6604  1.2342
   76TMC2    H2 1188   3.777   1.282  12.680 -1.8197 -1.2745  0.5760
   76TMC2    C7 1189   3.505   1.197  12.708 -0.7447 -0.0194  0.4477
   76TMC2    C8 1190   3.884   1.490  12.549 -1.1793  0.0135  0.2450
   76TMC2    O1 1191   3.386   1.172  12.702  0.1688  0.5125  0.0419
   76TMC2    O2 1192   3.935   1.578  12.479 -0.4023 -0.2870  0.5617
   76TMC2    O5 1193   3.942   1.447  12.659 -0.1350  0.2964 -0.3476
   76TMC2    H5 1194   3.887   1.416  12.733  0.5526 -0.7907 -0.2889
   77MPD2     C 1195   3.269   1.960  12.117  0.3861 -0.4955 -0.5514
   77MPD2    C1 1196   3.229   1.828  12.131  0.3453 -0.1557 -0.1042
   77MPD2    C2 1197   3.295   1.739  12.211 -0.5928  0.1916 -0.3534
   77MPD2    C3 1198   3.412   1.780  12.275  0.5043  0.6214 -0.4516
   77MPD2    C4 1199   3.459   1.906  12.257 -1.0716 -0.5568  0.0785
   77MPD2    C5 1200   3.379   1.999  12.191  0.9975  0.0412  0.4934
   77MPD2     H 1201   3.256   1.638  12.211 -0.5269  0.1771 -2.7002
   77MPD2    H1 1202   3.544   1.939  12.316 -2.0823  2.5741 -0.2124
   77MPD2    H2 1203   3.207   2.037  12.073  1.2328  1.0921  1.0233
   77MPD2    H3 1204   3.398   2.104  12.205 -0.3423 -0.0686  3.1261
   77MPD2     N 1205   3.474   1.693  12.368  0.3165  0.5675  0.2081
   77MPD2    H5 1206   3.544   1.734  12.429  1.1362  0.4909 -0.6940
   77MPD2    N1 1207   3.101   1.788  12.078 -0.4924 -0.5448  0.2064
   77MPD2    H7 1208   3.080   1.689  12.082  0.0663 -0.6760 -0.1304
   78TMC2    C1 1209   0.695   3.043   1.455  0.0137 -0.1474 -0.0464
   78TMC2    C2 1210   0.641   3.086   1.572 -0.1331 -0.0016  0.9234
   78TMC2    C3 1211   0.731   3.120   1.673 -0.2240 -0.5248 -0.3276
   78TMC2    C4 1212   0.827   3.002   1.451 -0.5293 -0.0177 -0.2986
   78TMC2    C5 1213   0.906   3.025   1.554  1.2120  0.5402  0.1497
   78TMC2    C6 1214   0.862   3.086   1.673  0.5116  0.6116  0.6307
   78TMC2     C 1215   0.595   3.004   1.355 -0.2298 -0.5153  0.0759
   78TMC2     O 1216   0.492   3.070   1.359 -0.6661  0.1196  0.4475
   78TMC2     H 1217   0.540   3.124   1.576  0.4788  1.4035  3.0712
   78TMC2    H1 1218   0.863   2.940   1.370 -0.0183 -0.7339  0.4715
   78TMC2    H2 1219   0.920   3.116   1.760  1.1718 -1.4829  0.9025
   78TMC2    C7 1220   1.027   2.945   1.571 -0.5494 -0.1168 -0.4818
   78TMC2    C8 1221   0.667   3.169   1.786 -0.8307 -0.2276  0.5675
   78TMC2    O1 1222   1.033   2.855   1.491 -0.3893 -0.2668 -0.3776
   78TMC2    O2 1223   0.555   3.218   1.786  0.1901 -0.0203  0.7188
   78TMC2    O5 1224   0.707   3.084   1.885 -0.0392 -0.3318 -0.7176
   78TMC2    H5 1225   0.786   3.031   1.862 -0.6143 -1.5218 -0.0081
   79MPD1     C 1226   0.386   2.726   0.980 -0.1552  0.0819  0.9382
   79MPD1    C1 1227   0.338   2.842   1.045 -0.4191  0.8551  0.0138
   79MPD1    C2 1228   0.428   2.906   1.126 -0.3753  0.0426 -0.0420
   79MPD1    C3 1229   0.551   2.854   1.166  0.3716  0.4099 -0.3415
   79MPD1    C4 1230   0.590   2.741   1.098 -0.0665  0.3224 -0.0850
   79MPD1    C5 1231   0.506   2.675   1.015  0.3146 -0.2242  0.9208
   79MPD1     H 1232   0.400   3.006   1.159  0.4499 -0.6302  2.6207
   79MPD1    H1 1233   0.683   2.690   1.120 -1.7218 -0.5804  4.7598
   79MPD1    H2 1234   0.322   2.677   0.908  0.2930  0.0549  0.5602
   79MPD1    H3 1235   0.529   2.591   0.950 -1.5031  1.2665 -1.6842
   79MPD1     N 1236   0.634   2.907   1.270 -0.1590 -0.0196  0.2875
   79MPD1    H5 1237   0.714   2.855   1.305 -0.7722 -1.6181 -0.7102
   79MPD1    N1 1238   0.229   2.908   0.985 -0.0018  0.3056  0.2770
   79MPD1    H6 1239   0.162   2.833   0.968 -1.5195  2.0843 -1.6985
   79MPD1    H7 1240   0.180   2.976   1.044  0.1162  1.8825 -1.4437
   80TMC2    C1 1241   2.482   0.671  11.498  0.3003 -0.0247  0.2313
   80TMC2    C2 1242   2.564   0.606  11.412 -0.4525  0.4497  0.1562
   80TMC2    C3 1243   2.598   0.478  11.448  0.0357  1.3379  0.0658
   80TMC2    C4 1244   2.435   0.616  11.617 -0.2147  0.2784  0.0159
   80TMC2    C5 1245   2.463   0.485  11.636 -0.2129  0.0965 -0.0897
   80TMC2    C6 1246   2.536   0.411  11.552  0.6482 -0.0319  0.1375
   80TMC2     C 1247   2.430   0.800  11.460 -0.3377 -0.0206  0.0676
   80TMC2     O 1248   2.492   0.864  11.376  0.0253  0.6661  0.2973
   80TMC2     H 1249   2.588   0.647  11.315  0.7613 -1.8333 -0.4933
   80TMC2    H1 1250   2.393   0.675  11.697 -0.0053 -0.3841  0.6136
   80TMC2    H2 1251   2.556   0.307  11.576  1.5644  0.2838  0.7884
   80TMC2    C7 1252   2.376   0.419  11.731 -0.5419 -0.1068 -1.3699
   80TMC2    C8 1253   2.666   0.393  11.357 -0.3235 -0.2789 -0.0989
   80TMC2    O1 1254   2.341   0.498  11.818 -0.2703  0.0082 -0.8361
   80TMC2    O2 1255   2.635   0.274  11.339 -0.3072  0.4061  0.3799
   80TMC2    O5 1256   2.729   0.475  11.267 -0.0481  0.2383  0.6291
   80TMC2    H5 1257   2.746   0.560  11.314  1.8047 -0.2690  0.8617
   81MPD2     C 1258   2.259   1.055  11.415  0.2720  0.0681  0.1937
   81MPD2    C1 1259   2.239   0.955  11.508 -1.1456 -0.1772 -0.0646
   81MPD2    C2 1260   2.142   0.974  11.604 -0.0061  0.1662  0.0301
   81MPD2    C3 1261   2.067   1.093  11.613  0.6874  0.4734 -0.4402
   81MPD2    C4 1262   2.083   1.183  11.507 -0.2562  0.0216 -0.4776
   81MPD2    C5 1263   2.177   1.160  11.408 -0.6436 -0.6165 -0.2545
   81MPD2     H 1264   2.123   0.891  11.672 -1.2253 -0.4102 -1.0077
   81MPD2    H1 1265   2.029   1.276  11.492  0.7370  0.7146  0.2717
   81MPD2    H2 1266   2.332   1.048  11.335  1.7219  0.0304  1.5044
   81MPD2    H3 1267   2.187   1.233  11.329 -0.6372  0.4696  0.7607
   81MPD2     N 1268   1.960   1.114  11.704 -0.0154  0.2097 -0.1578
   81MPD2    H5 1269   1.912   1.202  11.696  0.2663  0.3028 -0.8618
   81MPD2    N1 1270   2.315   0.836  11.520  0.3277 -0.0189 -0.1504
   81MPD2    H7 1271   2.287   0.768  11.590  2.9015 -0.5178  0.4085
   82TMC2    C1 1272   0.938   4.592  11.149 -0.0488 -0.5075 -0.1302
   82TMC2    C2 1273   1.067   4.623  11.193 -0.4559 -0.5561 -0.1530
   82TMC2    C3 1274   1.108   4.558  11.311 -0.2048 -1.0522  0.1200
   82TMC2    C4 1275   0.851   4.510  11.214 -0.3172  0.2729  0.2465
   82TMC2    C5 1276   0.893   4.459  11.331 -0.4342 -0.2066 -0.4340
   82TMC2    C6 1277   1.018   4.475  11.378  0.0306 -0.0001 -0.5921
   82TMC2     C 1278   0.883   4.667  11.039  0.8665  0.1977 -0.6909
   82TMC2     O 1279   0.813   4.610  10.953 -0.1200 -0.0978 -0.5272
   82TMC2     H 1280   1.141   4.673  11.132 -0.1968  0.6535  1.1611
   82TMC2    H1 1281   0.749   4.497  11.181 -0.4678 -0.9215  1.1703
   82TMC2    H2 1282   1.040   4.429  11.473 -0.8399  3.0763  1.1039
   82TMC2    C7 1283   0.811   4.364  11.400  0.0041 -0.5410 -0.0032
   82TMC2    C8 1284   1.238   4.580  11.364  0.1563  0.0472  0.0985
   82TMC2    O1 1285   0.816   4.356  11.523  0.1815 -0.3972 -0.3409
   82TMC2    O2 1286   1.313   4.663  11.316 -0.0424 -0.0027 -0.4558
   82TMC2    O5 1287   1.296   4.463  11.402 -0.8572  0.1720 -0.4440
   82TMC2    H5 1288   1.232   4.392  11.424 -0.3886  0.2084  1.0765
   83MPD2     C 1289   0.845   0.394  10.816  0.5536  0.0794 -0.6877
   83MPD2    C1 1290   0.756   0.289  10.808 -0.1645 -0.1113 -0.7139
   83MPD2    C2 1291   0.788   0.174  10.879 -0.3089  0.3174 -0.4642
   83MPD2    C3 1292   0.899   0.166  10.961 -0.2756 -0.1980 -0.5610
   83MPD2    C4 1293   0.978   0.280  10.978 -0.0884  0.1612  0.1486
   83MPD2    C5 1294   0.955   0.390  10.901  0.4599  0.0110 -0.7888
   83MPD2     H 1295   0.718   0.091  10.883  2.0307 -1.5510  1.5432
   83MPD2    H1 1296   1.059   0.282  11.050  0.1655 -2.1289 -0.0534
   83MPD2    H2 1297   0.828   0.476  10.747  0.9245  1.5083  0.9143
   83MPD2    H3 1298   1.029   0.470  10.904  0.3695  0.0541  0.2089
   83MPD2     N 1299   0.931   0.058  11.043 -0.5562 -0.7840 -0.0376
   83MPD2    H5 1300   1.002   0.079  11.113  0.4553  0.3668 -1.4066
   83MPD2    N1 1301   0.648   0.294  10.720 -0.4214  0.4847 -0.0673
   83MPD2    H7 1302   0.633   0.386  10.679 -1.2347  0.9134  1.1806
   84TMC2    C1 1303   1.677   4.160  11.223 -0.2486  0.3004  0.1173
   84TMC2    C2 1304   1.585   4.114  11.309 -0.9318  0.3040 -0.0354
   84TMC2    C3 1305   1.562   3.979  11.306 -0.1024  0.4552 -0.4214
   84TMC2    C4 1306   1.717   4.087  11.113  0.4398 -0.5004 -0.0217
   84TMC2    C5 1307   1.679   3.958  11.110 -0.8960  0.3695  0.3638
   84TMC2    C6 1308   1.608   3.897  11.208 -0.1124 -0.0019 -0.2576
   84TMC2     C 1309   1.681   4.302  11.203  0.4366  0.0259 -0.6057
   84TMC2     O 1310   1.578   4.354  11.236 -0.2414  0.5636 -0.1216
   84TMC2     H 1311   1.564   4.178  11.395 -3.1943 -0.4142 -0.0718
   84TMC2    H1 1312   1.772   4.135  11.033 -1.3902 -0.1711 -1.0773
   84TMC2    H2 1313   1.584   3.792  11.221 -3.6513  1.0156  1.4834
   84TMC2    C7 1314   1.710   3.875  10.995  0.1386 -0.2682 -0.5401
   84TMC2    C8 1315   1.481   3.935  11.412  0.1299 -0.3361 -0.2144
   84TMC2    O1 1316   1.696   3.755  11.015  0.7306 -0.4783  0.4355
   84TMC2    O2 1317   1.468   3.993  11.514 -0.3137 -0.4254  0.4081
   84TMC2    O5 1318   1.374   3.854  11.363 -0.1411 -0.1125  0.0873
   84TMC2    H5 1319   1.381   3.842  11.265  0.6392  3.1302 -0.2847
   85TMC2    C1 1320   2.482   2.655  15.822 -0.3138 -1.0295  0.3313
   85TMC2    C2 1321   2.352   2.665  15.794 -0.1901  0.1130  0.1247
   85TMC2    C3 1322   2.318   2.749  15.691  0.4421 -0.3479 -0.1159
   85TMC2    C4 1323   2.583   2.718  15.754  0.7453 -0.1738  0.5133
   85TMC2    C5 1324   2.551   2.785  15.639 -0.6078 -0.0465 -1.2193
   85TMC2    C6 1325   2.420   2.811  15.619 -0.2948 -0.4242 -0.1254
   85TMC2     C 1326   2.526   2.567  15.926 -0.0195  0.0482  0.9273
   85TMC2     O 1327   2.646   2.570  15.961  0.0583 -0.4177 -0.8991
   85TMC2     H 1328   2.293   2.636  15.879 -2.2016  1.2735 -0.8853
   85TMC2    H1 1329   2.688   2.706  15.779  1.0728  1.7583  0.0373
   85TMC2    H2 1330   2.392   2.889  15.549 -0.4046  0.0439  0.4381
   85TMC2    C7 1331   2.640   2.785  15.523  0.3284  0.1440  0.3033
   85TMC2    C8 1332   2.201   2.836  15.712  0.5081  0.4272 -0.5182
   85TMC2    O1 1333   2.754   2.750  15.549 -0.1633  0.2553  0.1044
   85TMC2    O2 1334   2.224   2.955  15.726 -0.0745 -0.6273 -0.0292
   85TMC2    O5 1335   2.109   2.763  15.787 -0.4584 -0.3755 -0.4565
   85TMC2    H5 1336   2.097   2.666  15.781 -0.7008 -0.4634  1.6136
   86MPD2     C 1337   2.455   2.179  16.248  0.0212 -0.0656 -1.3941
   86MPD2    C1 1338   2.377   2.157  16.136  0.6268  0.1857  0.4326
   86MPD2    C2 1339   2.390   2.244  16.033  0.8106  0.8560  0.1053
   86MPD2    C3 1340   2.455   2.368  16.043  0.5981  0.2351  0.0014
   86MPD2    C4 1341   2.522   2.392  16.162  0.4785 -0.6673 -0.2440
   86MPD2    C5 1342   2.527   2.294  16.261 -0.4964 -0.8712 -0.0684
   86MPD2     H 1343   2.328   2.223  15.947  1.4644  0.2442 -0.2174
   86MPD2    H1 1344   2.563   2.490  16.184  2.2113 -1.1817 -1.1792
   86MPD2    H2 1345   2.439   2.112  16.332  0.5703  0.9758 -0.4515
   86MPD2    H3 1346   2.599   2.306  16.341  0.2754 -0.7501 -0.7706
   86MPD2     N 1347   2.447   2.457  15.934 -0.2421 -1.1453 -0.2841
   86MPD2    H5 1348   2.387   2.428  15.858  2.8189 -0.8474 -2.7859
   86MPD2    N1 1349   2.281   2.053  16.117  0.0197 -0.8812  0.0582
   86MPD2    H7 1350   2.237   2.046  16.026 -0.8494 -0.8129  0.4786
   87TMC2    C1 1351   0.220   0.718   0.660 -0.9715  0.5638  0.7096
   87TMC2    C2 1352   0.348   0.772   0.674 -0.1864 -0.3058  0.6880
   87TMC2    C3 1353   0.348   0.902   0.697  0.6481  0.1291  0.0278
   87TMC2    C4 1354   0.103   0.786   0.666 -0.0850 -0.2546  0.4506
   87TMC2    C5 1355   0.118   0.917   0.698  0.0251 -0.5230 -0.2529
   87TMC2    C6 1356   0.237   0.984   0.701  0.2705 -0.0253  0.0129
   87TMC2     C 1357   0.223   0.593   0.596 -0.4086  0.3446  0.2247
   87TMC2     O 1358   0.332   0.544   0.575 -0.2168  0.0554  0.4149
   87TMC2     H 1359   0.437   0.711   0.667  0.4098  0.6882 -0.1226
   87TMC2    H1 1360   0.009   0.732   0.674 -0.8070  0.8512 -0.3759
   87TMC2    H2 1361   0.238   1.092   0.694 -1.3110 -0.0983 -1.1732
   87TMC2    C7 1362   0.008   1.002   0.727 -0.2811  0.2668  0.1517
   87TMC2    C8 1363   0.472   0.967   0.665  0.2038  0.2524 -0.0631
   87TMC2    O1 1364   0.027   1.098   0.802  0.2676  0.2173 -0.2148
   87TMC2    O2 1365   0.555   0.908   0.593 -0.2609 -0.0704  0.7316
   87TMC2    O5 1366   0.471   1.100   0.696  0.2447  0.0128 -0.2517
   87TMC2    H5 1367   0.426   1.106   0.783  1.0703 -1.9791  0.3071
   88MPD2     C 1368   4.398   0.988   0.583 -0.2647 -0.1900  0.1088
   88MPD2    C1 1369   4.502   1.032   0.664  0.1082 -0.1573 -0.2317
   88MPD2    C2 1370   4.475   1.124   0.762 -0.5068 -0.4840  0.0982
   88MPD2    C3 1371   4.357   1.184   0.767  1.0006  0.5274  0.3957
   88MPD2    C4 1372   4.255   1.151   0.677  0.0997  0.4679 -0.1868
   88MPD2    C5 1373   4.276   1.053   0.586  0.2059  0.3259  0.1334
   88MPD2     H 1374   4.545   1.161   0.836 -0.1793  2.1519 -1.5394
   88MPD2    H1 1375   4.158   1.200   0.685  0.7793  1.5738  1.3519
   88MPD2    H2 1376   4.406   0.918   0.501 -1.5029  1.2838 -1.2870
   88MPD2    H3 1377   4.194   1.019   0.522  0.1393  1.4804 -0.3976
   88MPD2     N 1378   4.332   1.287   0.854  0.2556 -0.9463 -0.7032
   88MPD2    H5 1379   4.251   1.343   0.831 -1.0446 -2.5052  0.1006
   88MPD2    N1 1380   4.634   0.970   0.650 -0.2057  0.9833 -0.4536
   88MPD2    H7 1381   4.641   0.894   0.583  0.7493 -1.5018  2.4751
   89TMC2    C1 1382   0.816   4.608   1.629 -0.0911  0.4009 -0.3339
   89TMC2    C2 1383   0.691   4.662   1.661 -0.3460  0.3657 -0.0271
   89TMC2    C3 1384   0.696   0.045   1.727 -0.2914 -0.5001 -0.1250
   89TMC2    C4 1385   0.934   4.670   1.669 -0.2967 -0.6824  0.3239
   89TMC2    C5 1386   0.925   0.047   1.741 -0.2129  0.2861  0.4710
   89TMC2    C6 1387   0.810   0.105   1.777 -0.7786 -0.2883 -0.4671
   89TMC2     C 1388   0.817   4.474   1.577  0.2769 -0.0270 -0.5134
   89TMC2     O 1389   0.919   4.434   1.525  0.0680 -0.3119  0.3311
   89TMC2     H 1390   0.595   4.623   1.630 -0.3511 -0.5051  1.0514
   89TMC2    H1 1391   1.031   4.626   1.647  0.3508  0.8510  0.1374
   89TMC2    H2 1392   0.815   0.191   1.844  1.8352  0.4169 -1.5893
   89TMC2    C7 1393   1.048   0.117   1.757  1.3301 -0.0204 -0.3945
   89TMC2    C8 1394   0.574   0.078   1.806 -0.2043  0.4373 -0.2460
   89TMC2    O1 1395   1.040   0.210   1.835 -0.1162  0.0577  0.3592
   89TMC2    O2 1396   0.580   0.156   1.903 -0.1479 -0.4496 -0.0846
   89TMC2    O5 1397   0.466   0.039   1.743  0.0966 -0.4971  0.1447
   89TMC2    H5 1398   0.461   4.733   1.656  0.5921 -1.6802  0.7507
   90MPD2     C 1399   0.564   4.034   1.470 -0.1222 -0.2827 -0.0866
   90MPD2    C1 1400   0.483   4.106   1.548  0.1903  0.2151 -0.6892
   90MPD2    C2 1401   0.531   4.234   1.588 -0.2607  0.2647 -0.0331
   90MPD2    C3 1402   0.654   4.283   1.559  0.1631  0.5715 -0.8469
   90MPD2    C4 1403   0.734   4.212   1.479 -0.1976  0.4618 -0.4029
   90MPD2    C5 1404   0.694   4.083   1.448  0.0470 -0.1151 -0.6300
   90MPD2     H 1405   0.463   4.286   1.655  0.7398  2.3733 -0.6577
   90MPD2    H1 1406   0.838   4.236   1.462 -0.7100  1.9524 -1.4581
   90MPD2    H2 1407   0.525   3.939   1.438 -0.6078 -0.7241  1.8188
   90MPD2    H3 1408   0.758   4.016   1.393  0.2888 -0.6034  0.2548
   90MPD2     N 1409   0.690   4.412   1.603  0.1931  0.1818  0.4212
   90MPD2    H5 1410   0.625   4.453   1.669  0.1709  0.5416  0.1801
   90MPD2    N1 1411   0.346   4.068   1.581 -0.5070 -0.2258  0.5791
   90MPD2    H7 1412   0.300   4.125   1.651 -1.1920 -0.6323  0.4563
   91TMC2    C1 1413   2.479   3.271  16.614 -0.3858 -0.2461 -0.6957
   91TMC2    C2 1414   2.523   3.338  16.724  0.4513  0.0269  0.3225
   91TMC2    C3 1415   2.464   3.320  16.845 -0.0190 -0.1148  0.0701
   91TMC2    C4 1416   2.398   3.167  16.640  0.3435  0.8877  0.2126
   91TMC2    C5 1417   2.340   3.145  16.764  0.6075 -0.1481  0.4149
   91TMC2    C6 1418   2.375   3.223  16.872 -0.7983  0.0990 -0.4494
   91TMC2     C 1419   2.571   3.256  16.496 -0.0646  1.0324  0.0778
   91TMC2     O 1420   2.548   3.161  16.424  0.2808  0.0024 -0.6514
   91TMC2     H 1421   2.568   3.437  16.718  2.8518 -1.1355 -0.8807
   91TMC2    H1 1422   2.385   3.085  16.570 -0.7678  1.1672  0.0881
   91TMC2    H2 1423   2.305   3.226  16.955 -3.3392  2.6918 -2.7010
   91TMC2    C7 1424   2.215   3.082  16.770  0.5317 -0.3119  0.3332
   91TMC2    C8 1425   2.531   3.377  16.957  0.1401  0.2215 -0.4762
   91TMC2    O1 1426   2.176   3.074  16.885 -0.1712  0.2677  0.2778
   91TMC2    O2 1427   2.569   3.494  16.971 -0.2744 -0.5777 -0.2335
   91TMC2    O5 1428   2.500   3.291  17.056  0.1723 -0.8433  0.4235
   91TMC2    H5 1429   2.490   3.199  17.023  1.3507 -0.4345 -1.0139
   92MPD2     C 1430   2.775   3.291  16.280  0.3162 -0.3794  0.3875
   92MPD2    C1 1431   2.782   3.353  16.402  0.0616  0.4646 -0.6196
   92MPD2    C2 1432   2.895   3.427  16.425  0.8885 -0.5976 -0.6503
   92MPD2    C3 1433   2.999   3.439  16.331 -0.1381  0.3384 -0.0884
   92MPD2    C4 1434   2.994   3.380  16.207 -0.4259 -0.6422  0.0905
   92MPD2    C5 1435   2.879   3.311  16.189  0.0741 -0.0167  0.1260
   92MPD2     H 1436   2.899   3.489  16.514 -2.0061  2.7320 -2.8456
   92MPD2    H1 1437   3.072   3.371  16.131 -0.9653 -0.2716 -0.5123
   92MPD2    H2 1438   2.688   3.230  16.255 -0.2054 -0.1203  1.5822
   92MPD2    H3 1439   2.869   3.269  16.089  0.1381  3.1631 -1.2173
   92MPD2     N 1440   3.101   3.528  16.360 -0.1702 -0.4090  0.8948
   92MPD2    H5 1441   3.088   3.576  16.448 -1.0802  0.3756  0.3346
   92MPD2    N1 1442   2.677   3.342  16.497 -0.2838 -0.3013  0.1938
   92MPD2    H7 1443   2.687   3.411  16.571  1.3088  1.2832 -1.4863
   93TMC2    C1 1444   4.102   3.538  13.729 -0.5789  0.2644 -0.9188
   93TMC2    C2 1445   4.057   3.490  13.854 -0.1079  0.0010  0.4970
   93TMC2    C3 1446   4.150   3.435  13.937  0.6548 -0.6576  0.5647
   93TMC2    C4 1447   4.232   3.537  13.692 -0.2495  0.3756  0.3821
   93TMC2    C5 1448   4.320   3.480  13.779  0.1435  0.0518  1.0109
   93TMC2    C6 1449   4.289   3.425  13.904  0.5434  0.0183  0.3428
   93TMC2     C 1450   4.016   3.602  13.635 -0.2076  0.5056  0.5405
   93TMC2     O 1451   4.061   3.680  13.556  0.2079  0.1128 -0.2631
   93TMC2     H 1452   3.951   3.500  13.873 -0.3547  0.6587 -1.2435
   93TMC2    H1 1453   4.259   3.574  13.594 -0.0777 -2.2893 -0.5720
   93TMC2    H2 1454   4.367   3.385  13.968  1.1738  0.5294 -0.1123
   93TMC2    C7 1455   4.462   3.491  13.745 -0.1493  0.4406  0.2375
   93TMC2    C8 1456   4.108   3.370  14.061  0.6343  0.7473 -0.4393
   93TMC2    O1 1457   4.543   3.417  13.793 -0.1466  0.3519 -0.1171
   93TMC2    O2 1458   4.176   3.364  14.160 -0.3037  0.2244 -0.7139
   93TMC2    O5 1459   3.992   3.303  14.039 -0.1349  0.1865 -0.2889
   93TMC2    H5 1460   3.970   3.301  13.943  1.5212 -1.3520 -0.6286
   94MPD2     C 1461   3.798   3.695  13.459 -0.2205 -0.2375 -0.2477
   94MPD2    C1 1462   3.788   3.589  13.544 -0.0851  0.1658  0.2858
   94MPD2    C2 1463   3.678   3.515  13.543  0.8694 -0.1940 -0.1188
   94MPD2    C3 1464   3.564   3.545  13.473 -0.3281 -0.3226 -0.1479
   94MPD2    C4 1465   3.570   3.656  13.399 -0.3577 -0.4401 -0.2615
   94MPD2    C5 1466   3.688   3.719  13.383  0.4469 -0.2295 -0.6748
   94MPD2     H 1467   3.685   3.420  13.595  0.2855  0.7793  1.7561
   94MPD2    H1 1468   3.482   3.698  13.353 -0.2546 -1.5473 -1.4739
   94MPD2    H2 1469   3.881   3.763  13.447  0.1073 -0.5666  0.1214
   94MPD2    H3 1470   3.696   3.798  13.309  1.1339  0.5156  0.2073
   94MPD2     N 1471   3.442   3.480  13.470  0.1259 -0.4001 -0.0544
   94MPD2    H5 1472   3.365   3.524  13.419 -0.3409  1.0914  1.9805
   94MPD2    N1 1473   3.890   3.544  13.632 -0.1483  0.4070 -0.6851
   94MPD2    H7 1474   3.876   3.460  13.688  1.0787  0.0474 -0.9191
   95TMC2    C1 1475   3.808   0.447  15.770  0.6118  0.1374 -0.7514
   95TMC2    C2 1476   3.789   0.577  15.815 -0.3725  1.1607 -0.1659
   95TMC2    C3 1477   3.663   0.618  15.852 -0.6663  0.0166  0.1087
   95TMC2    C4 1478   3.701   0.362  15.758  0.5891 -0.0432 -0.1765
   95TMC2    C5 1479   3.577   0.408  15.795  0.4629 -0.1832 -0.3409
   95TMC2    C6 1480   3.557   0.530  15.836 -0.2430 -0.0838 -0.0739
   95TMC2     C 1481   3.926   0.418  15.692 -0.8839 -0.1420 -0.1391
   95TMC2     O 1482   3.989   0.518  15.667  0.1961 -0.0640 -0.2112
   95TMC2     H 1483   3.874   0.644  15.824  1.4073 -0.8013 -2.1512
   95TMC2    H1 1484   3.725   0.267  15.712  1.1278 -1.0714  2.2520
   95TMC2    H2 1485   3.458   0.564  15.864 -0.2719  1.1895 -1.6924
   95TMC2    C7 1486   3.470   0.313  15.821  0.1479  0.2702  0.4989
   95TMC2    C8 1487   3.650   0.757  15.887  0.3090 -0.0855 -0.1169
   95TMC2    O1 1488   3.374   0.362  15.874 -0.4357  0.2258  0.0811
   95TMC2    O2 1489   3.699   0.851  15.825  0.1326  0.1712 -0.1459
   95TMC2    O5 1490   3.607   0.757  16.011  0.1741  0.0892  0.3505
   95TMC2    H5 1491   3.575   0.670  16.043  0.5142 -0.4028 -0.6281
   96MPD2     C 1492   4.322   0.131  15.560  0.0106  0.9589 -0.4689
   96MPD2    C1 1493   4.297   0.267  15.547  1.1135  0.0844 -0.7729
   96MPD2    C2 1494   4.180   0.319  15.587  0.1577  0.5659 -0.6261
   96MPD2    C3 1495   4.086   0.235  15.651 -0.5329 -0.2807  0.1688
   96MPD2    C4 1496   4.114   0.104  15.675 -0.0066 -0.0327 -0.2146
   96MPD2    C5 1497   4.234   0.057  15.630 -0.3057  0.0307  0.1491
   96MPD2     H 1498   4.158   0.424  15.568 -2.1102  0.4556  1.3514
   96MPD2    H1 1499   4.053   0.041  15.738  1.3539 -1.0077  0.1063
   96MPD2    H2 1500   4.416   0.079  15.546  0.6671  1.2027  2.8382
   96MPD2    H3 1501   4.261   4.696  15.661  4.7957  1.2683 -0.1503
   96MPD2     N 1502   3.960   0.282  15.690 -0.0747 -0.2546  0.0946
   96MPD2    H5 1503   3.896   0.215  15.731  0.2767  0.6606  2.1672
   96MPD2    N1 1504   4.392   0.349  15.477  0.0178  0.3688  0.5139
   96MPD2    H7 1505   4.461   0.297  15.424  1.0986  1.2997  1.0128
   97TMC2    C1 1506   1.712   3.205   0.095  0.4071 -0.6336 -0.1277
   97TMC2    C2 1507   1.588   3.202   0.049  0.8828 -0.0541 -0.4637
   97TMC2    C3 1508   1.561   3.290  17.708  0.4787 -0.3068  0.5028
   97TMC2    C4 1509   1.807   3.287   0.050 -0.9467  0.0866  0.3181
   97TMC2    C5 1510   1.760   3.393  17.731 -0.0491 -0.5320  0.0769
   97TMC2    C6 1511   1.636   3.392  17.679 -0.2210 -0.5174  0.1467
   97TMC2     C 1512   1.747   3.113   0.206  0.6318  0.2266  0.0848
   97TMC2     O 1513   1.678   3.013   0.203 -0.2904  0.2624  0.3755
   97TMC2     H 1514   1.513   3.128   0.074 -1.7957  2.1727 -1.8703
   97TMC2    H1 1515   1.909   3.283   0.087 -0.3634  2.5379 -1.0129
   97TMC2    H2 1516   1.602   3.485  17.634 -1.0866 -0.3783  1.0908
   97TMC2    C7 1517   1.858   3.496  17.689 -0.1227  0.9154 -0.1425
   97TMC2    C8 1518   1.426   3.286  17.658  0.4403  0.0437 -1.0153
   97TMC2    O1 1519   1.943   3.522   0.015 -0.0250 -0.1090 -0.1118
   97TMC2    O2 1520   1.328   3.229  17.702 -0.4621 -0.1476 -0.7098
   97TMC2    O5 1521   1.439   3.319  17.527  0.0032 -0.2377 -0.0352
   97TMC2    H5 1522   1.524   3.349  17.489 -0.3214  0.3523 -0.2938
   98MPD2     C 1523   2.061   2.962   0.580  0.1155  0.0000 -0.5045
   98MPD2    C1 1524   1.952   2.899   0.532  0.8372 -0.1177 -0.1742
   98MPD2    C2 1525   1.881   2.961   0.427  0.3183  0.1253 -0.5859
   98MPD2    C3 1526   1.923   3.088   0.383 -0.0537 -0.0116  0.0712
   98MPD2    C4 1527   2.029   3.152   0.433 -0.7606  0.7212 -0.3874
   98MPD2    C5 1528   2.093   3.088   0.538  0.1023 -0.5945  0.4303
   98MPD2     H 1529   1.790   2.918   0.386  0.3828 -0.9248  0.3629
   98MPD2    H1 1530   2.065   3.252   0.413  2.0393 -0.5544 -1.7286
   98MPD2    H2 1531   2.125   2.917   0.656 -2.1606 -2.6250 -0.1814
   98MPD2    H3 1532   2.167   3.132   0.603 -0.0334  0.3051 -0.0239
   98MPD2     N 1533   1.863   3.151   0.273  0.2457 -0.5452  0.7357
   98MPD2    H5 1534   1.884   3.248   0.253 -3.7465  0.4358  1.3432
   98MPD2    N1 1535   1.917   2.772   0.583 -0.4982 -0.5935  0.3464
   98MPD2    H7 1536   1.965   2.747   0.669  0.5548 -2.0097 -0.6483
   99TMC2    C1 1537   0.404   0.330   1.447 -0.1355 -0.4823  0.2147
   99TMC2    C2 1538   0.336   0.262   1.546  0.7324  0.3145 -0.2598
   99TMC2    C3 1539   0.232   0.186   1.514  0.6003 -0.1262 -0.2542
   99TMC2    C4 1540   0.387   0.301   1.315 -0.0794 -0.0456  0.6161
   99TMC2    C5 1541   0.289   0.217   1.279  0.3449 -0.0751 -0.2910
   99TMC2    C6 1542   0.198   0.167   1.374 -0.1015 -0.6419  0.1542
   99TMC2     C 1543   0.542   0.329   1.478  0.4852 -0.0362  0.5405
   99TMC2     O 1544   0.587   0.389   1.573  0.4095 -0.0977  0.0447
   99TMC2     H 1545   0.347   0.276   1.653 -1.4314  0.0644 -0.0037
   99TMC2    H1 1546   0.440   0.360   1.242  0.4176 -1.3856 -0.0971
   99TMC2    H2 1547   0.109   0.110   1.348 -0.2564  0.5129 -1.8853
   99TMC2    C7 1548   0.341   0.117   1.190  0.1957 -0.3256 -0.9036
   99TMC2    C8 1549   0.136   0.158   1.620  0.3199 -0.5041 -0.1067
   99TMC2    O1 1550   0.462   0.138   1.163 -0.0725 -0.6334  0.6806
   99TMC2    O2 1551   0.124   0.226   1.721  0.4160  0.1014  0.2341
   99TMC2    O5 1552   0.046   0.070   1.574  0.1320  0.1452  0.0487
   99TMC2    H5 1553   0.093   0.001   1.522 -1.7032 -0.8867 -0.2555
  100MPD2     C 1554   0.835   0.318   1.448  0.6462 -0.7126 -0.5479
  100MPD2    C1 1555   0.744   0.234   1.383 -0.4382  0.3837  0.1013
  100MPD2    C2 1556   0.789   0.117   1.321 -0.4051 -0.9238  0.9182
  100MPD2    C3 1557   0.922   0.085   1.318 -0.3049  0.2570 -1.0843
  100MPD2    C4 1558   1.008   0.174   1.374  0.3781 -0.1098 -0.2207
  100MPD2    C5 1559   0.969   0.290   1.437  0.2512 -0.6890  0.1465
  100MPD2     H 1560   0.716   0.059   1.266  0.2600 -0.0126 -0.9154
  100MPD2    H1 1561   1.116   0.159   1.367  0.4731 -0.1095  1.4111
  100MPD2    H2 1562   0.808   0.414   1.489 -0.0683 -0.9808 -0.3902
  100MPD2    H3 1563   1.040   0.356   1.485 -0.4278  3.3985 -4.3923
  100MPD2     N 1564   0.960   4.699   1.269  0.1159  0.5102  0.0249
  100MPD2    H5 1565   0.891   4.639   1.225 -0.7590 -0.5940  2.9251
  100MPD2    N1 1566   0.607   0.255   1.384  0.5841 -1.2193 -0.1669
  100MPD2    H7 1567   0.556   0.194   1.321  0.1996 -0.6467 -0.4233
  101TMC2    C1 1568   1.391   0.377  13.077 -0.2581 -0.4243  0.0555
  101TMC2    C2 1569   1.423   0.252  13.027 -0.5366  0.3337 -0.6739
  101TMC2    C3 1570   1.506   0.252  12.916  0.2186 -0.4069 -0.5682
  101TMC2    C4 1571   1.431   0.496  13.018 -0.2150  0.9123 -0.1656
  101TMC2    C5 1572   1.529   0.483  12.919  0.4770 -0.4100 -0.5164
  101TMC2    C6 1573   1.565   0.364  12.866 -0.3389 -0.0536  0.0365
  101TMC2     C 1574   1.328   0.377  13.209 -0.1996 -0.3124 -0.3800
  101TMC2     O 1575   1.255   0.468  13.228  0.3864  0.5149 -0.6772
  101TMC2     H 1576   1.383   0.160  13.068  2.9477  0.4819  3.0490
  101TMC2    H1 1577   1.430   0.580  13.086  2.8901  0.3860  0.5339
  101TMC2    H2 1578   1.638   0.358  12.787  0.0463 -1.2774  0.4905
  101TMC2    C7 1579   1.567   0.604  12.846 -0.9910  0.8924 -0.1300
  101TMC2    C8 1580   1.552   0.124  12.862 -1.0462 -0.6949  0.4561
  101TMC2    O1 1581   1.667   0.611  12.776 -0.5989 -0.3503 -0.0700
  101TMC2    O2 1582   1.535   0.020  12.929 -0.3153 -0.2619  0.1783
  101TMC2    O5 1583   1.535   0.134  12.732  0.5487 -0.5673 -0.4892
  101TMC2    H5 1584   1.507   0.221  12.695  2.2969 -0.4261 -1.4646
  102MPD2     C 1585   1.444   0.230  13.524 -0.5936 -0.3202  0.3564
  102MPD2    C1 1586   1.355   0.284  13.430 -0.4326 -0.8756 -0.0195
  102MPD2    C2 1587   1.237   0.338  13.484 -0.2991 -1.2239 -0.0928
  102MPD2    C3 1588   1.221   0.336  13.624  0.5383 -0.4902 -0.1947
  102MPD2    C4 1589   1.321   0.296  13.708  0.0941  0.3253 -0.3955
  102MPD2    C5 1590   1.434   0.236  13.657 -0.5326  0.1885 -0.2898
  102MPD2     H 1591   1.163   0.380  13.417 -0.7660 -0.6607  0.7752
  102MPD2    H1 1592   1.318   0.301  13.816  1.7115 -1.0774 -0.2910
  102MPD2    H2 1593   1.535   0.184  13.488  0.2744  0.0030  2.1399
  102MPD2    H3 1594   1.519   0.209  13.719 -1.3324  1.5482  1.3788
  102MPD2     N 1595   1.110   0.408  13.666 -0.1753  0.1272 -0.3030
  102MPD2    H5 1596   1.052   0.444  13.590  1.5375 -0.3795 -1.8542
  102MPD2    N1 1597   1.397   0.292  13.297  0.1227 -0.3447 -0.2681
  102MPD2    H7 1598   1.486   0.251  13.270  0.3117 -0.1940  0.1286
  103TMC2    C1 1599   3.926   0.821  13.261 -0.1530  0.2666 -0.6549
  103TMC2    C2 1600   3.921   0.684  13.288 -0.8951  0.0637 -0.2047
  103TMC2    C3 1601   3.968   0.640  13.409  0.6463 -0.1472  0.3441
  103TMC2    C4 1602   3.995   0.905  13.349 -0.1182 -0.5004 -0.6789
  103TMC2    C5 1603   4.045   0.852  13.464 -0.0307  0.0049  0.1501
  103TMC2    C6 1604   4.034   0.720  13.499  0.4909  0.6471  0.4512
  103TMC2     C 1605   3.871   0.872  13.143 -0.1263  0.4071 -0.9026
  103TMC2     O 1606   3.921   0.972  13.094 -0.2521  0.4245 -0.2706
  103TMC2     H 1607   3.866   0.612  13.229 -0.2429 -1.4713  1.0737
  103TMC2    H1 1608   4.020   1.006  13.321 -2.5145  0.2815  0.0158
  103TMC2    H2 1609   4.081   0.676  13.586  1.1605  0.5191  0.0221
  103TMC2    C7 1610   4.118   0.936  13.555 -0.1110  0.2750  0.6104
  103TMC2    C8 1611   4.007   0.501  13.410 -0.0621  0.2591  0.1490
  103TMC2    O1 1612   4.193   0.885  13.635  0.4959 -0.0102  0.6774
  103TMC2    O2 1613   3.977   0.435  13.313 -0.3710  0.1648  0.4201
  103TMC2    O5 1614   4.012   0.448  13.533  0.2602 -1.0596 -0.0024
  103TMC2    H5 1615   3.967   0.507  13.597  0.4187 -0.0347 -0.8369
  104MPD2     C 1616   3.534   0.783  13.021  0.2806  0.4535  0.3969
  104MPD2    C1 1617   3.658   0.852  13.020  0.3116 -0.0382 -0.5665
  104MPD2    C2 1618   3.675   0.972  12.943 -0.4391 -0.0420  0.1427
  104MPD2    C3 1619   3.575   1.018  12.863 -0.1224  0.1174  0.2060
  104MPD2    C4 1620   3.463   0.937  12.849 -0.4617  0.2623 -0.4424
  104MPD2    C5 1621   3.447   0.817  12.921 -0.3614  0.7686  0.0244
  104MPD2     H 1622   3.767   1.027  12.953 -0.1541 -0.1579 -1.8759
  104MPD2    H1 1623   3.377   0.957  12.787  0.3568  1.7255 -1.1102
  104MPD2    H2 1624   3.520   0.690  13.075  1.4477  0.3293  0.4809
  104MPD2    H3 1625   3.350   0.768  12.911 -0.2026  0.5846 -0.6659
  104MPD2     N 1626   3.596   1.140  12.795  0.3684 -0.3900 -0.4834
  104MPD2    H5 1627   3.691   1.175  12.801 -0.2665  1.1454  0.4152
  104MPD2    N1 1628   3.760   0.800  13.099 -0.6979 -0.1419  0.4973
  104MPD2    H7 1629   3.727   0.720  13.153 -3.1519  0.9075  0.5619
  105TMC2    C1 1630   0.542   4.585   0.402 -0.4773  0.7615  0.6049
  105TMC2    C2 1631   0.508   4.462   0.435  0.1695 -0.1985 -0.1012
  105TMC2    C3 1632   0.373   4.422   0.429  0.4699  0.0894 -0.0807
  105TMC2    C4 1633   0.449   4.676   0.361 -0.2324  0.1181 -0.0110
  105TMC2    C5 1634   0.316   4.639   0.350  1.0859  0.1300 -0.2176
  105TMC2    C6 1635   0.278   4.511   0.382  0.1789  0.3540  0.4933
  105TMC2     C 1636   0.675   4.596   0.337  0.4116  0.2926  0.0446
  105TMC2     O 1637   0.768   4.539   0.397 -0.0998  0.2521 -0.5579
  105TMC2     H 1638   0.592   4.403   0.470  1.8638  0.3836 -3.2657
  105TMC2    H1 1639   0.482   0.039   0.352 -1.8366  0.6259  0.0179
  105TMC2    H2 1640   0.176   4.474   0.374  0.3638 -0.1428  0.3927
  105TMC2    C7 1641   0.201   4.731   0.342  0.1296  0.2590  0.0680
  105TMC2    C8 1642   0.315   4.282   0.428  0.3385 -0.4443 -0.4981
  105TMC2    O1 1643   0.093   4.678   0.314 -0.1566  0.3141 -0.1549
  105TMC2    O2 1644   0.199   4.258   0.469  0.0513 -0.2018 -0.2689
  105TMC2    O5 1645   0.424   4.214   0.463  0.0095 -0.5674 -0.1632
  105TMC2    H5 1646   0.498   4.236   0.402 -2.0649  2.8496 -1.4914
  106MPD2     C 1647   1.029   4.720  17.749  0.5746 -0.3671 -0.5244
  106MPD2    C1 1648   0.917   0.058  17.723 -0.6617 -0.0036 -0.1898
  106MPD2    C2 1649   0.809   0.053   0.050  0.4057 -0.1585 -0.0746
  106MPD2    C3 1650   0.802   4.699   0.154 -0.2046 -0.3410  0.2795
  106MPD2    C4 1651   0.909   4.607   0.158 -0.1740 -0.3071  0.6518
  106MPD2    C5 1652   1.015   4.621   0.073  0.1122 -0.6590 -0.2911
  106MPD2     H 1653   0.734   0.130   0.033  0.1780 -0.1799  0.8310
  106MPD2    H1 1654   0.913   4.532   0.237 -1.4089  0.0518  1.0719
  106MPD2    H2 1655   1.118   4.716  17.686 -0.4088  3.4533 -2.1861
  106MPD2    H3 1656   1.102   4.558   0.083  1.4916  1.4614  1.0363
  106MPD2     N 1657   0.691   4.692   0.242 -0.1336 -0.4029 -0.4764
  106MPD2    H5 1658   0.612   0.010   0.213  0.7457  0.7158 -0.6617
  106MPD2    N1 1659   0.919   0.153  17.620  0.3618  0.9284  0.5284
  106MPD2    H7 1660   0.847   0.225  17.627  3.0648  3.5939  0.8286
  107TMC2    C1 1661   1.536   0.301  11.520 -0.1500  0.2287 -0.3919
  107TMC2    C2 1662   1.573   0.425  11.543  0.4355 -0.6470  0.2993
  107TMC2    C3 1663   1.660   0.480  11.456  0.1172  0.1744  0.2751
  107TMC2    C4 1664   1.590   0.227  11.413  0.2114 -0.3442 -0.2298
  107TMC2    C5 1665   1.681   0.289  11.334 -0.5542  0.0962 -0.0087
  107TMC2    C6 1666   1.723   0.420  11.350 -0.3767  0.7234  0.6226
  107TMC2     C 1667   1.424   0.248  11.597 -0.0362 -0.4180  0.1792
  107TMC2     O 1668   1.348   0.325  11.659 -0.2274 -0.0607 -0.0806
  107TMC2     H 1669   1.530   0.477  11.628 -0.5396  0.4132 -0.8393
  107TMC2    H1 1670   1.558   0.126  11.389  0.1659 -1.3385  3.9552
  107TMC2    H2 1671   1.803   0.470  11.296  1.8225 -0.0027  3.2319
  107TMC2    C7 1672   1.744   0.217  11.226  0.1452 -0.4153 -0.6109
  107TMC2    C8 1673   1.686   0.623  11.472  0.1423  0.2849  0.0304
  107TMC2    O1 1674   1.823   0.281  11.160 -0.0918 -0.5216 -0.0022
  107TMC2    O2 1675   1.733   0.691  11.383 -0.0451  0.0542 -0.2593
  107TMC2    O5 1676   1.705   0.650  11.600  0.0499  0.0258 -0.3147
  107TMC2    H5 1677   1.678   0.578  11.661  1.6465 -1.2947 -1.1563
  108MPD2     C 1678   1.315   4.645  11.680 -0.2249  0.8446  0.1218
  108MPD2    C1 1679   1.320   0.040  11.687 -0.0213  0.7726  0.0551
  108MPD2    C2 1680   1.231   0.100  11.779 -0.2837 -0.7021 -0.9035
  108MPD2    C3 1681   1.134   0.024  11.842  0.4442  0.1359  0.2106
  108MPD2    C4 1682   1.132   4.628  11.821 -0.1871 -0.2496 -0.2503
  108MPD2    C5 1683   1.222   4.571  11.751 -0.2823  0.0608 -0.2754
  108MPD2     H 1684   1.235   0.205  11.804 -0.1648 -0.7945 -0.5329
  108MPD2    H1 1685   1.069   4.575  11.891  0.1720  0.5598  0.6857
  108MPD2    H2 1686   1.389   4.594  11.619  0.1947  1.5359  0.0548
  108MPD2    H3 1687   1.230   4.463  11.756  1.4879  0.3236  2.2779
  108MPD2     N 1688   1.061   0.064  11.959 -0.2656 -0.5412 -0.0637
  108MPD2    H5 1689   1.009   4.731  12.006 -1.1824  1.0074  1.3215
  108MPD2    N1 1690   1.411   0.111  11.606 -0.5684 -0.1148 -0.2300
  108MPD2    H7 1691   1.485   0.061  11.557 -0.5009 -0.8560  0.6246
  109TMC2    C1 1692   1.077   1.714   0.831 -0.0277  0.1758  0.6697
  109TMC2    C2 1693   1.021   1.607   0.766  0.1689  0.4301 -0.2572
  109TMC2    C3 1694   1.020   1.621   0.631 -0.1995 -0.2095  0.3311
  109TMC2    C4 1695   1.132   1.822   0.768 -0.2965  0.1482  0.9596
  109TMC2    C5 1696   1.140   1.821   0.632  0.0898  0.5479  0.1759
  109TMC2    C6 1697   1.073   1.723   0.561 -0.3721  0.0232 -0.3109
  109TMC2     C 1698   1.048   1.707   0.972  0.2190  0.4036 -0.4877
  109TMC2     O 1699   0.971   1.620   1.011 -0.6326  0.6874  0.8593
  109TMC2     H 1700   0.989   1.518   0.819 -1.2620  0.1380 -1.6086
  109TMC2    H1 1701   1.178   1.901   0.826  2.2238 -0.4118 -0.2431
  109TMC2    H2 1702   1.063   1.712   0.453  0.0450  1.4207 -0.4870
  109TMC2    C7 1703   1.213   1.928   0.565 -0.0552  0.1176  0.1680
  109TMC2    C8 1704   1.001   1.497   0.560  0.3168 -0.1625  0.5017
  109TMC2    O1 1705   1.232   2.023   0.643  0.1693 -0.0288  0.0489
  109TMC2    O2 1706   0.968   1.488   0.443  0.0008 -0.0607  0.3534
  109TMC2    O5 1707   1.088   1.416   0.622 -0.3649  0.1629 -0.4741
  109TMC2    H5 1708   1.123   1.444   0.709 -1.7385  2.2300 -0.5791
  110MPD2     C 1709   1.175   1.847   1.449 -1.4641 -0.7981  0.2762
  110MPD2    C1 1710   1.237   1.929   1.364 -0.0639  0.2249  0.2131
  110MPD2    C2 1711   1.207   1.925   1.229  0.7266  0.0743  0.6164
  110MPD2    C3 1712   1.126   1.822   1.182 -0.0767 -0.4547 -0.6440
  110MPD2    C4 1713   1.059   1.736   1.267 -0.2821 -0.3094  0.6765
  110MPD2    C5 1714   1.084   1.749   1.405 -0.0705 -0.4286 -0.7738
  110MPD2     H 1715   1.260   1.985   1.156 -1.8649  0.9184 -0.5564
  110MPD2    H1 1716   0.995   1.655   1.236 -0.9527  0.3007  0.4707
  110MPD2    H2 1717   1.180   1.857   1.557 -4.5830 -0.6225  0.3925
  110MPD2    H3 1718   1.035   1.675   1.468  0.2864  0.3321  0.3979
  110MPD2     N 1719   1.118   1.807   1.039  0.2199  0.5080  0.0747
  110MPD2    H5 1720   1.181   1.867   0.987  1.6839 -0.4008  0.8228
  110MPD2    N1 1721   1.321   2.026   1.421  0.0158  0.2443 -0.2553
  110MPD2    H7 1722   1.322   2.043   1.521  1.7905 -0.2372 -0.1963
  111TMC2    C1 1723   1.121   1.840  11.956  0.5221 -0.1932 -0.3088
  111TMC2    C2 1724   1.016   1.779  12.020  0.1997  0.1332 -0.3533
  111TMC2    C3 1725   1.047   1.684  12.113  0.2595 -0.1058 -0.1911
  111TMC2    C4 1726   1.250   1.807  11.977 -0.1001  0.5744  0.3232
  111TMC2    C5 1727   1.275   1.714  12.070  0.1226 -0.0938  0.6944
  111TMC2    C6 1728   1.179   1.652  12.137  0.1319  0.1836  0.3186
  111TMC2     C 1729   1.105   1.898  11.827  0.1645  0.6031 -0.4567
  111TMC2     O 1730   1.038   1.839  11.746 -0.3389  0.0148 -0.2118
  111TMC2     H 1731   0.912   1.805  12.004  0.1201  0.5729  0.8670
  111TMC2    H1 1732   1.321   1.851  11.907  2.6859 -1.9858  1.5693
  111TMC2    H2 1733   1.202   1.571  12.205  0.9050  0.6846  0.6529
  111TMC2    C7 1734   1.415   1.673  12.096 -0.0814  0.7938  0.5955
  111TMC2    C8 1735   0.946   1.622  12.188 -0.3232 -0.0079 -0.0708
  111TMC2    O1 1736   1.428   1.601  12.195 -0.0763  0.6911  0.4682
  111TMC2    O2 1737   0.833   1.668  12.201  0.2301 -0.0609 -0.4378
  111TMC2    O5 1738   0.980   1.486  12.178 -0.8869  0.7207 -0.6045
  111TMC2    H5 1739   1.066   1.464  12.136 -1.1054  0.5879 -0.9838
  112MPD2     C 1740   1.216   2.220  11.443  0.0563 -0.0933 -0.6698
  112MPD2    C1 1741   1.116   2.125  11.461  0.2628 -0.9836 -0.5975
  112MPD2    C2 1742   1.089   2.066  11.583 -0.7083 -0.1016 -0.8510
  112MPD2    C3 1743   1.171   2.094  11.689 -0.0026  0.4036 -0.5736
  112MPD2    C4 1744   1.253   2.207  11.679 -0.2835 -0.1578 -0.2947
  112MPD2    C5 1745   1.281   2.261  11.561 -0.1153 -0.2551  1.0969
  112MPD2     H 1746   1.010   1.992  11.589 -0.6469 -0.0174  0.9916
  112MPD2    H1 1747   1.308   2.242  11.766 -0.5334 -0.1860 -0.1252
  112MPD2    H2 1748   1.247   2.275  11.355 -0.0229 -0.5440 -0.9812
  112MPD2    H3 1749   1.352   2.343  11.561 -1.5127  0.9690 -1.1759
  112MPD2     N 1750   1.168   2.022  11.813 -0.1498  0.2528  0.2787
  112MPD2    H5 1751   1.223   2.062  11.889  0.1097 -0.3476  0.4059
  112MPD2    N1 1752   1.037   2.081  11.349 -0.3367 -0.2807 -0.1476
  112MPD2    H7 1753   0.958   2.023  11.375 -1.1779  1.1137  0.4129
  113TMC2    C1 1754   3.712   0.091   0.491  0.3313  0.2652  0.3586
  113TMC2    C2 1755   3.586   0.125   0.530  0.6825 -0.7914  0.4201
  113TMC2    C3 1756   3.499   0.028   0.555 -0.2901  0.3229 -0.0787
  113TMC2    C4 1757   3.748   4.699   0.477  0.2046 -0.9729  0.1964
  113TMC2    C5 1758   3.660   4.601   0.515  0.1418 -0.4787 -0.1186
  113TMC2    C6 1759   3.531   4.636   0.555 -1.0571  0.3644 -0.9372
  113TMC2     C 1760   3.810   0.192   0.498 -0.4802 -0.1939 -0.1546
  113TMC2     O 1761   3.780   0.288   0.569 -0.0294  0.2903  0.2820
  113TMC2     H 1762   3.556   0.224   0.563  0.3396 -1.8914  3.3849
  113TMC2    H1 1763   3.851   4.668   0.460  1.1002  2.3671 -0.4994
  113TMC2    H2 1764   3.448   4.571   0.580  0.3141 -0.9900  0.1043
  113TMC2    C7 1765   3.718   4.471   0.541  0.2689 -0.0209 -0.1067
  113TMC2    C8 1766   3.396   0.068   0.643 -0.3343  0.0604  0.3114
  113TMC2    O1 1767   3.830   4.438   0.487 -0.3312 -0.1499  0.1764
  113TMC2    O2 1768   3.389   0.024   0.760  0.1114 -0.0490  0.1784
  113TMC2    O5 1769   3.343   0.184   0.597 -0.2438  0.0067 -0.0989
  113TMC2    H5 1770   3.357   0.207   0.503 -1.7989 -0.9604 -0.5484
  114MPD2     C 1771   4.295   0.378   0.422 -0.5564  0.2061 -0.5094
  114MPD2    C1 1772   4.201   0.393   0.527 -0.2339  0.1650  0.0405
  114MPD2    C2 1773   4.079   0.323   0.528 -0.2069 -0.2841 -0.3396
  114MPD2    C3 1774   4.049   0.230   0.424 -0.5239  0.0327 -0.4130
  114MPD2    C4 1775   4.144   0.214   0.332  0.0157  0.4687  0.6818
  114MPD2    C5 1776   4.252   0.295   0.325  0.2607 -0.2906 -0.4222
  114MPD2     H 1777   4.004   0.351   0.601  0.3535 -0.6606  0.3776
  114MPD2    H1 1778   4.130   0.158   0.240 -0.2248  0.5688  0.6560
  114MPD2    H2 1779   4.390   0.431   0.420  0.6608 -1.9682 -0.6379
  114MPD2    H3 1780   4.320   0.264   0.247  1.4550  2.4187 -0.4399
  114MPD2     N 1781   3.925   0.162   0.423  0.5212  0.0633  0.4300
  114MPD2    H5 1782   3.911   0.088   0.356 -1.5732  1.2947 -0.4913
  114MPD2    N1 1783   4.230   0.490   0.628 -0.2912 -0.3587 -0.3268
  114MPD2    H7 1784   4.144   0.515   0.676  1.1659  0.8654  1.6672
  115TMC2    C1 1785   0.300   2.356   0.145 -0.6776 -0.5144  0.6126
  115TMC2    C2 1786   0.424   2.320   0.094  0.1712  0.2023 -0.2912
  115TMC2    C3 1787   0.507   2.420   0.059 -0.0519 -0.0168 -0.2930
  115TMC2    C4 1788   0.257   2.482   0.159 -0.6594  0.1406 -0.0072
  115TMC2    C5 1789   0.346   2.580   0.116 -0.0677 -0.0032  0.2591
  115TMC2    C6 1790   0.474   2.552   0.067  0.2567 -0.3126  0.0043
  115TMC2     C 1791   0.203   2.243   0.149  0.4658  1.0966  0.0598
  115TMC2     O 1792   0.220   2.163   0.056  0.4879  0.3807 -0.3767
  115TMC2     H 1793   0.463   2.219   0.098  0.1973  0.2389  0.4141
  115TMC2    H1 1794   0.155   2.510   0.184 -1.4496 -0.6108 -2.3475
  115TMC2    H2 1795   0.538   2.639   0.056  1.2122 -0.9483  0.5973
  115TMC2    C7 1796   0.295   2.710   0.106  0.2028  0.6627 -0.3140
  115TMC2    C8 1797   0.651   2.396   0.036  0.0615 -0.0881  0.2066
  115TMC2    O1 1798   0.213   2.748   0.192  0.2326  1.0444  0.0195
  115TMC2    O2 1799   0.723   2.472  17.727  0.5495 -0.0952  0.5329
  115TMC2    O5 1800   0.693   2.299   0.123  0.0691 -0.0282  0.0007
  115TMC2    H5 1801   0.637   2.274   0.199  2.9408  0.1115  2.1629
  116MPD2     C 1802   4.503   2.016   0.259  0.6563 -0.2287  0.1694
  116MPD2    C1 1803   4.597   1.981   0.166  0.2812 -0.1513 -1.2070
  116MPD2    C2 1804   4.712   2.065   0.168  0.1454 -0.0401 -0.5259
  116MPD2    C3 1805   4.736   2.168   0.252 -0.6065 -0.5450  0.1466
  116MPD2    C4 1806   4.643   2.189   0.353  0.8276  0.1803 -0.4652
  116MPD2    C5 1807   4.527   2.115   0.349 -0.1548  0.8447  0.0573
  116MPD2     H 1808   0.046   2.037   0.094  0.0542  0.4511 -0.7995
  116MPD2    H1 1809   4.639   2.279   0.413  2.3695 -0.3993  0.5090
  116MPD2    H2 1810   4.401   1.979   0.255  0.5284 -0.0835  1.8900
  116MPD2    H3 1811   4.451   2.151   0.418 -0.2541  0.2789  0.2380
  116MPD2     N 1812   0.109   2.250   0.245 -0.3569 -0.7237  0.5512
  116MPD2    H5 1813   0.110   2.322   0.316  1.3720  0.3943 -0.6131
  116MPD2    N1 1814   4.573   1.881   0.064 -0.4933  0.1133 -0.3095
  116MPD2    H7 1815   4.481   1.840   0.074 -1.3081  1.3854 -2.6147
  117TMC2    C1 1816   3.077   3.663  14.109 -0.8939  0.3996  0.3042
  117TMC2    C2 1817   3.125   3.563  14.189 -0.6676 -0.1809  0.3861
  117TMC2    C3 1818   3.260   3.568  14.218  0.6395 -0.8552 -0.1924
  117TMC2    C4 1819   3.145   3.778  14.071 -0.7691  0.4000  0.0429
  117TMC2    C5 1820   3.271   3.785  14.119  0.6132 -0.3110  0.7306
  117TMC2    C6 1821   3.331   3.684  14.191 -0.1675 -0.1843 -0.1108
  117TMC2     C 1822   2.951   3.635  14.049 -0.4188 -0.0426 -0.0372
  117TMC2     O 1823   2.927   3.517  14.038 -0.5267  0.6256 -0.4394
  117TMC2     H 1824   3.059   3.480  14.212  0.5530 -1.1663  0.3098
  117TMC2    H1 1825   3.098   3.849  14.003  0.5853  0.1054 -1.1952
  117TMC2    H2 1826   3.435   3.693  14.220 -0.3792  0.5971  0.3917
  117TMC2    C7 1827   3.363   3.875  14.049 -0.2636 -0.5960  0.6775
  117TMC2    C8 1828   3.296   3.478  14.326 -0.0745  0.0319  0.1104
  117TMC2    O1 1829   3.452   3.911  14.122  0.0107 -0.1432 -0.0514
  117TMC2    O2 1830   3.246   3.366  14.332 -0.1795 -0.4060 -0.2357
  117TMC2    O5 1831   3.308   3.562  14.428 -0.1435 -0.2804  0.4012
  117TMC2    H5 1832   3.341   3.651  14.400 -0.9517 -0.0036  0.3269
  118MPD2     C 1833   3.329   4.024  13.708  0.0827  0.3941 -0.1255
  118MPD2    C1 1834   3.372   4.014  13.839 -0.3979  0.4357  0.1453
  118MPD2    C2 1835   3.437   4.123  13.907 -0.1098  0.1962 -0.4789
  118MPD2    C3 1836   3.477   4.229  13.827 -0.2101 -0.3679 -0.0979
  118MPD2    C4 1837   3.437   4.236  13.692 -0.2095  0.8547  0.1291
  118MPD2    C5 1838   3.360   4.131  13.636  0.4062  0.5710  0.1495
  118MPD2     H 1839   3.451   4.126  14.014 -0.5149 -0.4693 -0.4071
  118MPD2    H1 1840   3.451   4.329  13.637 -2.4297  1.9239  1.3805
  118MPD2    H2 1841   3.289   3.937  13.658 -0.0416  0.2605  0.2070
  118MPD2    H3 1842   3.353   4.128  13.528  1.0709 -2.8193  0.2031
  118MPD2     N 1843   3.545   4.346  13.877 -0.2247 -0.1235  0.2522
  118MPD2    H5 1844   3.554   4.421  13.810 -1.4629  0.2258  0.4882
  118MPD2    N1 1845   3.323   3.908  13.919  0.5966  0.3998  0.1933
  118MPD2    H7 1846   3.257   3.840  13.883  1.3823 -0.9549  1.3108
  119TMC2    C1 1847   2.043   0.600  13.889 -0.7361 -1.1109 -0.2920
  119TMC2    C2 1848   2.137   0.602  13.788  0.4844  0.4261 -0.1129
  119TMC2    C3 1849   2.108   0.540  13.679 -0.6268 -0.4094  0.3955
  119TMC2    C4 1850   1.938   0.512  13.892 -0.7130  0.4287 -0.0924
  119TMC2    C5 1851   1.919   0.444  13.776 -0.3497 -0.5645  0.1199
  119TMC2    C6 1852   2.004   0.448  13.668 -0.6039 -0.6396  0.4868
  119TMC2     C 1853   2.055   0.691  14.006 -0.6771  0.8598 -0.1490
  119TMC2     O 1854   2.023   0.646  14.115  0.6732 -0.4427  0.0812
  119TMC2     H 1855   2.233   0.651  13.800  0.4278  0.0927  1.5935
  119TMC2    H1 1856   1.882   0.488  13.982 -1.4880 -2.3837 -1.3282
  119TMC2    H2 1857   1.983   0.393  13.577  3.6598  2.0062 -2.0635
  119TMC2    C7 1858   1.860   0.312  13.791 -0.2154 -0.5839 -0.7457
  119TMC2    C8 1859   2.211   0.525  13.575  1.1248  0.2846 -0.2551
  119TMC2    O1 1860   1.917   0.226  13.719  0.8533  0.3983  0.1798
  119TMC2    O2 1861   2.290   0.606  13.535  0.5937  0.1996  0.5799
  119TMC2    O5 1862   2.238   0.390  13.577  0.6434  0.2705  0.4540
  119TMC2    H5 1863   2.219   0.346  13.663  0.3139  0.2458  0.3721
  120MPD2     C 1864   2.325   1.073  14.209 -0.1424 -0.1048  0.2725
  120MPD2    C1 1865   2.239   0.981  14.270  0.4274  0.3989  0.4207
  120MPD2    C2 1866   2.159   0.903  14.194  0.0923  0.0509 -0.0103
  120MPD2    C3 1867   2.175   0.901  14.063  0.1655  0.1144  0.4801
  120MPD2    C4 1868   2.258   0.996  14.000 -0.3315 -0.0668  0.0726
  120MPD2    C5 1869   2.337   1.077  14.073 -0.3858  0.4041 -0.7839
  120MPD2     H 1870   2.084   0.837  14.236 -1.7141  3.1344  1.5639
  120MPD2    H1 1871   2.256   0.998  13.892 -0.6039 -0.4350  0.0702
  120MPD2    H2 1872   2.386   1.137  14.272  0.2042  0.0588 -0.2309
  120MPD2    H3 1873   2.401   1.152  14.026  1.3180 -0.7059 -0.2360
  120MPD2     N 1874   2.133   0.806  13.973  0.2008 -0.0975 -0.5694
  120MPD2    H5 1875   2.156   0.809  13.874 -0.7515 -0.2538 -0.7907
  120MPD2    N1 1876   2.229   1.000  14.412 -0.1742 -0.3355 -0.3204
  120MPD2    H7 1877   2.254   1.092  14.448  3.6960 -1.3829 -0.3116
  121TMC2    C1 1878   3.230   2.135  14.228 -0.5635  0.2459  0.4796
  121TMC2    C2 1879   3.269   2.009  14.183 -0.7016  0.0328 -0.1010
  121TMC2    C3 1880   3.185   1.909  14.176 -0.4193 -0.0692  0.5893
  121TMC2    C4 1881   3.112   2.155  14.278  0.5176 -0.6387 -0.7492
  121TMC2    C5 1882   3.033   2.043  14.288 -0.1193 -0.3160 -0.4403
  121TMC2    C6 1883   3.068   1.923  14.237 -0.2042 -0.0275  0.0341
  121TMC2     C 1884   3.308   2.243  14.190  0.1193  0.0385  0.0781
  121TMC2     O 1885   3.252   2.345  14.153 -0.4049 -0.6384  0.1466
  121TMC2     H 1886   3.363   1.993  14.130 -0.0821 -0.8258  1.2774
  121TMC2    H1 1887   3.077   2.253  14.309 -1.8463 -1.2224 -1.6187
  121TMC2    H2 1888   3.017   1.836  14.277  1.0036 -0.7230  0.0468
  121TMC2    C7 1889   2.907   2.062  14.368  0.1112 -0.8139 -0.0044
  121TMC2    C8 1890   3.213   1.795  14.090 -0.8694 -1.0295 -0.1834
  121TMC2    O1 1891   2.919   2.124  14.469  0.7661 -0.2833  0.4804
  121TMC2    O2 1892   3.324   1.749  14.076 -0.4468  0.2991 -0.1832
  121TMC2    O5 1893   3.102   1.712  14.103  0.3705 -0.3686  0.2472
  121TMC2    H5 1894   3.018   1.758  14.085  0.1076 -0.9164  0.0495
  122MPD2     C 1895   3.673   2.215  14.188  1.1092 -0.5666 -0.7483
  122MPD2    C1 1896   3.550   2.266  14.148 -1.1183  0.1772 -0.7368
  122MPD2    C2 1897   3.541   2.372  14.056 -0.0291  0.1614 -0.0892
  122MPD2    C3 1898   3.658   2.423  13.998 -0.0959  0.2267 -0.2360
  122MPD2    C4 1899   3.781   2.365  14.028 -0.0574  0.2907 -0.3692
  122MPD2    C5 1900   3.786   2.268  14.123  0.0251 -0.6294  0.7439
  122MPD2     H 1901   3.447   2.420  14.034 -0.2783 -0.2876  0.0045
  122MPD2    H1 1902   3.870   2.388  13.972  0.6031 -1.3868  0.0033
  122MPD2    H2 1903   3.680   2.129  14.253  1.0518 -0.3103 -0.4010
  122MPD2    H3 1904   3.876   2.221  14.162  0.8514  0.3369 -0.0027
  122MPD2     N 1905   3.662   2.521  13.904  0.2006  0.6024 -0.1972
  122MPD2    H5 1906   3.753   2.554  13.872 -0.5439  2.6007 -0.2159
  122MPD2    N1 1907   3.439   2.196  14.201 -0.4982  0.3214  0.0616
  122MPD2    H7 1908   3.461   2.107  14.245 -0.0610  0.2399 -0.3286
  123TMC2    C1 1909   1.564   0.793  11.079 -0.1358  0.1209 -0.3203
  123TMC2    C2 1910   1.653   0.847  11.164 -0.4297  0.2587 -0.9871
  123TMC2    C3 1911   1.781   0.864  11.107  0.1034 -0.2295  0.2160
  123TMC2    C4 1912   1.582   0.754  10.948 -1.1939  0.6410  0.4246
  123TMC2    C5 1913   1.699   0.798  10.888  0.3735 -0.1658  0.1324
  123TMC2    C6 1914   1.798   0.857  10.970  0.1028  0.4640 -0.0933
  123TMC2     C 1915   1.474   0.700  11.149  0.0316  0.0295  0.0880
  123TMC2     O 1916   1.430   0.723  11.259  0.3066  0.0674 -0.5728
  123TMC2     H 1917   1.623   0.848  11.269 -1.3045  1.1908 -1.2369
  123TMC2    H1 1918   1.499   0.717  10.889  0.4636 -0.9785 -0.8794
  123TMC2    H2 1919   1.900   0.865  10.933 -0.2464  0.3708 -1.0680
  123TMC2    C7 1920   1.749   0.714  10.781  0.3954 -0.3857 -0.3075
  123TMC2    C8 1921   1.873   0.948  11.175 -0.3500 -0.0416  0.2072
  123TMC2    O1 1922   1.687   0.609  10.766  0.1772  0.4055  0.5317
  123TMC2    O2 1923   1.951   1.017  11.111  0.0031  0.2630 -0.1846
  123TMC2    O5 1924   1.908   0.863  11.279  0.2597  0.1403 -0.5286
  123TMC2    H5 1925   1.843   0.796  11.309  1.5026 -0.3429  1.1428
  124MPD2     C 1926   1.305   0.205  11.155  0.9680 -0.1116  0.3944
  124MPD2    C1 1927   1.399   0.226  11.058 -0.0196 -0.2006 -0.7403
  124MPD2    C2 1928   1.475   0.347  11.053  0.2882 -0.7602  0.3337
  124MPD2    C3 1929   1.437   0.451  11.135  0.1105 -0.3795  0.5737
  124MPD2    C4 1930   1.349   0.431  11.234 -0.2146 -0.0861  0.9915
  124MPD2    C5 1931   1.286   0.303  11.245 -0.3695 -0.1537  0.4907
  124MPD2     H 1932   1.544   0.369  10.972 -0.3596 -0.2511 -0.0842
  124MPD2    H1 1933   1.324   0.515  11.297  1.1473  0.7934  0.3712
  124MPD2    H2 1934   1.253   0.110  11.156 -0.7346  0.7888 -1.2250
  124MPD2    H3 1935   1.215   0.285  11.325 -0.8627 -0.2865  0.0210
  124MPD2     N 1936   1.495   0.577  11.096  0.6548 -1.1507  0.9501
  124MPD2    H5 1937   1.553   0.580  11.012 -1.0866  1.5037 -0.1774
  124MPD2    N1 1938   1.414   0.120  10.969 -0.2509 -0.7750  0.5675
  124MPD2    H7 1939   1.375   0.029  10.990 -1.3547 -0.5115 -0.3232
  125TMC2    C1 1940   1.953   1.974   9.403 -0.1057 -0.0629 -0.3435
  125TMC2    C2 1941   1.826   1.979   9.449 -0.1617 -0.0861 -0.4127
  125TMC2    C3 1942   1.806   2.051   9.565 -0.2958  0.2009  0.1741
  125TMC2    C4 1943   2.062   2.022   9.463 -0.0005  0.6301 -0.1553
  125TMC2    C5 1944   2.041   2.089   9.580 -0.0057 -1.0497 -0.1476
  125TMC2    C6 1945   1.915   2.102   9.631  0.1962  0.2458  0.6739
  125TMC2     C 1946   1.960   1.868   9.296  0.3894  0.4653  0.5722
  125TMC2     O 1947   1.852   1.846   9.239 -1.2293 -0.4236  0.2675
  125TMC2     H 1948   1.734   1.950   9.400 -1.1214  3.5035 -0.7389
  125TMC2    H1 1949   2.159   2.009   9.416 -0.3437 -0.1291 -0.6574
  125TMC2    H2 1950   1.897   2.154   9.725  2.9521  3.1526 -0.3882
  125TMC2    C7 1951   2.143   2.131   9.673  0.3884 -0.0645  0.9316
  125TMC2    C8 1952   1.681   2.046   9.636  0.1419  0.2437  0.4520
  125TMC2    O1 1953   2.114   2.177   9.782 -0.4783  0.4380  0.3237
  125TMC2    O2 1954   1.594   1.979   9.592  0.3036 -0.2032 -0.5402
  125TMC2    O5 1955   1.657   2.178   9.677  0.1139 -0.5706 -0.3037
  125TMC2    H5 1956   1.729   2.241   9.698  0.4863 -0.0831 -3.0424
  126MPD1     C 1957   2.188   1.577   8.937 -0.3932  0.8518  0.3395
  126MPD1    C1 1958   2.284   1.608   9.033 -0.4639 -0.4561 -0.8871
  126MPD1    C2 1959   2.245   1.686   9.149  0.3097 -0.3580  0.1748
  126MPD1    C3 1960   2.116   1.727   9.162  0.7164  0.6597  0.1121
  126MPD1    C4 1961   2.023   1.694   9.067  0.2240  0.5590  1.0883
  126MPD1    C5 1962   2.062   1.631   8.953 -0.4585 -0.0725 -0.8576
  126MPD1     H 1963   2.324   1.701   9.222  1.1371 -0.9737 -0.5932
  126MPD1    H1 1964   1.917   1.714   9.078 -0.0026  0.0237 -0.1769
  126MPD1    H2 1965   2.214   1.527   8.844 -1.7469 -0.7465  0.8133
  126MPD1    H3 1966   1.983   1.605   8.884 -0.2033 -0.9926 -0.7956
  126MPD1     N 1967   2.084   1.811   9.273  0.0704 -0.7454  0.1190
  126MPD1    H5 1968   2.162   1.828   9.336 -0.4803 -1.1475  0.9166
  126MPD1    N1 1969   2.416   1.565   9.016 -1.0055 -0.6135  0.3738
  126MPD1    H6 1970   2.462   1.528   9.100  1.2404  1.7098  0.1388
  126MPD1    H7 1971   2.424   1.490   8.947  0.3317  0.2437 -0.3938
  127TMC2    C1 1972   3.147   0.879  10.147 -0.4497  0.4357 -0.0589
  127TMC2    C2 1973   3.102   0.787  10.065  0.9663 -0.4091 -0.4198
  127TMC2    C3 1974   2.993   0.711  10.102 -0.7020 -0.0390  0.8890
  127TMC2    C4 1975   3.073   0.917  10.258 -1.1068  0.3463 -0.1007
  127TMC2    C5 1976   2.959   0.842  10.295  0.4194 -0.1113  0.1838
  127TMC2    C6 1977   2.921   0.740  10.220 -0.3894  0.2561 -0.1241
  127TMC2     C 1978   3.271   0.945  10.115  0.0071  0.0037 -0.4892
  127TMC2     O 1979   3.300   1.044  10.182 -0.5564  0.1798 -0.2358
  127TMC2     H 1980   3.127   0.779   9.960 -0.3343  1.0876 -0.8362
  127TMC2    H1 1981   3.111   1.001  10.316 -1.5767  0.0262  0.6755
  127TMC2    H2 1982   2.829   0.688  10.243 -0.2080 -0.0761 -0.1622
  127TMC2    C7 1983   2.863   0.901  10.386  0.9133 -0.3443  0.0963
  127TMC2    C8 1984   2.931   0.642   9.992 -0.8322  0.2451 -0.7966
  127TMC2    O1 1985   2.893   1.015  10.418 -0.5977  0.1141 -0.2918
  127TMC2    O2 1986   2.810   0.648   9.981 -0.6228  0.0826 -0.2383
  127TMC2    O5 1987   3.022   0.585   9.912  0.6738 -0.8329  0.1971
  127TMC2    H5 1988   3.114   0.589   9.945  0.8247 -0.2167 -0.2862
  128MPD2     C 1989   3.492   0.900   9.830 -0.5654 -0.2394  0.0142
  128MPD2    C1 1990   3.453   0.957   9.948  0.9612  0.7176 -0.2197
  128MPD2    C2 1991   3.530   1.059   9.998 -0.9468 -0.6585  0.1701
  128MPD2    C3 1992   3.628   1.121   9.918  0.1241  0.1945 -0.1373
  128MPD2    C4 1993   3.657   1.066   9.794 -0.2582  0.6103 -0.2620
  128MPD2    C5 1994   3.584   0.962   9.744 -0.3188 -0.4432  0.0285
  128MPD2     H 1995   3.519   1.099  10.099  1.0183 -1.4765  0.6938
  128MPD2    H1 1996   3.734   1.100   9.725 -0.5005  0.4524 -0.6086
  128MPD2    H2 1997   3.438   0.812   9.796 -0.7720  0.1571 -0.6696
  128MPD2    H3 1998   3.610   0.911   9.652  1.4876 -0.8560  0.7687
  128MPD2     N 1999   3.713   1.217   9.972  0.2458  0.5678 -0.5091
  128MPD2    H5 2000   3.709   1.224  10.073 -1.3328  1.0090 -0.6068
  128MPD2    N1 2001   3.339   0.894  10.012  0.4078 -0.6181  0.3560
  128MPD2    H7 2002   3.299   0.808   9.974  1.0029  0.2259 -2.2329
  129TMC2    C1 2003   2.014   1.764   1.215  0.0702  0.0476 -0.0437
  129TMC2    C2 2004   2.054   1.832   1.098  0.2779 -0.2869 -0.4169
  129TMC2    C3 2005   2.101   1.759   0.990 -0.4943  0.2023  0.4753
  129TMC2    C4 2006   2.000   1.628   1.209  0.1527 -0.5937 -0.5614
  129TMC2    C5 2007   2.051   1.560   1.097  0.7846  0.3332 -0.0370
  129TMC2    C6 2008   2.097   1.625   0.986 -0.6931  0.5005 -0.1666
  129TMC2     C 2009   1.950   1.823   1.322 -0.6151  0.2757 -0.0685
  129TMC2     O 2010   1.905   1.752   1.412  0.3631  0.2640 -0.5056
  129TMC2     H 2011   2.043   1.939   1.081  1.8923 -0.3613 -1.8416
  129TMC2    H1 2012   1.981   1.568   1.297 -0.6583  1.1051  0.4238
  129TMC2    H2 2013   2.126   1.572   0.896  3.6131 -0.5850  1.8366
  129TMC2    C7 2014   2.002   1.421   1.078  0.1444 -0.6154 -0.0633
  129TMC2    C8 2015   2.145   1.836   0.881 -0.4000 -0.7188 -0.4011
  129TMC2    O1 2016   1.916   1.384   1.158  0.5399  0.8022  0.2573
  129TMC2    O2 2017   2.205   1.944   0.889 -0.0873  0.1224 -0.2967
  129TMC2    O5 2018   2.115   1.775   0.761 -0.3664  0.4960  0.3689
  129TMC2    H5 2019   2.044   1.710   0.779  0.3073 -0.9342 -2.1627
  130MPD2     C 2020   1.832   2.015   1.519 -0.0264 -0.3568  0.3672
  130MPD2    C1 2021   1.941   2.042   1.441  0.0811 -0.3120 -0.4544
  130MPD2    C2 2022   1.997   2.167   1.451  0.2950  0.2987 -0.3305
  130MPD2    C3 2023   1.954   2.259   1.550  0.3343  0.1463 -0.1089
  130MPD2    C4 2024   1.853   2.229   1.638  0.0438  0.3227  1.0493
  130MPD2    C5 2025   1.796   2.100   1.622  0.2903  0.3809  0.1375
  130MPD2     H 2026   2.090   2.196   1.403  0.4005  0.9478  0.2544
  130MPD2    H1 2027   1.822   2.287   1.725  2.0472  0.4171  1.7024
  130MPD2    H2 2028   1.785   1.918   1.508 -2.1767  0.7900 -0.5981
  130MPD2    H3 2029   1.716   2.066   1.686  1.0231  1.3316  1.5662
  130MPD2     N 2030   2.010   2.387   1.550  1.3152 -0.0955 -0.3364
  130MPD2    H5 2031   2.092   2.397   1.491  1.0074 -0.3783 -0.8047
  130MPD2    N1 2032   1.990   1.960   1.334  0.8058  0.2767  0.1493
  130MPD2    H7 2033   2.054   1.995   1.263  0.1283  0.1019 -0.5411
  131TMC2    C1 2034   1.651   0.782  10.343 -0.3781 -0.3720 -0.2513
  131TMC2    C2 2035   1.633   0.854  10.451  0.0812  0.1933  0.1369
  131TMC2    C3 2036   1.661   0.984  10.440 -0.2645  0.4229  0.0519
  131TMC2    C4 2037   1.690   0.834  10.227 -0.4818 -0.4043 -0.4398
  131TMC2    C5 2038   1.714   0.969  10.222 -0.1501  0.6333 -0.1030
  131TMC2    C6 2039   1.710   1.043  10.329 -0.7718  0.2452 -0.6806
  131TMC2     C 2040   1.605   0.642  10.354  0.1555 -0.2297  1.1498
  131TMC2     O 2041   1.589   0.596  10.465  0.2813 -0.2150  0.2358
  131TMC2     H 2042   1.597   0.803  10.539 -0.0267  0.4928  0.2673
  131TMC2    H1 2043   1.712   0.777  10.137 -1.5405  1.8521 -2.1495
  131TMC2    H2 2044   1.717   1.151  10.325 -3.2656  0.3540 -2.1576
  131TMC2    C7 2045   1.747   1.025  10.094  0.6738 -0.0842 -0.4676
  131TMC2    C8 2046   1.653   1.054  10.560  0.1458  0.5413  0.0252
  131TMC2    O1 2047   1.704   0.961  10.002  0.2406 -0.0821  0.1009
  131TMC2    O2 2048   1.593   1.014  10.659 -0.4389  0.3255  0.4876
  131TMC2    O5 2049   1.774   1.117  10.565 -0.5406  0.1635 -0.3650
  131TMC2    H5 2050   1.834   1.113  10.488 -1.0549 -0.7423 -0.7202
  132MPD2     C 2051   1.581   0.396  10.077 -0.3094 -0.2052  0.2257
  132MPD2    C1 2052   1.594   0.435  10.213 -0.5063  0.3137 -0.3560
  132MPD2    C2 2053   1.588   0.341  10.316 -0.4332  0.1378  0.1170
  132MPD2    C3 2054   1.568   0.211  10.279 -0.0964 -0.3156 -0.4548
  132MPD2    C4 2055   1.564   0.176  10.145  0.0755  0.2808  0.0938
  132MPD2    C5 2056   1.555   0.268  10.039  1.0451 -0.3495 -0.0297
  132MPD2     H 2057   1.571   0.377  10.417 -0.9372 -0.6553  0.3188
  132MPD2    H1 2058   1.522   0.078  10.126  0.0935  0.6163 -1.6537
  132MPD2    H2 2059   1.574   0.471  10.000 -0.0947 -0.3003  0.1130
  132MPD2    H3 2060   1.552   0.233   9.937  1.5474 -0.6008  0.0459
  132MPD2     N 2061   1.535   0.127  10.389 -0.0245  0.6662  0.0583
  132MPD2    H5 2062   1.532   0.169  10.481  1.6437  1.7380 -0.3872
  132MPD2    N1 2063   1.594   0.581  10.232  0.2526  0.5305 -0.2013
  132MPD2    H7 2064   1.604   0.640  10.150 -1.1369  0.0554 -0.7022
  133TMC2    C1 2065   0.790   2.327  10.164  0.0889 -0.2937 -0.3012
  133TMC2    C2 2066   0.730   2.290  10.282 -0.3451  0.2278 -0.6160
  133TMC2    C3 2067   0.715   2.372  10.390 -0.2970  0.0339  0.0264
  133TMC2    C4 2068   0.813   2.463  10.148  0.2221 -0.9389  0.3138
  133TMC2    C5 2069   0.779   2.549  10.254  0.3121  0.0890 -1.5440
  133TMC2    C6 2070   0.736   2.507  10.376 -0.0651 -0.2434  0.1117
  133TMC2     C 2071   0.798   2.235  10.053 -0.5302 -1.0062 -0.2307
  133TMC2     O 2072   0.740   2.127  10.073  0.0924  0.0293  0.3948
  133TMC2     H 2073   0.715   2.184  10.298  0.4714  0.1334 -0.4670
  133TMC2    H1 2074   0.853   2.502  10.055  1.4995 -1.7882  0.5100
  133TMC2    H2 2075   0.712   2.572  10.459  1.6010 -0.5491  0.8232
  133TMC2    C7 2076   0.781   2.695  10.241  0.0629  0.1383 -0.3405
  133TMC2    C8 2077   0.622   2.317  10.482 -0.7191 -0.2742 -0.2712
  133TMC2    O1 2078   0.768   2.763  10.344  0.7968 -0.0783 -0.1514
  133TMC2    O2 2079   0.523   2.258  10.435  0.3102 -0.5190 -0.5301
  133TMC2    O5 2080   0.605   2.397  10.588 -0.5560 -0.3362  0.5037
  133TMC2    H5 2081   0.686   2.446  10.617 -0.1373 -1.2369  0.8504
  134MPD2     C 2082   1.007   2.220   9.743 -0.3687  0.8505  0.2948
  134MPD2    C1 2083   0.897   2.199   9.821 -0.4680  0.1041 -0.3424
  134MPD2    C2 2084   0.793   2.111   9.782 -0.6043  0.0581 -0.6268
  134MPD2    C3 2085   0.796   2.049   9.657  0.4334  0.2881  0.0019
  134MPD2    C4 2086   0.907   2.070   9.570  0.4564  0.0144 -0.5730
  134MPD2    C5 2087   1.009   2.160   9.613  0.2388  0.0172  0.3138
  134MPD2     H 2088   0.702   2.111   9.843  0.8110  0.7811  1.4840
  134MPD2    H1 2089   0.913   2.030   9.470  1.2430 -2.7394  0.5695
  134MPD2    H2 2090   1.091   2.284   9.770  0.7041 -0.3813 -0.1303
  134MPD2    H3 2091   1.088   2.178   9.541 -2.1050 -0.6109 -2.4050
  134MPD2     N 2092   0.690   1.955   9.618 -0.1004  0.2558  0.6393
  134MPD2    H5 2093   0.702   1.914   9.526 -2.3479  2.2519 -0.5465
  134MPD2    N1 2094   0.878   2.267   9.947 -0.0209  0.3669 -0.0664
  134MPD2    H7 2095   0.933   2.351   9.963  1.8149 -0.5058 -1.8114
  135TMC2    C1 2096   2.959   2.831  10.419 -0.4742 -0.0679 -0.1522
  135TMC2    C2 2097   3.019   2.859  10.541 -0.1259 -0.9328  0.2935
  135TMC2    C3 2098   2.955   2.799  10.648  0.5236  0.7288  0.2629
  135TMC2    C4 2099   2.850   2.755  10.407  0.6875 -0.0033 -0.3998
  135TMC2    C5 2100   2.799   2.692  10.517 -0.2212  0.0258 -0.4897
  135TMC2    C6 2101   2.851   2.720  10.639  0.4437 -0.1929 -0.2486
  135TMC2     C 2102   3.057   2.818  10.311 -0.5050  0.2123 -0.6167
  135TMC2     O 2103   3.173   2.846  10.341 -0.5993 -0.1490 -0.4946
  135TMC2     H 2104   3.099   2.930  10.557  1.2987 -2.1671 -1.3941
  135TMC2    H1 2105   2.801   2.727  10.314  0.1511 -2.7852  0.7389
  135TMC2    H2 2106   2.816   2.673  10.731  0.0593  0.0585 -0.2640
  135TMC2    C7 2107   2.720   2.581  10.499 -1.0323 -0.3224  0.6099
  135TMC2    C8 2108   3.014   2.792  10.778 -0.1039 -0.2159 -0.3399
  135TMC2    O1 2109   2.735   2.518  10.392  0.2424  0.5994 -0.0805
  135TMC2    O2 2110   2.965   2.733  10.871  0.0037  0.1868 -0.2354
  135TMC2    O5 2111   3.097   2.897  10.795  0.4094  0.1424  0.1679
  135TMC2    H5 2112   3.106   2.969  10.729  1.5812  0.5123  0.7281
  136MPD2     C 2113   3.232   2.717  10.092 -0.0949  0.5844 -0.5098
  136MPD2    C1 2114   3.093   2.712  10.093 -0.6784 -0.4726  0.6321
  136MPD2    C2 2115   3.032   2.661   9.983  0.3043  0.2755  0.0033
  136MPD2    C3 2116   3.099   2.611   9.876 -0.2210 -0.6425 -1.2385
  136MPD2    C4 2117   3.235   2.602   9.885  0.8095  0.1639 -0.7888
  136MPD2    C5 2118   3.302   2.659   9.996  0.2218 -0.1052 -0.0216
  136MPD2     H 2119   2.924   2.673   9.984 -0.0332 -2.7794  0.3096
  136MPD2    H1 2120   3.293   2.561   9.803  0.1733 -4.3506  1.0203
  136MPD2    H2 2121   3.285   2.756  10.179 -0.2003  0.0779 -0.2221
  136MPD2    H3 2122   3.410   2.661  10.004 -0.0021  0.4101  2.8792
  136MPD2     N 2123   3.045   2.551   9.759 -0.7011 -0.5640  0.7479
  136MPD2    H5 2124   3.113   2.537   9.684 -1.2605 -0.5531  0.2392
  136MPD2    N1 2125   3.012   2.755  10.199  0.0045 -0.2124  0.6361
  136MPD2    H7 2126   2.911   2.743  10.191  0.0708 -0.4867  0.1981
  137TMC2    C1 2127   2.716   1.187   9.646 -0.4049 -0.0614 -1.1692
  137TMC2    C2 2128   2.795   1.130   9.543  0.5300  0.9893  0.7056
  137TMC2    C3 2129   2.917   1.190   9.525  0.0341  0.1798 -0.8376
  137TMC2    C4 2130   2.741   1.304   9.713  0.0803  0.0964  0.4575
  137TMC2    C5 2131   2.857   1.375   9.666  0.0567  0.7756 -0.4915
  137TMC2    C6 2132   2.945   1.320   9.575 -0.1851 -0.0038 -0.8574
  137TMC2     C 2133   2.622   1.091   9.701 -0.1992  0.1447 -0.0146
  137TMC2     O 2134   2.579   0.997   9.638  0.4643  0.1155  0.1380
  137TMC2     H 2135   2.770   1.028   9.514 -0.4766  1.3564  0.2757
  137TMC2    H1 2136   2.673   1.351   9.783  2.1734  2.8214  0.6487
  137TMC2    H2 2137   3.030   1.376   9.538  0.1567  0.8845  1.2170
  137TMC2    C7 2138   2.874   1.517   9.698 -0.2375  0.3147 -0.3115
  137TMC2    C8 2139   2.994   1.150   9.409  0.0361 -0.3561 -1.0793
  137TMC2    O1 2140   2.985   1.562   9.700  0.4976 -0.4174  0.3858
  137TMC2    O2 2141   3.107   1.189   9.385  0.2155 -0.5109 -0.4094
  137TMC2    O5 2142   2.904   1.096   9.321 -0.5082 -0.1258  0.1919
  137TMC2    H5 2143   2.811   1.102   9.352 -0.4292 -1.1664  0.6070
  138MPD2     C 2144   2.357   1.034   9.860 -0.1361 -0.1537  0.0486
  138MPD2    C1 2145   2.476   1.078   9.906  0.1394 -0.6560  0.4347
  138MPD2    C2 2146   2.486   1.121  10.035  0.8460 -0.5001 -0.5680
  138MPD2    C3 2147   2.380   1.115  10.125 -0.0277  0.1954 -0.1188
  138MPD2    C4 2148   2.257   1.074  10.073  0.3698 -0.0763  1.0959
  138MPD2    C5 2149   2.242   1.045   9.939  0.5273 -0.4991 -0.2334
  138MPD2     H 2150   2.586   1.149  10.068  1.6845 -0.6377 -2.9515
  138MPD2    H1 2151   2.168   1.087  10.133 -0.9174 -0.3277 -0.7565
  138MPD2    H2 2152   2.351   1.007   9.755  0.2617  0.0271 -0.0210
  138MPD2    H3 2153   2.143   1.018   9.904 -0.4384  1.3897  1.0403
  138MPD2     N 2154   2.408   1.151  10.257 -0.0033  0.2955 -0.2682
  138MPD2    H5 2155   2.502   1.178  10.286 -0.1415 -1.6054  1.9664
  138MPD2    N1 2156   2.586   1.128   9.829  0.2793  0.0013  0.4650
  138MPD2    H7 2157   2.640   1.204   9.870  0.8694 -0.1085 -0.1037
  139TMC2    C1 2158   3.636   0.333  13.615 -0.0734  0.0677 -0.1182
  139TMC2    C2 2159   3.628   0.393  13.491 -0.1871  0.5956 -0.5838
  139TMC2    C3 2160   3.535   0.487  13.470  0.0913 -0.1933 -0.4616
  139TMC2    C4 2161   3.546   0.363  13.712  0.0136  0.2405 -0.1763
  139TMC2    C5 2162   3.447   0.455  13.682 -0.9788 -0.2520  0.3705
  139TMC2    C6 2163   3.445   0.521  13.563 -0.9817  0.2773 -0.6133
  139TMC2     C 2164   3.722   0.220  13.623 -0.2958 -0.5286  1.0063
  139TMC2     O 2165   3.728   0.137  13.531  0.7097 -0.2573  0.2381
  139TMC2     H 2166   3.690   0.371  13.405  0.7673  0.9936 -0.0059
  139TMC2    H1 2167   3.534   0.292  13.792  3.2797  0.7648  0.7697
  139TMC2    H2 2168   3.372   0.599  13.548 -1.5179 -0.1157 -0.0640
  139TMC2    C7 2169   3.333   0.472  13.767  0.4663  0.1656  0.1464
  139TMC2    C8 2170   3.526   0.540  13.333 -0.1726  0.6500  0.6466
  139TMC2    O1 2171   3.256   0.559  13.740 -0.8819  0.0000 -0.2080
  139TMC2    O2 2172   3.627   0.571  13.268 -0.3596 -0.5971 -0.1831
  139TMC2    O5 2173   3.408   0.509  13.276 -0.4054 -0.1477 -0.1754
  139TMC2    H5 2174   3.339   0.473  13.335 -0.7937 -1.8269 -1.6616
  140MPD2     C 2175   3.949   0.127  13.908 -0.1249 -0.4112 -0.0529
  140MPD2    C1 2176   3.859   0.108  13.802  0.5307 -0.0700  0.0622
  140MPD2    C2 2177   3.846   4.720  13.745 -0.1762  0.2194  0.4291
  140MPD2    C3 2178   3.904   4.608  13.805  0.0385  0.1154  0.6451
  140MPD2    C4 2179   3.986   4.629  13.913 -0.6504 -0.4988  0.0081
  140MPD2    C5 2180   4.011   0.014  13.965 -0.2583 -0.5700  0.1983
  140MPD2     H 2181   3.777   4.699  13.664 -0.5491  1.8410  0.3219
  140MPD2    H1 2182   4.024   4.544  13.968  0.5188  0.4875  0.7034
  140MPD2    H2 2183   3.966   0.221  13.959  1.2415  0.7588 -2.6807
  140MPD2    H3 2184   4.066   0.021  14.058 -1.1104  0.2549  0.6314
  140MPD2     N 2185   3.879   4.476  13.754 -0.1158  0.1465  0.1965
  140MPD2    H5 2186   3.819   4.471  13.672 -0.3588 -2.5440  0.5630
  140MPD2    N1 2187   3.795   0.222  13.745 -0.2102  0.7431  0.0905
  140MPD2    H7 2188   3.786   0.310  13.794  0.6202  0.8458  0.0495
  141TMC2    C1 2189   3.998   1.282  15.151 -0.1152 -0.6891 -1.0256
  141TMC2    C2 2190   3.956   1.198  15.251 -0.1508 -0.4321 -0.1195
  141TMC2    C3 2191   3.918   1.251  15.372 -0.2140 -0.2609  0.6660
  141TMC2    C4 2192   4.009   1.413  15.173 -0.5890 -0.5020 -0.0134
  141TMC2    C5 2193   3.961   1.463  15.289  0.3518  0.7311  0.1768
  141TMC2    C6 2194   3.919   1.383  15.394  0.0524 -0.1552  0.2663
  141TMC2     C 2195   4.050   1.230  15.021  0.4471 -0.6665  0.2390
  141TMC2     O 2196   4.091   1.319  14.946 -0.2364  0.0939 -0.0040
  141TMC2     H 2197   3.966   1.092  15.231  2.4148 -0.1206 -0.4310
  141TMC2    H1 2198   4.041   1.477  15.091 -0.3443 -0.9625 -0.2710
  141TMC2    H2 2199   3.895   1.425  15.491  1.0050 -1.1007  0.9001
  141TMC2    C7 2200   3.988   1.605  15.325  0.1055  0.5984  0.5737
  141TMC2    C8 2201   3.918   1.157  15.487  1.0501  0.4064  0.1075
  141TMC2    O1 2202   3.926   1.661  15.415 -0.2564  0.6547  0.8043
  141TMC2    O2 2203   3.968   1.042  15.487  0.0735  0.3277 -0.2901
  141TMC2    O5 2204   3.854   1.214  15.586  0.1956  0.7531 -0.5522
  141TMC2    H5 2205   3.802   1.295  15.568  0.6754  0.9597 -0.9715
  142TMC2    C1 2206   1.873   4.689  10.379 -0.5350 -0.7850  0.1674
  142TMC2    C2 2207   1.916   4.678  10.245 -0.0477 -0.3701  0.5098
  142TMC2    C3 2208   1.934   0.060  10.178 -0.4426  0.1360 -0.7882
  142TMC2    C4 2209   1.861   0.072  10.445  0.5589  0.1401  0.2660
  142TMC2    C5 2210   1.884   0.187  10.375 -0.2579 -0.3009 -0.0802
  142TMC2    C6 2211   1.911   0.178  10.244 -0.2563  0.2618  0.2853
  142TMC2     C 2212   1.797   4.576  10.423 -0.2705 -0.3941 -0.8940
  142TMC2     O 2213   1.747   4.507  10.335  0.2833 -0.2798 -0.6347
  142TMC2     H 2214   1.918   4.582  10.193 -2.4237  0.5279 -1.1935
  142TMC2    H1 2215   1.844   0.072  10.552 -0.6355 -0.7250  0.0727
  142TMC2    H2 2216   1.911   0.275  10.195  0.4245  0.0672 -0.1047
  142TMC2    C7 2217   1.888   0.314  10.450 -0.3170  0.2445  0.2266
  142TMC2    C8 2218   1.997   0.069  10.047 -0.4096 -0.3333 -0.2608
  142TMC2    O1 2219   1.832   0.316  10.559  0.0407 -0.0861  0.0211
  142TMC2    O2 2220   2.010   0.181   9.997  0.1278  0.5506  0.6691
  142TMC2    O5 2221   2.093   4.721  10.065  0.3425  0.3515  0.2306
  142TMC2    H5 2222   2.060   4.629  10.077  0.4082  0.3157  0.1406
  143MPD2     C 2223   1.549   4.278  10.756  0.4533  0.7629 -0.1865
  143MPD2    C1 2224   1.589   4.260  10.630 -0.1699  0.2686  0.0956
  143MPD2    C2 2225   1.677   4.346  10.566 -0.1052  0.2786 -0.1114
  143MPD2    C3 2226   1.719   4.456  10.629 -0.7263  0.1454  0.5632
  143MPD2    C4 2227   1.678   4.479  10.761 -0.1527  0.2805  0.5079
  143MPD2    C5 2228   1.605   4.384  10.820 -0.2336  0.2089 -0.1290
  143MPD2     H 2229   1.712   4.324  10.465  0.2110 -2.2362  0.5284
  143MPD2    H1 2230   1.709   4.561  10.825  1.7645 -1.2843  1.5799
  143MPD2    H2 2231   1.484   4.209  10.809 -1.1624  3.5420  1.4686
  143MPD2    H3 2232   1.571   4.411  10.919 -0.4917 -0.0446 -0.1488
  143MPD2     N 2233   1.786   4.561  10.562 -0.3468  0.2447  0.1500
  143MPD2    H5 2234   1.823   4.633  10.623  1.0914 -1.3605  1.1893
  143MPD2    N1 2235   1.548   4.135  10.573  0.3405 -0.5963 -0.0904
  143MPD2    H7 2236   1.501   4.077  10.642  1.7070 -0.3246  1.0846
  144TMC2    C1 2237   4.404   3.135   0.778 -0.6700  0.6744  0.1648
  144TMC2    C2 2238   4.442   3.004   0.781 -0.1882 -0.8776 -0.6306
  144TMC2    C3 2239   4.577   2.980   0.785 -0.0450  0.1033  0.1426
  144TMC2    C4 2240   4.503   3.234   0.784 -0.0044  0.6281 -0.3713
  144TMC2    C5 2241   4.638   3.200   0.793 -0.1501 -0.0335  0.2762
  144TMC2    C6 2242   4.675   3.072   0.810  0.5723  0.1208  0.7811
  144TMC2     C 2243   4.277   3.162   0.719  0.1228  0.4147  0.2572
  144TMC2     O 2244   4.221   3.073   0.655 -0.0546  0.7765 -0.7298
  144TMC2     H 2245   4.369   2.924   0.774 -1.2264 -0.0043  0.3457
  144TMC2    H1 2246   4.481   3.340   0.778  0.0998  0.5266 -2.6067
  144TMC2    H2 2247   0.037   3.041   0.795  0.4801  0.4402 -0.4965
  144TMC2    C7 2248   0.002   3.300   0.824  0.2485 -0.1379 -0.1717
  144TMC2    C8 2249   4.626   2.848   0.757 -0.2716  0.4946 -1.0522
  144TMC2    O1 2250   0.113   3.249   0.841  0.2651 -0.2656  0.0586
  144TMC2    O2 2251   4.732   2.798   0.799 -0.1250 -0.0754  0.7129
  144TMC2    O5 2252   4.536   2.778   0.688 -0.1999  0.1121 -0.2832
  144TMC2    H5 2253   4.469   2.840   0.652  0.3208  0.2808 -0.9544
  145MPD2     C 2254   3.970   3.499   0.491  1.1486  0.2911  0.1958
  145MPD2    C1 2255   4.001   3.370   0.463  0.3901 -0.3240  0.2384
  145MPD2    C2 2256   4.093   3.298   0.542  0.7251  1.0450 -0.4479
  145MPD2    C3 2257   4.140   3.356   0.661  0.0464  0.4871 -0.6859
  145MPD2    C4 2258   4.107   3.488   0.693  0.0392 -0.9424  0.0979
  145MPD2    C5 2259   4.023   3.555   0.604  0.4700  0.2780  0.6668
  145MPD2     H 2260   4.120   3.196   0.517  1.2943  1.6608 -2.3312
  145MPD2    H1 2261   4.148   3.545   0.776  0.0967  1.3376 -1.5140
  145MPD2    H2 2262   3.909   3.561   0.427 -1.3431 -0.1030  2.1729
  145MPD2    H3 2263   4.010   3.658   0.635  0.1673 -0.1937  2.1253
  145MPD2     N 2264   4.235   3.288   0.741  0.5832  0.0794  0.4144
  145MPD2    H5 2265   4.288   3.347   0.805  0.7221 -1.2989  1.5705
  145MPD2    N1 2266   3.946   3.299   0.354 -0.2664  0.0814 -0.3476
  145MPD2    H7 2267   3.981   3.204   0.343 -1.0037  0.1114 -2.8837
  146TMC2    C1 2268   1.280   2.429  12.461 -0.5299  0.7119  0.7358
  146TMC2    C2 2269   1.227   2.472  12.341  0.3990 -0.3491  0.0576
  146TMC2    C3 2270   1.288   2.426  12.231 -0.1921 -0.1697  0.6705
  146TMC2    C4 2271   1.405   2.374  12.469  0.3426  0.8040 -0.3650
  146TMC2    C5 2272   1.466   2.342  12.354 -0.4333  0.0429  0.8424
  146TMC2    C6 2273   1.411   2.370  12.234 -0.1566 -0.3515 -0.0697
  146TMC2     C 2274   1.218   2.485  12.581 -0.0351  0.9621  0.0042
  146TMC2     O 2275   1.115   2.551  12.571 -0.4340 -0.0565 -0.1870
  146TMC2     H 2276   1.128   2.516  12.339  0.1411 -0.9275  0.2388
  146TMC2    H1 2277   1.464   2.368  12.559 -1.3608 -3.2849  0.5180
  146TMC2    H2 2278   1.476   2.351  12.150 -0.6366 -2.8549  0.1340
  146TMC2    C7 2279   1.610   2.309  12.372  0.0988  0.0431 -0.2675
  146TMC2    C8 2280   1.236   2.469  12.107  0.2231 -0.4601  0.2127
  146TMC2    O1 2281   1.672   2.345  12.271  0.0836 -1.0026  0.1036
  146TMC2    O2 2282   1.170   2.572  12.091  0.3750  0.0108 -0.0498
  146TMC2    O5 2283   1.260   2.376  12.010 -0.0558 -0.0077 -0.0670
  146TMC2    H5 2284   1.275   2.289  12.052  0.8141  0.6549  0.9976
  147MPD2     C 2285   2.029   2.128  12.607  0.4052  0.2341  0.6216
  147MPD2    C1 2286   1.918   2.057  12.656 -0.5928  0.2590 -0.2776
  147MPD2    C2 2287   1.791   2.090  12.616 -0.1971  0.7120  0.3916
  147MPD2    C3 2288   1.776   2.193  12.520  0.6580 -0.4491 -0.3489
  147MPD2    C4 2289   1.882   2.269  12.481  0.3844 -0.6332 -0.0994
  147MPD2    C5 2290   2.009   2.241  12.521 -0.0525 -0.0523 -0.0993
  147MPD2     H 2291   1.704   2.040  12.659 -0.5941  1.6585  0.6788
  147MPD2    H1 2292   1.869   2.356  12.417  2.5697  0.8565  1.4557
  147MPD2    H2 2293   2.134   2.106  12.618  0.9072  1.1729 -2.3121
  147MPD2    H3 2294   2.081   2.315  12.491  0.5331 -0.1062  1.1879
  147MPD2     N 2295   1.644   2.227  12.477  0.1187 -0.0012 -0.0710
  147MPD2    H5 2296   1.565   2.200  12.535  0.2376 -0.2504 -0.0248
  147MPD2    N1 2297   1.948   1.942  12.732 -0.2834  0.6215  0.0323
  147MPD2    H7 2298   2.041   1.912  12.760 -0.1036  0.2460 -0.9513
  148TMC2    C1 2299   0.977   1.357  10.578  0.2106  0.0799 -0.2935
  148TMC2    C2 2300   0.981   1.382  10.710 -0.6357 -0.5810 -0.6679
  148TMC2    C3 2301   1.089   1.353  10.788  0.0135  0.0963  0.6059
  148TMC2    C4 2302   1.087   1.292  10.522 -0.5361  0.0746 -0.3421
  148TMC2    C5 2303   1.187   1.253  10.605  0.5823 -0.0597 -0.3915
  148TMC2    C6 2304   1.200   1.296  10.734  1.0476 -0.2702 -0.5008
  148TMC2     C 2305   0.851   1.382  10.505  0.5495  0.2467  0.2664
  148TMC2     O 2306   0.794   1.485  10.528 -0.1589 -0.2749 -0.1450
  148TMC2     H 2307   0.894   1.422  10.761  0.4588  1.3005 -0.2848
  148TMC2    H1 2308   1.092   1.271  10.416  0.7972  0.3306 -0.3277
  148TMC2    H2 2309   1.276   1.278  10.809  0.6691  0.1177 -0.0237
  148TMC2    C7 2310   1.216   1.112  10.601  0.6087  0.5455  0.3146
  148TMC2    C8 2311   1.062   1.306  10.915  0.3987  0.5469  0.1010
  148TMC2    O1 2312   1.271   1.078  10.495 -0.3199  0.3593  0.0972
  148TMC2    O2 2313   1.057   1.182  10.909  0.3732 -0.5295 -0.0160
  148TMC2    O5 2314   1.159   1.369  10.989  1.0117 -0.4015 -1.3763
  148TMC2    H5 2315   1.164   1.460  10.951 -1.7750 -0.8699 -2.8657
  149MPD2     C 2316   0.607   1.387  10.341 -0.0907 -0.0841  0.0646
  149MPD2    C1 2317   0.702   1.286  10.335 -0.2846 -0.5354  0.5952
  149MPD2    C2 2318   0.682   1.181  10.248 -0.7379  0.2797 -0.1830
  149MPD2    C3 2319   0.566   1.168  10.174 -0.6819  0.2331  0.6794
  149MPD2    C4 2320   0.481   1.279  10.168  0.1422 -0.3472  0.7658
  149MPD2    C5 2321   0.499   1.380  10.255  0.7032 -0.2230  0.2725
  149MPD2     H 2322   0.755   1.102  10.257 -0.7333  0.3027 -0.0167
  149MPD2    H1 2323   0.396   1.284  10.102 -0.9584 -2.8709  2.0057
  149MPD2    H2 2324   0.614   1.465  10.416  0.4937 -1.7903  1.7592
  149MPD2    H3 2325   0.417   1.451  10.257  0.8714  0.0232 -1.5651
  149MPD2     N 2326   0.534   1.053  10.096 -0.0429  0.3728  0.3215
  149MPD2    H5 2327   0.441   1.046  10.056  0.2853 -2.7505  0.0654
  149MPD2    N1 2328   0.818   1.278  10.412 -0.1497  0.1989 -0.1005
  149MPD2    H7 2329   0.883   1.200  10.405  0.3152  0.5259  0.4912
  150TMC2    C1 2330   2.835   1.101  12.281 -0.0174 -0.3128  0.7196
  150TMC2    C2 2331   2.783   1.224  12.256  0.2410 -1.2034 -0.1129
  150TMC2    C3 2332   2.867   1.317  12.209  0.4477  0.5361  0.5905
  150TMC2    C4 2333   2.968   1.077  12.279  1.0159 -0.3973  0.2495
  150TMC2    C5 2334   3.050   1.175  12.233  0.0962  0.2153 -0.1349
  150TMC2    C6 2335   2.997   1.298  12.188  0.3935  0.3989 -0.4908
  150TMC2     C 2336   2.750   0.985  12.313  0.4458 -0.1352  0.1778
  150TMC2     O 2337   2.810   0.879  12.307  0.7876 -0.2305  0.3967
  150TMC2     H 2338   2.676   1.242  12.256  0.6584  1.2550 -3.2210
  150TMC2    H1 2339   3.016   0.990  12.324 -0.5246 -0.7915  1.1358
  150TMC2    H2 2340   3.073   1.372  12.164 -0.8401  1.4965 -1.0005
  150TMC2    C7 2341   3.168   1.123  12.160  0.0726  0.1603 -0.2493
  150TMC2    C8 2342   2.833   1.456  12.218  0.0534 -0.0423 -0.1682
  150TMC2    O1 2343   3.195   1.192  12.061  0.4994 -0.2072  0.0506
  150TMC2    O2 2344   2.915   1.549  12.219 -0.4376 -0.0773 -0.0484
  150TMC2    O5 2345   2.715   1.468  12.152  0.0630 -0.0422 -0.4765
  150TMC2    H5 2346   2.687   1.380  12.118 -0.2223  0.1522 -0.7532
  151MPD2     C 2347   2.340   0.720  12.443  0.2484 -0.3050 -0.4864
  151MPD2    C1 2348   2.440   0.697  12.352 -0.2055  0.0660 -0.1714
  151MPD2    C2 2349   2.534   0.795  12.333 -0.2964 -0.4658  0.0703
  151MPD2    C3 2350   2.542   0.912  12.409 -0.3021 -0.3034  0.4071
  151MPD2    C4 2351   2.438   0.939  12.497 -0.0699  0.5852  0.1940
  151MPD2    C5 2352   2.336   0.844  12.500  0.5329  0.4045  0.4065
  151MPD2     H 2353   2.603   0.781  12.251  0.4309 -1.4929  0.8608
  151MPD2    H1 2354   2.430   1.028  12.558 -0.2902 -0.7101  2.0445
  151MPD2    H2 2355   2.257   0.652  12.459  0.4394 -0.5944 -0.7177
  151MPD2    H3 2356   2.243   0.864  12.553 -0.3062 -0.0915 -0.8879
  151MPD2     N 2357   2.636   1.016  12.386 -0.5517 -0.8205 -0.8864
  151MPD2    H5 2358   2.613   1.108  12.422  1.6285 -0.0873 -1.3702
  151MPD2    N1 2359   2.435   0.574  12.269  0.6900 -0.5309  0.5470
  151MPD2    H7 2360   2.355   0.517  12.292  1.0293 -1.0449  0.4676
  152TMC2    C1 2361   2.813   0.353  12.445  0.2395  0.2230  0.0443
  152TMC2    C2 2362   2.857   0.333  12.325 -0.8667 -0.1737  0.6853
  152TMC2    C3 2363   2.991   0.329  12.304  0.3694 -0.1058  0.0526
  152TMC2    C4 2364   2.894   0.368  12.556  0.0127  0.3106 -0.3324
  152TMC2    C5 2365   3.027   0.366  12.528 -0.5127 -0.1858  0.0039
  152TMC2    C6 2366   3.087   0.345  12.402 -0.4404  0.6256 -0.1963
  152TMC2     C 2367   2.677   0.330  12.461  0.4034 -0.1017  0.3269
  152TMC2     O 2368   2.619   0.262  12.379  0.1751 -0.1714  0.1277
  152TMC2     H 2369   2.797   0.301  12.240 -0.0174  0.2828 -0.0943
  152TMC2    H1 2370   2.859   0.377  12.658 -0.1396 -1.4085 -0.2277
  152TMC2    H2 2371   3.190   0.358  12.373  0.2356 -0.4426  1.7723
  152TMC2    C7 2372   3.105   0.349  12.652  0.0754 -0.3390 -0.3575
  152TMC2    C8 2373   3.037   0.305  12.171 -0.3098  0.1483 -0.6067
  152TMC2    O1 2374   3.057   0.281  12.737 -0.2092  0.5110 -0.5569
  152TMC2    O2 2375   2.964   0.300  12.073 -0.3106 -0.5086  0.2928
  152TMC2    O5 2376   3.145   0.229  12.182 -0.7427  0.4506 -0.6647
  152TMC2    H5 2377   3.184   0.224  12.271  0.5496 -2.1004 -1.3835
  153MPD2     C 2378   2.472   0.454  12.732 -0.1804 -0.0615  0.4091
  153MPD2    C1 2379   2.498   0.397  12.612 -0.0464  0.2913  0.0550
  153MPD2    C2 2380   2.385   0.349  12.533 -0.0957  0.1721 -0.1553
  153MPD2    C3 2381   2.252   0.350  12.581  0.9642  0.6191 -0.1949
  153MPD2    C4 2382   2.239   0.390  12.715 -0.9712 -0.3430 -0.3248
  153MPD2    C5 2383   2.340   0.454  12.778 -0.0389 -0.1210  0.4444
  153MPD2     H 2384   2.398   0.323  12.428 -0.9974 -1.9385  0.2419
  153MPD2    H1 2385   2.142   0.388  12.763 -0.4198 -1.3707  0.7410
  153MPD2    H2 2386   2.555   0.486  12.795  0.2328  1.2907 -0.8276
  153MPD2    H3 2387   2.326   0.493  12.879 -2.3813  2.4866 -0.8764
  153MPD2     N 2388   2.144   0.299  12.505  0.2309 -0.0329  0.3065
  153MPD2    H5 2389   2.175   0.251  12.421  0.4241  1.4214 -0.4514
  153MPD2    N1 2390   2.636   0.401  12.565 -0.0256 -0.3019 -0.0554
  153MPD2    H7 2391   2.705   0.438  12.629  0.5918 -1.9528  0.2223
  154TMC2    C1 2392   4.465   1.393   0.481 -0.4585  0.5615  0.4722
  154TMC2    C2 2393   4.477   1.475   0.592 -0.3558  0.1889 -0.6734
  154TMC2    C3 2394   4.603   1.475   0.651  0.7802 -0.5040 -0.0840
  154TMC2    C4 2395   4.569   1.321   0.436 -0.3834  0.2812  0.5648
  154TMC2    C5 2396   4.691   1.326   0.491  0.1505 -0.0384  0.1443
  154TMC2    C6 2397   4.709   1.409   0.601 -0.8188 -0.1825 -0.0736
  154TMC2     C 2398   4.332   1.392   0.412 -0.2726 -0.0293 -0.3063
  154TMC2     O 2399   4.245   1.448   0.478  0.4293  0.6316 -0.2426
  154TMC2     H 2400   4.389   1.500   0.651 -0.5378 -2.1811  0.0451
  154TMC2    H1 2401   4.542   1.258   0.351  0.3061 -0.0210  0.5730
  154TMC2    H2 2402   0.071   1.422   0.634 -0.3203  1.6531 -2.3639
  154TMC2    C7 2403   0.061   1.234   0.460 -0.1157 -0.0715 -0.3938
  154TMC2    C8 2404   4.627   1.556   0.768 -0.5865  0.1261 -0.0263
  154TMC2    O1 2405   0.178   1.247   0.508 -0.0295 -0.3253  0.4111
  154TMC2    O2 2406   4.736   1.565   0.818 -0.3707  0.3083 -0.2992
  154TMC2    O5 2407   4.525   1.642   0.784 -0.8314  0.4177 -0.2350
  154TMC2    H5 2408   4.465   1.665   0.710 -1.6018 -2.9624 -0.6483
  155MPD2     C 2409   4.260   1.317   0.062  0.2372  0.9235 -0.1284
  155MPD2    C1 2410   4.225   1.347   0.193 -0.3102  0.1799 -0.3774
  155MPD2    C2 2411   4.094   1.354   0.235  0.4192 -0.8707  0.1043
  155MPD2    C3 2412   3.993   1.336   0.141  0.4054  0.3862  0.2120
  155MPD2    C4 2413   4.031   1.309   0.011  0.1953 -0.3798  0.2207
  155MPD2    C5 2414   4.164   1.305  17.728  0.5527  0.7341  0.5221
  155MPD2     H 2415   4.074   1.372   0.340 -0.5766 -0.5422 -0.1394
  155MPD2    H1 2416   3.954   1.303  17.693  0.4111 -1.1126  0.0649
  155MPD2    H2 2417   4.360   1.291   0.028 -0.7707 -0.0064 -2.4039
  155MPD2    H3 2418   4.188   1.283  17.625  1.5849  1.0485  0.6941
  155MPD2     N 2419   3.849   1.338   0.164  0.1892  0.1880 -0.2901
  155MPD2    H5 2420   3.789   1.297   0.094  0.8800 -0.8513 -0.2764
  155MPD2    N1 2421   4.339   1.346   0.285  0.5591  0.1956 -0.0297
  155MPD2    H7 2422   4.429   1.331   0.240  1.6470  1.4956  1.6972
  156TMC2    C1 2423   2.792   2.684  12.685 -0.2527 -0.2969 -0.1274
  156TMC2    C2 2424   2.768   2.555  12.719 -0.0956  0.3172 -0.3886
  156TMC2    C3 2425   2.764   2.469  12.617 -0.1184  0.2732 -0.5776
  156TMC2    C4 2426   2.811   2.721  12.561  0.1346 -0.1730 -0.5991
  156TMC2    C5 2427   2.777   2.645  12.461  0.1585  0.1190 -0.7665
  156TMC2    C6 2428   2.771   2.508  12.485  0.2757 -0.3042 -0.3994
  156TMC2     C 2429   2.809   2.791  12.780  0.8339  0.7148  0.6121
  156TMC2     O 2430   2.784   2.904  12.747 -0.0857 -0.5728 -0.3185
  156TMC2     H 2431   2.742   2.520  12.818  0.1131  1.3763  0.0442
  156TMC2    H1 2432   2.843   2.822  12.536 -0.6463  0.4147  0.8088
  156TMC2    H2 2433   2.737   2.439  12.408  0.1853  0.6960 -1.2541
  156TMC2    C7 2434   2.786   2.696  12.326  0.7470  0.2649 -0.3395
  156TMC2    C8 2435   2.747   2.328  12.642  0.1555  0.2161  0.6520
  156TMC2    O1 2436   2.825   2.815  12.321 -0.4464 -0.6675  0.4253
  156TMC2    O2 2437   2.679   2.278  12.734  0.1441 -0.7975  0.3673
  156TMC2    O5 2438   2.824   2.270  12.546 -0.4573  0.2177 -0.3238
  156TMC2    H5 2439   2.900   2.319  12.508  0.4747 -0.8947  0.0688
  157MPD2     C 2440   2.891   2.743  13.142  0.1030 -0.0560 -0.2192
  157MPD2    C1 2441   2.850   2.813  13.025 -0.0148 -0.0896 -0.5061
  157MPD2    C2 2442   2.846   2.952  13.051  0.3043 -0.2652 -0.1963
  157MPD2    C3 2443   2.879   3.011  13.172  0.3932  0.1098 -0.1644
  157MPD2    C4 2444   2.903   2.931  13.280 -0.9677  0.0131 -0.1790
  157MPD2    C5 2445   2.907   2.794  13.265 -0.4106 -0.3457 -0.8398
  157MPD2     H 2446   2.827   3.019  12.967  0.2755 -0.1913 -0.1306
  157MPD2    H1 2447   2.919   2.971  13.379  1.2643  0.5403 -0.7681
  157MPD2    H2 2448   2.901   2.637  13.125  0.5260  0.1062 -0.9996
  157MPD2    H3 2449   2.931   2.730  13.350  1.4227  0.5914 -0.6474
  157MPD2     N 2450   2.880   3.152  13.170  0.0095 -0.5524  0.0831
  157MPD2    H5 2451   2.853   3.199  13.084  0.1806 -1.1799 -0.3170
  157MPD2    N1 2452   2.828   2.742  12.905  1.2321  0.4678  0.0427
  157MPD2    H7 2453   2.851   2.644  12.912  0.0683  0.2601  0.9165
  158TMC2    C1 2454   3.556   1.390  13.549 -0.5234 -0.3567 -0.3128
  158TMC2    C2 2455   3.615   1.511  13.526 -0.0492  0.2173 -0.6461
  158TMC2    C3 2456   3.531   1.609  13.476 -0.1112 -0.4497  0.3256
  158TMC2    C4 2457   3.426   1.368  13.542  0.4717 -0.2246 -0.6778
  158TMC2    C5 2458   3.347   1.475  13.497  0.0725 -0.3080  0.3401
  158TMC2    C6 2459   3.391   1.598  13.464 -0.0923 -0.1323  1.3837
  158TMC2     C 2460   3.642   1.298  13.615 -0.0647  0.6510 -0.4081
  158TMC2     O 2461   3.757   1.290  13.571 -0.0445 -0.7738 -0.4438
  158TMC2     H 2462   3.721   1.533  13.529 -0.2361  0.6083  2.3393
  158TMC2    H1 2463   3.392   1.266  13.558 -1.9744  0.6127 -0.5998
  158TMC2    H2 2464   3.328   1.686  13.457  0.5456  0.3565  1.7938
  158TMC2    C7 2465   3.202   1.457  13.483  0.2591 -0.2107  1.0616
  158TMC2    C8 2466   3.586   1.743  13.445  0.1424 -0.5674 -0.2738
  158TMC2    O1 2467   3.145   1.549  13.421  0.2323  0.5607 -0.0991
  158TMC2    O2 2468   3.531   1.829  13.377  0.4391 -0.2573  0.3168
  158TMC2    O5 2469   3.664   1.774  13.558  0.8773  0.0143  0.1173
  158TMC2    H5 2470   3.662   1.695  13.616 -2.5885  0.1699  0.1696
  159MPD2     C 2471   3.813   1.065  14.037  0.2953  0.0699 -0.1275
  159MPD2    C1 2472   3.680   1.095  14.054  0.4388 -0.5093  0.9811
  159MPD2    C2 2473   3.613   1.154  13.946 -0.1097 -0.2730 -0.1265
  159MPD2    C3 2474   3.669   1.177  13.824 -0.0182 -0.8201  0.1545
  159MPD2    C4 2475   3.801   1.145  13.818  0.1137 -0.2558 -0.4921
  159MPD2    C5 2476   3.871   1.086  13.917 -0.3752 -0.1844  0.0076
  159MPD2     H 2477   3.510   1.188  13.957  0.4261  1.3507 -0.0800
  159MPD2    H1 2478   3.859   1.160  13.727  0.8088  1.9379  0.3019
  159MPD2    H2 2479   3.872   1.020  14.116  0.2922 -1.7742 -1.1679
  159MPD2    H3 2480   3.969   1.045  13.895  0.0356 -0.3645  2.1311
  159MPD2     N 2481   3.590   1.248  13.728  0.1004 -0.1697  0.1221
  159MPD2    H5 2482   3.495   1.265  13.760  0.4792 -0.2396  1.2920
  159MPD2    N1 2483   3.624   1.085  14.182 -0.2326 -0.5025 -0.0496
  159MPD2    H7 2484   3.689   1.063  14.256 -0.5262  2.4340  1.1113
  160TMC2    C1 2485   2.774   4.372   1.725 -0.6340  0.5683  0.0347
  160TMC2    C2 2486   2.703   4.285   1.800  0.2737 -0.1640 -0.2244
  160TMC2    C3 2487   2.760   4.166   1.837 -0.5589 -0.0811  0.3124
  160TMC2    C4 2488   2.907   4.348   1.700  0.0444 -0.0447 -0.1497
  160TMC2    C5 2489   2.960   4.219   1.727 -0.1097  0.1287  0.8294
  160TMC2    C6 2490   2.891   4.135   1.810  0.4629  0.3184 -0.4281
  160TMC2     C 2491   2.724   4.503   1.703  0.9740 -0.0521  0.1663
  160TMC2     O 2492   2.632   4.539   1.775  0.2676 -0.4159  0.1681
  160TMC2     H 2493   2.599   4.306   1.823  0.2902  2.0630 -2.1509
  160TMC2    H1 2494   2.969   4.418   1.645 -0.8013  1.5330  0.9417
  160TMC2    H2 2495   2.944   4.049   1.850  0.8296  1.6266  1.8934
  160TMC2    C7 2496   3.105   4.201   1.719  0.5542 -0.6305 -0.0212
  160TMC2    C8 2497   2.690   4.075   1.920 -0.0028 -0.7551 -0.2059
  160TMC2    O1 2498   3.159   4.116   1.790  0.4024  0.3502  0.3978
  160TMC2    O2 2499   2.710   3.953   1.932  0.5349 -0.0090 -0.3397
  160TMC2    O5 2500   2.658   4.153   2.032  0.0826 -0.4514 -0.1183
  160TMC2    H5 2501   2.667   4.249   2.015  0.3419 -0.1223  1.8171
  161MPD2     C 2502   2.660   0.052   1.609  0.1083  0.1633  0.9539
  161MPD2    C1 2503   2.728   4.691   1.532  0.7039 -0.3827 -0.0776
  161MPD2    C2 2504   2.749   4.703   1.398 -0.6624  0.1018  0.4068
  161MPD2    C3 2505   2.694   0.076   1.331  0.6723 -0.5310  0.1313
  161MPD2    C4 2506   2.630   0.167   1.405  0.5846  0.3019 -0.3704
  161MPD2    C5 2507   2.617   0.160   1.540 -0.7593 -0.1325 -0.2537
  161MPD2     H 2508   2.790   4.619   1.343 -1.2072 -0.2946  0.6086
  161MPD2    H1 2509   2.595   0.257   1.356 -2.5281  0.4658  2.1789
  161MPD2    H2 2510   2.648   0.038   1.716  2.0619 -0.5793  1.0836
  161MPD2    H3 2511   2.563   0.242   1.587 -0.7363  0.6238 -1.5368
  161MPD2     N 2512   2.699   0.099   1.191 -0.6552 -0.5050  0.3096
  161MPD2    H5 2513   2.651   0.180   1.154 -1.6657 -1.3475 -0.2045
  161MPD2    N1 2514   2.772   4.563   1.588 -0.7109 -0.0487  0.3588
  161MPD2    H7 2515   2.829   4.504   1.528 -1.0197 -0.3371  0.3459
  162TMC2    C1 2516   0.686   1.494   1.127  0.1896  0.2766  0.4657
  162TMC2    C2 2517   0.680   1.632   1.141 -0.3608  0.3707  0.0603
  162TMC2    C3 2518   0.721   1.685   1.262  0.2400 -0.5056  0.2907
  162TMC2    C4 2519   0.744   1.412   1.222 -0.0884  0.0940  0.2784
  162TMC2    C5 2520   0.785   1.474   1.343  0.7475  0.8622  0.9465
  162TMC2    C6 2521   0.773   1.607   1.368 -0.7351  0.0466  0.2880
  162TMC2     C 2522   0.690   1.425   0.996 -0.0711 -1.0344  0.6981
  162TMC2     O 2523   0.751   1.321   0.982  0.4837 -0.0911  0.0130
  162TMC2     H 2524   0.628   1.696   1.070 -0.6415 -0.8087 -0.8032
  162TMC2    H1 2525   0.753   1.305   1.205  0.1018 -0.3715  3.2504
  162TMC2    H2 2526   0.809   1.647   1.462 -1.3604  1.2631  0.0141
  162TMC2    C7 2527   0.869   1.404   1.434  0.0609 -0.7623 -0.2862
  162TMC2    C8 2528   0.749   1.825   1.258  0.6827 -0.5184 -0.5632
  162TMC2    O1 2529   0.874   1.447   1.546  0.0591  0.0498 -0.4024
  162TMC2    O2 2530   0.759   1.888   1.157 -0.3263  0.0779  0.7129
  162TMC2    O5 2531   0.715   1.876   1.381 -0.8504  0.8744 -0.6645
  162TMC2    H5 2532   0.690   1.808   1.447 -0.6733  2.9965  1.5802
  163MPD2     C 2533   0.591   1.439   0.488 -0.3511 -0.1436  0.6156
  163MPD2    C1 2534   0.675   1.353   0.559 -0.0245 -0.1769  0.1350
  163MPD2    C2 2535   0.680   1.365   0.698  0.0857 -0.8261  0.4326
  163MPD2    C3 2536   0.606   1.470   0.763 -0.1513  0.7579 -1.3402
  163MPD2    C4 2537   0.541   1.567   0.687 -0.5222  0.0256 -0.0015
  163MPD2    C5 2538   0.536   1.549   0.551 -0.2916 -0.1898  0.1740
  163MPD2     H 2539   0.738   1.298   0.760 -0.5841 -0.4153  1.5064
  163MPD2    H1 2540   0.479   1.638   0.741 -0.6080 -0.0992  0.0653
  163MPD2    H2 2541   0.586   1.419   0.381 -1.3084 -0.2722  0.6830
  163MPD2    H3 2542   0.486   1.617   0.482  3.3229  1.2282 -1.0391
  163MPD2     N 2543   0.620   1.497   0.899  0.3581  0.7673  0.0085
  163MPD2    H5 2544   0.567   1.580   0.923  0.0267  0.3187  0.8335
  163MPD2    N1 2545   0.746   1.253   0.489  0.3111 -0.5716 -0.2318
  163MPD2    H7 2546   0.718   1.255   0.392  1.1320  0.5524 -0.4412
  164TMC2    C1 2547   1.592   1.656  10.770  0.1310  0.1934  0.3608
  164TMC2    C2 2548   1.663   1.763  10.812 -1.2748  0.5229 -0.3942
  164TMC2    C3 2549   1.618   1.825  10.922  0.9412 -0.0107  0.3496
  164TMC2    C4 2550   1.477   1.621  10.827  0.4496 -0.5269  0.2994
  164TMC2    C5 2551   1.435   1.683  10.944  0.0389  0.4385 -0.2458
  164TMC2    C6 2552   1.504   1.792  10.993  0.1631 -0.3157  0.2009
  164TMC2     C 2553   1.636   1.614  10.632 -0.2765 -1.0696  0.1538
  164TMC2     O 2554   1.718   1.686  10.580  0.5175 -0.4189  0.2779
  164TMC2     H 2555   1.758   1.792  10.768 -2.0884  1.4630 -1.5605
  164TMC2    H1 2556   1.419   1.543  10.778 -1.6219  0.5511  1.0572
  164TMC2    H2 2557   1.473   1.855  11.075  2.7020 -0.9952  1.6885
  164TMC2    C7 2558   1.297   1.659  10.983  0.0997  0.2373 -0.0503
  164TMC2    C8 2559   1.662   1.954  10.954  0.4876  0.4588 -0.8117
  164TMC2    O1 2560   1.226   1.600  10.903 -0.2157 -0.3374  0.3068
  164TMC2    O2 2561   1.718   1.974  11.061  0.3584  0.4105 -0.4219
  164TMC2    O5 2562   1.690   2.020  10.838 -0.0249 -0.0176 -0.0231
  164TMC2    H5 2563   1.629   2.004  10.763  1.8830 -0.9920 -1.3474
  165TMC2    C1 2564   2.256   4.333   1.316  0.9138 -0.1135 -0.2794
  165TMC2    C2 2565   2.255   4.466   1.329  0.7520  0.1008  0.0673
  165TMC2    C3 2566   2.373   4.533   1.346 -0.0561  0.2486  0.0030
  165TMC2    C4 2567   2.369   4.251   1.336 -0.0684 -0.2057  0.3715
  165TMC2    C5 2568   2.482   4.325   1.376 -0.1690 -0.2962 -0.1299
  165TMC2    C6 2569   2.483   4.461   1.376 -0.6858 -0.2983 -0.3181
  165TMC2     C 2570   2.137   4.252   1.289 -0.0596 -0.1333 -0.2257
  165TMC2     O 2571   2.135   4.135   1.315 -0.3614 -0.1184 -1.0837
  165TMC2     H 2572   2.165   4.523   1.313 -0.1260 -0.3031  3.6897
  165TMC2    H1 2573   2.383   4.145   1.315 -1.9927 -0.1363 -1.2432
  165TMC2    H2 2574   2.570   4.517   1.406  0.0495 -0.6242 -1.8499
  165TMC2    C7 2575   2.610   4.260   1.392 -0.3836  0.5604 -0.8627
  165TMC2    C8 2576   2.360   4.660   1.409 -0.6341 -0.3525 -0.3801
  165TMC2    O1 2577   2.707   4.307   1.338  0.2145 -0.2780 -0.1974
  165TMC2    O2 2578   2.341   0.027   1.351  0.0094  0.0530 -0.4159
  165TMC2    O5 2579   2.298   4.630   1.530 -0.7532  0.7443  0.6724
  165TMC2    H5 2580   2.311   4.541   1.569 -1.6241  0.5300  0.4792
  166MPD2     C 2581   1.764   4.183   0.953  0.5328  0.6309  0.1546
  166MPD2    C1 2582   1.843   4.085   1.010  0.1701 -0.6129  0.4028
  166MPD2    C2 2583   1.943   4.126   1.102  0.0729  0.5248 -0.3105
  166MPD2    C3 2584   1.962   4.263   1.124  0.4256  0.4654 -0.1666
  166MPD2    C4 2585   1.866   4.353   1.078  0.3046  0.6111  0.5996
  166MPD2    C5 2586   1.772   4.311   0.996  0.8514  0.2879 -0.1855
  166MPD2     H 2587   2.018   4.053   1.129 -1.8140 -2.3148 -2.7481
  166MPD2    H1 2588   1.877   4.458   1.102  0.9659  0.8113 -0.5434
  166MPD2    H2 2589   1.694   4.158   0.874 -0.9175  1.7700  1.0694
  166MPD2    H3 2590   1.699   4.379   0.953 -0.2697 -2.0274 -1.9525
  166MPD2     N 2591   2.057   4.322   1.207  0.3369  0.5177  0.9844
  166MPD2    H5 2592   2.069   4.422   1.214  0.6605  0.5927 -0.7415
  166MPD2    N1 2593   1.805   3.956   0.974 -0.4003 -0.3675  0.1656
  166MPD2    H7 2594   1.724   3.942   0.915 -0.2989 -0.4195  0.0393
  167TMC2    C1 2595   0.946   0.995  12.852  0.3088 -0.5722  0.4866
  167TMC2    C2 2596   0.858   1.028  12.953  0.3232 -0.1175 -0.3410
  167TMC2    C3 2597   0.805   0.931  13.038 -0.4718  0.2573  0.3691
  167TMC2    C4 2598   0.968   0.868  12.824 -0.2893  0.0788 -0.0523
  167TMC2    C5 2599   0.906   0.769  12.902  0.1402 -0.0546 -0.2756
  167TMC2    C6 2600   0.826   0.792  13.012  0.5683  0.3799 -0.8563
  167TMC2     C 2601   1.009   1.103  12.775 -0.4967  0.9317  0.5161
  167TMC2     O 2602   1.024   1.211  12.826 -0.7476 -0.3366  0.5865
  167TMC2     H 2603   0.850   1.132  12.983  0.3819 -0.4351  0.7896
  167TMC2    H1 2604   1.049   0.832  12.761 -0.3060 -0.8998  0.4807
  167TMC2    H2 2605   0.790   0.720  13.084 -2.2162  1.8211 -0.8173
  167TMC2    C7 2606   0.925   0.625  12.871 -0.3576  0.1126  0.1548
  167TMC2    C8 2607   0.828   0.959  13.175  0.2952 -0.9943 -0.5754
  167TMC2    O1 2608   0.884   0.540  12.952 -0.1786  0.0817  0.5069
  167TMC2    O2 2609   0.898   0.880  13.241 -0.1721  0.7180 -0.0654
  167TMC2    O5 2610   0.756   1.059  13.225  0.3642  0.0797  0.4171
  167TMC2    H5 2611   0.703   1.112  13.162  0.7732  0.8257  0.7104
  168MPD2     C 2612   1.161   1.236  12.532  0.3204 -0.8608 -0.3364
  168MPD2    C1 2613   1.105   1.107  12.543 -0.9069  0.5251  0.7479
  168MPD2    C2 2614   1.117   1.017  12.437  0.3631  0.1626  0.0860
  168MPD2    C3 2615   1.167   1.057  12.318  0.3623  0.2228  0.1385
  168MPD2    C4 2616   1.221   1.183  12.299  0.9940 -0.4924 -0.1295
  168MPD2    C5 2617   1.213   1.266  12.407 -0.4913 -0.0838  0.2920
  168MPD2     H 2618   1.087   0.913  12.441 -0.9334  0.5059 -0.8634
  168MPD2    H1 2619   1.256   1.232  12.209 -0.5440 -1.1377 -1.0618
  168MPD2    H2 2620   1.162   1.311  12.610 -0.3271  0.3462 -1.4990
  168MPD2    H3 2621   1.256   1.366  12.412 -2.4948  0.9378 -3.0292
  168MPD2     N 2622   1.173   0.957  12.216  0.0995 -0.3667 -0.4941
  168MPD2    H5 2623   1.136   0.865  12.236  2.5290 -1.0665  0.7663
  168MPD2    N1 2624   1.042   1.041  12.651 -0.6347  0.5858  0.2644
  168MPD2    H7 2625   0.999   0.952  12.626  0.2270  0.3040 -0.2184
  169MPD1     C 2626   3.131   3.685   9.469 -0.1791  0.2601  0.8369
  169MPD1    C1 2627   3.244   3.691   9.549  0.0304 -0.5039  0.5138
  169MPD1    C2 2628   3.275   3.813   9.608  0.3409 -0.4385  0.1799
  169MPD1    C3 2629   3.186   3.921   9.611  0.6819 -0.1118 -0.5597
  169MPD1    C4 2630   3.076   3.911   9.536 -0.6425 -0.1197  0.1873
  169MPD1    C5 2631   3.047   3.794   9.463  0.3879 -0.4316  1.4137
  169MPD1     H 2632   3.365   3.829   9.667  0.0800 -0.1252  0.4892
  169MPD1    H1 2633   3.010   3.995   9.515  0.4974  0.9162  0.7876
  169MPD1    H2 2634   3.100   3.595   9.419 -1.4186  1.8608 -1.2754
  169MPD1    H3 2635   2.970   3.785   9.388  0.8482 -2.3550  1.1773
  169MPD1     N 2636   3.234   4.041   9.680 -0.2312  0.2000  0.0302
  169MPD1    H5 2637   3.324   4.050   9.726  0.6551 -0.3297 -1.6213
  169MPD1    N1 2638   3.339   3.585   9.545  0.0471  0.1940 -0.0570
  169MPD1    H6 2639   3.371   3.561   9.639 -1.4328  0.1757  0.4407
  169MPD1    H7 2640   3.285   3.505   9.513  1.8447 -1.0316 -0.0188
  170MPD1     C 2641   2.291   3.208  12.919  0.6281 -0.0828 -0.6498
  170MPD1    C1 2642   2.298   3.128  13.029  0.0581  0.4658 -0.3515
  170MPD1    C2 2643   2.202   3.163  13.122  0.2038  0.1195  0.7094
  170MPD1    C3 2644   2.093   3.237  13.099 -0.4050  0.2580  0.5521
  170MPD1    C4 2645   2.077   3.294  12.974  0.2039 -0.2363  0.1312
  170MPD1    C5 2646   2.181   3.284  12.881  0.2237  0.4781 -0.2601
  170MPD1     H 2647   2.221   3.110  13.214  2.5759 -2.3604 -1.2207
  170MPD1    H1 2648   1.987   3.339  12.936 -0.9784 -2.5861  0.1776
  170MPD1    H2 2649   2.370   3.201  12.844  0.5256  1.1598 -0.8687
  170MPD1    H3 2650   2.181   3.344  12.791 -0.8325 -0.2408 -0.7475
  170MPD1     N 2651   1.997   3.244  13.203 -0.2376  0.3025 -0.0556
  170MPD1    H5 2652   2.019   3.189  13.285  0.7890 -1.9682 -1.8781
  170MPD1    N1 2653   2.412   3.059  13.069 -0.3374 -0.1121 -0.2035
  170MPD1    H6 2654   2.408   2.994  13.147 -1.5237  1.1387  0.7754
  170MPD1    H7 2655   2.457   3.020  12.986 -1.2416  0.7724 -1.1073
  171MPD1     C 2656   0.135   4.503  15.483  0.2499  0.5492 -0.0964
  171MPD1    C1 2657   0.118   4.375  15.421  0.0754  0.0110 -0.1950
  171MPD1    C2 2658   0.129   4.265  15.508 -0.1760  0.9858  0.0099
  171MPD1    C3 2659   0.164   4.278  15.644  0.1277 -0.2104 -0.1399
  171MPD1    C4 2660   0.189   4.405  15.698 -0.0741 -0.0798  0.1008
  171MPD1    C5 2661   0.178   4.515  15.614 -0.4947  0.8286 -0.3517
  171MPD1     H 2662   0.106   4.167  15.469  1.0890  0.1482  1.3634
  171MPD1    H1 2663   0.219   4.420  15.801 -0.8821  1.6913  0.0665
  171MPD1    H2 2664   0.138   4.599  15.432 -1.4568  1.2169  1.0551
  171MPD1    H3 2665   0.190   4.617  15.649 -0.5385 -0.0520  2.2342
  171MPD1     N 2666   0.200   4.171  15.729  0.0729 -0.0268 -0.8392
  171MPD1    H5 2667   0.252   4.202  15.810 -1.0283 -0.1967 -0.0793
  171MPD1    N1 2668   0.085   4.368  15.290  0.5444  0.4021 -0.5854
  171MPD1    H6 2669   0.129   4.439  15.232  0.7924  0.6678 -0.0723
  171MPD1    H7 2670   0.103   4.274  15.254 -1.2874  0.0619 -0.6009
  172MPD1     C 2671   4.190   2.760   0.125  0.0583 -0.3006  0.2615
  172MPD1    C1 2672   4.186   2.870   0.054  0.1530 -0.1043  0.2668
  172MPD1    C2 2673   4.239   2.994   0.094 -0.2811  0.5969 -0.0980
  172MPD1    C3 2674   4.317   2.995   0.209 -0.2568  0.6485 -1.0080
  172MPD1    C4 2675   4.326   2.879   0.283  0.5470 -0.2874  0.3037
  172MPD1    C5 2676   4.261   2.766   0.239 -0.1853  0.5122 -0.2855
  172MPD1     H 2677   4.237   3.081   0.029 -0.2428 -0.9156 -2.1167
  172MPD1    H1 2678   4.399   2.858   0.361 -0.2485  2.3278  1.7401
  172MPD1    H2 2679   4.139   2.669   0.096 -1.2812  0.6280 -0.2921
  172MPD1    H3 2680   4.272   2.676   0.297  0.8169  0.3564 -0.7149
  172MPD1     N 2681   4.378   3.108   0.270 -0.1841 -0.3980  0.5366
  172MPD1    H5 2682   4.433   3.081   0.350  0.0849 -0.5778  0.2905
  172MPD1    N1 2683   4.086   2.865  17.706  0.1419  0.1176  0.7486
  172MPD1    H6 2684   4.091   2.925  17.624  0.8352 -0.5594  0.2937
  172MPD1    H7 2685   4.059   2.770  17.684  2.2358 -0.3298  0.1227
  173MPD1     C 2686   0.801   4.060  13.738 -0.1491  0.0643 -0.2583
  173MPD1    C1 2687   0.699   4.051  13.823  0.6174  0.4890 -0.4589
  173MPD1    C2 2688   0.714   3.947  13.915 -0.4790  0.0506  0.7962
  173MPD1    C3 2689   0.826   3.868  13.922 -0.1509  0.1731 -0.2136
  173MPD1    C4 2690   0.937   3.906  13.848 -0.1207 -0.4007 -0.8521
  173MPD1    C5 2691   0.924   3.997  13.750  0.1546 -0.5287 -1.0766
  173MPD1     H 2692   0.628   3.913  13.972 -1.2658 -2.1357 -1.6938
  173MPD1    H1 2693   1.033   3.856  13.853 -1.7098 -3.3851 -0.4104
  173MPD1    H2 2694   0.788   4.134  13.660 -0.6359 -0.1042 -0.3363
  173MPD1    H3 2695   0.999   4.025  13.677  0.3207 -2.6842 -1.7342
  173MPD1     N 2696   0.823   3.757  14.012  0.3738  0.7139  0.0337
  173MPD1    H5 2697   0.743   3.748  14.074  0.5868 -1.3585 -0.0040
  173MPD1    N1 2698   0.577   4.121  13.796  0.0048 -0.2292 -0.3685
  173MPD1    H6 2699   0.603   4.206  13.748 -0.9149  0.9232  1.1882
  173MPD1    H7 2700   0.522   4.140  13.879 -0.1315  0.9901 -0.7456
  174MPD1     C 2701   1.475   3.020  13.920  0.1474 -0.2338  0.0944
  174MPD1    C1 2702   1.417   2.995  14.044  0.1687  0.2022 -0.8258
  174MPD1    C2 2703   1.305   3.068  14.084 -0.4603  0.5837 -0.4947
  174MPD1    C3 2704   1.262   3.176  14.008  0.1493 -0.0010 -0.3612
  174MPD1    C4 2705   1.315   3.203  13.882 -0.0075 -0.2014  0.4552
  174MPD1    C5 2706   1.412   3.114  13.839  0.0073 -0.3566  0.1394
  174MPD1     H 2707   1.266   3.046  14.183 -1.8045  1.5655 -0.8019
  174MPD1    H1 2708   1.283   3.280  13.813  0.4434  1.4544  2.0863
  174MPD1    H2 2709   1.559   2.970  13.872 -2.5420 -1.7023 -3.1109
  174MPD1    H3 2710   1.447   3.129  13.738  0.7695 -1.8810  0.1780
  174MPD1     N 2711   1.151   3.257  14.042 -0.6984  0.0178 -0.5625
  174MPD1    H5 2712   1.131   3.338  13.985 -0.2406  0.0605 -0.6621
  174MPD1    N1 2713   1.458   2.879  14.112  0.2770 -0.6948 -0.2524
  174MPD1    H6 2714   1.477   2.904  14.208 -2.7077 -2.4063  0.7795
  174MPD1    H7 2715   1.543   2.838  14.073  0.6455 -0.0581 -0.1090
  175MPD1     C 2716   4.226   4.466  15.424  0.2178  0.4761  0.2917
  175MPD1    C1 2717   4.106   4.537  15.445  0.0488 -0.3184  0.5542
  175MPD1    C2 2718   4.037   4.508  15.562 -0.2111 -0.3141 -0.1477
  175MPD1    C3 2719   4.092   4.421  15.656  0.9348  0.0201  0.3116
  175MPD1    C4 2720   4.204   4.352  15.629 -0.0538 -0.1560 -0.8535
  175MPD1    C5 2721   4.274   4.378  15.514  0.4074  0.1777  0.8066
  175MPD1     H 2722   3.951   4.571  15.581  0.3791  0.9150 -1.5540
  175MPD1    H1 2723   4.242   4.281  15.702  0.6960 -0.0386 -1.1334
  175MPD1    H2 2724   4.291   4.481  15.339  1.8278  2.6690  1.8974
  175MPD1    H3 2725   4.368   4.332  15.486  0.4370 -0.6434  2.2550
  175MPD1     N 2726   4.036   4.397  15.779  0.1637  0.2895 -0.6200
  175MPD1    H5 2727   4.067   4.318  15.834  0.5715  1.4324  0.8133
  175MPD1    N1 2728   4.058   4.631  15.352  0.0724 -0.5601 -0.3501
  175MPD1    H6 2729   4.015   4.710  15.401 -0.0643  0.4160 -2.0379
  175MPD1    H7 2730   4.135   4.663  15.295 -0.7575  2.9700  0.5011
  176MPD1     C 2731   0.765   1.880   0.767  0.1804  0.0493 -0.4963
  176MPD1    C1 2732   0.826   1.994   0.811  0.4886  0.2678 -0.4492
  176MPD1    C2 2733   0.890   2.082   0.722  0.6195  0.0388 -0.1628
  176MPD1    C3 2734   0.880   2.061   0.586 -0.1930  0.1820  0.1141
  176MPD1    C4 2735   0.809   1.950   0.547  0.4424 -0.5545  0.1672
  176MPD1    C5 2736   0.758   1.857   0.634 -0.4003  0.3649  0.5632
  176MPD1     H 2737   0.952   2.164   0.758  1.5777 -0.8195  0.1457
  176MPD1    H1 2738   0.799   1.924   0.443  3.5424 -0.8809 -0.0417
  176MPD1    H2 2739   0.709   1.812   0.832  1.2064  0.8666  1.2375
  176MPD1    H3 2740   0.711   1.765   0.602 -0.0719  1.1195 -2.0447
  176MPD1     N 2741   0.948   2.144   0.495  0.0974 -0.3065 -0.0404
  176MPD1    H5 2742   0.988   2.229   0.535  1.2603 -0.5982 -0.5804
  176MPD1    N1 2743   0.808   2.031   0.944 -0.3573  0.3179  0.0413
  176MPD1    H6 2744   0.802   1.948   1.002 -1.7446 -0.2827 -0.9720
  176MPD1    H7 2745   0.896   2.080   0.961  0.8405 -2.4480  1.8144
  177MPD1     C 2746   4.206   1.216  10.691  0.3128  0.4588  0.5837
  177MPD1    C1 2747   4.136   1.121  10.621 -0.9500  0.0370 -0.1188
  177MPD1    C2 2748   4.070   1.151  10.504 -0.9874  0.1134 -0.6294
  177MPD1    C3 2749   4.082   1.281  10.458  0.3762  0.2694 -0.0703
  177MPD1    C4 2750   4.143   1.382  10.538  0.2057  0.2792  0.4248
  177MPD1    C5 2751   4.209   1.344  10.650  0.4761  0.3624 -0.1299
  177MPD1     H 2752   4.019   1.085  10.435 -1.1814 -1.1295  0.7140
  177MPD1    H1 2753   4.141   1.489  10.523 -0.0076  0.0723 -1.0761
  177MPD1    H2 2754   4.260   1.187  10.780  0.6192  1.2625  0.6617
  177MPD1    H3 2755   4.268   1.420  10.701  1.1455 -2.3487  3.1260
  177MPD1     N 2756   4.020   1.318  10.337  0.1328  0.0702 -0.5827
  177MPD1    H5 2757   3.957   1.246  10.304 -1.7916  0.3223  2.4904
  177MPD1    N1 2758   4.140   0.987  10.674  0.5353  0.3996 -0.3198
  177MPD1    H6 2759   4.048   0.947  10.660 -0.0460  1.7062 -0.2528
  177MPD1    H7 2760   4.159   0.993  10.774  2.1812  0.3076 -0.6232
  178MPD1     C 2761   1.908   2.800  17.746  0.2176  0.1513 -1.0668
  178MPD1    C1 2762   1.988   2.723   0.067  0.3196 -0.1506  0.0876
  178MPD1    C2 2763   2.061   2.620   0.010 -0.7301 -0.7012  0.6516
  178MPD1    C3 2764   2.045   2.588  17.631  0.1795  0.1824  0.5958
  178MPD1    C4 2765   1.978   2.678  17.553  0.6370 -0.4072 -0.2842
  178MPD1    C5 2766   1.906   2.779  17.607 -0.1374  0.2021  0.6665
  178MPD1     H 2767   2.123   2.562   0.077  1.6915  1.2571  0.0957
  178MPD1    H1 2768   1.974   2.669  17.445 -0.1158  0.0532 -0.2949
  178MPD1    H2 2769   1.856   2.888   0.023 -1.0886 -1.2853  0.6309
  178MPD1    H3 2770   1.850   2.846  17.542  0.1416  0.6832  0.9186
  178MPD1     N 2771   2.091   2.471  17.565  0.1414 -0.0285 -0.3753
  178MPD1    H5 2772   2.068   2.463  17.466 -3.2314  1.9634  0.2284
  178MPD1    N1 2773   2.011   2.768   0.199 -0.8577 -0.2979  0.6286
  178MPD1    H6 2774   1.943   2.830   0.241 -1.0692  0.7630 -1.2953
  178MPD1    H7 2775   2.027   2.699   0.273  2.7458  0.5275  0.6393
  179MPD1     C 2776   0.889   0.988  15.764  0.4797  0.1161  0.2345
  179MPD1    C1 2777   0.793   0.910  15.705  0.5302  0.3475 -0.4228
  179MPD1    C2 2778   0.819   0.771  15.686  0.1478 -0.0190 -0.1766
  179MPD1    C3 2779   0.926   0.712  15.749 -0.0073  0.1396 -0.4295
  179MPD1    C4 2780   1.014   0.796  15.814  0.4794 -0.7412 -0.2049
  179MPD1    C5 2781   0.998   0.928  15.818  0.2051 -0.4243 -0.3908
  179MPD1     H 2782   0.749   0.715  15.625 -0.2337 -0.4364  0.6441
  179MPD1    H1 2783   1.104   0.775  15.870  0.8118  1.4016  0.0470
  179MPD1    H2 2784   0.880   1.096  15.774  1.4641  0.5020 -3.0833
  179MPD1    H3 2785   1.075   0.983  15.870 -1.1806 -0.4137  1.6210
  179MPD1     N 2786   0.957   0.577  15.740 -0.4083  0.3378 -1.0613
  179MPD1    H5 2787   1.052   0.555  15.771 -1.1952 -0.0247  1.0995
  179MPD1    N1 2788   0.685   0.968  15.637 -0.3884 -0.4016 -0.2214
  179MPD1    H6 2789   0.601   0.911  15.640 -0.3255 -0.5430 -1.0592
  179MPD1    H7 2790   0.667   1.064  15.667 -0.9445 -0.8176  0.7776
  180MPD1     C 2791   0.917   2.764  14.173 -0.2687  0.3667  0.9246
  180MPD1    C1 2792   1.051   2.717  14.171 -0.1377 -0.9729 -0.3605
  180MPD1    C2 2793   1.077   2.581  14.186 -0.0258 -0.2648  0.5128
  180MPD1    C3 2794   0.971   2.491  14.192  0.3194 -0.2571  0.7438
  180MPD1    C4 2795   0.838   2.542  14.182  0.4306  0.3494 -0.1919
  180MPD1    C5 2796   0.815   2.675  14.173 -0.4349 -0.1897  0.0532
  180MPD1     H 2797   1.177   2.539  14.193  0.7820  1.5327 -0.3284
  180MPD1    H1 2798   0.744   2.489  14.180  1.4984 -1.5676  0.9931
  180MPD1    H2 2799   0.891   2.868  14.157 -0.4588  0.1495 -0.1334
  180MPD1    H3 2800   0.710   2.704  14.180 -0.8289 -1.4208 -0.6976
  180MPD1     N 2801   1.002   2.348  14.174  0.3581  0.3040  0.7135
  180MPD1    H5 2802   1.099   2.322  14.193  0.5489 -0.6951 -1.7005
  180MPD1    N1 2803   1.147   2.817  14.169  0.5022  0.2441 -0.1597
  180MPD1    H6 2804   1.118   2.899  14.116  0.9263  0.1876 -0.4765
  180MPD1    H7 2805   1.230   2.778  14.125 -0.7741 -0.1102 -2.2550
  181MPD1     C 2806   4.439   3.824   9.714 -0.6103  0.9781  0.5018
  181MPD1    C1 2807   4.377   3.950   9.701 -0.0664  0.4734  0.1803
  181MPD1    C2 2808   4.253   3.967   9.759  0.5178  0.9061 -0.6021
  181MPD1    C3 2809   4.200   3.868   9.836  0.2199 -0.2095 -0.1119
  181MPD1    C4 2810   4.259   3.747   9.850  0.1023 -0.6814  0.7125
  181MPD1    C5 2811   4.374   3.721   9.778  0.0419  0.1390  0.0058
  181MPD1     H 2812   4.198   4.060   9.757  0.1030  0.7152  2.0009
  181MPD1    H1 2813   4.216   3.668   9.909  1.0387 -0.7396  1.3115
  181MPD1    H2 2814   4.538   3.800   9.676 -1.6869 -0.0143 -1.6688
  181MPD1    H3 2815   4.431   3.631   9.797 -0.3069 -0.1364 -0.2743
  181MPD1     N 2816   4.089   3.885   9.917  0.3443 -0.3977 -0.5369
  181MPD1    H5 2817   4.055   3.807   9.973 -1.8028  0.2544 -0.9382
  181MPD1    N1 2818   4.442   4.059   9.645 -0.1297 -0.1370 -0.4588
  181MPD1    H6 2819   4.498   4.036   9.563 -0.6172  0.4572 -0.9526
  181MPD1    H7 2820   4.371   4.129   9.624  1.6016  0.8039 -3.2367
  182MPD1     C 2821   3.388   3.711   1.652 -0.0627  0.0673 -0.6524
  182MPD1    C1 2822   3.484   3.645   1.579 -0.4950 -0.9757 -0.0122
  182MPD1    C2 2823   3.442   3.555   1.484 -0.5867 -0.6421  0.7885
  182MPD1    C3 2824   3.303   3.541   1.462 -0.1760  0.1282  0.4342
  182MPD1    C4 2825   3.215   3.615   1.540 -0.2596 -0.6396  0.0369
  182MPD1    C5 2826   3.255   3.700   1.634  0.5035  0.1029  0.4060
  182MPD1     H 2827   3.513   3.487   1.438  0.7368  0.4163  1.2665
  182MPD1    H1 2828   3.108   3.600   1.532 -0.2693  0.3962 -1.7084
  182MPD1    H2 2829   3.418   3.771   1.737 -0.1008 -2.5105  1.1692
  182MPD1    H3 2830   3.191   3.752   1.704  1.4151  1.2760  0.3613
  182MPD1     N 2831   3.241   3.448   1.373  0.0573  0.1913  0.4436
  182MPD1    H5 2832   3.142   3.464   1.361 -0.0450 -0.5544  0.3034
  182MPD1    N1 2833   3.618   3.646   1.618  0.2275 -0.1383  0.4321
  182MPD1    H6 2834   3.648   3.742   1.631 -0.9964  0.7682 -3.3770
  182MPD1    H7 2835   3.678   3.612   1.544  1.2067  0.4195  0.9689
  183MPD1     C 2836   0.029   3.348   9.465 -0.5003  0.0017  0.1062
  183MPD1    C1 2837   4.665   3.275   9.507 -0.2682  0.3570 -0.1731
  183MPD1    C2 2838   4.537   3.329   9.495  0.1501 -0.3085 -0.0939
  183MPD1    C3 2839   4.517   3.448   9.431  0.3596 -0.6800  0.2716
  183MPD1    C4 2840   4.624   3.514   9.378 -0.2111  0.0007 -1.2649
  183MPD1    C5 2841   0.010   3.460   9.392  0.7751  0.1537  0.4283
  183MPD1     H 2842   4.448   3.280   9.533  0.2142 -0.1909  0.2090
  183MPD1    H1 2843   4.619   3.617   9.344  0.4408 -0.0062 -1.3889
  183MPD1    H2 2844   0.133   3.321   9.475 -1.0241 -2.5211 -1.1682
  183MPD1    H3 2845   0.091   3.514   9.344 -0.2959 -1.0071 -2.6858
  183MPD1     N 2846   4.387   3.507   9.452  0.1687  0.1471 -0.2259
  183MPD1    H5 2847   4.311   3.446   9.479 -0.6997  0.4486 -1.9558
  183MPD1    N1 2848   4.696   3.163   9.596 -0.5833 -0.1311 -0.1044
  183MPD1    H6 2849   4.642   3.077   9.590 -0.9253  0.0368  0.5697
  183MPD1    H7 2850   0.055   3.141   9.591 -0.1276  1.1124  3.9011
  184MPD1     C 2851   2.375   1.658  10.271  0.2829 -0.5791  0.3355
  184MPD1    C1 2852   2.384   1.526  10.231  0.0483 -0.3390  0.5026
  184MPD1    C2 2853   2.505   1.490  10.163  0.4520  0.3135  0.7877
  184MPD1    C3 2854   2.617   1.579  10.170  0.0640 -0.7004 -0.3960
  184MPD1    C4 2855   2.600   1.701  10.240 -0.2407 -0.4117 -0.4422
  184MPD1    C5 2856   2.479   1.737  10.284 -0.9850 -0.3361  0.4326
  184MPD1     H 2857   2.506   1.399  10.104 -0.3886  2.5253 -2.5614
  184MPD1    H1 2858   2.680   1.774  10.249  1.1024 -1.9702  0.2737
  184MPD1    H2 2859   2.287   1.695  10.322 -0.9414 -0.1765 -2.0591
  184MPD1    H3 2860   2.477   1.831  10.338  2.2181  0.8293 -1.4164
  184MPD1     N 2861   2.738   1.563  10.095 -0.6233  0.1320 -0.1243
  184MPD1    H5 2862   2.808   1.634  10.113 -1.2898  1.0210 -1.0733
  184MPD1    N1 2863   2.273   1.444  10.218  0.7289 -0.5667  0.0882
  184MPD1    H6 2864   2.305   1.350  10.241  0.1861 -0.9141 -0.5512
  184MPD1    H7 2865   2.202   1.465  10.288 -1.3013 -0.7579 -1.9033
  185MPD1     C 2866   3.092   0.783   9.563 -0.1683  0.2108  0.0588
  185MPD1    C1 2867   3.198   0.868   9.577 -0.0728  0.5400 -0.1553
  185MPD1    C2 2868   3.176   0.974   9.661  0.0054  0.0337  0.0356
  185MPD1    C3 2869   3.068   0.982   9.748  0.3339  0.4427 -0.4584
  185MPD1    C4 2870   2.961   0.889   9.730  0.1340  0.4693 -0.0211
  185MPD1    C5 2871   2.974   0.793   9.636  0.5817 -0.5641 -0.3176
  185MPD1     H 2872   3.248   1.056   9.659 -0.4993  0.5429  2.1951
  185MPD1    H1 2873   2.878   0.881   9.799  0.0317  2.9833  0.1561
  185MPD1    H2 2874   3.093   0.702   9.490 -2.2858  1.7666 -1.6737
  185MPD1    H3 2875   2.904   0.711   9.621  0.4931 -0.5166 -0.1613
  185MPD1     N 2876   3.054   1.068   9.859  0.2229  0.0383 -0.8356
  185MPD1    H5 2877   2.966   1.055   9.909  0.8650 -0.1130  0.2643
  185MPD1    N1 2878   3.302   0.860   9.482 -0.7025  0.3496 -0.3749
  185MPD1    H6 2879   3.390   0.904   9.510 -0.0168 -1.7409  0.8260
  185MPD1    H7 2880   3.320   0.767   9.445  0.2216  1.7708 -3.5019
  186MPD1     C 2881   1.644   0.522  15.764 -1.1873 -0.2942 -0.5459
  186MPD1    C1 2882   1.701   0.640  15.720  0.2005  0.0807 -0.1324
  186MPD1    C2 2883   1.713   0.744  15.812  0.0492 -0.7894 -0.4132
  186MPD1    C3 2884   1.685   0.725  15.940 -0.0294  0.1330 -0.2230
  186MPD1    C4 2885   1.656   0.595  15.987  0.4836  0.5911  0.4492
  186MPD1    C5 2886   1.639   0.498  15.894 -0.2248  0.1964 -0.2671
  186MPD1     H 2887   1.739   0.841  15.771 -1.1397 -1.1408 -2.0079
  186MPD1    H1 2888   1.650   0.579  16.094 -1.3103 -0.1180  0.2463
  186MPD1    H2 2889   1.633   0.438  15.696  0.5003 -1.7182  0.9586
  186MPD1    H3 2890   1.610   0.398  15.924  0.2110  0.4409  0.9482
  186MPD1     N 2891   1.720   0.821  16.038 -0.3123  0.3553 -0.4682
  186MPD1    H5 2892   1.695   0.795  16.133 -0.3275 -0.4087 -0.6830
  186MPD1    N1 2893   1.716   0.649  15.576  0.9731  0.0334  0.1704
  186MPD1    H6 2894   1.734   0.557  15.536 -1.7465 -0.5394  0.2728
  186MPD1    H7 2895   1.799   0.706  15.566  0.1262  0.9130 -1.6833
  187MPD1     C 2896   1.024   2.676   0.393 -0.1447  0.3931  0.0310
  187MPD1    C1 2897   1.105   2.751   0.315  0.1857  0.4308 -0.1602
  187MPD1    C2 2898   1.088   2.747   0.181  0.4750 -0.1566 -0.8148
  187MPD1    C3 2899   0.995   2.665   0.118 -0.0492 -0.2400 -0.9553
  187MPD1    C4 2900   0.921   2.588   0.202  0.6987 -0.5065 -0.4265
  187MPD1    C5 2901   0.942   2.584   0.336 -0.7380 -0.3844 -0.0903
  187MPD1     H 2902   1.144   2.822   0.126  0.5430  0.1308 -0.3566
  187MPD1    H1 2903   0.836   2.535   0.162  1.1389 -1.8110  0.3833
  187MPD1    H2 2904   1.034   2.669   0.501  2.5286 -1.2453 -0.3157
  187MPD1    H3 2905   0.876   2.519   0.392 -2.6269  1.4560 -0.1976
  187MPD1     N 2906   0.965   2.660  17.744  0.6667  0.3119  0.5503
  187MPD1    H5 2907   0.889   2.598  17.716 -0.4580  1.2700  1.5317
  187MPD1    N1 2908   1.179   2.846   0.376 -0.5199 -0.0914  0.3913
  187MPD1    H6 2909   1.264   2.850   0.320 -0.7758 -2.9156 -0.2182
  187MPD1    H7 2910   1.198   2.804   0.467 -0.1866 -0.7641  0.0121
  188MPD1     C 2911   0.960   2.407  10.943 -0.2096  0.4827  0.6105
  188MPD1    C1 2912   0.839   2.341  10.940  0.5389 -0.1443  0.0566
  188MPD1    C2 2913   0.819   2.257  10.840  0.1535  0.2547  0.3154
  188MPD1    C3 2914   0.913   2.238  10.742  0.3544  0.3971 -0.2957
  188MPD1    C4 2915   1.028   2.316  10.736 -0.1249 -0.7331  0.3115
  188MPD1    C5 2916   1.055   2.409  10.838 -0.1405  0.4152 -0.5849
  188MPD1     H 2917   0.737   2.187  10.848 -0.6261  1.3560  1.8946
  188MPD1    H1 2918   1.081   2.328  10.642 -2.9787  1.7765 -0.9708
  188MPD1    H2 2919   0.985   2.477  11.022  1.2916  0.9177 -0.2424
  188MPD1    H3 2920   1.134   2.483  10.831 -0.6548  0.9636 -0.6017
  188MPD1     N 2921   0.895   2.153  10.631  0.6801 -0.8280 -0.2153
  188MPD1    H5 2922   0.974   2.149  10.567 -0.0720 -0.6088 -1.1696
  188MPD1    N1 2923   0.766   2.339  11.054 -0.1713 -0.2114  0.2927
  188MPD1    H6 2924   0.772   2.424  11.111  1.0489 -0.5338  0.6558
  188MPD1    H7 2925   0.669   2.310  11.049 -0.2933  0.7518 -2.8538
  189MPD1     C 2926   2.465   3.851   0.672 -0.2137  0.7340 -0.3254
  189MPD1    C1 2927   2.413   3.764   0.570 -0.4844 -0.2422 -0.2428
  189MPD1    C2 2928   2.354   3.812   0.456  0.0130  1.1188 -0.0191
  189MPD1    C3 2929   2.344   3.947   0.442 -0.5055 -0.0007 -0.1585
  189MPD1    C4 2930   2.419   4.027   0.522  0.3793  0.4849 -0.3418
  189MPD1    C5 2931   2.484   3.985   0.635  0.3280 -0.1860  0.4651
  189MPD1     H 2932   2.321   3.750   0.373 -1.1990  1.2259  0.3955
  189MPD1    H1 2933   2.427   4.133   0.503 -1.4967  0.3188 -1.9503
  189MPD1    H2 2934   2.491   3.815   0.771 -0.4208  0.9152 -0.2040
  189MPD1    H3 2935   2.517   4.069   0.695 -2.1027  0.4562  0.8763
  189MPD1     N 2936   2.283   4.004   0.329 -0.3452 -0.3886 -0.0495
  189MPD1    H5 2937   2.238   3.943   0.261  1.3357 -1.9832  0.2723
  189MPD1    N1 2938   2.414   3.628   0.598  0.1618  0.1893  0.6296
  189MPD1    H6 2939   2.394   3.579   0.511  1.8355  1.0376 -0.2302
  189MPD1    H7 2940   2.505   3.595   0.628 -0.7786 -1.6303  1.5251
  190MPD1     C 2941   1.721   2.278  14.987 -0.2874  0.0021  0.4279
  190MPD1    C1 2942   1.790   2.160  14.977 -0.2385 -0.1087  0.1966
  190MPD1    C2 2943   1.799   2.077  15.087 -0.3803  0.2900 -0.6418
  190MPD1    C3 2944   1.755   2.106  15.213 -0.3816  0.2559 -0.2478
  190MPD1    C4 2945   1.702   2.233  15.224 -0.4650 -0.2121 -0.1073
  190MPD1    C5 2946   1.688   2.313  15.113  0.2031 -0.8849 -0.7732
  190MPD1     H 2947   1.821   1.972  15.073 -2.9313 -0.2627 -0.4878
  190MPD1    H1 2948   1.658   2.280  15.311 -0.5175 -1.4643  0.5374
  190MPD1    H2 2949   1.703   2.342  14.901 -0.7770  0.6453  1.0056
  190MPD1    H3 2950   1.647   2.410  15.141  0.9449 -0.4559 -1.1720
  190MPD1     N 2951   1.763   2.018  15.327 -0.1218  0.5895  0.5351
  190MPD1    H5 2952   1.787   1.921  15.310 -2.3051  0.1010  0.1528
  190MPD1    N1 2953   1.821   2.119  14.843  0.2670 -0.6781 -0.6259
  190MPD1    H6 2954   1.886   2.041  14.848  2.1354  1.0260  1.1258
  190MPD1    H7 2955   1.860   2.192  14.783  0.1583  0.7802  1.0977
  191MPD1     C 2956   0.673   4.157  12.950  0.5699 -0.0934 -0.0961
  191MPD1    C1 2957   0.791   4.104  12.895 -0.5736 -0.2814 -0.4639
  191MPD1    C2 2958   0.809   4.129  12.759 -1.0749 -0.6269  0.2464
  191MPD1    C3 2959   0.746   4.229  12.693  0.3979  0.4877 -0.2983
  191MPD1    C4 2960   0.647   4.302  12.757 -0.5316  0.3559  0.6554
  191MPD1    C5 2961   0.612   4.255  12.880 -0.7131  0.3179 -0.2811
  191MPD1     H 2962   0.883   4.067  12.709 -0.2886  1.6152 -1.3944
  191MPD1    H1 2963   0.605   4.389  12.708 -0.8004  0.4812  1.1148
  191MPD1    H2 2964   0.636   4.129  13.048  1.7190 -0.5652  0.2059
  191MPD1    H3 2965   0.523   4.296  12.928 -0.6799  1.6160 -1.3109
  191MPD1     N 2966   0.805   4.270  12.572 -0.3547  0.0783 -0.3300
  191MPD1    H5 2967   0.878   4.205  12.547  0.5075  0.8443  0.2078
  191MPD1    N1 2968   0.870   4.006  12.950  0.1888 -0.4193  0.0981
  191MPD1    H6 2969   0.848   3.973  13.044 -0.2285 -0.7794 -0.1240
  191MPD1    H7 2970   0.966   4.001  12.918  0.6596  1.7094  1.2032
  192MPD1     C 2971   0.751   0.117  11.646  0.2969  0.0343  0.1906
  192MPD1    C1 2972   0.699   0.130  11.773 -0.8482  0.0272  0.2367
  192MPD1    C2 2973   0.701   0.031  11.867 -1.1381  0.5146  0.5204
  192MPD1    C3 2974   0.769   4.653  11.836  0.5939 -0.2735  0.4820
  192MPD1    C4 2975   0.821   4.645  11.704  0.1178 -0.5620  0.3869
  192MPD1    C5 2976   0.822   0.006  11.613  0.6223  0.4502  0.2950
  192MPD1     H 2977   0.638   0.046  11.954 -2.5915 -1.0696 -0.2608
  192MPD1    H1 2978   0.865   4.551  11.673  1.1916  0.0314  0.0950
  192MPD1    H2 2979   0.745   0.195  11.571  0.1881 -0.0703  0.0914
  192MPD1    H3 2980   0.865   4.735  11.514 -0.5668  0.4948 -0.2260
  192MPD1     N 2981   0.784   4.550  11.924 -0.2512 -0.0494  0.2993
  192MPD1    H5 2982   0.808   4.461  11.881 -1.9021 -0.8760  1.0831
  192MPD1    N1 2983   0.620   0.240  11.798  0.6587 -0.0735  0.1447
  192MPD1    H6 2984   0.636   0.318  11.735 -0.9376 -0.2617 -0.5068
  192MPD1    H7 2985   0.616   0.270  11.895 -0.9623 -0.1347  0.1051
  193MPD1     C 2986   0.065   3.930  16.285 -0.1635  0.3730 -0.7083
  193MPD1    C1 2987   0.014   4.044  16.347  0.1549 -0.1651 -0.0153
  193MPD1    C2 2988   0.106   4.114  16.435  0.5727 -0.0680 -0.5177
  193MPD1    C3 2989   0.230   4.065  16.469 -0.5558  0.5535  0.1319
  193MPD1    C4 2990   0.268   3.937  16.412 -0.0238  0.3277  0.4603
  193MPD1    C5 2991   0.185   3.873  16.324 -0.4137  0.6485  0.0982
  193MPD1     H 2992   0.059   4.202  16.479  0.3834  0.5852 -2.0374
  193MPD1    H1 2993   0.355   3.875  16.434 -0.7072  0.3352  3.2774
  193MPD1    H2 2994   0.016   3.884  16.200 -0.5647  0.0963 -0.3234
  193MPD1    H3 2995   0.230   3.790  16.270  0.8180  0.1050  1.9806
  193MPD1     N 2996   0.323   4.143  16.544 -1.1007  0.5047 -0.6233
  193MPD1    H5 2997   0.412   4.099  16.560 -0.2158  1.9481 -1.5587
  193MPD1    N1 2998   4.635   4.093  16.289  0.5969 -0.8110 -0.0841
  193MPD1    H6 2999   4.580   4.152  16.351 -0.5219 -4.0307  1.9990
  193MPD1    H7 3000   4.574   4.029  16.238 -2.3021  1.8414  0.0626
  194MPD1     C 3001   2.727   1.810  17.049 -0.1240  0.1494 -0.2307
  194MPD1    C1 3002   2.761   1.724  16.949  0.8351 -0.3780  0.3902
  194MPD1    C2 3003   2.822   1.610  16.982 -0.2631 -0.7596  0.1271
  194MPD1    C3 3004   2.843   1.569  17.111 -0.4288 -0.0310  0.3339
  194MPD1    C4 3005   2.799   1.650  17.213 -0.0170  0.1790 -0.0001
  194MPD1    C5 3006   2.734   1.768  17.181 -0.9660 -0.0387  0.5131
  194MPD1     H 3007   2.873   1.558  16.902  1.5158  1.5706 -0.2641
  194MPD1    H1 3008   2.819   1.624  17.316  0.7368  0.9328  0.0362
  194MPD1    H2 3009   2.686   1.908  17.024 -0.4640  0.5508  1.8401
  194MPD1    H3 3010   2.694   1.833  17.258  0.0158  4.0077 -2.4621
  194MPD1     N 3011   2.912   1.453  17.148  0.1779 -0.4105 -0.4531
  194MPD1    H5 3012   2.932   1.438  17.247  3.0884  1.4293 -0.7446
  194MPD1    N1 3013   2.771   1.771  16.820 -0.5473 -0.3111 -0.0422
  194MPD1    H6 3014   2.699   1.839  16.797 -2.4061 -1.6044  1.8536
  194MPD1    H7 3015   2.772   1.697  16.750 -2.4910  0.2299 -0.6611
  195MPD1     C 3016   0.522   3.482   1.063  0.4815  0.2939  0.1681
  195MPD1    C1 3017   0.658   3.483   1.067  0.1628  0.6963  0.2835
  195MPD1    C2 3018   0.729   3.376   1.021 -0.0192 -0.4426  0.3162
  195MPD1    C3 3019   0.664   3.253   1.001 -0.3423 -0.6352 -0.2142
  195MPD1    C4 3020   0.530   3.249   1.010 -0.7896 -0.0487  0.5009
  195MPD1    C5 3021   0.458   3.368   1.034 -0.0666  0.4875 -0.0541
  195MPD1     H 3022   0.837   3.388   1.014  0.0098 -0.6055  0.4942
  195MPD1    H1 3023   0.467   3.165   0.985 -2.0282  0.5478  1.5974
  195MPD1    H2 3024   0.457   3.569   1.068 -0.5656 -0.5707  1.5318
  195MPD1    H3 3025   0.353   3.372   1.005 -0.6478 -0.9373  1.8577
  195MPD1     N 3026   0.736   3.130   0.981 -0.2304 -0.1975 -0.1495
  195MPD1    H5 3027   0.683   3.045   0.969 -1.4368  0.5494 -0.1683
  195MPD1    N1 3028   0.714   3.605   1.102  0.3701 -0.1709 -0.2975
  195MPD1    H6 3029   0.814   3.602   1.123  0.0471 -1.9904  0.8997
  195MPD1    H7 3030   0.661   3.651   1.176  2.8122  1.1428  0.6614
  196MPD1     C 3031   4.045   1.906   1.513 -0.2147  0.1805 -0.9601
  196MPD1    C1 3032   4.173   1.927   1.470 -0.3511 -0.3215 -0.1155
  196MPD1    C2 3033   4.213   2.053   1.441 -0.1649  0.0597 -0.1969
  196MPD1    C3 3034   4.123   2.163   1.444 -0.8379 -0.0686  0.5798
  196MPD1    C4 3035   3.995   2.138   1.476 -0.0415 -0.2534  1.0034
  196MPD1    C5 3036   3.959   2.013   1.516 -0.1387  0.0895  0.4556
  196MPD1     H 3037   4.315   2.076   1.413 -0.0759  1.0814  0.9680
  196MPD1    H1 3038   3.915   2.210   1.484 -0.7116 -0.9301  0.3825
  196MPD1    H2 3039   4.008   1.805   1.526  1.0827 -0.6914 -3.9046
  196MPD1    H3 3040   3.857   2.008   1.554 -0.3694 -1.6109 -0.3785
  196MPD1     N 3041   4.159   2.292   1.409  0.1608 -0.1314 -0.4324
  196MPD1    H5 3042   4.086   2.362   1.416  0.7189  0.3769  0.3981
  196MPD1    N1 3043   4.272   1.824   1.486  0.3492 -0.0798 -0.1372
  196MPD1    H6 3044   4.348   1.831   1.420  0.7105  2.6127  0.5357
  196MPD1    H7 3045   4.232   1.731   1.479 -0.8048  0.5046 -1.4390
  197MPD1     C 3046   4.204   4.543  17.697  0.0263 -0.0573  0.5638
  197MPD1    C1 3047   4.250   4.672  17.696 -0.1651  0.6162 -0.2738
  197MPD1    C2 3048   4.274   4.739  17.575  0.6352 -0.6264 -0.9679
  197MPD1    C3 3049   4.251   4.679  17.457  0.1913 -1.0159  0.6612
  197MPD1    C4 3050   4.207   4.552  17.455 -0.0561 -0.7437 -0.2037
  197MPD1    C5 3051   4.184   4.486  17.569 -0.1380  0.3477 -0.0112
  197MPD1     H 3052   4.289   0.106  17.569  0.6065 -0.5492  0.1984
  197MPD1    H1 3053   4.185   4.505  17.360  0.9321 -1.6985  0.0448
  197MPD1    H2 3054   4.179   4.501   0.036  2.5063 -0.6677  0.9559
  197MPD1    H3 3055   4.154   4.382  17.561  2.6065 -0.3161 -1.4755
  197MPD1     N 3056   4.277   0.006  17.332  0.1149 -0.2509  0.3780
  197MPD1    H5 3057   4.230   4.702  17.253 -1.1530 -0.8646  1.4804
  197MPD1    N1 3058   4.239   0.008   0.055 -0.2182 -0.0712 -0.1609
  197MPD1    H6 3059   4.235   4.697   0.143 -3.1367 -0.9266 -0.7745
  197MPD1    H7 3060   4.308   0.082   0.064 -3.3046  2.7626  0.4456
  198MPD1     C 3061   0.758   3.129  16.203  0.4966  0.5061  0.0793
  198MPD1    C1 3062   0.835   3.113  16.314 -0.8671  0.4125 -0.2472
  198MPD1    C2 3063   0.972   3.102  16.290  0.2996  0.0664 -0.1328
  198MPD1    C3 3064   1.039   3.135  16.173  0.3429 -0.7668  0.7397
  198MPD1    C4 3065   0.960   3.154  16.063  0.0405 -0.6899 -0.4038
  198MPD1    C5 3066   0.823   3.153  16.079 -0.6687  0.1106  0.6360
  198MPD1     H 3067   1.037   3.089  16.376  0.7863 -1.1452 -0.6866
  198MPD1    H1 3068   0.997   3.169  15.962  0.3158  0.5372 -0.1242
  198MPD1    H2 3069   0.652   3.149  16.204  0.5784  0.8477  1.7605
  198MPD1    H3 3070   0.756   3.175  15.997 -0.1571  0.1909  0.2430
  198MPD1     N 3071   1.183   3.134  16.171  0.0038 -0.1803  0.3875
  198MPD1    H5 3072   1.223   3.122  16.264  0.5246  0.3919  0.2400
  198MPD1    N1 3073   0.781   3.065  16.434  0.6478 -0.0414  0.2774
  198MPD1    H6 3074   0.688   3.103  16.454  0.5404 -0.7191  1.0761
  198MPD1    H7 3075   0.837   3.082  16.518 -0.2265 -4.1024  1.7069
  199MPD1     C 3076   1.938   0.776   9.860 -0.3119  0.4689 -0.5198
  199MPD1    C1 3077   1.969   0.678   9.769  0.3987  0.3916  0.0468
  199MPD1    C2 3078   2.060   0.580   9.809  0.1303 -1.0533  0.3687
  199MPD1    C3 3079   2.118   0.591   9.935  0.0782  0.0834  0.1621
  199MPD1    C4 3080   2.090   0.699  10.017 -0.2425  0.2124 -0.1002
  199MPD1    C5 3081   1.997   0.784   9.983 -0.4697  0.3352  0.0522
  199MPD1     H 3082   2.085   0.500   9.741  1.6842  0.0960 -0.4101
  199MPD1    H1 3083   2.145   0.721  10.108 -0.7095  0.4037  0.1374
  199MPD1    H2 3084   1.860   0.848   9.840 -3.7568 -2.6900  1.5125
  199MPD1    H3 3085   1.975   0.869  10.047 -0.5836 -1.4685  2.3989
  199MPD1     N 3086   2.207   0.495   9.978 -0.6298 -0.7275 -0.9778
  199MPD1    H5 3087   2.245   0.499  10.072 -0.1876 -1.4277 -1.1265
  199MPD1    N1 3088   1.895   0.670   9.647 -0.0636 -0.1260  0.2412
  199MPD1    H6 3089   1.867   0.758   9.606  0.8198 -0.7262 -1.6221
  199MPD1    H7 3090   1.946   0.606   9.587  0.8377  0.9323 -0.0971
  200MPD1     C 3091   1.960   3.716  15.241 -0.5190 -0.1052 -0.4102
  200MPD1    C1 3092   1.936   3.695  15.107 -0.2728  0.0139  0.3618
  200MPD1    C2 3093   2.033   3.738  15.018 -0.1803 -0.9671  0.5013
  200MPD1    C3 3094   2.157   3.780  15.060 -0.3941 -0.4214 -0.8784
  200MPD1    C4 3095   2.187   3.776  15.191 -0.2556  0.2355 -0.4672
  200MPD1    C5 3096   2.088   3.741  15.277  0.2681 -0.0248 -0.4798
  200MPD1     H 3097   2.022   3.713  14.914 -0.2809 -2.5190  0.8870
  200MPD1    H1 3098   2.283   3.803  15.234 -2.1394  1.8995  2.6711
  200MPD1    H2 3099   1.886   3.693  15.316 -0.9701 -0.8856 -1.0998
  200MPD1    H3 3100   2.109   3.748  15.383 -1.5242 -0.2830 -0.0947
  200MPD1     N 3101   2.256   3.797  14.960 -0.3654  0.4442  0.4524
  200MPD1    H5 3102   2.243   3.775  14.862  0.5403 -1.5659  0.7778
  200MPD1    N1 3103   1.813   3.640  15.070  0.3224 -0.4433  0.1061
  200MPD1    H6 3104   1.781   3.563  15.129  0.0171  0.0760  0.6215
  200MPD1    H7 3105   1.799   3.611  14.973  0.0122  4.0121 -1.1639
  201MPD1     C 3106   4.307   3.406  12.654  0.0231  0.4230  0.0923
  201MPD1    C1 3107   4.319   3.282  12.598  1.1351  0.1283  0.4084
  201MPD1    C2 3108   4.416   3.195  12.649 -0.5610  0.1052 -0.2972
  201MPD1    C3 3109   4.472   3.220  12.770  0.0015  0.8149  0.0795
  201MPD1    C4 3110   4.447   3.339  12.835 -0.2247  0.1052 -0.2307
  201MPD1    C5 3111   4.366   3.426  12.775 -0.8575 -0.8039  0.0039
  201MPD1     H 3112   4.440   3.097  12.607  0.3444  0.2905 -0.2209
  201MPD1    H1 3113   4.490   3.367  12.931  0.4592 -0.7894 -0.2767
  201MPD1    H2 3114   4.240   3.485  12.622  0.4081  0.2044 -1.2479
  201MPD1    H3 3115   4.343   3.519  12.825  0.6561 -0.6474  0.3889
  201MPD1     N 3116   4.565   3.129  12.833 -0.2779  0.1390  0.1121
  201MPD1    H5 3117   4.566   3.041  12.782 -3.4857 -0.2749  0.7586
  201MPD1    N1 3118   4.266   3.258  12.472  0.2712 -0.0221 -0.0501
  201MPD1    H6 3119   4.271   3.161  12.444 -0.7695 -0.3228  0.7935
  201MPD1    H7 3120   4.171   3.294  12.470  0.3254  0.0736 -0.9283
  202MPD1     C 3121   4.117   2.610   9.134 -0.4278 -0.0460 -0.0043
  202MPD1    C1 3122   4.120   2.499   9.215 -0.7992 -0.3107  0.5926
  202MPD1    C2 3123   4.131   2.525   9.353 -0.1683  0.1224  0.4629
  202MPD1    C3 3124   4.091   2.649   9.403  0.0135  0.2479  0.5019
  202MPD1    C4 3125   4.057   2.753   9.318  0.3000  0.4796 -0.1318
  202MPD1    C5 3126   4.079   2.736   9.183 -0.4282  0.4828 -0.1319
  202MPD1     H 3127   4.155   2.440   9.416  0.4146 -1.1720 -1.4872
  202MPD1    H1 3128   4.036   2.850   9.360  1.0343  0.1038  1.1091
  202MPD1    H2 3129   4.121   2.603   9.026  0.6661  0.7230 -0.0173
  202MPD1    H3 3130   4.059   2.814   9.110 -1.0960  2.1366  1.8044
  202MPD1     N 3131   4.104   2.684   9.542 -0.7212 -0.0589 -0.1122
  202MPD1    H5 3132   4.066   2.775   9.566 -0.4116 -0.0233  0.2267
  202MPD1    N1 3133   4.183   2.385   9.163 -0.3843  0.1983 -0.0675
  202MPD1    H6 3134   4.149   2.300   9.209  0.4217  0.4169  0.9492
  202MPD1    H7 3135   4.148   2.363   9.070  1.8101  0.2842 -0.9079
  203MPD1     C 3136   3.283   4.113  12.645  0.3331 -0.4359  0.1297
  203MPD1    C1 3137   3.282   3.996  12.566  0.1766 -0.6949 -0.1066
  203MPD1    C2 3138   3.313   3.874  12.622  0.4453 -0.1538  0.3284
  203MPD1    C3 3139   3.355   3.870  12.751  0.3309 -0.0337 -0.0917
  203MPD1    C4 3140   3.350   3.979  12.830 -0.3828 -0.1654 -0.0868
  203MPD1    C5 3141   3.310   4.097  12.775 -0.7424  0.2521 -1.2512
  203MPD1     H 3142   3.293   3.784  12.565  1.3736  0.5624 -1.1317
  203MPD1    H1 3143   3.381   3.989  12.934 -1.5157  0.7660  0.1688
  203MPD1    H2 3144   3.267   4.211  12.601 -1.2030 -0.5328  0.4688
  203MPD1    H3 3145   3.298   4.186  12.835  0.1900  0.9819 -2.1498
  203MPD1     N 3146   3.410   3.747  12.784 -0.0658 -0.2353 -0.5901
  203MPD1    H5 3147   3.409   3.672  12.715  0.1953 -2.4335  1.8161
  203MPD1    N1 3148   3.275   3.997  12.424 -0.1021 -0.4641  0.2331
  203MPD1    H6 3149   3.237   3.912  12.385 -1.3094  1.1286 -2.0744
  203MPD1    H7 3150   3.216   4.072  12.389  0.2688 -0.0765  0.4375
  204MPD1     C 3151   2.722   0.511  17.738 -0.5904  0.0700 -0.1217
  204MPD1    C1 3152   2.855   0.514  17.704  1.0967 -0.1335 -0.1238
  204MPD1    C2 3153   2.912   0.395  17.656 -0.0359 -0.0060 -0.2527
  204MPD1    C3 3154   2.838   0.285  17.630 -0.5937  0.4348  0.0084
  204MPD1    C4 3155   2.702   0.284  17.646 -0.0721  0.5190 -0.7014
  204MPD1    C5 3156   2.649   0.397  17.701 -0.4220 -0.5074 -0.5179
  204MPD1     H 3157   3.016   0.391  17.626  0.0800  0.0792  0.1356
  204MPD1    H1 3158   2.639   0.198  17.625  1.5108 -1.2393  1.7720
  204MPD1    H2 3159   2.671   0.598   0.019  0.6824  2.0808 -2.9857
  204MPD1    H3 3160   2.547   0.396  17.736 -0.9357 -1.6067 -2.0427
  204MPD1     N 3161   2.905   0.186  17.565 -0.1473 -0.7058  0.3540
  204MPD1    H5 3162   3.000   0.206  17.538 -0.2505 -2.9003 -1.6605
  204MPD1    N1 3163   2.924   0.624  17.745  0.2205  0.4305 -0.0516
  204MPD1    H6 3164   3.009   0.629  17.690  0.4668  0.0036  0.2834
  204MPD1    H7 3165   2.875   0.709  17.716  1.0044  1.3258  1.2380
  205MPD1     C 3166   2.781   4.082  16.332  0.4532  0.3513  0.1191
  205MPD1    C1 3167   2.839   3.959  16.317 -0.3396  0.3040  0.6667
  205MPD1    C2 3168   2.904   3.905  16.426  0.3294 -0.0795 -0.1314
  205MPD1    C3 3169   2.901   3.961  16.556 -0.4299 -0.2332  0.1156
  205MPD1    C4 3170   2.831   4.076  16.570  0.0117  0.0291  0.5941
  205MPD1    C5 3171   2.775   4.134  16.458 -0.1779  0.2071  0.0523
  205MPD1     H 3172   2.946   3.806  16.418 -0.2209 -0.3625  0.5206
  205MPD1    H1 3173   2.805   4.123  16.664 -1.1617 -1.5605  1.0587
  205MPD1    H2 3174   2.725   4.134  16.256  1.3248  1.4535  0.2297
  205MPD1    H3 3175   2.711   4.219  16.477 -0.5829 -0.4252  1.4692
  205MPD1     N 3176   2.963   3.904  16.677 -0.2748 -0.0188 -0.0775
  205MPD1    H5 3177   2.958   3.968  16.755  0.0418 -1.0960  0.8331
  205MPD1    N1 3178   2.839   3.896  16.195 -0.5008  0.8509  1.1697
  205MPD1    H6 3179   2.819   3.797  16.205  0.3698  0.4843 -0.8218
  205MPD1    H7 3180   2.766   3.935  16.136  0.4790  0.3379 -0.3518
  206MPD1     C 3181   3.208   1.636  17.241  0.4532 -0.1616  0.3723
  206MPD1    C1 3182   3.299   1.536  17.204  0.6144 -0.1281  0.2566
  206MPD1    C2 3183   3.353   1.542  17.079  0.0514 -0.2313 -0.1337
  206MPD1    C3 3184   3.312   1.640  16.986  0.2111  0.0897 -0.2764
  206MPD1    C4 3185   3.225   1.738  17.027 -0.4693 -0.8182  0.2707
  206MPD1    C5 3186   3.169   1.730  17.147 -0.0617 -0.5551 -0.0843
  206MPD1     H 3187   3.427   1.470  17.047  0.5048  0.7232 -1.2210
  206MPD1    H1 3188   3.194   1.815  16.958  1.5732 -1.8584 -1.8074
  206MPD1    H2 3189   3.162   1.642  17.339  2.0025  0.0385  1.1020
  206MPD1    H3 3190   3.101   1.807  17.181  1.5424  0.3641  1.0131
  206MPD1     N 3191   3.359   1.649  16.853 -0.4741 -0.9573  0.6557
  206MPD1    H5 3192   3.315   1.713  16.788  0.8162  1.7551  2.4236
  206MPD1    N1 3193   3.351   1.456  17.303 -0.1847  0.2997 -0.5358
  206MPD1    H6 3194   3.383   1.367  17.264  1.3797 -0.0339  1.5141
  206MPD1    H7 3195   3.290   1.451  17.385  0.4406  1.4656 -0.0027
  207MPD1     C 3196   1.922   3.403   9.876  0.3131  0.7230  0.1204
  207MPD1    C1 3197   1.965   3.528   9.907 -0.3862  0.6626  0.1799
  207MPD1    C2 3198   1.883   3.610   9.985  0.0570  0.4656 -0.2420
  207MPD1    C3 3199   1.754   3.565  10.020  0.2199  0.2201 -0.2237
  207MPD1    C4 3200   1.712   3.439   9.982 -0.1628  0.0818  0.4595
  207MPD1    C5 3201   1.796   3.362   9.908  0.1292  0.4843  0.5176
  207MPD1     H 3202   1.922   3.704  10.021  0.3481  0.8620 -1.6252
  207MPD1    H1 3203   1.618   3.393  10.008  0.7372 -0.9135  1.9103
  207MPD1    H2 3204   1.985   3.340   9.814 -0.6801  0.2838 -0.4381
  207MPD1    H3 3205   1.767   3.260   9.884  0.8495  0.0188  1.6188
  207MPD1     N 3206   1.660   3.639  10.088 -0.3997  0.2575  0.2358
  207MPD1    H5 3207   1.578   3.587  10.117  0.0823 -0.0291  1.0668
  207MPD1    N1 3208   2.103   3.567   9.891  0.1471  0.4454 -0.0018
  207MPD1    H6 3209   2.162   3.525   9.819 -0.3598 -0.8509  0.3324
  207MPD1    H7 3210   2.133   3.658   9.926  1.6886 -0.7063  1.6561
  208MPD1     C 3211   3.031   4.023   0.416 -0.4546 -0.1828 -0.9097
  208MPD1    C1 3212   2.991   3.925   0.502  0.0115 -0.5694  0.8979
  208MPD1    C2 3213   2.987   3.792   0.457  0.3373 -0.7759  0.0545
  208MPD1    C3 3214   3.038   3.757   0.327 -0.0545  0.2448  0.1466
  208MPD1    C4 3215   3.099   3.859   0.253 -0.5166  0.0454 -0.2372
  208MPD1    C5 3216   3.081   3.990   0.296  0.7578 -0.4132  0.3110
  208MPD1     H 3217   2.943   3.712   0.514  0.1972  0.5203  1.7683
  208MPD1    H1 3218   3.146   3.837   0.158  1.4619 -1.4845  1.0987
  208MPD1    H2 3219   3.016   4.128   0.440  0.2923 -0.2148 -0.3062
  208MPD1    H3 3220   3.117   4.072   0.235  0.0487  0.2130  0.7296
  208MPD1     N 3221   3.058   3.617   0.298  0.3198 -0.7364 -0.4139
  208MPD1    H5 3222   3.054   3.544   0.368 -2.2333 -1.1319 -0.9637
  208MPD1    N1 3223   2.900   3.963   0.601 -0.4682 -0.6073  0.2125
  208MPD1    H6 3224   2.916   4.058   0.633 -1.3133 -0.0347 -1.0588
  208MPD1    H7 3225   2.882   3.895   0.675 -2.6146 -0.5588 -0.2639
  209MPD1     C 3226   0.977   2.442  11.341 -0.0243  0.2231 -0.0319
  209MPD1    C1 3227   0.947   2.549  11.424 -0.7466  0.0130  0.7337
  209MPD1    C2 3228   0.982   2.681  11.387 -0.1033  0.4928  0.5240
  209MPD1    C3 3229   1.076   2.694  11.286 -0.0663  0.1905  0.4124
  209MPD1    C4 3230   1.118   2.586  11.213  0.3983  0.3675  0.8821
  209MPD1    C5 3231   1.076   2.461  11.246  0.4271 -0.0919 -0.2831
  209MPD1     H 3232   0.932   2.763  11.438 -0.2840  0.4131  0.4734
  209MPD1    H1 3233   1.193   2.600  11.135 -0.7886  0.0853 -0.3015
  209MPD1    H2 3234   0.940   2.341  11.351  1.1097  0.0081  2.0970
  209MPD1    H3 3235   1.093   2.374  11.185 -0.6972 -1.0374  0.7525
  209MPD1     N 3236   1.116   2.821  11.254 -0.8411 -0.0913  0.2902
  209MPD1    H5 3237   1.106   2.883  11.334 -0.1088 -0.4400  0.6471
  209MPD1    N1 3238   0.844   2.523  11.513  0.1281 -0.7129  0.0835
  209MPD1    H6 3239   0.860   2.430  11.549 -1.4700 -1.2806 -0.6859
  209MPD1    H7 3240   0.833   2.588  11.591  1.6015  1.6978 -1.6895
  210MPD1     C 3241   1.570   3.578  11.688  0.3053  0.6707  0.3880
  210MPD1    C1 3242   1.498   3.467  11.723 -0.7750 -0.6927  0.8746
  210MPD1    C2 3243   1.419   3.404  11.632 -0.0269  0.9968  0.1491
  210MPD1    C3 3244   1.419   3.447  11.500 -0.4398 -0.4574 -0.4614
  210MPD1    C4 3245   1.489   3.556  11.465 -0.2887 -0.6169 -0.0081
  210MPD1    C5 3246   1.551   3.632  11.562  0.1052 -0.3124  0.0687
  210MPD1     H 3247   1.372   3.310  11.660 -1.4283  2.3369  2.3358
  210MPD1    H1 3248   1.490   3.583  11.360  3.0376 -0.4473  0.0424
  210MPD1    H2 3249   1.624   3.627  11.769  0.7492 -0.0321  0.5145
  210MPD1    H3 3250   1.593   3.730  11.543 -1.0813 -0.2069 -1.9985
  210MPD1     N 3251   1.349   3.374  11.401  0.3857  0.4392  0.1821
  210MPD1    H5 3252   1.369   3.407  11.307 -0.6982  4.5243  1.3595
  210MPD1    N1 3253   1.537   3.400  11.838  0.3742 -0.4767  0.4540
  210MPD1    H6 3254   1.564   3.455  11.919 -2.0766  0.8674  0.3311
  210MPD1    H7 3255   1.484   3.320  11.872 -0.9116  0.9145  1.7041
  211MPD1     C 3256   3.513   3.534  17.101 -0.8549 -0.5536 -0.0919
  211MPD1    C1 3257   3.540   3.450  16.999 -0.0494  0.0857 -0.8869
  211MPD1    C2 3258   3.522   3.498  16.871 -0.1798 -0.6312 -0.0906
  211MPD1    C3 3259   3.476   3.621  16.841 -0.0610  0.3220  0.2235
  211MPD1    C4 3260   3.467   3.711  16.945  0.6088  0.5382  0.3993
  211MPD1    C5 3261   3.485   3.661  17.070  0.0906  0.2966  0.3888
  211MPD1     H 3262   3.554   3.435  16.789 -1.2993 -0.1081 -0.9168
  211MPD1    H1 3263   3.424   3.811  16.944  1.4653  0.9078 -0.1888
  211MPD1    H2 3264   3.537   3.496  17.200 -0.1920 -2.0956 -0.8553
  211MPD1    H3 3265   3.483   3.731  17.153 -0.4793  2.1587 -1.1903
  211MPD1     N 3266   3.441   3.654  16.711  0.0252 -0.2306 -0.0194
  211MPD1    H5 3267   3.440   3.572  16.650  0.2691  0.2964 -0.7331
  211MPD1    N1 3268   3.620   3.338  17.031 -0.6998  0.7595 -0.2190
  211MPD1    H6 3269   3.605   3.265  16.963  0.0809  1.5282 -1.2179
  211MPD1    H7 3270   3.611   3.296  17.124  1.0274 -1.1324 -0.9053
  212MPD1     C 3271   2.886   1.631  16.408 -0.2200 -0.3934  0.6760
  212MPD1    C1 3272   2.786   1.692  16.487  0.4138 -0.3978  0.4069
  212MPD1    C2 3273   2.719   1.608  16.574 -0.2130  0.0589  0.1754
  212MPD1    C3 3274   2.763   1.477  16.603  0.9705  0.2965 -0.3126
  212MPD1    C4 3275   2.867   1.429  16.532 -0.7910  0.7674  0.6613
  212MPD1    C5 3276   2.922   1.502  16.435 -0.4891  0.1709 -0.1696
  212MPD1     H 3277   2.638   1.649  16.633 -1.2177 -2.2697  0.4076
  212MPD1    H1 3278   2.897   1.327  16.554 -1.2063  0.7897  1.3231
  212MPD1    H2 3279   2.941   1.678  16.328 -1.8754 -0.6345 -0.5833
  212MPD1    H3 3280   2.996   1.459  16.368  0.4931  1.4283  0.0923
  212MPD1     N 3281   2.714   1.394  16.709 -0.6967  0.0013 -0.4011
  212MPD1    H5 3282   2.770   1.310  16.723 -0.7689  0.3207  1.7543
  212MPD1    N1 3283   2.735   1.823  16.457  0.9332 -0.0348  0.0453
  212MPD1    H6 3284   2.803   1.883  16.412  1.0635 -0.3428 -0.1698
  212MPD1    H7 3285   2.688   1.870  16.534 -0.0185  0.9965 -1.1734
  213MPD1     C 3286   1.151   1.953  16.334 -0.0999  0.0709  0.1831
  213MPD1    C1 3287   1.018   1.975  16.297 -0.2819  0.7064 -0.3310
  213MPD1    C2 3288   1.003   2.066  16.197  0.1276  0.9424  0.8173
  213MPD1    C3 3289   1.106   2.149  16.151 -0.6197  0.5080  0.2935
  213MPD1    C4 3290   1.236   2.133  16.198 -0.3068 -0.6065 -0.0520
  213MPD1    C5 3291   1.260   2.032  16.292 -0.5788 -0.0026 -0.2809
  213MPD1     H 3292   0.906   2.083  16.152 -0.2533  0.0706  1.3120
  213MPD1    H1 3293   1.323   2.192  16.174 -0.8203  0.3917  0.5093
  213MPD1    H2 3294   1.178   1.862  16.386  1.6579 -0.4724 -1.6790
  213MPD1    H3 3295   1.357   2.014  16.338 -0.1265 -1.5389 -1.8434
  213MPD1     N 3296   1.080   2.237  16.040 -0.3872  0.5524  1.0415
  213MPD1    H5 3297   0.989   2.228  15.996 -0.0202  1.3936  0.1091
  213MPD1    N1 3298   0.928   1.872  16.309  0.4389 -0.6387 -0.1572
  213MPD1    H6 3299   0.837   1.916  16.298  0.7190 -0.5814 -2.1912
  213MPD1    H7 3300   0.931   1.807  16.387  1.9466 -0.6095 -0.1948
  214MPD1     C 3301   0.600   2.168  15.208  0.1192  0.3158 -0.6606
  214MPD1    C1 3302   0.574   2.124  15.337  0.7812  0.5171 -0.4243
  214MPD1    C2 3303   0.657   2.180  15.437  0.1168  0.6070 -0.5093
  214MPD1    C3 3304   0.737   2.295  15.400  0.1440  0.1729 -0.5222
  214MPD1    C4 3305   0.730   2.353  15.277 -0.6859  0.0362 -0.4696
  214MPD1    C5 3306   0.668   2.274  15.179 -0.8083 -0.2052 -0.6098
  214MPD1     H 3307   0.665   2.140  15.538  0.8497  1.4974 -0.2072
  214MPD1    H1 3308   0.778   2.438  15.231  0.5289  0.5850  1.8354
  214MPD1    H2 3309   0.549   2.122  15.125 -0.0162 -0.7588  0.0104
  214MPD1    H3 3310   0.675   2.302  15.074 -0.1359  3.2802  0.3578
  214MPD1     N 3311   0.824   2.364  15.488  0.7658 -0.4084 -0.2489
  214MPD1    H5 3312   0.879   2.439  15.447 -0.5414  1.5256  1.5853
  214MPD1    N1 3313   0.490   2.013  15.365 -0.2562  0.8797  0.1190
  214MPD1    H6 3314   0.462   2.014  15.463  0.8019  1.5573  0.4177
  214MPD1    H7 3315   0.410   2.002  15.304 -1.0679  1.4815  1.0892
  215MPD1     C 3316   1.178   2.566  10.286  0.3809  0.0478 -0.1901
  215MPD1    C1 3317   1.179   2.693  10.232 -0.3302  0.4172 -0.0105
  215MPD1    C2 3318   1.113   2.793  10.303  0.0390  0.5210 -0.2741
  215MPD1    C3 3319   1.054   2.771  10.427  0.5155 -0.1156 -0.1829
  215MPD1    C4 3320   1.056   2.647  10.479  0.0712 -0.4524 -0.1689
  215MPD1    C5 3321   1.125   2.551  10.409 -0.5964  0.6555 -0.1823
  215MPD1     H 3322   1.110   2.892  10.259  0.6593  0.5928 -0.1539
  215MPD1    H1 3323   1.015   2.624  10.577  0.7946  0.6814  0.4138
  215MPD1    H2 3324   1.216   2.479  10.233  0.1912 -0.5702  0.6845
  215MPD1    H3 3325   1.131   2.456  10.461  0.2503  1.3109  0.8927
  215MPD1     N 3326   0.997   2.884  10.488 -0.5167 -0.1366  0.0720
  215MPD1    H5 3327   0.983   2.967  10.432 -0.9056 -0.3578 -0.1704
  215MPD1    N1 3328   1.226   2.709  10.103 -0.3936 -0.5682 -0.8242
  215MPD1    H6 3329   1.254   2.804  10.080 -0.7945  0.3256  2.3805
  215MPD1    H7 3330   1.291   2.634  10.079  0.4812 -0.6080  1.6456
  216MPD1     C 3331   2.218   1.741  17.492  0.9176 -0.0605  0.3074
  216MPD1    C1 3332   2.111   1.676  17.437  0.2030  1.3957  0.2583
  216MPD1    C2 3333   2.090   1.547  17.471  0.0114  0.7027  0.1445
  216MPD1    C3 3334   2.176   1.482  17.558 -0.7536 -0.1009  0.6918
  216MPD1    C4 3335   2.281   1.553  17.607  0.4115 -0.0559  0.5818
  216MPD1    C5 3336   2.303   1.682  17.577  0.0099  0.9526 -0.5125
  216MPD1     H 3337   2.011   1.494  17.421  0.5138  0.6440 -0.5814
  216MPD1    H1 3338   2.366   1.508  17.658 -0.1970 -0.7656  0.9769
  216MPD1    H2 3339   2.246   1.840  17.458 -0.0925  0.1678  0.1390
  216MPD1    H3 3340   2.393   1.727  17.618  0.6222 -1.0904  0.3895
  216MPD1     N 3341   2.152   1.346  17.578  0.0932 -0.0360  0.6339
  216MPD1    H5 3342   2.087   1.298  17.517  0.1052  1.4453 -0.5536
  216MPD1    N1 3343   2.018   1.743  17.354 -0.5520 -0.3792  0.4077
  216MPD1    H6 3344   1.961   1.678  17.301  0.4225 -1.4484  0.6696
  216MPD1    H7 3345   2.054   1.817  17.293  2.5265 -1.3885  0.9703
  217MPD1     C 3346   2.261   2.071   9.138  0.5927 -0.8733 -0.3985
  217MPD1    C1 3347   2.240   2.186   9.219 -0.3670 -0.3535  0.1212
  217MPD1    C2 3348   2.353   2.236   9.287 -0.4812  0.3038  0.2235
  217MPD1    C3 3349   2.481   2.183   9.261  0.6367 -0.3354  0.7249
  217MPD1    C4 3350   2.498   2.062   9.192  0.1849  0.5254  0.1073
  217MPD1    C5 3351   2.388   2.016   9.125 -0.3415 -0.3087 -0.2250
  217MPD1     H 3352   2.355   2.329   9.341  2.1745  0.2150  0.2836
  217MPD1    H1 3353   2.593   2.010   9.193 -0.7844 -1.2279 -1.2430
  217MPD1    H2 3354   2.173   2.026   9.094  0.7103 -2.1231  0.6439
  217MPD1    H3 3355   2.397   1.925   9.066  0.8359 -0.7018  0.5748
  217MPD1     N 3356   2.599   2.242   9.318  0.1233 -0.3194  0.3590
  217MPD1    H5 3357   2.683   2.189   9.295  0.2360 -0.3582  0.8749
  217MPD1    N1 3358   2.116   2.254   9.211 -0.4643  0.0255 -0.1732
  217MPD1    H6 3359   2.083   2.296   9.297  1.6634  2.4165 -0.5385
  217MPD1    H7 3360   2.040   2.206   9.162 -0.6625  0.2334 -0.0735
  218MPD1     C 3361   0.227   4.138  12.795  0.5687  0.5473 -0.3234
  218MPD1    C1 3362   0.184   4.014  12.755 -1.0498  0.3618  0.0828
  218MPD1    C2 3363   0.263   3.932  12.679 -0.1473 -0.2197 -0.2099
  218MPD1    C3 3364   0.374   3.969  12.620 -0.2737  0.0880 -0.0937
  218MPD1    C4 3365   0.416   4.098  12.648  0.1656  0.2953  0.3271
  218MPD1    C5 3366   0.336   4.178  12.738 -0.1563  0.0806 -0.1005
  218MPD1     H 3367   0.227   3.832  12.655  0.3477 -0.0134 -1.7570
  218MPD1    H1 3368   0.515   4.130  12.618 -0.6033  1.4903 -0.9722
  218MPD1    H2 3369   0.170   4.201  12.862  1.5479  0.8112  0.2633
  218MPD1    H3 3370   0.380   4.277  12.743 -1.6551  0.8739 -2.7785
  218MPD1     N 3371   0.447   3.879  12.541 -0.3052 -0.5288  0.1134
  218MPD1    H5 3372   0.419   3.783  12.553  3.4735 -1.5512  0.9621
  218MPD1    N1 3373   0.075   3.967  12.822  0.4954  0.4633 -0.4978
  218MPD1    H6 3374   4.737   4.032  12.830  0.3736 -0.0057  2.1279
  218MPD1    H7 3375   0.034   3.881  12.786  0.7416 -0.6359  1.8719
  219MPD1     C 3376   1.281   3.728  11.862 -0.2846 -0.4998 -0.2201
  219MPD1    C1 3377   1.213   3.840  11.901  0.6566 -0.0270  0.1868
  219MPD1    C2 3378   1.098   3.830  11.967  0.7855  0.3081 -0.0379
  219MPD1    C3 3379   1.032   3.710  11.982 -0.2733 -0.1082  0.2861
  219MPD1    C4 3380   1.095   3.597  11.926  0.2841 -0.2863 -0.7109
  219MPD1    C5 3381   1.216   3.604  11.867  0.6283  0.3242 -0.5992
  219MPD1     H 3382   1.055   3.920  12.010 -1.6128 -0.5037 -0.7720
  219MPD1    H1 3383   1.064   3.494  11.944  0.7132 -0.4433 -0.8816
  219MPD1    H2 3384   1.382   3.736  11.823 -0.7855 -0.8397 -1.6069
  219MPD1    H3 3385   1.262   3.520  11.816  0.8366 -0.0681  0.2520
  219MPD1     N 3386   0.918   3.692  12.062 -0.9747 -0.3375 -0.6574
  219MPD1    H5 3387   0.886   3.598  12.082  2.3117 -1.3700 -0.2395
  219MPD1    N1 3388   1.266   3.970  11.885 -0.6437  0.4732 -0.0489
  219MPD1    H6 3389   1.334   3.975  11.810 -0.9747 -1.4809 -0.4516
  219MPD1    H7 3390   1.194   4.033  11.849 -1.6706 -0.1504  0.8928
  220MPD1     C 3391   0.541   2.390   9.884 -0.5171  0.0288  0.4923
  220MPD1    C1 3392   0.586   2.511   9.837 -0.1669  0.1648 -0.4294
  220MPD1    C2 3393   0.504   2.617   9.852 -0.2370  0.4941  0.1664
  220MPD1    C3 3394   0.371   2.607   9.896 -0.0951  0.2259  0.1562
  220MPD1    C4 3395   0.331   2.484   9.943 -0.0511  0.3420 -0.5973
  220MPD1    C5 3396   0.415   2.382   9.939 -0.1633 -0.4960  0.9818
  220MPD1     H 3397   0.537   2.716   9.825 -2.4406  1.6121  1.5265
  220MPD1    H1 3398   0.232   2.473   9.986  1.1451 -0.8452  1.8219
  220MPD1    H2 3399   0.610   2.307   9.883  1.3579  1.5819 -0.0371
  220MPD1    H3 3400   0.386   2.288   9.984  1.1725 -0.5281  1.7775
  220MPD1     N 3401   0.290   2.723   9.885 -0.9359  0.1927  1.2316
  220MPD1    H5 3402   0.339   2.811   9.876 -1.5734  0.2569 -1.6015
  220MPD1    N1 3403   0.722   2.525   9.803  0.3065 -0.0599  0.0543
  220MPD1    H6 3404   0.762   2.434   9.778  0.3867 -0.1961  0.6954
  220MPD1    H7 3405   0.738   2.597   9.733 -1.1783  1.8953  1.7651
  221MPD1     C 3406   2.611   2.515  16.506 -0.6604 -0.0477 -0.8925
  221MPD1    C1 3407   2.648   2.411  16.581 -0.4254 -0.1393 -0.4912
  221MPD1    C2 3408   2.782   2.369  16.566  0.2393  0.3194 -0.1876
  221MPD1    C3 3409   2.856   2.413  16.453  0.5227  0.3314  0.1998
  221MPD1    C4 3410   2.808   2.506  16.370 -0.2232  0.3849  0.2401
  221MPD1    C5 3411   2.690   2.567  16.403  0.5584  0.0918  0.3508
  221MPD1     H 3412   2.820   2.299  16.639  0.5767  0.2817 -0.3986
  221MPD1    H1 3413   2.867   2.536  16.284  1.0028 -2.0553  0.2299
  221MPD1    H2 3414   2.517   2.567  16.519 -0.6863  0.1069 -1.6978
  221MPD1    H3 3415   2.652   2.648  16.341  2.2283  0.7243  0.1350
  221MPD1     N 3416   2.984   2.373  16.422  0.1600 -0.4500 -0.2212
  221MPD1    H5 3417   3.024   2.408  16.336  0.6569 -1.4214 -0.3885
  221MPD1    N1 3418   2.573   2.370  16.698  0.3707  0.5348 -0.2152
  221MPD1    H6 3419   2.587   2.274  16.728 -0.9114  0.6210  0.6427
  221MPD1    H7 3420   2.475   2.398  16.700  0.3640  0.8623 -4.2549
  222MPD1     C 3421   1.904   1.349   0.585 -0.3013 -0.3090 -0.2768
  222MPD1    C1 3422   1.820   1.348   0.476 -0.0209  0.9789 -0.3921
  222MPD1    C2 3423   1.857   1.432   0.372  0.0637  0.9356 -0.5492
  222MPD1    C3 3424   1.976   1.506   0.366  0.0947  0.8203  0.8396
  222MPD1    C4 3425   2.055   1.500   0.481 -0.1076 -0.0175 -0.5501
  222MPD1    C5 3426   2.023   1.417   0.586  0.8092  0.8144  0.2693
  222MPD1     H 3427   1.789   1.430   0.287  0.2509  0.2431 -0.6823
  222MPD1    H1 3428   2.145   1.560   0.489 -1.3843  1.9751 -0.9438
  222MPD1    H2 3429   1.878   1.301   0.679  0.2044 -1.8671 -0.9351
  222MPD1    H3 3430   2.093   1.415   0.669  0.6878  2.0815  0.4115
  222MPD1     N 3431   2.021   1.588   0.255  0.5213 -0.2930 -0.3746
  222MPD1    H5 3432   2.105   1.642   0.276  0.9527 -1.4214  0.7942
  222MPD1    N1 3433   1.701   1.280   0.492 -0.2589  0.0192 -0.7167
  222MPD1    H6 3434   1.666   1.241   0.404 -2.4519  2.5696 -0.9999
  222MPD1    H7 3435   1.719   1.197   0.547  2.7442  0.3213 -1.2493
  223MPD1     C 3436   1.400   2.116  17.427  0.2399  0.7029  0.5461
  223MPD1    C1 3437   1.381   1.990  17.486 -0.1918  0.4172  0.2209
  223MPD1    C2 3438   1.497   1.934  17.536  0.4777  0.1679 -0.3449
  223MPD1    C3 3439   1.627   1.989  17.518 -0.1676 -0.8750  0.0418
  223MPD1    C4 3440   1.638   2.108  17.447 -0.4273  0.0589 -0.2574
  223MPD1    C5 3441   1.522   2.161  17.402 -0.1773 -0.3191 -0.7944
  223MPD1     H 3442   1.481   1.840  17.588 -0.7998 -0.7271 -2.3517
  223MPD1    H1 3443   1.733   2.149  17.414 -0.6103  1.0675  0.4765
  223MPD1    H2 3444   1.318   2.179  17.396  0.2080  0.7394  0.7004
  223MPD1    H3 3445   1.533   2.257  17.354 -2.7490  0.2523 -0.2118
  223MPD1     N 3446   1.732   1.916  17.580  0.9936  0.0815  1.0598
  223MPD1    H5 3447   1.709   1.836  17.637  0.7984 -1.5268 -1.2946
  223MPD1    N1 3448   1.248   1.945  17.515 -0.7525  0.2058 -0.2081
  223MPD1    H6 3449   1.189   1.978  17.439  0.0748  0.9409 -0.5372
  223MPD1    H7 3450   1.227   1.845  17.515 -0.4299  0.1414  0.5191
  224MPD1     C 3451   2.653   2.838   9.544 -0.1130  0.2044  0.9678
  224MPD1    C1 3452   2.665   2.907   9.665  0.0249 -0.0904  0.6582
  224MPD1    C2 3453   2.792   2.942   9.700 -0.1875 -0.4397  0.1880
  224MPD1    C3 3454   2.903   2.920   9.621 -0.4789 -0.7277 -0.1871
  224MPD1    C4 3455   2.891   2.849   9.497 -0.3381  0.1648 -0.5650
  224MPD1    C5 3456   2.763   2.811   9.461  0.1635  0.0812 -0.0047
  224MPD1     H 3457   2.810   2.986   9.798  1.3847  1.6944 -1.0660
  224MPD1    H1 3458   2.976   2.838   9.431  0.8825 -0.2328  1.0751
  224MPD1    H2 3459   2.558   2.805   9.504  0.7519 -0.0967 -0.8275
  224MPD1    H3 3460   2.751   2.763   9.364  1.0630 -2.3886  1.1077
  224MPD1     N 3461   3.033   2.959   9.666 -0.3106  0.1620  0.1025
  224MPD1    H5 3462   3.110   2.928   9.607  1.4470  1.2302  1.8585
  224MPD1    N1 3463   2.571   2.906   9.766 -0.6085 -0.5040 -0.4695
  224MPD1    H6 3464   2.477   2.926   9.734 -0.6577 -2.5351 -1.5950
  224MPD1    H7 3465   2.594   2.987   9.823  0.2506 -1.1449  0.0957
  225MPD1     C 3466   0.464   0.152  12.588  0.2672 -1.0301 -0.2919
  225MPD1    C1 3467   0.454   0.023  12.544 -0.3551 -0.3619  0.2283
  225MPD1    C2 3468   0.345   4.723  12.470 -0.3318  0.2516  0.1050
  225MPD1    C3 3469   0.250   0.077  12.428 -0.5674  0.8005 -0.2243
  225MPD1    C4 3470   0.273   0.206  12.466  0.4040 -0.0225  0.0347
  225MPD1    C5 3471   0.372   0.242  12.548  0.8494  0.3949  0.5167
  225MPD1     H 3472   0.322   4.618  12.460  1.7893 -0.3181  1.1357
  225MPD1    H1 3473   0.198   0.281  12.445 -0.5491 -1.0662 -0.2969
  225MPD1    H2 3474   0.547   0.192  12.646  0.2232 -0.7985 -0.3874
  225MPD1    H3 3475   0.384   0.343  12.586  1.2038  1.2427 -1.8561
  225MPD1     N 3476   0.131   0.042  12.370  0.4688  0.5408  0.4290
  225MPD1    H5 3477   0.064   0.116  12.349 -1.2798 -0.8275  1.2367
  225MPD1    N1 3478   0.552   4.676  12.597  0.0479  0.2831  0.1212
  225MPD1    H6 3479   0.644   4.717  12.583  0.4706 -0.7629 -0.1655
  225MPD1    H7 3480   0.547   4.587  12.548  0.0947 -0.1620  0.9186
  226MPD1     C 3481   4.120   0.135  10.765  0.2856 -0.8600 -0.1970
  226MPD1    C1 3482   3.994   0.155  10.711  0.0151 -0.0391  0.0045
  226MPD1    C2 3483   3.975   0.124  10.576  0.5888  0.4617 -0.8354
  226MPD1    C3 3484   4.078   0.060  10.500 -0.4174  0.3460 -0.2339
  226MPD1    C4 3485   4.200   0.038  10.564  0.4316  0.0309 -0.5041
  226MPD1    C5 3486   4.215   0.067  10.696 -0.2661  0.2415 -0.0109
  226MPD1     H 3487   3.887   0.165  10.529 -0.4033 -0.5623  0.1259
  226MPD1    H1 3488   4.281   4.727  10.514 -0.4167  0.7979 -2.6832
  226MPD1    H2 3489   4.146   0.157  10.867 -0.9361  4.2969 -1.0151
  226MPD1    H3 3490   4.315   0.050  10.734 -0.7683  0.8708  1.5727
  226MPD1     N 3491   4.043   0.005  10.372  0.3388 -0.3259  0.3070
  226MPD1    H5 3492   3.950   0.003  10.333 -0.3605 -3.7223  2.1864
  226MPD1    N1 3493   3.897   0.234  10.784  0.2821 -0.3419  0.6666
  226MPD1    H6 3494   3.908   0.239  10.885  2.0939  0.0070  0.4454
  226MPD1    H7 3495   3.800   0.208  10.764  0.6007 -0.7177 -0.4356
  227MPD1     C 3496   3.377   4.102  10.040 -0.3101  0.3773  0.1380
  227MPD1    C1 3497   3.487   4.071   9.970  0.1268 -0.5952 -0.1122
  227MPD1    C2 3498   3.598   4.152   9.974 -0.3960  0.0502  0.4899
  227MPD1    C3 3499   3.604   4.259  10.060  0.8978  0.3674  0.0880
  227MPD1    C4 3500   3.493   4.290  10.135  1.6785  0.2222  0.3850
  227MPD1    C5 3501   3.377   4.207  10.127  0.3718  0.0640  0.2996
  227MPD1     H 3502   3.673   4.141   9.897 -1.4776  1.1539 -0.7269
  227MPD1    H1 3503   3.492   4.364  10.215 -2.7847  0.7886 -0.2059
  227MPD1    H2 3504   3.289   4.039  10.040  2.3064 -3.2673  0.0418
  227MPD1    H3 3505   3.286   4.226  10.182 -0.1671 -0.7282 -0.3144
  227MPD1     N 3506   3.724   4.337  10.059  0.0270  0.0602  0.4713
  227MPD1    H5 3507   3.799   4.312   9.996 -0.8606  0.4151 -0.7227
  227MPD1    N1 3508   3.465   3.981   9.862  0.2253  0.0456 -0.4199
  227MPD1    H6 3509   3.556   3.952   9.827 -0.3619 -0.8766 -1.1652
  227MPD1    H7 3510   3.410   3.898   9.882 -1.6356  1.0665 -1.2861
  228MPD1     C 3511   2.707   1.499  12.707  0.3766 -0.0661 -0.6966
  228MPD1    C1 3512   2.656   1.614  12.646 -0.7094  0.3708  0.1824
  228MPD1    C2 3513   2.523   1.644  12.666 -0.3112 -0.4633  0.2843
  228MPD1    C3 3514   2.441   1.569  12.749  0.6992  0.4738 -0.3183
  228MPD1    C4 3515   2.496   1.449  12.805  0.5309  1.0443  0.3257
  228MPD1    C5 3516   2.625   1.420  12.784  0.0882  0.0932 -0.3813
  228MPD1     H 3517   2.484   1.723  12.603  3.0205  0.2891 -0.7940
  228MPD1    H1 3518   2.446   1.379  12.871 -0.1242  2.2171  1.0842
  228MPD1    H2 3519   2.809   1.469  12.685  0.5109 -1.7431  2.2223
  228MPD1    H3 3520   2.659   1.327  12.826  0.4237  1.1330  1.6501
  228MPD1     N 3521   2.302   1.602  12.771 -0.4107  0.3763  0.2815
  228MPD1    H5 3522   2.275   1.689  12.727  1.9687  0.6274 -0.7166
  228MPD1    N1 3523   2.737   1.688  12.565  0.6130 -0.0169  0.4434
  228MPD1    H6 3524   2.834   1.689  12.596  0.5974  1.7940  0.4385
  228MPD1    H7 3525   2.705   1.783  12.549 -1.7112 -0.7090  1.0518
  229MPD1     C 3526   1.631   1.026  14.558  0.6131 -0.0640 -0.4040
  229MPD1    C1 3527   1.702   1.061  14.674  0.4577  0.1445 -0.8748
  229MPD1    C2 3528   1.778   0.962  14.735 -0.3650  0.7224 -0.5848
  229MPD1    C3 3529   1.764   0.835  14.692  0.1602  0.1118  0.3217
  229MPD1    C4 3530   1.674   0.803  14.596  0.3056  1.0239  0.1805
  229MPD1    C5 3531   1.613   0.897  14.527 -0.5724 -0.0690 -0.1856
  229MPD1     H 3532   1.838   0.988  14.821  0.3441 -0.7248 -0.6402
  229MPD1    H1 3533   1.662   0.700  14.562  1.0615  0.2335  2.3090
  229MPD1    H2 3534   1.583   1.101  14.497  1.0746  0.7353  0.2245
  229MPD1    H3 3535   1.556   0.867  14.440 -0.4141 -1.4867  0.1887
  229MPD1     N 3536   1.825   0.723  14.748 -0.9530 -0.4354  0.1500
  229MPD1    H5 3537   1.813   0.633  14.704  1.5196 -0.5876 -0.2139
  229MPD1    N1 3538   1.718   1.196  14.711  0.4978  0.1963 -0.1055
  229MPD1    H6 3539   1.735   1.201  14.811  0.7426 -0.9572 -0.0825
  229MPD1    H7 3540   1.641   1.260  14.691 -0.6442 -1.2311 -0.3122
  230MPD1     C 3541   1.870   0.248  15.699  0.4652  0.2321  1.1880
  230MPD1    C1 3542   1.851   0.175  15.580  0.1318  0.2371  0.4873
  230MPD1    C2 3543   1.906   0.208  15.456 -0.0660 -0.0524 -0.0702
  230MPD1    C3 3544   1.968   0.327  15.441 -0.5169  0.5045 -0.6853
  230MPD1    C4 3545   1.998   0.396  15.561 -0.2827  0.0898 -0.1850
  230MPD1    C5 3546   1.954   0.356  15.684 -0.1174 -0.0657 -0.3595
  230MPD1     H 3547   1.882   0.148  15.368  0.2363 -0.8107  0.3624
  230MPD1    H1 3548   2.041   0.495  15.562  3.2478 -1.4202 -1.1211
  230MPD1    H2 3549   1.825   0.203  15.787 -2.4162 -0.8452 -0.8079
  230MPD1    H3 3550   1.974   0.417  15.771 -1.7168 -0.6337  0.4042
  230MPD1     N 3551   1.991   0.373  15.304  0.6722  0.0782 -0.0319
  230MPD1    H5 3552   1.967   0.305  15.232  1.6396 -1.0405  0.7156
  230MPD1    N1 3553   1.782   0.054  15.596  0.5203 -0.2059  0.3885
  230MPD1    H6 3554   1.728   0.019  15.517 -0.8813 -0.3660  1.4060
  230MPD1    H7 3555   1.722   0.064  15.678  0.9178 -0.2032  0.6764
  231MPD1     C 3556   0.489   2.462  15.744  0.5367 -0.4524  0.7123
  231MPD1    C1 3557   0.439   2.401  15.633 -0.6877  0.3679 -1.0887
  231MPD1    C2 3558   0.452   2.464  15.508 -0.4286 -0.1804 -0.2407
  231MPD1    C3 3559   0.515   2.591  15.500 -0.0879 -0.3904  0.2923
  231MPD1    C4 3560   0.559   2.653  15.619 -0.5169 -0.5234 -0.3943
  231MPD1    C5 3561   0.545   2.588  15.739  0.9372 -0.0733 -0.0393
  231MPD1     H 3562   0.417   2.417  15.417 -2.4682  3.0419 -1.1138
  231MPD1    H1 3563   0.593   2.755  15.622 -1.3525 -0.3145  1.7016
  231MPD1    H2 3564   0.477   2.425  15.845 -0.4104 -2.5545 -0.1907
  231MPD1    H3 3565   0.584   2.633  15.830  1.1250  1.0228 -0.6578
  231MPD1     N 3566   0.523   2.647  15.371 -0.0019 -0.0124 -0.1446
  231MPD1    H5 3567   0.473   2.607  15.292 -0.2567  2.6752 -1.3622
  231MPD1    N1 3568   0.350   2.295  15.648  0.1499  0.0210 -0.1480
  231MPD1    H6 3569   0.355   2.237  15.565 -0.9111 -0.2329 -0.0401
  231MPD1    H7 3570   0.380   2.240  15.729  2.1417  1.0788 -0.1703
  232MPD1     C 3571   1.908   0.323   0.172 -0.2467  0.0214 -0.4078
  232MPD1    C1 3572   1.783   0.330   0.231 -0.5418 -0.3926 -0.5105
  232MPD1    C2 3573   1.723   0.213   0.262 -0.2638 -0.3240  1.2566
  232MPD1    C3 3574   1.786   0.088   0.232 -0.1961  0.0870  0.1858
  232MPD1    C4 3575   1.914   0.083   0.176 -0.1407  0.3463  0.1369
  232MPD1    C5 3576   1.971   0.201   0.149  0.3022 -0.1501 -0.2769
  232MPD1     H 3577   1.627   0.214   0.313 -2.8887  0.5385 -3.5951
  232MPD1    H1 3578   1.968   4.730   0.161 -2.6465 -1.3112  1.3464
  232MPD1    H2 3579   1.959   0.415   0.149 -1.1417  0.7475  0.5013
  232MPD1    H3 3580   2.076   0.205   0.123  0.6302 -1.1249  0.9383
  232MPD1     N 3581   1.717   4.706   0.253 -0.2728  0.0642  0.7078
  232MPD1    H5 3582   1.622   4.708   0.290 -0.3313  0.7097  0.5204
  232MPD1    N1 3583   1.719   0.447   0.271 -0.1927 -0.4718 -0.5036
  232MPD1    H6 3584   1.627   0.427   0.309 -1.2500 -0.4762 -3.0570
  232MPD1    H7 3585   1.709   0.515   0.196 -0.6279 -0.7212 -0.6673
  233MPD1     C 3586   2.786   3.385  17.187  0.0122  0.1789  0.9172
  233MPD1    C1 3587   2.733   3.481  17.270 -0.1320 -0.6559 -0.5331
  233MPD1    C2 3588   2.745   3.457  17.405  0.3403 -0.2459 -0.8907
  233MPD1    C3 3589   2.778   3.331  17.454 -0.2218  0.0784 -0.2385
  233MPD1    C4 3590   2.808   3.235  17.366 -0.9392 -0.4683 -1.2401
  233MPD1    C5 3591   2.810   3.259  17.229 -0.7474 -0.3595  0.4316
  233MPD1     H 3592   2.723   3.543  17.467 -0.3787  0.0040 -1.4948
  233MPD1    H1 3593   2.848   3.142  17.404 -0.7518  0.5233  0.9864
  233MPD1    H2 3594   2.800   3.407  17.081 -0.9011 -0.2574  0.7115
  233MPD1    H3 3595   2.835   3.190  17.149  0.1725  1.4916 -0.8799
  233MPD1     N 3596   2.775   3.298  17.591  0.4788 -0.0196 -0.4178
  233MPD1    H5 3597   2.781   3.198  17.605 -1.4660 -0.1709 -0.6794
  233MPD1    N1 3598   2.712   3.609  17.216 -0.6114 -0.7302 -0.4673
  233MPD1    H6 3599   2.643   3.657  17.273  0.4602  1.1395 -0.7193
  233MPD1    H7 3600   2.687   3.603  17.118 -1.0392  2.4745 -0.5764
  234MPD1     C 3601   4.188   1.443   9.726  0.4977  0.5071  0.5278
  234MPD1    C1 3602   4.222   1.552   9.806 -0.7475  0.2157  0.2411
  234MPD1    C2 3603   4.154   1.670   9.766 -0.1885 -0.2832  0.3363
  234MPD1    C3 3604   4.058   1.675   9.667  0.7313 -0.5388 -0.1767
  234MPD1    C4 3605   4.035   1.565   9.595  0.2470  0.4848 -0.5856
  234MPD1    C5 3606   4.095   1.448   9.626  0.2878  0.6026  0.1511
  234MPD1     H 3607   4.181   1.765   9.813 -1.7355 -0.3469  1.3500
  234MPD1    H1 3608   3.960   1.552   9.517  0.6200 -0.1595 -0.8387
  234MPD1    H2 3609   4.231   1.344   9.735  0.4149  0.5462  1.2808
  234MPD1    H3 3610   4.058   1.356   9.581 -2.3294  0.4333  2.6423
  234MPD1     N 3611   3.980   1.794   9.654 -0.2596  0.0276 -0.6865
  234MPD1    H5 3612   4.003   1.870   9.717 -0.0897  0.2310 -0.9967
  234MPD1    N1 3613   4.328   1.554   9.899 -0.5705 -0.4174 -0.0355
  234MPD1    H6 3614   4.317   1.636   9.959  2.1590  0.3217 -0.5519
  234MPD1    H7 3615   4.334   1.465   9.949  1.0320  0.3295  1.0968
  235MPD1     C 3616   1.163   3.971  10.542 -0.0609  0.8634 -0.0725
  235MPD1    C1 3617   1.197   4.047  10.431  0.7325 -0.4203  0.5365
  235MPD1    C2 3618   1.219   4.187  10.442 -0.0000  0.3587 -0.3689
  235MPD1    C3 3619   1.216   4.242  10.571  0.5014  0.3340  0.0547
  235MPD1    C4 3620   1.173   4.166  10.678  0.1753 -0.4828 -0.7122
  235MPD1    C5 3621   1.150   4.033  10.663 -0.5044  0.7625  0.4765
  235MPD1     H 3622   1.232   4.254  10.358 -0.2584 -0.0663 -0.7463
  235MPD1    H1 3623   1.158   4.211  10.776  3.0186 -0.6559 -0.1935
  235MPD1    H2 3624   1.136   3.867  10.528 -0.0741  0.7203  0.9840
  235MPD1    H3 3625   1.102   3.968  10.735 -1.4443  0.1970 -0.6742
  235MPD1     N 3626   1.258   4.378  10.588 -0.4459  0.3176  0.4619
  235MPD1    H5 3627   1.302   4.415  10.505  0.3637 -0.4676  0.5419
  235MPD1    N1 3628   1.186   3.981  10.308  0.4669  0.1507  0.2480
  235MPD1    H6 3629   1.218   3.886  10.321  2.9288  0.9497  0.1087
  235MPD1    H7 3630   1.246   4.028  10.240  1.1610  1.9448  2.0708
  236MPD1     C 3631   4.651   0.870   9.575 -0.2890  0.0555 -0.1876
  236MPD1    C1 3632   4.689   0.737   9.581 -0.4802 -0.2543 -1.4674
  236MPD1    C2 3633   0.048   0.707   9.677  0.0745  0.6616 -0.1474
  236MPD1    C3 3634   0.111   0.810   9.741  0.8996  0.0507  0.3556
  236MPD1    C4 3635   0.064   0.938   9.735  0.3862  0.6978 -0.1150
  236MPD1    C5 3636   4.707   0.968   9.651 -0.5987  0.3021  0.2321
  236MPD1     H 3637   0.076   0.603   9.688  3.5557  1.5854 -0.2479
  236MPD1    H1 3638   0.106   1.018   9.795 -1.7500  2.4053 -0.9249
  236MPD1    H2 3639   4.568   0.894   9.509 -2.1464 -1.3757  1.6311
  236MPD1    H3 3640   4.672   1.071   9.643 -1.0605  0.2329  1.3483
  236MPD1     N 3641   0.217   0.793   9.832  0.3707 -0.3704 -0.0033
  236MPD1    H5 3642   0.235   0.875   9.889  0.4011 -1.3091  1.3509
  236MPD1    N1 3643   4.608   0.638   9.521 -0.3346  0.5053  1.1371
  236MPD1    H6 3644   4.660   0.555   9.492 -2.6469 -1.6423  3.1561
  236MPD1    H7 3645   4.548   0.669   9.445  1.8132 -0.7387 -1.0763
  237MPD1     C 3646   0.591   4.123  15.109 -0.3999  0.1162  0.5400
  237MPD1    C1 3647   0.477   4.204  15.104  0.8678  0.4780  0.5413
  237MPD1    C2 3648   0.355   4.151  15.142 -0.1995 -0.0838 -0.2245
  237MPD1    C3 3649   0.348   4.021  15.193 -0.1118  0.0964 -0.0024
  237MPD1    C4 3650   0.466   3.953  15.215  0.3473 -0.3554 -0.0119
  237MPD1    C5 3651   0.584   4.000  15.167  0.0874 -0.4327  0.1362
  237MPD1     H 3652   0.267   4.212  15.127 -1.0589 -0.7970  2.0403
  237MPD1    H1 3653   0.465   3.849  15.245 -0.6668 -0.1029  0.8159
  237MPD1    H2 3654   0.689   4.161  15.082  0.1547 -1.3344  0.5359
  237MPD1    H3 3655   0.671   3.936  15.157  1.0613  0.9202 -0.0550
  237MPD1     N 3656   0.232   3.951  15.224 -0.0024 -1.1242  0.2216
  237MPD1    H5 3657   0.242   3.852  15.246 -0.0025 -1.0485  0.5522
  237MPD1    N1 3658   0.485   4.329  15.034  0.3564  0.2505 -0.6267
  237MPD1    H6 3659   0.403   4.389  15.040 -0.2958 -0.9715  2.8652
  237MPD1    H7 3660   0.573   4.376  15.054  0.6078 -1.5332  2.3791
  238MPD1     C 3661   2.041   3.199  14.526  0.4553 -0.2552  0.5558
  238MPD1    C1 3662   2.007   3.168  14.654 -0.1999 -0.5613  0.9851
  238MPD1    C2 3663   1.912   3.067  14.667 -0.2878 -0.3233  0.5155
  238MPD1    C3 3664   1.879   2.979  14.570 -0.6599 -0.5834 -0.1593
  238MPD1    C4 3665   1.932   2.998  14.444 -0.5284 -0.3204  0.2799
  238MPD1    C5 3666   2.003   3.105  14.429 -0.3972 -0.0112 -0.2693
  238MPD1     H 3667   1.869   3.050  14.765  0.3448 -1.1089  0.6470
  238MPD1    H1 3668   1.894   2.941  14.360 -0.9199 -1.2951  1.1206
  238MPD1    H2 3669   2.113   3.277  14.507 -1.9036  1.9994  0.9748
  238MPD1    H3 3670   2.036   3.115  14.326  0.1828 -2.6844 -0.3380
  238MPD1     N 3671   1.802   2.865  14.588 -0.8956  0.0754 -0.0648
  238MPD1    H5 3672   1.797   2.800  14.510 -2.0845  1.0938 -0.8203
  238MPD1    N1 3673   2.053   3.256  14.757 -0.3703  0.3316  0.4456
  238MPD1    H6 3674   2.151   3.280  14.744  0.5177 -2.4506  1.9943
  238MPD1    H7 3675   2.061   3.207  14.846  1.9659  1.4377  0.8328
  239MPD1     C 3676   1.215   2.711  14.732  0.8061  0.2342  1.0054
  239MPD1    C1 3677   1.248   2.706  14.592 -0.3306  0.8224 -0.0770
  239MPD1    C2 3678   1.313   2.809  14.529  0.4705  0.1826 -0.4533
  239MPD1    C3 3679   1.356   2.917  14.601  0.6938 -0.1951 -0.6359
  239MPD1    C4 3680   1.336   2.921  14.740  1.0590  0.4294 -0.0004
  239MPD1    C5 3681   1.270   2.817  14.806 -0.8855 -0.5642 -0.0209
  239MPD1     H 3682   1.324   2.802  14.422 -0.8702  0.4950 -0.6103
  239MPD1    H1 3683   1.387   3.000  14.794  0.9406  1.6279 -1.6448
  239MPD1    H2 3684   1.172   2.625  14.782  0.4335 -0.9176 -1.2963
  239MPD1    H3 3685   1.266   2.816  14.914  1.8419  0.2609  0.0676
  239MPD1     N 3686   1.427   3.026  14.548 -0.0493  0.1653  0.5413
  239MPD1    H5 3687   1.439   3.100  14.617  2.6018  0.3478 -0.1000
  239MPD1    N1 3688   1.193   2.601  14.513 -0.3821  0.7976 -0.1800
  239MPD1    H6 3689   1.261   2.584  14.440 -1.0629 -2.1230 -0.1272
  239MPD1    H7 3690   1.175   2.510  14.554  0.5034  0.4567 -0.5526
  240MPD1     C 3691   0.652   3.534  13.036  0.3975 -0.2404 -0.5426
  240MPD1    C1 3692   0.654   3.416  13.104 -0.3335  0.5354 -0.0847
  240MPD1    C2 3693   0.777   3.352  13.140  0.1452  0.7513 -0.7863
  240MPD1    C3 3694   0.901   3.400  13.106  0.0954 -0.8027  0.0635
  240MPD1    C4 3695   0.893   3.517  13.032 -0.1193 -0.4769  0.6508
  240MPD1    C5 3696   0.772   3.569  12.988 -0.2571  0.1029 -0.6751
  240MPD1     H 3697   0.772   3.272  13.213  0.5728  1.4868  0.0294
  240MPD1    H1 3698   0.978   3.579  13.005 -0.0417 -0.4603  0.9272
  240MPD1    H2 3699   0.558   3.582  13.010  0.5951  0.5967  0.2659
  240MPD1    H3 3700   0.779   3.660  12.929  1.9897  1.8553  2.2833
  240MPD1     N 3701   1.014   3.334  13.166 -0.1443 -0.6250 -0.9716
  240MPD1    H5 3702   0.995   3.255  13.227  1.4288  0.7568  1.3109
  240MPD1    N1 3703   0.535   3.372  13.169 -0.1947  0.8262 -0.1395
  240MPD1    H6 3704   0.451   3.399  13.117 -0.5183  1.4436  0.7078
  240MPD1    H7 3705   0.538   3.272  13.188  0.1672  0.8384 -0.1340
  241MPD1     C 3706   1.880   3.137  12.757 -0.6917  0.7134 -0.0820
  241MPD1    C1 3707   1.859   3.029  12.842 -0.1207  0.5319 -0.3709
  241MPD1    C2 3708   1.756   3.039  12.940  0.3427 -0.0804 -0.7898
  241MPD1    C3 3709   1.678   3.157  12.941 -0.4942 -0.5866 -0.3801
  241MPD1    C4 3710   1.709   3.257  12.855 -0.3662 -0.2137 -0.2778
  241MPD1    C5 3711   1.802   3.247  12.761  0.4185 -0.8191  0.0194
  241MPD1     H 3712   1.747   2.954  13.006 -1.5004 -0.6259 -1.7491
  241MPD1    H1 3713   1.666   3.356  12.858  1.5346  0.6444 -1.1608
  241MPD1    H2 3714   1.957   3.134  12.681 -0.8735 -0.8185 -0.1998
  241MPD1    H3 3715   1.819   3.333  12.697 -2.8946  2.3535  3.3602
  241MPD1     N 3716   1.575   3.180  13.032 -0.0399 -0.6440  0.2329
  241MPD1    H5 3717   1.513   3.257  13.011  0.1998 -0.4804  0.1389
  241MPD1    N1 3718   1.928   2.911  12.820 -0.5716  0.6569  0.2626
  241MPD1    H6 3719   2.028   2.921  12.800 -0.3177 -0.0784  1.1692
  241MPD1    H7 3720   1.909   2.835  12.884 -3.2708  0.7611 -0.4227
  242MPD1     C 3721   1.645   1.828  16.043 -0.5594  0.3114 -0.5361
  242MPD1    C1 3722   1.698   1.716  16.113  0.2033 -0.0027  0.4457
  242MPD1    C2 3723   1.744   1.614  16.034 -0.7158  0.1229 -0.3100
  242MPD1    C3 3724   1.764   1.631  15.890 -1.2840 -0.1574  0.5489
  242MPD1    C4 3725   1.722   1.749  15.829  0.8126 -0.3103 -0.3111
  242MPD1    C5 3726   1.669   1.848  15.906 -0.2511 -0.1851 -0.1284
  242MPD1     H 3727   1.782   1.528  16.087 -1.3815  0.6483  1.0123
  242MPD1    H1 3728   1.718   1.771  15.723  0.2504 -2.2116 -0.6793
  242MPD1    H2 3729   1.592   1.908  16.093  2.1316  1.3300  0.6865
  242MPD1    H3 3730   1.640   1.938  15.853  4.4642  1.3933 -0.0514
  242MPD1     N 3731   1.811   1.536  15.803 -0.8828  0.3407  0.1734
  242MPD1    H5 3732   1.832   1.563  15.708  0.4459  1.5010  0.8051
  242MPD1    N1 3733   1.664   1.691  16.244 -0.6245  0.1705  0.3261
  242MPD1    H6 3734   1.717   1.628  16.303  0.4718  0.7523 -0.0403
  242MPD1    H7 3735   1.638   1.778  16.291 -2.9618  0.2331 -1.0884
  243MPD1     C 3736   1.722   0.235  17.628 -0.1249 -0.2845  0.0658
  243MPD1    C1 3737   1.759   0.100  17.639  0.4631 -0.0214 -0.2276
  243MPD1    C2 3738   1.894   0.076  17.611  0.1117  0.2117 -0.4027
  243MPD1    C3 3739   1.985   0.176  17.577 -0.3599 -1.0931 -0.6539
  243MPD1    C4 3740   1.947   0.307  17.587  0.1833  0.0317 -0.3096
  243MPD1    C5 3741   1.813   0.333  17.608  0.2195  0.1152  0.1767
  243MPD1     H 3742   1.924   4.713  17.595  0.1309  0.3873 -1.4970
  243MPD1    H1 3743   2.011   0.393  17.575  0.0478 -0.2316 -2.8669
  243MPD1    H2 3744   1.622   0.269  17.651 -0.8136 -1.3303 -1.3363
  243MPD1    H3 3745   1.780   0.436  17.601 -1.0660 -0.4006 -1.3097
  243MPD1     N 3746   2.116   0.142  17.547 -0.2823  0.4963 -0.6017
  243MPD1    H5 3747   2.139   0.044  17.541 -1.6439  0.1197  0.4651
  243MPD1    N1 3748   1.667   0.005  17.649 -0.0142  0.3072 -0.4227
  243MPD1    H6 3749   1.587   0.055  17.688  0.3016 -1.6746  2.8283
  243MPD1    H7 3750   1.697   4.673  17.714 -2.6352 -1.8918 -1.6616
  244MPD1     C 3751   2.759   4.140  17.346  0.7902 -0.0066 -0.5554
  244MPD1    C1 3752   2.818   4.245  17.283 -0.0240  0.7197 -0.0064
  244MPD1    C2 3753   2.746   4.364  17.279 -0.0098 -0.1322 -0.1822
  244MPD1    C3 3754   2.640   4.387  17.366 -0.1127  0.3122 -1.0313
  244MPD1    C4 3755   2.596   4.284  17.445 -0.5231 -0.0787  0.5841
  244MPD1    C5 3756   2.663   4.168  17.436 -0.3158  0.5372  0.0791
  244MPD1     H 3757   2.768   4.444  17.208  3.7365 -1.6973 -0.8159
  244MPD1    H1 3758   2.519   4.297  17.521 -2.3291  1.7445 -1.5689
  244MPD1    H2 3759   2.797   4.038  17.340  0.0132 -0.2530 -1.4023
  244MPD1    H3 3760   2.639   4.085  17.502 -1.0458  0.7170  0.0336
  244MPD1     N 3761   2.584   4.518  17.358 -0.8527  0.4612 -0.1956
  244MPD1    H5 3762   2.622   4.582  17.289  0.1399  0.7553  0.6078
  244MPD1    N1 3763   2.928   4.227  17.197 -0.0708  0.1205 -0.5067
  244MPD1    H6 3764   2.992   4.301  17.223  1.7344 -0.8581 -2.2329
  244MPD1    H7 3765   2.983   4.146  17.226 -1.3554  0.0222  1.7173
  245MPD1     C 3766   0.063   0.214  13.246  0.4087  0.5728 -0.2498
  245MPD1    C1 3767   0.138   0.215  13.360  0.4885 -0.3586 -0.4001
  245MPD1    C2 3768   0.166   0.340  13.422 -0.4041 -0.5505 -0.1337
  245MPD1    C3 3769   0.135   0.457  13.355  0.6988 -0.5322 -0.1672
  245MPD1    C4 3770   0.067   0.448  13.233  0.4668 -0.0282 -0.2225
  245MPD1    C5 3771   0.035   0.328  13.180 -0.0609  0.7984 -0.5010
  245MPD1     H 3772   0.215   0.355  13.517 -2.3999 -1.4487  1.0413
  245MPD1    H1 3773   0.045   0.542  13.186 -0.4056  0.0155  0.2672
  245MPD1    H2 3774   0.040   0.120  13.197  0.4873  0.2514  0.3262
  245MPD1    H3 3775   4.724   0.321  13.085  1.2060 -0.7468 -1.0843
  245MPD1     N 3776   0.182   0.579  13.410 -0.0830 -0.2501 -0.1750
  245MPD1    H5 3777   0.244   0.575  13.490 -1.6428 -2.2783  0.9433
  245MPD1    N1 3778   0.149   0.100  13.434 -0.2276 -0.0687 -0.7260
  245MPD1    H6 3779   0.165   0.022  13.370 -1.5238 -0.7517 -0.2074
  245MPD1    H7 3780   0.230   0.106  13.495 -0.8292 -1.4390  0.1860
  246MPD1     C 3781   0.729   3.111   9.943 -0.3860  0.1562 -0.4643
  246MPD1    C1 3782   0.739   3.010   9.853 -0.3100  0.0007  0.0912
  246MPD1    C2 3783   0.760   2.881   9.915 -0.1884 -0.4357 -0.4535
  246MPD1    C3 3784   0.765   2.865  10.055  0.1069 -0.8829 -0.0031
  246MPD1    C4 3785   0.748   2.977  10.135  0.2215  0.9497  0.5889
  246MPD1    C5 3786   0.739   3.103  10.079  1.2440 -0.1860  0.5485
  246MPD1     H 3787   0.776   2.801   9.843 -0.2635 -1.3688  0.5668
  246MPD1    H1 3788   0.771   2.971  10.241 -2.2754 -1.2241  1.0066
  246MPD1    H2 3789   0.693   3.209   9.912 -0.2598  0.1165 -0.7392
  246MPD1    H3 3790   0.732   3.191  10.143  0.7123  0.1145  0.0787
  246MPD1     N 3791   0.779   2.731  10.107 -0.8764 -0.0335 -0.1661
  246MPD1    H5 3792   0.776   2.659  10.036  0.0078  0.8289 -1.0887
  246MPD1    N1 3793   0.711   3.021   9.715 -0.0809  0.1027 -0.8685
  246MPD1    H6 3794   0.752   2.947   9.657 -0.0699  0.7592 -1.7067
  246MPD1    H7 3795   0.729   3.111   9.671 -1.6115  1.2765  0.9368
  247MPD1     C 3796   3.270   4.583  15.831  0.0552  0.1262  0.0982
  247MPD1    C1 3797   3.232   4.692  15.897  0.5083  0.2378 -0.5948
  247MPD1    C2 3798   3.307   0.064  15.874 -0.7965  0.7347 -0.3176
  247MPD1    C3 3799   3.415   0.067  15.794  0.1950 -0.0025 -0.3733
  247MPD1    C4 3800   3.454   4.689  15.734 -0.4020  0.2008  0.4918
  247MPD1    C5 3801   3.374   4.580  15.738 -0.8173  0.1243  0.8765
  247MPD1     H 3802   3.271   0.151  15.928 -1.8703  0.0109  0.1479
  247MPD1    H1 3803   3.546   4.682  15.677 -1.2600  3.3065 -1.2288
  247MPD1    H2 3804   3.210   4.493  15.835 -0.9911  0.8316  0.3289
  247MPD1    H3 3805   3.390   4.496  15.672 -2.2372  2.9520 -3.0847
  247MPD1     N 3806   3.495   0.181  15.778 -0.7313  0.1202 -0.3139
  247MPD1    H5 3807   3.577   0.166  15.720  0.3258 -1.3033  1.5641
  247MPD1    N1 3808   3.132   4.690  15.995  0.8482  0.0183 -0.8339
  247MPD1    H6 3809   3.062   4.620  15.969  2.6600 -2.0462 -0.1672
  247MPD1    H7 3810   3.093   0.043  16.007  1.5779 -0.0125  1.7379
  248MPD1     C 3811   0.212   0.785   0.283  0.0077  0.2854 -0.7361
  248MPD1    C1 3812   0.080   0.807   0.260 -0.1778  0.6693 -0.0493
  248MPD1    C2 3813   0.019   0.923   0.287 -0.5566  0.4284  0.1971
  248MPD1    C3 3814   0.088   1.020   0.346 -0.8396  0.6551  0.3674
  248MPD1    C4 3815   0.220   1.008   0.365  0.1749 -0.0566 -0.3842
  248MPD1    C5 3816   0.279   0.887   0.343  0.7017  0.1294 -0.9646
  248MPD1     H 3817   4.652   0.927   0.272 -0.4983 -0.3202 -0.4062
  248MPD1    H1 3818   0.288   1.085   0.400  1.1168 -2.0340  2.1065
  248MPD1    H2 3819   0.255   0.692   0.249  0.5614  0.5387 -0.7284
  248MPD1    H3 3820   0.386   0.876   0.360  0.2472 -3.3484 -0.4247
  248MPD1     N 3821   0.015   1.131   0.385  0.2701 -0.4065  0.0835
  248MPD1    H5 3822   4.655   1.124   0.371 -0.1737  1.1846  2.3693
  248MPD1    N1 3823   0.000   0.700   0.217 -0.4972 -0.0208  0.6867
  248MPD1    H6 3824   0.055   0.625   0.175 -2.0132 -0.5116 -0.4089
  248MPD1    H7 3825   4.666   0.730   0.154  1.5204  1.8557 -0.7958
  249MPD1     C 3826   1.506   3.002  11.156  0.9624 -0.7111  0.1546
  249MPD1    C1 3827   1.562   3.126  11.140  0.2049 -0.0371  0.4564
  249MPD1    C2 3828   1.577   3.178  11.010  0.1472  0.3591 -0.1262
  249MPD1    C3 3829   1.553   3.094  10.902  0.1562 -0.3113  0.4855
  249MPD1    C4 3830   1.517   2.962  10.925  0.0672  0.4282  0.3282
  249MPD1    C5 3831   1.492   2.921  11.047  0.3416 -0.2185 -0.2794
  249MPD1     H 3832   1.621   3.277  11.001 -0.0694  0.4483 -0.2176
  249MPD1    H1 3833   1.494   2.903  10.837 -0.3338 -0.7637  1.2477
  249MPD1    H2 3834   1.486   2.955  11.251  1.9608  0.3349  0.8927
  249MPD1    H3 3835   1.453   2.821  11.060  0.5470 -0.2577  0.0402
  249MPD1     N 3836   1.563   3.160  10.783  0.4628  0.1714  0.1265
  249MPD1    H5 3837   1.577   3.261  10.781  2.7007 -0.1426  0.5081
  249MPD1    N1 3838   1.574   3.207  11.253  0.1607 -0.5742 -0.3704
  249MPD1    H6 3839   1.652   3.273  11.252 -1.3399  1.1969 -0.1879
  249MPD1    H7 3840   1.580   3.147  11.335  1.4216  1.3418  0.9442
  250MPD2     C 3841   2.714   4.105  13.479  0.3552 -0.4951 -0.6485
  250MPD2    C1 3842   2.657   4.208  13.404 -0.3406 -0.3191  0.0433
  250MPD2    C2 3843   2.533   4.185  13.340 -0.3020 -0.0471 -0.0417
  250MPD2    C3 3844   2.469   4.067  13.367  0.0321 -0.2362  0.2071
  250MPD2    C4 3845   2.517   3.974  13.456  0.1773 -0.5940  0.2027
  250MPD2    C5 3846   2.644   3.991  13.509  0.1741  0.4446  0.6723
  250MPD2     H 3847   2.491   4.256  13.270 -2.1637  0.3400  1.4782
  250MPD2    H1 3848   2.472   3.879  13.485 -2.1709  0.9091  1.4803
  250MPD2    H2 3849   2.808   4.115  13.533  0.1911  0.6198 -0.5606
  250MPD2    H3 3850   2.695   3.907  13.553 -0.9890 -1.9089 -2.5198
  250MPD2     N 3851   2.344   4.036  13.315  0.1941  0.0220  0.4089
  250MPD2    H5 3852   2.290   3.962  13.358 -0.4708  0.5865  0.5326
  250MPD2    N1 3853   2.740   4.323  13.377  0.0018 -0.2344  0.3950
  250MPD2    H7 3854   2.838   4.316  13.401  0.2602 -1.2426 -0.9512
  251TMC3    C1 3855   2.804   4.537  13.296 -0.0904 -0.3182 -0.2575
  251TMC3    C2 3856   2.772   4.669  13.298  0.5400  0.1361 -0.7864
  251TMC3    C3 3857   2.877   0.020  13.312 -0.6457  0.3458 -0.0535
  251TMC3    C4 3858   2.937   4.500  13.287  0.0453 -0.7387 -0.0373
  251TMC3    C5 3859   3.036   4.590  13.304  0.5534 -0.0309  0.1194
  251TMC3    C6 3860   3.009   4.719  13.321  0.6785 -0.0447  0.0641
  251TMC3     C 3861   2.696   4.437  13.317 -0.0159  0.5720 -0.0074
  251TMC3     O 3862   2.580   4.476  13.319  0.2677 -0.1298 -0.1089
  251TMC3     H 3863   2.671   4.703  13.321  0.0640 -0.3437 -2.1606
  251TMC3    H1 3864   2.957   4.394  13.272 -1.5175 -1.0493  0.1363
  251TMC3    H2 3865   3.078   0.051  13.364  1.3804  0.8773 -2.6206
  251TMC3    C7 3866   3.163   4.537  13.343  0.7513 -0.0018  0.7493
  251TMC3    C8 3867   2.836   0.159  13.301 -0.5954 -0.2581 -0.1722
  251TMC3    O1 3868   3.224   4.584  13.437  0.1297 -0.3410 -0.3877
  251TMC3    O2 3869   2.726   0.196  13.332  0.2688  0.6237 -0.0210
  252TMC3    C1 3870   3.230   4.259   9.767  0.5438 -0.2902 -0.2382
  252TMC3    C2 3871   3.357   4.294   9.732  0.4799  0.6209 -0.4878
  252TMC3    C3 3872   3.405   4.419   9.771 -0.3127  0.2493  0.3818
  252TMC3    C4 3873   3.147   4.344   9.833  0.3385  0.4520  1.0179
  252TMC3    C5 3874   3.197   4.469   9.867 -0.4694  0.4395  0.3625
  252TMC3    C6 3875   3.326   4.509   9.839  0.0656  0.6115  0.0533
  252TMC3     C 3876   3.157   4.151   9.701  0.5854 -0.5289 -0.7598
  252TMC3     O 3877   3.040   4.168   9.667 -0.5214  0.7793 -0.3491
  252TMC3     H 3878   3.420   4.220   9.684 -1.3808 -1.2340 -0.0748
  252TMC3    H1 3879   3.046   4.316   9.860  0.7426 -1.5174  0.4902
  252TMC3    H2 3880   3.360   4.611   9.850 -0.9113  0.9615 -0.1940
  252TMC3    C7 3881   3.097   4.577   9.902  0.4557 -0.5221  0.0689
  252TMC3    C8 3882   3.543   4.457   9.732 -0.6821 -0.7313  0.6179
  252TMC3    O1 3883   2.985   4.531   9.903 -0.2056 -0.2055 -0.2309
  252TMC3    O2 3884   3.602   4.379   9.658  0.2447  0.1095  0.3303
  253MPD2     C 3885   4.482   4.111  15.366 -0.2641  0.5492  0.0488
  253MPD2    C1 3886   4.355   4.063  15.343  0.1952  0.6316  0.1644
  253MPD2    C2 3887   4.297   3.991  15.436 -0.7111 -0.6492  0.8082
  253MPD2    C3 3888   4.350   3.954  15.560  0.3782  0.1267  0.0387
  253MPD2    C4 3889   4.481   3.997  15.578 -0.2849 -0.3185 -0.5964
  253MPD2    C5 3890   4.549   4.070  15.484 -0.2200  0.7073  0.0669
  253MPD2     H 3891   4.198   3.967  15.399  0.4630 -1.8925 -1.4988
  253MPD2    H1 3892   4.541   3.972  15.665 -0.5916  1.0603  0.0036
  253MPD2    H2 3893   4.544   4.149  15.287 -0.8643  2.1848  0.3421
  253MPD2    H3 3894   4.651   4.101  15.502 -0.2995  1.7750 -1.3540
  253MPD2     N 3895   4.273   3.894  15.660  0.0255 -0.3969 -0.0018
  253MPD2    H5 3896   4.329   3.864  15.739  1.3061 -1.6731 -1.4016
  253MPD2    N1 3897   4.281   4.095  15.225  0.6047  0.5089  0.4242
  253MPD2    H7 3898   4.184   4.064  15.230  1.3460 -1.8174  0.4080
  254TMC3    C1 3899   4.072   3.842  15.786 -0.1426  0.2318 -0.3174
  254TMC3    C2 3900   3.959   3.911  15.820  0.2042 -0.1067  0.1310
  254TMC3    C3 3901   3.922   3.891  15.951 -0.4073 -0.0337  0.5973
  254TMC3    C4 3902   4.146   3.757  15.868 -0.1431 -0.2409  0.1263
  254TMC3    C5 3903   4.102   3.753  15.997  0.1339 -0.2410  0.5238
  254TMC3    C6 3904   3.985   3.811  16.041 -0.3636  0.5156  0.0782
  254TMC3     C 3905   4.135   3.879  15.658 -0.8650  0.1387 -0.1732
  254TMC3     O 3906   4.051   3.924  15.579  0.1492 -0.2755  0.6838
  254TMC3     H 3907   3.909   3.979  15.751  0.2388 -0.9898 -0.7647
  254TMC3    H1 3908   4.236   3.707  15.833 -0.2813 -0.7749  0.5322
  254TMC3    H2 3909   3.950   3.815  16.143  1.3941 -0.2558  0.7160
  254TMC3    C7 3910   4.181   3.688  16.106 -0.5441 -0.5205  0.3875
  254TMC3    C8 3911   3.826   3.983  16.010 -0.5455 -0.0125  0.2037
  254TMC3    O1 3912   4.109   3.650  16.201 -0.1803  0.4844 -0.3067
  254TMC3    O2 3913   3.835   4.016  16.127  0.7554 -0.3781  0.3263
  255MPD2     C 3914   1.920   1.737  11.044  0.1767 -0.0142 -0.4435
  255MPD2    C1 3915   2.012   1.812  10.977 -0.8061 -0.8849  0.1817
  255MPD2    C2 3916   2.100   1.751  10.885  0.4364  0.2772  0.2837
  255MPD2    C3 3917   2.089   1.613  10.857  0.2509 -0.1378  0.2179
  255MPD2    C4 3918   1.983   1.543  10.923 -0.3777 -0.5652 -0.5329
  255MPD2    C5 3919   1.906   1.603  11.013 -0.1390  0.5434 -0.0011
  255MPD2     H 3920   2.180   1.810  10.843  2.4274 -1.9017  1.0297
  255MPD2    H1 3921   1.970   1.436  10.916 -0.8634 -0.3399 -3.0474
  255MPD2    H2 3922   1.868   1.781  11.128 -0.3841 -0.7370 -0.4120
  255MPD2    H3 3923   1.825   1.546  11.056 -0.5472  0.2534 -1.1688
  255MPD2     N 3924   2.173   1.558  10.753 -0.0081 -0.1271 -0.4470
  255MPD2    H5 3925   2.244   1.618  10.710  1.3930 -1.3573  0.1454
  255MPD2    N1 3926   1.997   1.955  11.006 -0.2565  0.1065 -0.2370
  255MPD2    H7 3927   1.906   1.979  11.044  0.9234  1.9107  1.4297
  256TMC3    C1 3928   2.033   2.185  10.989  0.2003 -0.9139 -0.4917
  256TMC3    C2 3929   2.134   2.269  11.018  0.5222  0.1880 -0.8403
  256TMC3    C3 3930   2.135   2.402  10.981  0.5553  0.7062  0.5042
  256TMC3    C4 3931   1.947   2.223  10.886 -0.6421 -0.6555 -0.3921
  256TMC3    C5 3932   1.943   2.349  10.844  0.0494 -0.0382 -0.8802
  256TMC3    C6 3933   2.032   2.440  10.902  0.1081 -0.6262 -0.2121
  256TMC3     C 3934   2.080   2.051  10.963  0.0728  0.2538  0.0567
  256TMC3     O 3935   2.199   2.049  10.930  0.1481  0.6768 -0.5846
  256TMC3     H 3936   2.220   2.235  11.076 -1.1278 -0.0549  1.4697
  256TMC3    H1 3937   1.861   2.166  10.852 -1.0648  1.4016 -2.7186
  256TMC3    H2 3938   2.036   2.542  10.866  0.1928 -0.4380  0.3274
  256TMC3    C7 3939   1.947   2.346  10.702  0.4528  0.4705  0.6414
  256TMC3    C8 3940   2.259   2.432  10.922  0.6025 -0.7667 -0.0337
  256TMC3    O1 3941   1.896   2.246  10.650 -0.1643  0.4283 -0.0584
  256TMC3    O2 3942   2.274   2.549  10.885 -0.5819  0.1785 -0.2433
  257MPD2     C 3943   1.395   3.951  13.372 -0.4264 -0.0298 -0.5159
  257MPD2    C1 3944   1.424   3.896  13.245  0.2904  0.1588  1.0268
  257MPD2    C2 3945   1.425   3.760  13.234  0.8764  0.0579  0.1425
  257MPD2    C3 3946   1.408   3.678  13.343 -0.7813  0.1147 -0.0293
  257MPD2    C4 3947   1.382   3.734  13.467 -0.6255  0.3872 -0.0223
  257MPD2    C5 3948   1.373   3.867  13.480 -0.4337  0.1166  0.4254
  257MPD2     H 3949   1.447   3.708  13.142 -1.3059  0.1502 -0.4215
  257MPD2    H1 3950   1.371   3.678  13.560 -1.5131 -0.3703 -0.5853
  257MPD2    H2 3951   1.399   4.057  13.394  1.5258 -0.3380  0.5911
  257MPD2    H3 3952   1.355   3.908  13.579 -2.4114  1.9415 -0.7008
  257MPD2     N 3953   1.450   3.544  13.336 -0.2634  0.5104  0.4179
  257MPD2    H5 3954   1.472   3.507  13.244 -1.2960  0.2097  0.2958
  257MPD2    N1 3955   1.451   3.972  13.126 -0.1419  1.0095  0.1501
  257MPD2    H7 3956   1.470   3.914  13.045 -0.7246 -0.1250  0.8244
  258TMC3    C1 3957   1.574   3.360  13.413 -0.0066 -0.1140  0.3269
  258TMC3    C2 3958   1.671   3.381  13.320  0.7291 -0.5814  0.2206
  258TMC3    C3 3959   1.778   3.288  13.304 -0.2975  0.3148 -0.3305
  258TMC3    C4 3960   1.588   3.247  13.490 -0.6456  0.1923  0.6444
  258TMC3    C5 3961   1.693   3.160  13.483  0.4703 -0.2428 -0.6322
  258TMC3    C6 3962   1.788   3.171  13.384 -0.6417 -0.6727 -0.7104
  258TMC3     C 3963   1.474   3.454  13.444  0.7329  0.0373 -0.1272
  258TMC3     O 3964   1.418   3.448  13.550 -0.2165 -0.3251  0.8038
  258TMC3     H 3965   1.674   3.468  13.255  1.7294  0.3969  1.5857
  258TMC3    H1 3966   1.514   3.210  13.561  0.2513  0.3466  1.6477
  258TMC3    H2 3967   1.875   3.108  13.374 -1.0734 -1.6650  2.0320
  258TMC3    C7 3968   1.695   3.041  13.558 -0.0546  0.2492  0.0945
  258TMC3    C8 3969   1.875   3.310  13.199  0.4237 -1.0590  1.0728
  258TMC3    O1 3970   1.594   2.976  13.570 -0.7030 -0.7219 -0.1282
  258TMC3    O2 3971   1.837   3.401  13.119  0.0151  0.3682 -0.1161
  259MPD2     C 3972   0.520   0.400   0.336 -0.1035 -0.0974 -0.5645
  259MPD2    C1 3973   0.588   0.323   0.430  0.5047  0.6327  0.1502
  259MPD2    C2 3974   0.721   0.293   0.400 -0.2759 -0.5756 -0.1062
  259MPD2    C3 3975   0.782   0.332   0.283  0.6480 -0.1173 -0.0973
  259MPD2    C4 3976   0.719   0.414   0.197  0.4287 -0.0475 -0.7847
  259MPD2    C5 3977   0.592   0.445   0.228 -0.1076 -0.3261  0.1261
  259MPD2     H 3978   0.779   0.235   0.471 -0.1698 -0.5059 -0.1350
  259MPD2    H1 3979   0.769   0.457   0.111  1.1163 -0.3909 -0.5533
  259MPD2    H2 3980   0.417   0.429   0.354  0.2694  1.7062 -1.2998
  259MPD2    H3 3981   0.530   0.488   0.149  0.9923 -0.9374 -1.0703
  259MPD2     N 3982   0.920   0.293   0.271  0.5218  0.3281  0.3540
  259MPD2    H5 3983   0.956   0.239   0.350  0.1464 -1.8481 -0.9601
  259MPD2    N1 3984   0.520   0.287   0.551  0.7420 -0.4530 -0.0300
  259MPD2    H7 3985   0.451   0.350   0.591  2.3347 -0.8139  3.2882
  260TMC3    C1 3986   1.150   0.296   0.198  0.1845 -0.0626  0.2238
  260TMC3    C2 3987   1.217   0.286   0.079 -0.1118  0.1095  0.1655
  260TMC3    C3 3988   1.335   0.227   0.083  0.5522  0.2294 -0.2434
  260TMC3    C4 3989   1.201   0.240   0.315  0.7065 -0.1617  0.2278
  260TMC3    C5 3990   1.325   0.178   0.310  0.1042  0.1585  0.0611
  260TMC3    C6 3991   1.385   0.171   0.189  0.5971  0.0230  0.2613
  260TMC3     C 3992   1.010   0.346   0.187 -0.7158  0.6977  0.1199
  260TMC3     O 3993   0.990   0.410   0.084  0.3165 -0.3458 -0.5195
  260TMC3     H 3994   1.160   0.290  17.745  0.7561 -1.2264 -0.4231
  260TMC3    H1 3995   1.157   0.263   0.412  0.4822  1.0614 -0.1631
  260TMC3    H2 3996   1.485   0.127   0.181  0.0782 -1.0505 -0.3800
  260TMC3    C7 3997   1.329   0.046   0.367  0.7989  0.3952 -0.7043
  260TMC3    C8 3998   1.355   0.136  17.727 -0.4475 -0.6534 -0.1474
  260TMC3    O1 3999   1.388   4.707   0.296 -0.1742  0.5448 -0.2061
  260TMC3    O2 4000   1.333   0.179  17.614 -0.0580  0.1441 -0.3487
  261MPD2     C 4001   1.988   3.590  12.711 -0.0158 -0.4823  0.3363
  261MPD2    C1 4002   2.049   3.719  12.712  0.3407  0.1914  0.2498
  261MPD2    C2 4003   2.076   3.782  12.598 -0.4412 -1.2485  0.2210
  261MPD2    C3 4004   2.059   3.723  12.478 -0.0298  0.1230 -0.0109
  261MPD2    C4 4005   1.997   3.605  12.472 -0.1848  0.2761  0.6865
  261MPD2    C5 4006   1.968   3.537  12.587 -0.1559  0.6068 -0.3940
  261MPD2     H 4007   2.127   3.878  12.597 -0.6880 -1.1106  1.6064
  261MPD2    H1 4008   1.993   3.552  12.377  1.1236 -0.6645  1.1470
  261MPD2    H2 4009   1.958   3.532  12.797  0.4136  1.0098  1.4826
  261MPD2    H3 4010   1.942   3.432  12.583 -1.7642  1.0160 -0.7456
  261MPD2     N 4011   2.093   3.805  12.363  0.6684  0.5956  0.8235
  261MPD2    H5 4012   2.144   3.891  12.381  1.2688 -0.1456  2.6994
  261MPD2    N1 4013   2.075   3.792  12.831 -0.3934  0.1754 -0.8303
  261MPD2    H7 4014   2.111   3.886  12.820  1.5492 -0.6966 -2.0723
  262TMC3    C1 4015   2.109   3.867  12.135  0.5483  0.4392  0.4790
  262TMC3    C2 4016   2.198   3.965  12.163 -0.4299 -0.5053  0.6005
  262TMC3    C3 4017   2.263   4.027  12.054  0.8360 -0.3325  0.4786
  262TMC3    C4 4018   2.100   3.824  12.004 -0.4674 -0.3204  0.8057
  262TMC3    C5 4019   2.166   3.887  11.904  0.3635  0.3104 -0.2078
  262TMC3    C6 4020   2.250   3.988  11.929 -0.3498 -0.0016 -0.9277
  262TMC3     C 4021   2.059   3.772  12.233  0.1369  0.2277  0.1283
  262TMC3     O 4022   1.972   3.695  12.190 -0.4680  0.2692  0.3867
  262TMC3     H 4023   2.221   3.989  12.266 -1.2511 -0.7822  0.8455
  262TMC3    H1 4024   2.033   3.741  11.983  0.6052 -1.5550  2.2613
  262TMC3    H2 4025   2.315   4.040  11.859  0.5044 -2.0329 -1.6315
  262TMC3    C7 4026   2.169   3.814  11.777  0.0440 -0.2678  0.1843
  262TMC3    C8 4027   2.293   4.170  12.073 -0.6003  0.6121  0.3546
  262TMC3    O1 4028   2.108   3.709  11.780  0.4899 -0.1640 -0.3010
  262TMC3    O2 4029   2.366   4.230  11.996 -0.1731 -0.7338 -0.1533
  263MPD2     C 4030   3.169   3.229  11.959 -0.7872 -0.5726  0.4564
  263MPD2    C1 4031   3.258   3.173  11.874  0.0858 -0.7722  0.7528
  263MPD2    C2 4032   3.327   3.237  11.769  0.2617  0.5297  0.0737
  263MPD2    C3 4033   3.292   3.367  11.745 -0.3133 -0.4273  0.5878
  263MPD2    C4 4034   3.187   3.427  11.820 -0.3057 -0.6458  0.8511
  263MPD2    C5 4035   3.132   3.358  11.925  0.3794 -0.2927  0.2846
  263MPD2     H 4036   3.389   3.174  11.706  0.4075  0.0579  0.6782
  263MPD2    H1 4037   3.162   3.531  11.809 -2.5222 -0.9321  3.1026
  263MPD2    H2 4038   3.129   3.183  12.049 -1.8114 -1.4087 -0.4324
  263MPD2    H3 4039   3.073   3.417  11.994 -1.6111  0.7689 -2.3680
  263MPD2     N 4040   3.370   3.435  11.648  0.1752 -0.1629 -0.0467
  263MPD2    H5 4041   3.440   3.367  11.618 -0.7949 -1.7674  1.3569
  263MPD2    N1 4042   3.296   3.047  11.920 -0.5047 -0.7322 -0.2265
  263MPD2    H7 4043   3.240   3.014  11.998 -0.0816  2.1517  1.2940
  264TMC3    C1 4044   3.448   3.597  11.489  0.6133  0.4291  0.2362
  264TMC3    C2 4045   3.428   3.720  11.432 -0.0796 -0.1582 -0.0618
  264TMC3    C3 4046   3.482   3.749  11.306  0.1750 -0.4525  0.8941
  264TMC3    C4 4047   3.523   3.496  11.428  0.6095 -0.0614  0.6150
  264TMC3    C5 4048   3.567   3.532  11.304 -0.0487  0.3718 -0.4073
  264TMC3    C6 4049   3.557   3.655  11.247 -0.0896 -0.9171  0.0022
  264TMC3     C 4050   3.348   3.560  11.592 -0.1220 -0.1885  1.7253
  264TMC3     O 4051   3.269   3.647  11.617  0.2641 -0.5606  0.2273
  264TMC3     H 4052   3.352   3.786  11.472  2.0738  0.5138  2.8829
  264TMC3    H1 4053   3.535   3.397  11.470  1.5503 -0.1802  0.0564
  264TMC3    H2 4054   3.582   3.676  11.144 -0.8895 -0.7327 -0.1540
  264TMC3    C7 4055   3.675   3.449  11.249  0.4361  0.0396  0.4454
  264TMC3    C8 4056   3.521   3.890  11.275 -0.2363 -0.1977 -0.3956
  264TMC3    O1 4057   3.674   3.328  11.265 -0.1346  0.2945 -0.8107
  264TMC3    O2 4058   3.593   3.903  11.174  0.8950  0.4143  0.2341
  265MPD2     C 4059   0.427   3.347  15.718  0.5074 -0.3714 -0.6594
  265MPD2    C1 4060   0.441   3.472  15.656  0.2836  0.3163 -0.3985
  265MPD2    C2 4061   0.504   3.473  15.534  0.1387  0.3136 -0.0229
  265MPD2    C3 4062   0.566   3.357  15.489  0.6087 -0.1046 -0.1642
  265MPD2    C4 4063   0.542   3.233  15.546 -0.6304 -0.3422  0.4813
  265MPD2    C5 4064   0.465   3.228  15.665  0.1115 -0.1184 -0.5596
  265MPD2     H 4065   0.523   3.572  15.495  0.4959 -0.2204 -1.1948
  265MPD2    H1 4066   0.578   3.139  15.505  2.2535  1.6302 -1.5571
  265MPD2    H2 4067   0.359   3.332  15.801  1.0630 -1.5015 -0.4040
  265MPD2    H3 4068   0.446   3.131  15.710 -1.0510 -1.4603 -3.9345
  265MPD2     N 4069   0.663   3.356  15.388 -0.1603 -0.1604 -0.5696
  265MPD2    H5 4070   0.699   3.265  15.362 -1.9320  0.3281 -4.7027
  265MPD2    N1 4071   0.390   3.594  15.712  0.0982  0.0333 -0.1403
  265MPD2    H7 4072   0.390   3.680  15.658 -0.1497  0.6140  0.7828
  266TMC3    C1 4073   0.325   3.751  15.876 -0.1894 -0.2388  0.1364
  266TMC3    C2 4074   0.342   3.792  16.007  0.1968  0.0498  0.0024
  266TMC3    C3 4075   0.334   3.924  16.030  0.1179 -0.3117  0.4746
  266TMC3    C4 4076   0.265   3.822  15.779  0.1763  0.4757 -0.9308
  266TMC3    C5 4077   0.245   3.950  15.816  0.5560 -0.1428  0.0934
  266TMC3    C6 4078   0.270   4.004  15.940  0.3985 -0.3044 -0.2282
  266TMC3     C 4079   0.359   3.613  15.845  0.5181 -0.0548 -0.1241
  266TMC3     O 4080   0.379   3.532  15.940 -0.5746  0.0815 -0.3588
  266TMC3     H 4081   0.408   3.733  16.071  2.9541  1.8029 -1.2304
  266TMC3    H1 4082   0.217   3.777  15.693 -0.8749  0.7110 -0.4659
  266TMC3    H2 4083   0.253   4.107  15.967  1.9937 -0.1453  0.1955
  266TMC3    C7 4084   0.174   4.036  15.712 -0.0716 -0.5189 -0.1270
  266TMC3    C8 4085   0.442   3.971  16.124 -0.3992  0.2857 -0.3312
  266TMC3    O1 4086   0.092   3.984  15.631 -0.2585 -0.0883 -0.1039
  266TMC3    O2 4087   0.502   3.885  16.185  0.1553  0.0082 -0.3889
  267MPD2     C 4088   2.408   0.399   0.379  0.7987  0.2049  0.2085
  267MPD2    C1 4089   2.497   0.498   0.338  0.0692  0.1106 -0.2842
  267MPD2    C2 4090   2.448   0.600   0.261 -0.4050  0.3283  0.1217
  267MPD2    C3 4091   2.315   0.613   0.222  0.1059 -0.5503  0.3134
  267MPD2    C4 4092   2.239   0.505   0.255  0.1495  0.5022 -0.6695
  267MPD2    C5 4093   2.281   0.405   0.340  0.5794  0.2649  0.3914
  267MPD2     H 4094   2.516   0.677   0.226 -0.8302  0.3296 -0.7020
  267MPD2    H1 4095   2.135   0.513   0.224 -0.7015 -1.2875  1.7506
  267MPD2    H2 4096   2.439   0.323   0.450 -1.4100 -2.5993 -1.7920
  267MPD2    H3 4097   2.209   0.335   0.381  0.9279 -0.1363  0.3180
  267MPD2     N 4098   2.263   0.719   0.139 -0.1611  0.0013 -0.3760
  267MPD2    H5 4099   2.166   0.711   0.112 -1.1253  0.3039  2.9747
  267MPD2    N1 4100   2.634   0.488   0.377  0.3032 -0.8982  0.4591
  267MPD2    H7 4101   2.660   0.398   0.417 -0.7542 -1.3285  0.1670
  268TMC3    C1 4102   2.872   0.539   0.378  0.0782  0.4676 -0.1419
  268TMC3    C2 4103   2.951   0.621   0.315  0.7418  0.0905  0.1038
  268TMC3    C3 4104   3.082   0.632   0.356 -0.5253  0.4009  0.1178
  268TMC3    C4 4105   2.911   0.468   0.488  0.2108 -1.0169 -0.2367
  268TMC3    C5 4106   3.042   0.475   0.523  0.5162  0.0860 -0.3404
  268TMC3    C6 4107   3.132   0.552   0.458 -0.4069 -0.2466  0.2164
  268TMC3     C 4108   2.733   0.586   0.370  0.2202  0.1797  0.6060
  268TMC3     O 4109   2.723   0.707   0.354 -0.0705 -0.0080 -0.7011
  268TMC3     H 4110   2.904   0.684   0.240 -0.0612 -0.4708  0.1406
  268TMC3    H1 4111   2.830   0.412   0.534 -0.2059 -1.3784 -1.4323
  268TMC3    H2 4112   3.234   0.544   0.495  0.3690  0.5477 -1.7466
  268TMC3    C7 4113   3.076   0.409   0.648 -1.0060  0.3186 -0.2927
  268TMC3    C8 4114   3.153   0.747   0.319  0.4477  0.2755  0.2867
  268TMC3    O1 4115   3.039   0.290   0.657 -0.1691 -0.0660 -0.1257
  268TMC3    O2 4116   3.241   0.775   0.399  1.0252  0.2197 -0.0197
  269MPD2     C 4117   3.481   4.135  15.453  0.4711 -0.3418 -0.1543
  269MPD2    C1 4118   3.355   4.119  15.508 -0.3408  0.1449 -0.3784
  269MPD2    C2 4119   3.261   4.219  15.489 -0.6530  0.2424 -0.4168
  269MPD2    C3 4120   3.286   4.322  15.407  0.0752 -0.4875 -0.0372
  269MPD2    C4 4121   3.410   4.332  15.352  0.3664  0.5591 -0.7585
  269MPD2    C5 4122   3.509   4.239  15.369 -0.8361 -0.0276  0.3389
  269MPD2     H 4123   3.161   4.204  15.530 -0.7742  1.5854 -0.2077
  269MPD2    H1 4124   3.435   4.421  15.296 -1.0378  1.8042  0.5923
  269MPD2    H2 4125   3.555   4.057  15.466 -0.3115 -0.4324  3.7073
  269MPD2    H3 4126   3.603   4.252  15.316 -1.4379 -1.3077 -1.0281
  269MPD2     N 4127   3.191   4.417  15.395  0.3814  0.0293 -0.3630
  269MPD2    H5 4128   3.123   4.429  15.470  1.0260 -1.2197  0.4271
  269MPD2    N1 4129   3.325   3.992  15.562 -0.4799 -0.1048 -0.0067
  269MPD2    H7 4130   3.398   3.922  15.566  1.3287  1.4983 -4.5258
  270TMC3    C1 4131   3.217   3.810  15.639 -0.1936  0.3066  0.2804
  270TMC3    C2 4132   3.142   3.701  15.596 -0.4352  0.1177 -0.5984
  270TMC3    C3 4133   3.192   3.569  15.609  0.0112 -0.0072  0.1931
  270TMC3    C4 4134   3.330   3.790  15.717 -0.1866 -0.1784 -0.2950
  270TMC3    C5 4135   3.372   3.657  15.733  0.0863  0.3245 -0.3840
  270TMC3    C6 4136   3.317   3.549  15.664 -0.3386  0.5373  0.0457
  270TMC3     C 4137   3.199   3.943  15.585  0.2586  0.6519 -0.5750
  270TMC3     O 4138   3.083   3.977  15.571  0.2433 -0.1771  0.5289
  270TMC3     H 4139   3.059   3.728  15.531 -0.0897  0.2660 -0.9809
  270TMC3    H1 4140   3.376   3.873  15.769 -5.3145  1.7837  1.1350
  270TMC3    H2 4141   3.354   3.447  15.673  0.8758  1.0117  0.3814
  270TMC3    C7 4142   3.478   3.619  15.820 -0.8074  0.2398 -0.1784
  270TMC3    C8 4143   3.128   3.457  15.535 -0.7655  0.4112 -0.5467
  270TMC3    O1 4144   3.504   3.504  15.840  0.2628  0.7527  0.2315
  270TMC3    O2 4145   3.201   3.371  15.480 -0.4969 -0.1486  0.3243
  271MPD2     C 4146   2.200   3.539  13.953 -0.2745 -0.3107 -0.0810
  271MPD2    C1 4147   2.158   3.525  14.084  0.8060  0.0150  0.3551
  271MPD2    C2 4148   2.028   3.568  14.115  0.0051 -0.4502  0.3083
  271MPD2    C3 4149   1.943   3.622  14.022 -0.2654 -0.2442  0.4568
  271MPD2    C4 4150   1.986   3.636  13.889  0.2262  0.4396 -0.1326
  271MPD2    C5 4151   2.117   3.601  13.859  0.1340 -0.8510  0.3646
  271MPD2     H 4152   1.985   3.544  14.211 -0.5761 -1.1241 -0.1238
  271MPD2    H1 4153   1.929   3.688  13.813 -0.3971  0.5556  0.4118
  271MPD2    H2 4154   2.304   3.528  13.925 -0.2648 -0.2362 -0.0746
  271MPD2    H3 4155   2.158   3.620  13.761  0.3707 -0.4070  0.5519
  271MPD2     N 4156   1.819   3.681  14.054  0.3208 -0.0559  0.3260
  271MPD2    H5 4157   1.777   3.739  13.982 -0.4899  1.7695  2.2923
  271MPD2    N1 4158   2.241   3.476  14.187  0.2813 -0.2000 -0.2097
  271MPD2    H7 4159   2.214   3.481  14.285  2.2319 -0.5012  0.3380
  272TMC3    C1 4160   2.453   3.395  14.273  0.4906  0.1724 -0.0725
  272TMC3    C2 4161   2.583   3.360  14.244 -0.7282 -0.1553 -0.0348
  272TMC3    C3 4162   2.655   3.297  14.343 -0.2011  0.0971  0.4097
  272TMC3    C4 4163   2.404   3.373  14.401  0.1764  0.0293 -0.1026
  272TMC3    C5 4164   2.478   3.307  14.494 -0.7399  0.2453 -0.6645
  272TMC3    C6 4165   2.612   3.277  14.470  0.2995 -0.6309  0.0925
  272TMC3     C 4166   2.362   3.416  14.158  0.1092 -0.1674  0.2297
  272TMC3     O 4167   2.404   3.382  14.048  0.3944  0.0341 -0.1050
  272TMC3     H 4168   2.626   3.361  14.144 -0.2545  1.2353  0.1708
  272TMC3    H1 4169   2.299   3.396  14.413 -0.0115 -1.2911  0.7841
  272TMC3    H2 4170   2.685   3.263  14.549  0.6169 -0.2241 -0.1275
  272TMC3    C7 4171   2.446   3.334  14.636  0.4116  0.1023 -0.3352
  272TMC3    C8 4172   2.773   3.226  14.300 -0.2371  0.0965  0.1856
  272TMC3    O1 4173   2.327   3.339  14.663  0.5647 -0.3656  0.0689
  272TMC3    O2 4174   2.812   3.249  14.186  0.0550 -0.3238  0.3424
  273MPD2     C 4175   3.726   1.113  12.369  0.4371 -0.1304  0.4191
  273MPD2    C1 4176   3.822   1.202  12.325  1.0082 -0.0186 -0.4794
  273MPD2    C2 4177   3.784   1.308  12.238 -0.7772  0.2896 -0.3766
  273MPD2    C3 4178   3.652   1.321  12.195 -0.2470 -0.0052 -0.4636
  273MPD2    C4 4179   3.558   1.224  12.238  0.6343  0.0206  0.9221
  273MPD2    C5 4180   3.593   1.123  12.325  0.4137  0.2898  0.3003
  273MPD2     H 4181   3.857   1.379  12.202 -2.1764  2.8189  1.8311
  273MPD2    H1 4182   3.456   1.242  12.206  0.4688  0.0337  1.4596
  273MPD2    H2 4183   3.749   1.029  12.434 -0.4256 -0.9927 -0.3865
  273MPD2    H3 4184   3.515   1.060  12.365 -1.6974  3.0880  0.5722
  273MPD2     N 4185   3.615   1.432  12.123  0.5801  0.2789 -0.4279
  273MPD2    H5 4186   3.523   1.427  12.080  1.4993  1.5501 -2.5630
  273MPD2    N1 4187   3.957   1.203  12.366  0.5267 -0.6662 -0.5918
  273MPD2    H7 4188   3.967   1.160  12.458 -0.4207  1.1353  0.3581
  274TMC3    C1 4189   3.624   1.654  12.039  0.7337 -0.3025 -0.2461
  274TMC3    C2 4190   3.512   1.629  11.965  1.0223 -0.5636 -0.9882
  274TMC3    C3 4191   3.472   1.724  11.878  0.5399 -0.5624  0.1026
  274TMC3    C4 4192   3.699   1.771  12.024 -0.7184 -0.2812  0.6835
  274TMC3    C5 4193   3.650   1.857  11.934  0.3484 -0.0082  0.2117
  274TMC3    C6 4194   3.543   1.831  11.847  0.1823 -0.5653 -0.2838
  274TMC3     C 4195   3.687   1.550  12.115 -0.6414  0.4031  0.3275
  274TMC3     O 4196   3.790   1.590  12.167  0.3957  0.1771  0.6872
  274TMC3     H 4197   3.454   1.538  11.974  0.0979 -0.0235 -1.4396
  274TMC3    H1 4198   3.760   1.798  12.109 -1.4744 -2.7820  2.0339
  274TMC3    H2 4199   3.506   1.901  11.773  1.8979 -1.0363 -1.5784
  274TMC3    C7 4200   3.671   2.000  11.958  0.2309 -0.3739  0.6825
  274TMC3    C8 4201   3.380   1.684  11.781 -0.5816 -0.3990  0.3246
  274TMC3    O1 4202   3.613   2.075  11.880  0.2997  0.4650 -0.1918
  274TMC3    O2 4203   3.282   1.622  11.823  0.8965 -0.0904 -0.4352
  275MPD2     C 4204   4.028   4.139  14.705  0.4797  0.3717 -0.6079
  275MPD2    C1 4205   3.995   4.260  14.644  0.3860  0.3813 -0.0346
  275MPD2    C2 4206   3.866   4.262  14.587 -0.2564 -0.1489 -0.5068
  275MPD2    C3 4207   3.777   4.156  14.584 -0.5910  0.0496  0.2402
  275MPD2    C4 4208   3.822   4.047  14.639 -0.1006  0.0685 -0.0024
  275MPD2    C5 4209   3.944   4.032  14.709  0.2559  0.4019  0.7950
  275MPD2     H 4210   3.849   4.351  14.528  2.4845  0.6336 -0.1123
  275MPD2    H1 4211   3.768   3.955  14.624  1.2808 -0.6453 -0.5822
  275MPD2    H2 4212   4.131   4.125  14.737  0.1920  2.7634  1.3327
  275MPD2    H3 4213   3.976   3.938  14.752 -0.5946 -0.1246  0.2664
  275MPD2     N 4214   3.652   4.159  14.520 -0.1353  0.2098 -0.2169
  275MPD2    H5 4215   3.603   4.071  14.518 -0.2176  0.1991  2.1746
  275MPD2    N1 4216   4.067   4.379  14.650  0.3791  0.0839  0.1538
  275MPD2    H7 4217   4.018   4.455  14.604  4.1522  3.7484  2.2406
  276TMC3    C1 4218   4.226   4.544  14.653  0.1128 -0.0926  0.2955
  276TMC3    C2 4219   4.115   4.623  14.618  0.1023  0.1566  0.0958
  276TMC3    C3 4220   4.109   0.013  14.659 -0.5634  0.3257 -0.1681
  276TMC3    C4 4221   4.331   4.601  14.724 -0.5903 -0.1051 -0.2625
  276TMC3    C5 4222   4.321   4.733  14.761  0.1711 -0.6491 -0.3990
  276TMC3    C6 4223   4.213   0.075  14.724  0.1080  0.0013  0.0445
  276TMC3     C 4224   4.196   4.408  14.691  0.0096  0.2636 -0.5778
  276TMC3     O 4225   4.287   4.339  14.734 -0.3616  0.5191 -0.3167
  276TMC3     H 4226   4.034   4.603  14.549  0.5085 -0.3809 -0.2223
  276TMC3    H1 4227   4.418   4.540  14.747  0.2968  0.3851 -2.3587
  276TMC3    H2 4228   4.204   0.176  14.763  0.2702  0.4664 -1.1212
  276TMC3    C7 4229   4.417   0.059  14.849  0.5065 -0.0041 -0.4708
  276TMC3    C8 4230   4.003   0.112  14.624  0.5525 -0.5165 -0.4404
  276TMC3    O1 4231   4.366   0.139  14.926 -0.0359  0.3187 -0.0266
  276TMC3    O2 4232   4.045   0.210  14.563  0.5362  0.8233  0.1751
  277MPD2     C 4233   1.067   3.886  13.220  0.3356 -0.3108 -0.2729
  277MPD2    C1 4234   0.982   3.968  13.293 -0.5399 -0.3619  0.4092
  277MPD2    C2 4235   0.896   3.910  13.386 -0.1855  0.0969 -0.2397
  277MPD2    C3 4236   0.908   3.776  13.411 -0.0214  0.6493 -0.2838
  277MPD2    C4 4237   0.996   3.694  13.341  0.3768 -0.0782  0.6056
  277MPD2    C5 4238   1.067   3.753  13.240  0.0411 -0.6352 -0.0472
  277MPD2     H 4239   0.812   3.960  13.433  0.6497 -0.1475  1.5169
  277MPD2    H1 4240   0.997   3.586  13.349  0.6937 -0.1737 -0.7542
  277MPD2    H2 4241   1.127   3.921  13.137  2.1704  0.8820  1.5542
  277MPD2    H3 4242   1.125   3.685  13.180  1.1249  1.5952 -1.5192
  277MPD2     N 4243   0.822   3.732  13.516  0.1261  0.0129  0.3615
  277MPD2    H5 4244   0.746   3.793  13.545 -0.0318 -0.5054  1.0338
  277MPD2    N1 4245   0.983   4.109  13.266  0.0649 -0.0621 -0.5640
  277MPD2    H7 4246   1.062   4.146  13.215  0.2157 -0.2091 -0.4396
  278TMC3    C1 4247   0.705   3.562  13.653 -0.2440  0.7378  0.1641
  278TMC3    C2 4248   0.686   3.427  13.657 -0.2008  0.5013  0.0039
  278TMC3    C3 4249   0.564   3.379  13.674 -0.7471  0.2597 -0.2953
  278TMC3    C4 4250   0.596   3.643  13.665 -0.1584 -0.9514 -0.0215
  278TMC3    C5 4251   0.471   3.589  13.687 -0.8321 -0.0529  0.3123
  278TMC3    C6 4252   0.452   3.452  13.705  0.2052 -0.2622  0.0663
  278TMC3     C 4253   0.827   3.605  13.568  0.3936  0.2699 -0.2973
  278TMC3     O 4254   0.901   3.516  13.540 -0.0727 -0.7245 -0.4632
  278TMC3     H 4255   0.764   3.357  13.632 -3.5881 -2.8503 -1.1636
  278TMC3    H1 4256   0.607   3.751  13.661 -0.2453 -0.8595  2.6139
  278TMC3    H2 4257   0.356   3.405  13.721 -0.0370  0.2588  0.1484
  278TMC3    C7 4258   0.354   3.677  13.673  1.4229 -0.0016 -0.2876
  278TMC3    C8 4259   0.544   3.238  13.644  0.7575  0.3295 -0.6225
  278TMC3    O1 4260   0.369   3.798  13.695  0.4299  0.2685 -0.0520
  278TMC3    O2 4261   0.638   3.169  13.685 -0.0462  0.5107 -0.4059
  279MPD2     C 4262   0.282   3.567   0.512 -0.3231  0.0950  0.3706
  279MPD2    C1 4263   0.162   3.515   0.455  0.2245 -0.4050 -0.5033
  279MPD2    C2 4264   0.109   3.579   0.348  0.7343 -1.0712 -0.9331
  279MPD2    C3 4265   0.158   3.706   0.316  0.2707  0.4055  0.0113
  279MPD2    C4 4266   0.262   3.760   0.387 -0.9103  0.1445  0.1157
  279MPD2    C5 4267   0.335   3.687   0.475 -0.1382 -0.2670  0.0911
  279MPD2     H 4268   0.035   3.524   0.291  0.0010  0.7957 -1.7700
  279MPD2    H1 4269   0.301   3.858   0.364  0.9886 -1.1141 -2.1316
  279MPD2    H2 4270   0.324   3.514   0.597 -0.7337  0.5540  0.8535
  279MPD2    H3 4271   0.432   3.718   0.511 -0.5058 -1.2714  1.9917
  279MPD2     N 4272   0.104   3.780   0.209  0.2351 -0.0839 -0.3041
  279MPD2    H5 4273   0.150   3.867   0.184  0.9781 -0.0094  1.2833
  279MPD2    N1 4274   0.128   3.383   0.503  0.4504  0.5045 -1.5244
  279MPD2    H7 4275   0.202   3.344   0.561  1.4711  2.3115 -1.6324
  280TMC3    C1 4276   4.649   3.346   0.418 -0.4538  0.2683 -0.0946
  280TMC3    C2 4277   4.580   3.274   0.327 -0.4770  0.9434  0.8395
  280TMC3    C3 4278   4.457   3.329   0.297 -0.2642 -0.3405  0.6854
  280TMC3    C4 4279   4.605   3.463   0.473  0.4123 -0.8906  0.0283
  280TMC3    C5 4280   4.485   3.508   0.432 -0.2344  0.7078  1.0030
  280TMC3    C6 4281   4.410   3.450   0.336 -0.6031 -0.4104  0.2746
  280TMC3     C 4282   0.034   3.294   0.457  0.1975 -0.5922 -0.5773
  280TMC3     O 4283   0.030   3.174   0.466  0.0299 -0.1015 -0.7559
  280TMC3     H 4284   4.618   3.183   0.283  0.3043  1.2345  0.9132
  280TMC3    H1 4285   4.653   3.507   0.559 -0.4392 -2.3121  1.2405
  280TMC3    H2 4286   4.306   3.476   0.319 -0.1432  2.6763  2.1177
  280TMC3    C7 4287   4.436   3.639   0.473 -0.0764  0.3423  0.2483
  280TMC3    C8 4288   4.362   3.238   0.234  0.3123 -0.0254 -0.1185
  280TMC3    O1 4289   4.461   3.665   0.587  0.0754 -0.4012 -0.1885
  280TMC3    O2 4290   4.262   3.281   0.176  0.0471  0.5775  0.0549
  281TMC3    C1 4291   3.861   4.234  13.741  0.2936  0.0484  0.5141
  281TMC3    C2 4292   3.808   4.242  13.616  0.4943 -0.4943 -1.2353
  281TMC3    C3 4293   3.753   4.123  13.561 -0.2265  0.1254  0.1345
  281TMC3    C4 4294   3.859   4.114  13.812  0.0938  0.2320 -0.0278
  281TMC3    C5 4295   3.805   3.999  13.757  0.5599  0.0494  0.0028
  281TMC3    C6 4296   3.737   4.010  13.640 -0.2186  0.2432 -0.4176
  281TMC3     C 4297   3.912   4.354  13.814 -0.3201 -0.0088 -0.6284
  281TMC3     O 4298   3.983   4.335  13.914 -0.2464 -0.1645 -0.0217
  281TMC3     H 4299   3.821   4.330  13.555 -0.6828  0.7370  0.2921
  281TMC3    H1 4300   3.895   4.114  13.914  0.1995  2.4327 -0.0604
  281TMC3    H2 4301   3.688   3.923  13.595  0.2717  1.0261 -2.4914
  281TMC3    C7 4302   3.791   3.877  13.832  0.2217  0.4958  0.5206
  281TMC3    C8 4303   3.673   4.130  13.444 -0.0630 -0.0661  0.0238
  281TMC3    O1 4304   3.877   3.860  13.922 -0.2942 -0.3833 -0.1990
  281TMC3    O2 4305   3.621   4.026  13.409  0.0820 -0.0228 -0.4291
  282MPD2     C 4306   0.634   0.815  14.955  0.4755  0.3198 -0.5462
  282MPD2    C1 4307   0.499   0.826  14.969  0.3146  0.3157  0.1599
  282MPD2    C2 4308   0.411   0.808  14.866 -0.5058 -0.0284 -0.2389
  282MPD2    C3 4309   0.463   0.781  14.742 -0.0654 -0.5612  0.1945
  282MPD2    C4 4310   0.598   0.766  14.723  0.4538 -0.9713 -0.7048
  282MPD2    C5 4311   0.687   0.784  14.828 -0.4542  0.3731  0.2989
  282MPD2     H 4312   0.304   0.804  14.887 -0.6608  0.7442 -0.8475
  282MPD2    H1 4313   0.646   0.742  14.629  1.9737  0.6086 -0.3323
  282MPD2    H2 4314   0.699   0.838  15.038 -0.9485  1.0124  0.3797
  282MPD2    H3 4315   0.794   0.782  14.813 -0.2853  0.9146  1.4229
  282MPD2     N 4316   0.376   0.766  14.633 -0.2319  0.0939  0.5140
  282MPD2    H5 4317   0.282   0.792  14.662 -0.5657 -0.2795 -0.2627
  282MPD2    N1 4318   0.442   0.858  15.094 -0.2704 -0.4115 -0.4476
  282MPD2    H7 4319   0.342   0.841  15.102 -0.1956 -0.3106  0.6038
  283TMC3    C1 4320   0.432   0.923  15.316 -0.1194  0.0844  0.6562
  283TMC3    C2 4321   0.457   1.032  15.390 -0.1257  0.0809  0.3712
  283TMC3    C3 4322   0.379   1.057  15.504 -0.3581 -0.3378  0.0792
  283TMC3    C4 4323   0.334   0.833  15.351  0.1908  0.4770  0.3268
  283TMC3    C5 4324   0.262   0.859  15.464 -0.7117 -0.2500  0.1151
  283TMC3    C6 4325   0.277   0.970  15.538 -0.2193 -0.5560 -0.5412
  283TMC3     C 4326   0.511   0.908  15.199  0.1009  0.1779  0.1283
  283TMC3     O 4327   0.624   0.957  15.208  0.7740 -0.3420 -0.8776
  283TMC3     H 4328   0.558   1.071  15.388  0.2276 -0.8971 -0.6173
  283TMC3    H1 4329   0.315   0.750  15.284  3.7829  0.6515 -0.9000
  283TMC3    H2 4330   0.237   0.970  15.638 -0.2872 -0.3440 -0.5675
  283TMC3    C7 4331   0.189   0.753  15.530 -0.0652  0.1719  0.3807
  283TMC3    C8 4332   0.385   1.183  15.584  0.2883  0.3790  0.2343
  283TMC3    O1 4333   0.108   0.780  15.614  0.1545  0.6802  0.2262
  283TMC3    O2 4334   0.312   1.196  15.684  0.4145 -0.1798  0.0642
  284MPD2     C 4335   3.601   4.702  11.875 -0.3623 -0.0212  0.5224
  284MPD2    C1 4336   3.728   4.669  11.836  0.0823 -0.2480 -0.5434
  284MPD2    C2 4337   3.759   4.538  11.812  0.1083  0.2347  0.7050
  284MPD2    C3 4338   3.654   4.444  11.807 -1.1016  0.3808  0.4099
  284MPD2    C4 4339   3.528   4.482  11.846  0.4483  0.0706  0.1231
  284MPD2    C5 4340   3.499   4.606  11.886 -0.1589  0.0613  0.0134
  284MPD2     H 4341   3.858   4.508  11.778  0.0758  0.3403  0.5178
  284MPD2    H1 4342   3.444   4.414  11.838  1.2903 -0.8891 -0.5575
  284MPD2    H2 4343   3.562   0.062  11.891 -0.4586 -0.3529  2.4034
  284MPD2    H3 4344   3.398   4.633  11.913 -0.1102 -0.5744  0.8345
  284MPD2     N 4345   3.671   4.305  11.767  0.3789  0.6165  0.3449
  284MPD2    H5 4346   3.587   4.249  11.766 -0.2234  1.4650  2.0949
  284MPD2    N1 4347   3.834   0.019  11.842  0.4658 -0.0221 -0.8138
  284MPD2    H7 4348   3.926   4.716  11.846  0.4978  0.4300  2.7585
  285TMC3    C1 4349   3.939   0.224  11.811 -0.0449 -0.1109 -0.0631
  285TMC3    C2 4350   4.045   0.157  11.751  0.0985  0.2459  0.2167
  285TMC3    C3 4351   4.137   0.229  11.674 -0.0081  0.0083 -0.2728
  285TMC3    C4 4352   3.922   0.359  11.794  0.2356 -0.0500  0.4588
  285TMC3    C5 4353   4.022   0.428  11.730  0.1810  0.0798 -0.0353
  285TMC3    C6 4354   4.127   0.365  11.665 -0.0621 -0.7870  0.2077
  285TMC3     C 4355   3.821   0.156  11.851  0.6400 -0.2874 -0.5161
  285TMC3     O 4356   3.724   0.225  11.877  0.0285  0.1873 -0.3615
  285TMC3     H 4357   4.045   0.048  11.755  0.2518  0.1302 -2.6438
  285TMC3    H1 4358   3.852   0.416  11.854 -1.7484  1.2394 -3.0825
  285TMC3    H2 4359   4.195   0.434  11.616 -0.7058 -0.1472  0.2091
  285TMC3    C7 4360   4.031   0.572  11.718 -0.2097 -0.2836 -0.1673
  285TMC3    C8 4361   4.210   0.151  11.580 -0.1990  0.7389  0.4206
  285TMC3    O1 4362   4.139   0.630  11.713 -0.1132 -0.1158 -0.5455
  285TMC3    O2 4363   4.178   0.029  11.571  0.8656 -0.4267 -0.5414
  286MPD2     C 4364   3.389   3.438   0.991  0.1709  0.7082  0.1547
  286MPD2    C1 4365   3.485   3.518   1.054  0.5789  0.1159  0.0043
  286MPD2    C2 4366   3.613   3.474   1.076 -0.5886 -0.4219  0.5897
  286MPD2    C3 4367   3.654   3.353   1.027  0.5019 -0.0370  0.8078
  286MPD2    C4 4368   3.563   3.277   0.957 -0.6388 -0.1680 -0.0626
  286MPD2    C5 4369   3.435   3.314   0.936  0.0776  0.0068  0.1581
  286MPD2     H 4370   3.675   3.544   1.131 -1.3276  1.4982 -1.0308
  286MPD2    H1 4371   3.594   3.176   0.932  0.5062  1.0682 -3.6038
  286MPD2    H2 4372   3.289   3.473   0.972 -0.0320 -0.5333 -1.0805
  286MPD2    H3 4373   3.371   3.251   0.876 -0.5166  3.9485 -3.3153
  286MPD2     N 4374   3.781   3.293   1.060 -0.4436  0.2744 -0.2091
  286MPD2    H5 4375   3.802   3.211   1.004  0.8708 -0.4459  1.3361
  286MPD2    N1 4376   3.455   3.644   1.120  0.2964 -0.4046  0.1065
  286MPD2    H7 4377   3.532   3.697   1.160  0.0421  0.2331 -0.2545
  287TMC3    C1 4378   3.984   3.260   1.178  0.3610  0.0196  0.4854
  287TMC3    C2 4379   4.016   3.150   1.102 -0.6347 -0.4030 -0.1597
  287TMC3    C3 4380   4.125   3.068   1.141 -0.6583 -0.2388  0.1851
  287TMC3    C4 4381   4.069   3.295   1.277  0.1271 -0.3587  0.2988
  287TMC3    C5 4382   4.178   3.227   1.311  0.8061  0.0073  0.2921
  287TMC3    C6 4383   4.205   3.112   1.245 -0.4175 -0.1219  0.1002
  287TMC3     C 4384   3.857   3.328   1.165 -0.6159  0.0556  0.8591
  287TMC3     O 4385   3.844   3.425   1.235  0.3840 -0.3397 -0.3005
  287TMC3     H 4386   3.960   3.112   1.017 -0.4343 -1.7574  0.3193
  287TMC3    H1 4387   4.060   3.394   1.321 -0.3603 -0.4613  0.4309
  287TMC3    H2 4388   4.301   3.068   1.268 -0.1248  0.9236  0.8648
  287TMC3    C7 4389   4.280   3.309   1.381 -0.2462 -0.5561 -0.4752
  287TMC3    C8 4390   4.163   2.966   1.049 -0.4102  0.0208 -0.1328
  287TMC3    O1 4391   4.269   3.435   1.381 -0.5927 -0.4319  0.2598
  287TMC3    O2 4392   4.069   2.914   0.991  0.3562 -0.3361  0.3962
  288TMC3    C1 4393   0.978   3.352  14.162  0.5086  0.2602 -0.3563
  288TMC3    C2 4394   0.936   3.380  14.287  0.0038  0.2280 -0.0019
  288TMC3    C3 4395   0.864   3.489  14.317  0.0955  0.1844  0.1167
  288TMC3    C4 4396   0.949   3.432  14.053 -0.0380  0.2241 -0.4274
  288TMC3    C5 4397   0.886   3.549  14.086 -0.4356  0.2570 -1.0268
  288TMC3    C6 4398   0.837   3.577  14.207  0.2151 -0.5063  0.3803
  288TMC3     C 4399   1.070   3.241  14.149 -0.4202 -0.3336 -0.7048
  288TMC3     O 4400   1.070   3.155  14.236 -0.5288 -0.3821  0.1361
  288TMC3     H 4401   0.988   3.331  14.369  0.4616  1.8088  0.6462
  288TMC3    H1 4402   0.971   3.397  13.953  2.0766 -0.0154  0.1290
  288TMC3    H2 4403   0.794   3.674  14.226 -1.1911 -1.2295  0.9189
  288TMC3    C7 4404   0.918   3.660  14.004  0.8733  0.5706  0.1966
  288TMC3    C8 4405   0.773   3.487  14.428  0.2971 -0.1678  0.8305
  288TMC3    O1 4406   0.992   3.631  13.915 -0.1428  0.0305 -0.1137
  288TMC3    O2 4407   0.693   3.580  14.442 -0.0219  0.3160  0.1984
  289MPD2     C 4408   1.347   2.785  13.693 -0.1716 -0.7104  0.0129
  289MPD2    C1 4409   1.247   2.845  13.624 -0.2311 -0.0604 -0.6097
  289MPD2    C2 4410   1.114   2.803  13.649 -0.6777 -0.3517 -0.3038
  289MPD2    C3 4411   1.086   2.710  13.749  0.5194 -0.3643  0.4471
  289MPD2    C4 4412   1.187   2.658  13.828  0.1662  0.2415  0.1520
  289MPD2    C5 4413   1.311   2.700  13.793 -0.3362  0.1612 -0.2771
  289MPD2     H 4414   1.037   2.848  13.587 -0.4824  1.5093  0.8000
  289MPD2    H1 4415   1.171   2.598  13.916 -1.7588 -1.1575 -1.1737
  289MPD2    H2 4416   1.452   2.804  13.677  0.0445 -1.1416  0.9421
  289MPD2    H3 4417   1.390   2.666  13.859  0.1960 -1.0298 -1.5389
  289MPD2     N 4418   0.957   2.678  13.792  0.1947  0.8215 -0.0229
  289MPD2    H5 4419   0.947   2.627  13.879  0.6598 -0.2273 -0.5731
  289MPD2    N1 4420   1.281   2.946  13.527  0.5403  0.0058 -0.3915
  289MPD2    H7 4421   1.378   2.941  13.497  0.4821  0.1432 -0.6108
  290TMC3    C1 4422   0.733   2.655  13.821  0.4642  0.4879  1.0687
  290TMC3    C2 4423   0.614   2.728  13.838  0.1348 -0.3538 -0.3495
  290TMC3    C3 4424   0.505   2.659  13.892  0.0932  0.3653 -0.0541
  290TMC3    C4 4425   0.745   2.524  13.863  0.3637  0.0053 -1.0773
  290TMC3    C5 4426   0.631   2.457  13.904 -0.2353  0.0635 -0.3674
  290TMC3    C6 4427   0.511   2.524  13.925  0.3151 -0.1075 -0.0334
  290TMC3     C 4428   0.832   2.717  13.740 -0.2257 -0.0213 -1.1081
  290TMC3     O 4429   0.804   2.798  13.659 -0.3187 -0.0359  0.5910
  290TMC3     H 4430   0.605   2.826  13.792 -0.1519 -0.1843  0.0730
  290TMC3    H1 4431   0.828   2.461  13.833 -0.4620 -1.4307 -0.3371
  290TMC3    H2 4432   0.419   2.472  13.947 -0.0191 -0.2898 -1.8548
  290TMC3    C7 4433   0.610   2.316  13.869  0.2977 -0.5200  0.3686
  290TMC3    C8 4434   0.372   2.720  13.886  0.7830 -0.5503 -0.0878
  290TMC3    O1 4435   0.672   2.277  13.769 -0.2099  0.1917 -0.0559
  290TMC3    O2 4436   0.279   2.653  13.842  0.3887 -0.1629  0.5660
  291MPD2     C 4437   0.580   2.489   0.440 -0.5884 -0.5138  0.0722
  291MPD2    C1 4438   0.647   2.427   0.541 -0.5810 -0.3376 -0.9253
  291MPD2    C2 4439   0.717   2.494   0.634  1.0242 -0.0439  0.1305
  291MPD2    C3 4440   0.721   2.633   0.630  0.8497 -0.2607 -0.8473
  291MPD2    C4 4441   0.653   2.696   0.529 -0.6984  0.7340  0.3519
  291MPD2    C5 4442   0.582   2.628   0.435  0.4132  0.0591 -0.2971
  291MPD2     H 4443   0.755   2.443   0.721 -3.2560 -2.1026  0.7797
  291MPD2    H1 4444   0.665   2.803   0.516 -1.7053  0.6750 -1.1742
  291MPD2    H2 4445   0.517   2.435   0.371 -1.7456  0.1445  0.6079
  291MPD2    H3 4446   0.527   2.675   0.354 -0.7370  1.1623  1.1132
  291MPD2     N 4447   0.766   2.709   0.739 -0.9131  0.2791  0.5206
  291MPD2    H5 4448   0.745   2.809   0.737 -0.2944  0.4169  0.8727
  291MPD2    N1 4449   0.627   2.287   0.559  0.4346 -0.5351  0.0331
  291MPD2    H7 4450   0.653   2.246   0.648  3.9240  2.5634  0.4016
  292TMC3    C1 4451   0.503   2.085   0.518  1.0061 -0.4321 -0.3610
  292TMC3    C2 4452   0.457   2.089   0.645 -0.2165 -0.2142 -0.3716
  292TMC3    C3 4453   0.364   1.998   0.677  0.0327  0.3464  0.6283
  292TMC3    C4 4454   0.459   1.995   0.425  0.0700  0.1190 -0.2001
  292TMC3    C5 4455   0.353   1.918   0.457 -0.0209 -0.1087  0.8814
  292TMC3    C6 4456   0.310   1.917   0.586 -0.4986 -0.5486  0.2589
  292TMC3     C 4457   0.569   2.203   0.471 -0.0788 -0.3400 -0.1389
  292TMC3     O 4458   0.552   2.221   0.351  0.2627  0.2281 -0.1702
  292TMC3     H 4459   0.499   2.153   0.722 -0.2721 -1.1630  0.4538
  292TMC3    H1 4460   0.510   1.987   0.329  2.4574 -0.7957  1.1459
  292TMC3    H2 4461   0.224   1.856   0.613 -2.7323  2.2402 -0.5844
  292TMC3    C7 4462   0.293   1.822   0.367 -0.0807  0.1071  0.0407
  292TMC3    C8 4463   0.321   2.002   0.815 -0.6097  0.7311 -0.2802
  292TMC3    O1 4464   0.375   1.758   0.298 -0.0854 -0.3543  0.1774
  292TMC3    O2 4465   0.405   2.050   0.891  0.5487  1.3438 -0.2123
  293MPD2     C 4466   1.866   4.030  12.635 -0.3214 -0.0579 -0.5646
  293MPD2    C1 4467   1.770   3.934  12.657  0.0860 -0.4099 -0.4089
  293MPD2    C2 4468   1.739   3.895  12.788  0.2043 -0.2319  0.5317
  293MPD2    C3 4469   1.795   3.960  12.892  0.0754  0.4963 -0.5467
  293MPD2    C4 4470   1.890   4.054  12.867  0.4606  0.0119 -0.3123
  293MPD2    C5 4471   1.919   4.095  12.738  0.3816  0.5567 -0.2532
  293MPD2     H 4472   1.668   3.818  12.813 -1.4116  0.5239 -1.7637
  293MPD2    H1 4473   1.941   4.113  12.942  1.1326 -0.9680  0.0144
  293MPD2    H2 4474   1.896   4.063  12.536 -0.5221 -0.2308 -0.6849
  293MPD2    H3 4475   2.007   4.159  12.728  0.0927  0.6754 -2.0584
  293MPD2     N 4476   1.762   3.927  13.026  0.2574 -0.1834 -0.0291
  293MPD2    H5 4477   1.723   3.833  13.035 -1.4502  0.4597 -0.6014
  293MPD2    N1 4478   1.703   3.870  12.551  0.1384  0.3521 -0.3205
  293MPD2    H7 4479   1.741   3.897  12.461  1.2705  0.9629  0.3376
  294TMC3    C1 4480   1.548   3.725  12.440 -0.0843  1.3590  0.1467
  294TMC3    C2 4481   1.410   3.744  12.416 -0.1158 -0.3755  0.3570
  294TMC3    C3 4482   1.356   3.718  12.299 -0.7017 -0.3352 -0.5430
  294TMC3    C4 4483   1.632   3.704  12.339  0.2362 -0.4207  0.2448
  294TMC3    C5 4484   1.580   3.689  12.213 -0.3472 -0.0047 -0.1752
  294TMC3    C6 4485   1.443   3.688  12.195  0.0681 -0.4268 -0.0353
  294TMC3     C 4486   1.590   3.785  12.561 -0.3091  0.7250  0.2091
  294TMC3     O 4487   1.524   3.745  12.658 -0.1671 -1.1807 -0.0636
  294TMC3     H 4488   1.343   3.775  12.496 -0.3021 -1.9805  0.8142
  294TMC3    H1 4489   1.734   3.675  12.362  1.2084  2.4753 -0.4421
  294TMC3    H2 4490   1.390   3.680  12.100 -0.7976  1.0978  0.3232
  294TMC3    C7 4491   1.609   3.563  12.151 -0.2501  0.1845  0.4018
  294TMC3    C8 4492   1.242   3.626  12.307  0.0535 -0.4658  0.1072
  294TMC3    O1 4493   1.513   3.495  12.116 -0.0732  0.6847  0.2306
  294TMC3    O2 4494   1.168   3.632  12.408 -0.1534 -0.0970  0.1787
  295MPD2     C 4495   2.654   2.481   1.119  0.1477 -0.2033 -0.2223
  295MPD2    C1 4496   2.544   2.549   1.059  0.8522 -0.5854 -0.2099
  295MPD2    C2 4497   2.459   2.625   1.134  0.4986  0.2262  0.6616
  295MPD2    C3 4498   2.474   2.622   1.275  0.1568  0.1870  0.0441
  295MPD2    C4 4499   2.576   2.550   1.330 -0.3755 -0.5294 -0.5116
  295MPD2    C5 4500   2.663   2.477   1.252 -0.3178  0.2999 -0.0549
  295MPD2     H 4501   2.370   2.664   1.087 -0.6170  0.2262  2.7863
  295MPD2    H1 4502   2.587   2.533   1.437 -0.5573 -0.2094 -0.4403
  295MPD2    H2 4503   2.735   2.440   1.061  0.0176  0.3452 -0.7833
  295MPD2    H3 4504   2.750   2.431   1.297  0.4262  1.0261 -0.7652
  295MPD2     N 4505   2.382   2.672   1.367 -0.0780  0.1332 -0.3138
  295MPD2    H5 4506   2.399   2.652   1.465 -1.5484 -2.5470 -0.6079
  295MPD2    N1 4507   2.533   2.552   0.920 -0.1233  0.2438 -0.5680
  295MPD2    H7 4508   2.459   2.608   0.881 -0.6287 -1.2297 -1.7549
  296TMC3    C1 4509   2.165   2.739   1.438  0.3695 -0.3885 -0.4576
  296TMC3    C2 4510   2.071   2.838   1.445 -0.0333  0.6205 -0.1850
  296TMC3    C3 4511   1.976   2.835   1.541  0.0524  0.1879 -0.2942
  296TMC3    C4 4512   2.145   2.623   1.512 -0.3368  0.0452 -0.4032
  296TMC3    C5 4513   2.036   2.620   1.595 -0.3900  0.3796  0.4639
  296TMC3    C6 4514   1.954   2.723   1.618  0.2844  0.5846 -0.3616
  296TMC3     C 4515   2.267   2.731   1.332  0.0933  0.3777 -0.1564
  296TMC3     O 4516   2.240   2.795   1.228  0.9580  0.5409  0.1319
  296TMC3     H 4517   2.095   2.926   1.387  0.7320  0.9907  0.6742
  296TMC3    H1 4518   2.209   2.537   1.496 -0.1820  0.0381  0.2824
  296TMC3    H2 4519   1.870   2.702   1.683  1.5085 -1.9349  0.3979
  296TMC3    C7 4520   1.989   2.489   1.639  0.1244 -0.2350 -0.2919
  296TMC3    C8 4521   1.876   2.939   1.562 -0.8735 -0.2987  0.4668
  296TMC3    O1 4522   1.928   2.484   1.743  0.6319  0.2000 -0.1807
  296TMC3    O2 4523   1.818   2.932   1.671  0.0934 -0.3654 -0.5088
  297MPD2     C 4524   4.155   4.108  16.532  0.2731 -0.0721 -0.3878
  297MPD2    C1 4525   4.175   4.178  16.414  0.9813  0.0050 -0.5005
  297MPD2    C2 4526   4.292   4.251  16.394  0.4693  0.1454  0.7413
  297MPD2    C3 4527   4.395   4.245  16.490  0.0293  0.3838  0.5503
  297MPD2    C4 4528   4.378   4.160  16.599 -0.4962  0.4600 -0.1972
  297MPD2    C5 4529   4.261   4.089  16.617 -0.1440 -0.1444  0.2265
  297MPD2     H 4530   4.313   4.300  16.300  0.7820  0.3884  0.9359
  297MPD2    H1 4531   4.445   4.147  16.683 -0.2859 -0.8439 -0.5670
  297MPD2    H2 4532   4.070   4.041  16.539  0.8637 -0.8931 -1.1782
  297MPD2    H3 4533   4.255   4.032  16.709  1.0738 -0.3400  0.1785
  297MPD2     N 4534   4.507   4.324  16.469 -0.5604 -0.0151 -0.1785
  297MPD2    H5 4535   4.512   4.368  16.377 -0.2046 -1.4705 -0.8601
  297MPD2    N1 4536   4.069   4.191  16.323  0.1552  0.2122 -0.4604
  297MPD2    H7 4537   3.977   4.162  16.354 -0.7196  1.9074 -1.4770
  298TMC3    C1 4538   3.956   4.281  16.151 -0.2080 -0.5794 -0.2471
  298TMC3    C2 4539   3.959   4.301  16.015  0.0420  0.6555 -0.0482
  298TMC3    C3 4540   3.883   4.398  15.959 -0.1214  0.4114 -0.2553
  298TMC3    C4 4541   3.877   4.354  16.234 -0.5524  0.3878  0.5258
  298TMC3    C5 4542   3.803   4.455  16.175  0.0498  0.8389 -0.0656
  298TMC3    C6 4543   3.813   4.475  16.036 -0.2459 -0.0633 -0.5108
  298TMC3     C 4544   4.084   4.236  16.201  0.3205 -0.7238 -0.0730
  298TMC3     O 4545   4.181   4.225  16.125 -0.5910 -0.3858  0.1327
  298TMC3     H 4546   4.007   4.227  15.951  0.4782 -0.2553  1.3242
  298TMC3    H1 4547   3.880   4.361  16.342 -0.1543  0.7290  0.4896
  298TMC3    H2 4548   3.759   4.554  15.984 -0.3769 -0.6462 -1.2630
  298TMC3    C7 4549   3.758   4.565  16.256 -0.0145 -0.1427 -0.2420
  298TMC3    C8 4550   3.920   4.453  15.829  0.1618  0.0632 -0.3114
  298TMC3    O1 4551   3.789   4.557  16.373  0.0089 -0.2323 -0.1494
  298TMC3    O2 4552   3.845   4.545  15.786 -0.0693  0.3636 -0.4299
  299MPD2     C 4553   0.337   3.893  10.921  0.0250  0.6815  0.2886
  299MPD2    C1 4554   0.352   3.958  10.802 -0.8899 -0.5411 -0.2758
  299MPD2    C2 4555   0.260   3.930  10.701  0.4696 -0.3274 -0.6920
  299MPD2    C3 4556   0.157   3.840  10.715 -0.8264 -0.7301 -0.1017
  299MPD2    C4 4557   0.137   3.791  10.835 -0.3462  0.2812  0.2799
  299MPD2    C5 4558   0.224   3.819  10.939  0.0972  0.7166  0.9479
  299MPD2     H 4559   0.277   3.963  10.600  2.1000 -0.7188 -0.5397
  299MPD2    H1 4560   0.037   3.752  10.853 -0.5956  0.8693  0.1855
  299MPD2    H2 4561   0.397   3.899  11.011 -1.0931 -0.1092  1.0850
  299MPD2    H3 4562   0.199   3.785  11.038  3.7717 -0.1883  1.5809
  299MPD2     N 4563   0.073   3.800  10.609 -0.4558  0.1404  0.0912
  299MPD2    H5 4564   4.731   3.747  10.637 -0.7696  0.4928 -0.1647
  299MPD2    N1 4565   0.468   4.052  10.786  0.9359 -0.6307  0.2142
  299MPD2    H7 4566   0.532   4.075  10.862  0.5667 -2.4734  1.0814
  300TMC3    C1 4567   4.739   3.751  10.389  0.4486  0.1646  0.2832
  300TMC3    C2 4568   0.042   3.736  10.260 -0.0545  0.3851 -0.1420
  300TMC3    C3 4569   4.706   3.759  10.152  0.0613 -0.6340  0.5277
  300TMC3    C4 4570   4.608   3.796  10.410  0.1849  0.4090 -0.1613
  300TMC3    C5 4571   4.539   3.817  10.300  0.5994  0.6715  0.1549
  300TMC3    C6 4572   4.573   3.783  10.170 -0.0448 -0.5373 -0.4299
  300TMC3     C 4573   0.101   3.806  10.475 -0.6868 -0.1447 -1.1483
  300TMC3     O 4574   0.197   3.856  10.415 -0.4250  0.1512  0.8939
  300TMC3     H 4575   0.146   3.707  10.254 -0.4394 -1.4044  1.8068
  300TMC3    H1 4576   4.573   3.819  10.510  0.4845 -1.4095  0.3663
  300TMC3    H2 4577   4.512   3.816  10.087  0.1246 -0.9939 -0.7358
  300TMC3    C7 4578   4.405   3.871  10.312 -0.3850 -0.5377 -0.0909
  300TMC3    C8 4579   0.034   3.841  10.059  0.4600 -0.0892 -0.4626
  300TMC3    O1 4580   4.323   3.823  10.234  0.3794 -0.0250  0.0457
  300TMC3    O2 4581   4.732   3.861   9.946 -0.1591 -0.2408 -0.3904
  301MPD2     C 4582   2.908   0.883   0.803 -0.0771  0.1831 -0.6856
  301MPD2    C1 4583   2.811   0.822   0.723 -0.6119  0.0975 -0.5194
  301MPD2    C2 4584   2.779   0.689   0.748  0.3746  1.3014 -0.2431
  301MPD2    C3 4585   2.843   0.611   0.842 -0.3752  0.7285 -0.3865
  301MPD2    C4 4586   2.943   0.668   0.914 -0.0233 -0.0251  0.2587
  301MPD2    C5 4587   2.973   0.802   0.900  0.1374 -0.2535  0.1483
  301MPD2     H 4588   2.710   0.648   0.675  0.6196 -2.4230  1.5991
  301MPD2    H1 4589   3.000   0.602   0.979  0.0097 -0.3271 -0.0786
  301MPD2    H2 4590   2.927   0.989   0.810 -2.5213  0.7324 -2.2285
  301MPD2    H3 4591   3.046   0.853   0.962 -0.3953  0.6270  0.0494
  301MPD2     N 4592   2.822   0.469   0.865  0.4573  0.4040  0.0789
  301MPD2    H5 4593   2.875   0.430   0.941  2.1774  0.8642 -0.8710
  301MPD2    N1 4594   2.741   0.891   0.621 -0.5632  0.2724 -0.3491
  301MPD2    H7 4595   2.669   0.835   0.575  0.5587 -0.2563 -1.4502
  302TMC3    C1 4596   2.739   0.248   0.822 -0.2038  0.0180  0.2816
  302TMC3    C2 4597   2.766   0.203   0.945  0.5711 -0.2888 -0.3009
  302TMC3    C3 4598   2.738   0.066   0.960 -0.0454 -0.2963 -0.1544
  302TMC3    C4 4599   2.677   0.180   0.722  0.6275 -0.1315  0.7123
  302TMC3    C5 4600   2.659   0.049   0.733 -0.1738  0.6295  0.3204
  302TMC3    C6 4601   2.690   4.731   0.855  0.2971 -0.4429  0.0156
  302TMC3     C 4602   2.732   0.388   0.793 -0.2935 -0.6827 -0.4568
  302TMC3     O 4603   2.663   0.425   0.702 -0.4619 -0.6060 -0.5169
  302TMC3     H 4604   2.796   0.270   1.025  1.9913  1.6186 -2.4444
  302TMC3    H1 4605   2.653   0.222   0.625  0.7143  0.5620  0.9882
  302TMC3    H2 4606   2.676   4.626   0.876  1.5962 -0.7804 -0.8058
  302TMC3    C7 4607   2.565   4.719   0.653 -0.0476 -0.0030  0.1124
  302TMC3    C8 4608   2.724   0.008   1.089 -0.1228 -0.2636  0.9156
  302TMC3    O1 4609   2.598   4.607   0.618 -0.2292 -0.0843  0.5093
  302TMC3    O2 4610   2.709   4.626   1.114 -0.0899  0.0807  0.1780
  303MPD2     C 4611   2.986   3.980  10.250  0.0233 -0.3446 -0.0608
  303MPD2    C1 4612   2.895   3.880  10.251 -0.5515  0.0500 -0.0730
  303MPD2    C2 4613   2.774   3.887  10.326  0.8284 -0.1889  1.1957
  303MPD2    C3 4614   2.741   4.007  10.387  0.1306  0.1161 -0.5053
  303MPD2    C4 4615   2.832   4.107  10.373  0.0119  0.2909  0.1565
  303MPD2    C5 4616   2.955   4.095  10.320  0.6717  0.2893  0.7837
  303MPD2     H 4617   2.706   3.802  10.326  0.5400  0.0462  2.7285
  303MPD2    H1 4618   2.808   4.200  10.423 -2.7417  0.1073 -0.8235
  303MPD2    H2 4619   3.084   3.967  10.205  0.6173 -3.0486  1.9583
  303MPD2    H3 4620   3.022   4.180  10.310  2.3453 -0.8472  2.4202
  303MPD2     N 4621   2.617   4.035  10.454  0.3569 -0.4588  0.1912
  303MPD2    H5 4622   2.608   4.124  10.504  1.9919  0.4106 -1.0695
  303MPD2    N1 4623   2.931   3.763  10.185  0.2540  0.3668  0.2773
  303MPD2    H7 4624   3.031   3.753  10.178  0.1113 -2.4626  2.0060
  304TMC3    C1 4625   2.910   3.539  10.119 -0.6149 -0.9556  0.7293
  304TMC3    C2 4626   3.004   3.494  10.206 -0.2105 -0.1559  0.6030
  304TMC3    C3 4627   3.018   3.352  10.206  0.8006 -0.9859 -0.2750
  304TMC3    C4 4628   2.834   3.456  10.047 -0.2704 -0.0023  0.4475
  304TMC3    C5 4629   2.852   3.320  10.047  0.1748  0.1410  0.2705
  304TMC3    C6 4630   2.953   3.270  10.122  0.2176 -0.5355 -0.4156
  304TMC3     C 4631   2.842   3.669  10.155 -0.7759 -0.0187 -0.5216
  304TMC3     O 4632   2.724   3.687  10.132  0.0970  0.4662  0.5070
  304TMC3     H 4633   3.071   3.557  10.264  0.1698  1.2802 -1.4178
  304TMC3    H1 4634   2.757   3.503   9.986  0.0638 -2.0839 -1.5716
  304TMC3    H2 4635   2.978   3.165  10.111  0.3038 -0.8030  2.3377
  304TMC3    C7 4636   2.735   3.229  10.044 -0.0933  0.0512  0.3765
  304TMC3    C8 4637   2.999   3.303  10.339 -0.5589  0.1779  0.3290
  304TMC3    O1 4638   2.755   3.132  10.111 -0.5829  0.3082  0.2050
  304TMC3    O2 4639   3.042   3.381  10.422 -0.0880  0.4005 -0.3451
  305MPD2     C 4640   0.969   1.200  14.334 -0.5250 -0.2122 -0.6843
  305MPD2    C1 4641   1.017   1.075  14.364  0.1041  0.2784  0.2201
  305MPD2    C2 4642   1.001   0.978  14.266 -0.4508  0.2964  0.7278
  305MPD2    C3 4643   0.923   1.006  14.155 -0.4753 -0.8257 -0.3708
  305MPD2    C4 4644   0.888   1.131  14.126 -0.6800  0.7344 -0.0689
  305MPD2    C5 4645   0.908   1.227  14.222 -0.0893 -0.6813 -0.0114
  305MPD2     H 4646   1.043   0.878  14.275 -0.8634  0.1566  1.1009
  305MPD2    H1 4647   0.828   1.157  14.039  0.4013 -2.3096 -1.7250
  305MPD2    H2 4648   0.968   1.280  14.407 -1.9225  0.2964 -1.2655
  305MPD2    H3 4649   0.862   1.324  14.204  1.8110 -0.2546 -2.6841
  305MPD2     N 4650   0.884   0.909  14.058 -0.3185  0.4206 -0.6977
  305MPD2    H5 4651   0.843   0.948  13.973 -2.6423 -1.2721 -0.3635
  305MPD2    N1 4652   1.087   1.057  14.494  0.1208  0.3784  0.4095
  305MPD2    H7 4653   1.081   1.132  14.562  0.2447  0.2465  0.5688
  306TMC3    C1 4654   1.224   0.944  14.650  0.8468  0.4351  0.0719
  306TMC3    C2 4655   1.297   0.831  14.682  0.3094 -0.8667 -0.5092
  306TMC3    C3 4656   1.378   0.830  14.792  0.3376  0.1709  0.1466
  306TMC3    C4 4657   1.256   1.060  14.715  0.4676  0.3810 -0.2266
  306TMC3    C5 4658   1.346   1.059  14.822  0.0173  0.7449 -1.2519
  306TMC3    C6 4659   1.401   0.940  14.870 -0.0890  0.3280 -0.0042
  306TMC3     C 4660   1.141   0.937  14.536  0.0640 -0.9613 -0.8505
  306TMC3     O 4661   1.139   0.828  14.484  0.2919  0.2915  0.5089
  306TMC3     H 4662   1.279   0.736  14.632 -0.4251 -1.0856  0.1760
  306TMC3    H1 4663   1.212   1.155  14.686  1.7897  1.4472  1.2171
  306TMC3    H2 4664   1.469   0.943  14.954 -0.0492 -0.6206  0.0039
  306TMC3    C7 4665   1.366   1.183  14.888  0.5959  0.1208  0.0302
  306TMC3    C8 4666   1.444   0.706  14.823  0.2209 -0.4546  0.2603
  306TMC3    O1 4667   1.271   1.260  14.858 -0.2019 -0.3185 -0.5300
  306TMC3    O2 4668   1.430   0.610  14.747 -0.3455  0.5595  0.3415
  307MPD2     C 4669   3.288   3.515   0.534 -0.2221  0.0050 -0.4110
  307MPD2    C1 4670   3.320   3.650   0.514  0.2716 -0.3246  0.6741
  307MPD2    C2 4671   3.283   3.746   0.614 -0.1497 -0.6055 -0.1270
  307MPD2    C3 4672   3.213   3.695   0.725  0.9414  0.1763 -0.6897
  307MPD2    C4 4673   3.176   3.565   0.735  0.2819 -0.0424 -0.3170
  307MPD2    C5 4674   3.215   3.475   0.641 -0.1387 -0.9363  0.2678
  307MPD2     H 4675   3.307   3.851   0.607  0.3437 -0.7947 -1.3570
  307MPD2    H1 4676   3.119   3.522   0.816  0.5782  2.1142  1.0494
  307MPD2    H2 4677   3.317   3.439   0.462 -3.5985 -0.9017 -0.8235
  307MPD2    H3 4678   3.186   3.371   0.651  0.0455 -0.9626  0.5215
  307MPD2     N 4679   3.168   3.772   0.832  0.6303 -0.0616 -0.3777
  307MPD2    H5 4680   3.129   3.720   0.910 -0.2808  1.1944  0.0067
  307MPD2    N1 4681   3.382   3.701   0.389 -0.2009  0.0154 -0.0988
  307MPD2    H7 4682   3.398   3.801   0.385  1.4064 -0.2498 -0.0060
  308TMC3    C1 4683   2.923   3.938   1.102 -0.0992 -0.6585  0.4106
  308TMC3    C2 4684   2.913   4.075   1.114 -0.2130 -0.6200  0.0543
  308TMC3    C3 4685   2.995   4.157   1.035 -0.2002  0.2343 -0.5017
  308TMC3    C4 4686   3.009   3.878   1.017 -0.6661 -0.3198 -0.3029
  308TMC3    C5 4687   3.089   3.965   0.950  0.4841 -1.0287 -0.0271
  308TMC3    C6 4688   3.083   4.107   0.953 -0.7048 -0.3892  0.7919
  308TMC3     C 4689   2.804   3.865   1.145 -0.1586 -0.4848  0.3444
  308TMC3     O 4690   2.820   3.747   1.176  0.2830 -0.6002  0.2758
  308TMC3     H 4691   2.846   4.122   1.185 -0.7937 -2.7029  0.8825
  308TMC3    H1 4692   3.008   3.772   0.993  0.5562 -0.0768 -1.4085
  308TMC3    H2 4693   3.145   4.151   0.876 -2.1039 -2.9771 -1.8174
  308TMC3    C7 4694   3.182   3.906   0.853 -0.5486 -0.3453 -0.7707
  308TMC3    C8 4695   2.995   4.299   1.054 -0.2335 -0.0104  0.1440
  308TMC3    O1 4696   3.268   3.980   0.799  0.6333 -0.6993  0.0123
  308TMC3    O2 4697   2.926   4.343   1.149  0.0681  0.0883  0.1804
  309MPD2     C 4698   2.369   4.254  17.040 -0.3020 -0.1783  0.0550
  309MPD2    C1 4699   2.367   4.384  17.084  0.1219  0.8393 -0.3372
  309MPD2    C2 4700   2.277   4.428  17.183  0.7817 -0.5645 -0.4779
  309MPD2    C3 4701   2.201   4.333  17.253  0.7529  1.2139  0.6583
  309MPD2    C4 4702   2.196   4.203  17.208 -0.2470  0.2121 -0.2929
  309MPD2    C5 4703   2.273   4.171  17.098 -0.1179  0.1555 -0.5584
  309MPD2     H 4704   2.264   4.531  17.214  1.3707 -0.8792  0.8524
  309MPD2    H1 4705   2.128   4.132  17.254  1.0734 -0.3978  0.7000
  309MPD2    H2 4706   2.428   4.228  16.952  1.4927 -1.5107  1.6226
  309MPD2    H3 4707   2.272   4.070  17.060 -0.3717 -0.2243  0.4558
  309MPD2     N 4708   2.108   4.375  17.347 -0.3267  0.3515 -0.3347
  309MPD2    H5 4709   2.070   4.295  17.397 -2.8498  1.8035  0.0903
  309MPD2    N1 4710   2.460   4.470  17.029 -0.0931 -0.3564 -0.8520
  309MPD2    H7 4711   2.432   4.567  17.026  1.2646  0.1189  1.6254
  310TMC3    C1 4712   2.646   4.512  16.883 -0.2547 -0.3911  0.0837
  310TMC3    C2 4713   2.563   4.565  16.793  0.1954  0.5360 -0.1116
  310TMC3    C3 4714   2.611   4.618  16.677  0.1553 -0.6534  0.7354
  310TMC3    C4 4715   2.782   4.501  16.861 -0.0740 -0.5784  0.0629
  310TMC3    C5 4716   2.831   4.562  16.749  0.2586 -0.0992 -0.0481
  310TMC3    C6 4717   2.753   4.626  16.658  0.1472  1.0402  0.3329
  310TMC3     C 4718   2.587   4.426  16.981  0.5781  0.0222 -0.6906
  310TMC3     O 4719   2.652   4.322  17.000 -0.3003 -0.2298 -0.1534
  310TMC3     H 4720   2.457   4.586  16.803  0.4958  2.4548 -0.9650
  310TMC3    H1 4721   2.839   4.441  16.930  0.4226 -0.0051  0.1476
  310TMC3    H2 4722   2.790   4.701  16.590  0.5414  0.4873 -0.0619
  310TMC3    C7 4723   2.945   4.492  16.686  0.5979  0.5112 -0.6026
  310TMC3    C8 4724   2.548   4.574  16.559  0.3476  0.2446 -0.2845
  310TMC3    O1 4725   2.981   4.393  16.750  0.0987  0.2349 -0.0432
  310TMC3    O2 4726   2.428   4.557  16.567  0.1321  0.1249  0.0770
  311MPD2     C 4727   4.603   0.416  12.869 -0.5506 -0.7052  0.2999
  311MPD2    C1 4728   4.599   0.541  12.812  0.5710  0.0571  0.8020
  311MPD2    C2 4729   4.476   0.598  12.799  0.1881 -0.6186 -0.4500
  311MPD2    C3 4730   4.359   0.545  12.848  0.1233  0.1857  0.0108
  311MPD2    C4 4731   4.361   0.415  12.901 -0.0096 -0.0904  0.3599
  311MPD2    C5 4732   4.484   0.353  12.915  0.0842 -0.2573  0.4587
  311MPD2     H 4733   4.467   0.698  12.757 -1.0507  0.3598  2.1670
  311MPD2    H1 4734   4.275   0.361  12.938  1.9509 -3.8281 -0.5177
  311MPD2    H2 4735   4.701   0.371  12.873 -0.1969  0.0630  0.3610
  311MPD2    H3 4736   4.481   0.252  12.954  0.2070 -0.5037 -0.1665
  311MPD2     N 4737   4.238   0.616  12.833  0.3887 -0.8147  0.4411
  311MPD2    H5 4738   4.241   0.705  12.785  1.1805  0.0301  2.0542
  311MPD2    N1 4739   4.704   0.618  12.765  0.5809 -0.3768 -0.1638
  311MPD2    H7 4740   4.676   0.710  12.731  2.1971 -0.2359 -1.1296
  312TMC3    C1 4741   4.021   0.673  12.837 -0.6954  0.0022 -0.1894
  312TMC3    C2 4742   3.907   0.612  12.778  0.6997  0.4720 -0.6051
  312TMC3    C3 4743   3.818   0.684  12.709 -0.1007  0.2598 -0.3692
  312TMC3    C4 4744   4.061   0.801  12.798  0.0115  0.1198 -0.7332
  312TMC3    C5 4745   3.968   0.871  12.732  0.0401 -0.5647 -0.2440
  312TMC3    C6 4746   3.850   0.818  12.692 -0.4566 -1.0044 -0.0613
  312TMC3     C 4747   4.120   0.580  12.887  0.3449 -0.5768 -0.0913
  312TMC3     O 4748   4.095   0.501  12.981 -0.3538 -0.1585 -0.5011
  312TMC3     H 4749   3.899   0.508  12.806  1.5875  0.9204  1.3548
  312TMC3    H1 4750   4.152   0.846  12.836  0.0186 -1.6829  1.4160
  312TMC3    H2 4751   3.773   0.875  12.641  1.1592  1.0435 -0.2043
  312TMC3    C7 4752   3.993   1.014  12.724  0.2325  1.2016 -0.0389
  312TMC3    C8 4753   3.683   0.632  12.716 -0.3488  0.0895 -0.1226
  312TMC3    O1 4754   3.958   1.072  12.623 -0.6639  0.2616 -0.2417
  312TMC3    O2 4755   3.605   0.689  12.641 -0.2453 -0.0509  0.0724
  313MPD2     C 4756   3.423   0.243  11.524 -0.0774 -0.1687 -0.2055
  313MPD2    C1 4757   3.485   0.251  11.399  0.0724  0.5753 -0.2724
  313MPD2    C2 4758   3.461   0.155  11.303 -0.3067 -0.5962 -0.0315
  313MPD2    C3 4759   3.404   0.033  11.338 -0.0390 -0.0882 -0.1910
  313MPD2    C4 4760   3.357   0.021  11.471  0.7912 -0.1866  0.0788
  313MPD2    C5 4761   3.363   0.125  11.553  0.1865  0.1640  0.0126
  313MPD2     H 4762   3.496   0.178  11.203 -0.0005 -1.1371 -0.0471
  313MPD2    H1 4763   3.302   4.674  11.504  1.0450 -0.5687 -0.5055
  313MPD2    H2 4764   3.422   0.322  11.599 -0.7400  0.9914 -1.4364
  313MPD2    H3 4765   3.320   0.119  11.652 -3.3120 -2.2957 -1.6833
  313MPD2     N 4766   3.385   4.678  11.234 -0.7711 -0.0986 -0.7233
  313MPD2    H5 4767   3.436   4.701  11.149 -1.4708  2.5786 -0.4172
  313MPD2    N1 4768   3.566   0.357  11.346  0.0788  0.3919 -0.1716
  313MPD2    H7 4769   3.595   0.347  11.250  0.1493 -0.2629 -0.0790
  314TMC3    C1 4770   3.647   0.584  11.313 -0.3352 -0.1097 -0.4160
  314TMC3    C2 4771   3.765   0.646  11.336 -0.2283  0.7016 -0.4026
  314TMC3    C3 4772   3.809   0.722  11.230 -0.7198 -0.0264  0.2190
  314TMC3    C4 4773   3.576   0.605  11.204  0.1005 -0.0463  0.4982
  314TMC3    C5 4774   3.629   0.677  11.098 -0.2212  0.7606  0.1813
  314TMC3    C6 4775   3.744   0.744  11.111  0.0254 -0.1215 -0.6732
  314TMC3     C 4776   3.609   0.476  11.403 -1.0826 -0.8578  0.6769
  314TMC3     O 4777   3.598   0.510  11.523 -0.0367 -0.2238 -0.3294
  314TMC3     H 4778   3.813   0.634  11.432 -0.3652 -0.4410 -0.4794
  314TMC3    H1 4779   3.480   0.555  11.198  1.3678 -2.5644  0.9285
  314TMC3    H2 4780   3.770   0.825  11.044  1.8185 -0.0335  0.1393
  314TMC3    C7 4781   3.557   0.665  10.972 -0.5262  0.1188 -0.2474
  314TMC3    C8 4782   3.950   0.744  11.221  0.2495  0.6564  0.4821
  314TMC3    O1 4783   3.434   0.659  10.979 -0.1834 -0.8320 -0.5241
  314TMC3    O2 4784   3.980   0.828  11.135 -0.1367 -0.3986 -0.5809
  315MPD2     C 4785   3.712   3.551  17.411 -0.4513 -0.4197 -0.1193
  315MPD2    C1 4786   3.745   3.563  17.546  0.2162 -0.4340 -0.3286
  315MPD2    C2 4787   3.790   3.688  17.585  0.5124 -1.2746  0.3604
  315MPD2    C3 4788   3.810   3.792  17.502  0.6413 -0.9474 -0.5088
  315MPD2    C4 4789   3.789   3.774  17.369 -0.6263 -0.1821 -0.1968
  315MPD2    C5 4790   3.740   3.649  17.323 -0.5426  0.5325  0.2327
  315MPD2     H 4791   3.806   3.701  17.692 -0.1817 -1.8043  0.5265
  315MPD2    H1 4792   3.807   3.850  17.293  1.6001 -0.3461  0.1848
  315MPD2    H2 4793   3.682   3.453  17.375  0.2462 -0.7957  0.3332
  315MPD2    H3 4794   3.731   3.624  17.218  0.3498 -0.7134  0.4588
  315MPD2     N 4795   3.854   3.918  17.555  0.3163  0.0255  0.3409
  315MPD2    H5 4796   3.861   3.928  17.656 -2.0927 -0.0021  0.4960
  315MPD2    N1 4797   3.718   3.460  17.641 -0.3022  0.2452 -0.1910
  315MPD2    H7 4798   3.768   3.476  17.728 -0.1323  1.0240 -0.4280
  316TMC3    C1 4799   3.907   4.137  17.577  1.2559 -0.2229 -0.0053
  316TMC3    C2 4800   3.998   4.116  17.680  0.2960  0.2471 -0.4601
  316TMC3    C3 4801   4.014   4.216   0.016 -0.6077 -0.2761 -0.5950
  316TMC3    C4 4802   3.849   4.267  17.555 -0.6623  0.1568  0.5801
  316TMC3    C5 4803   3.875   4.365  17.646  0.1109 -0.3143  0.4790
  316TMC3    C6 4804   3.953   4.336   0.001 -0.5289  0.1216 -0.3609
  316TMC3     C 4805   3.877   4.033  17.487 -0.2314 -0.1826 -0.0526
  316TMC3     O 4806   3.840   4.062  17.377 -0.0038 -0.1609 -0.0271
  316TMC3     H 4807   4.043   4.019  17.698 -2.0300  0.0041  4.0337
  316TMC3    H1 4808   3.787   4.281  17.467 -1.2432 -1.4959  0.7235
  316TMC3    H2 4809   3.977   4.415   0.072  1.1556 -1.0773  0.3896
  316TMC3    C7 4810   3.805   4.493  17.646 -0.5725  0.0717 -0.5977
  316TMC3    C8 4811   4.057   4.183   0.150  0.2138  0.2278 -0.6849
  316TMC3    O1 4812   3.814   4.555  17.752  0.2450 -0.0626  0.0794
  316TMC3    O2 4813   4.024   4.259   0.241  0.0125  0.1688 -0.0089
  317MPD2     C 4814   1.137   2.536  12.860 -0.8674  0.3307 -0.4860
  317MPD2    C1 4815   1.219   2.436  12.822 -0.4216 -0.3358  0.5994
  317MPD2    C2 4816   1.260   2.360  12.924  0.4889 -0.2258 -0.0994
  317MPD2    C3 4817   1.216   2.373  13.053  0.6504  0.4817  0.1640
  317MPD2    C4 4818   1.136   2.472  13.093 -1.0117  0.6937 -0.3170
  317MPD2    C5 4819   1.101   2.559  12.992 -0.0381  0.0698 -0.2842
  317MPD2     H 4820   1.329   2.278  12.901 -0.4894 -0.8494 -0.8197
  317MPD2    H1 4821   1.104   2.492  13.195  1.4674 -0.8447  0.7630
  317MPD2    H2 4822   1.097   2.603  12.785  0.1663  2.3010  0.7354
  317MPD2    H3 4823   1.036   2.641  13.020 -1.7888 -1.5832  0.5001
  317MPD2     N 4824   1.249   2.274  13.151 -0.0442 -0.7207  0.0475
  317MPD2    H5 4825   1.291   2.190  13.114  0.8704 -0.8717  1.4074
  317MPD2    N1 4826   1.271   2.419  12.691  0.0479 -0.2788  0.0977
  317MPD2    H7 4827   1.346   2.352  12.679  0.6528  0.2287  1.0430
  318TMC3    C1 4828   1.285   2.159  13.350  0.0128 -0.8094  0.0778
  318TMC3    C2 4829   1.225   2.042  13.303 -0.6210  0.1095 -0.1877
  318TMC3    C3 4830   1.269   1.929  13.364 -0.4642  0.0690  0.7432
  318TMC3    C4 4831   1.371   2.163  13.458  0.3991  0.0730 -0.4891
  318TMC3    C5 4832   1.410   2.043  13.505 -0.1100 -0.1367 -0.7994
  318TMC3    C6 4833   1.366   1.922  13.455 -0.3844 -0.0735  0.5715
  318TMC3     C 4834   1.258   2.291  13.285  0.3938  0.2220 -0.0056
  318TMC3     O 4835   1.237   2.388  13.356  0.2450  0.1301  0.1722
  318TMC3     H 4836   1.159   2.041  13.218  1.0352 -0.3573 -1.4756
  318TMC3    H1 4837   1.408   2.262  13.482  0.9538 -0.7269  1.8906
  318TMC3    H2 4838   1.407   1.830  13.497  0.7184  0.7332  1.2411
  318TMC3    C7 4839   1.502   2.047  13.612 -0.0580  0.2956 -1.1247
  318TMC3    C8 4840   1.203   1.806  13.340  0.1930  0.1362  0.1293
  318TMC3    O1 4841   1.507   2.158  13.663 -0.2636  0.1242  0.2275
  318TMC3    O2 4842   1.264   1.706  13.377  0.5358 -0.3265 -0.2090
  319MPD2     C 4843   2.055   3.535  16.294  0.4038 -0.2387  0.2192
  319MPD2    C1 4844   1.978   3.534  16.407 -0.5041  0.1730  0.4135
  319MPD2    C2 4845   1.845   3.560  16.391  0.4609  0.0962  0.1737
  319MPD2    C3 4846   1.792   3.581  16.267  0.0093  0.5241  0.0753
  319MPD2    C4 4847   1.869   3.585  16.154  0.4141 -0.8784  0.3995
  319MPD2    C5 4848   1.999   3.554  16.172 -0.4938  0.2101  0.8437
  319MPD2     H 4849   1.788   3.558  16.483  2.2175  1.5985  1.2843
  319MPD2    H1 4850   1.827   3.593  16.054  0.7683  0.2795  0.3437
  319MPD2    H2 4851   2.155   3.494  16.295  0.7883  0.7832  3.0681
  319MPD2    H3 4852   2.064   3.548  16.085 -2.0790 -1.8588 -0.1819
  319MPD2     N 4853   1.653   3.603  16.246 -0.0645 -0.0692 -0.5389
  319MPD2    H5 4854   1.616   3.584  16.154  0.7578  0.0755 -0.9019
  319MPD2    N1 4855   2.025   3.498  16.534 -0.0608 -0.3416  0.2058
  319MPD2    H7 4856   1.959   3.497  16.611  1.2915  0.3735  1.3620
  320TMC3    C1 4857   1.435   3.594  16.325  0.2498  0.0887 -0.8513
  320TMC3    C2 4858   1.395   3.580  16.197 -0.3838  1.2326  0.2941
  320TMC3    C3 4859   1.265   3.523  16.182  0.1193  0.0025  0.7261
  320TMC3    C4 4860   1.375   3.547  16.429  0.2787  0.3356  0.1959
  320TMC3    C5 4861   1.263   3.474  16.403  0.0313  0.0612  0.8052
  320TMC3    C6 4862   1.208   3.461  16.284  0.5584 -0.0306 -0.0477
  320TMC3     C 4863   1.570   3.639  16.351  0.1820 -0.3425 -0.8245
  320TMC3     O 4864   1.592   3.668  16.469 -0.3860 -0.0438 -0.2404
  320TMC3     H 4865   1.440   3.642  16.121  2.8661  0.1021  1.3053
  320TMC3    H1 4866   1.395   3.594  16.524 -0.4828  1.0754 -0.0026
  320TMC3    H2 4867   1.107   3.422  16.271 -0.1322  2.4365 -2.0087
  320TMC3    C7 4868   1.249   3.353  16.486  0.2462  0.1077  0.0959
  320TMC3    C8 4869   1.172   3.587  16.090  0.4206 -0.6278 -0.2083
  320TMC3    O1 4870   1.196   3.258  16.430  0.3066 -0.6195 -0.0736
  320TMC3    O2 4871   1.209   3.695  16.051  0.1570  0.6625 -0.7546
  321TMC3    C1 4872   2.161   3.466  16.712  0.1720 -0.2942  0.0369
  321TMC3    C2 4873   2.042   3.403  16.757 -0.3821  0.1857  0.1830
  321TMC3    C3 4874   1.980   3.444  16.869  0.3644  0.0109  0.2970
  321TMC3    C4 4875   2.213   3.576  16.781 -0.5131 -0.3491 -0.1468
  321TMC3    C5 4876   2.145   3.614  16.899  0.2439  0.2598 -0.6863
  321TMC3    C6 4877   2.027   3.555  16.940 -0.0070  0.3824  0.1864
  321TMC3     C 4878   2.161   3.495  16.568  0.2345  0.3904  0.7342
  321TMC3     O 4879   2.259   3.542  16.515  0.2894 -0.5728  0.1842
  321TMC3     H 4880   2.023   3.302  16.721 -0.2464  0.3258 -0.2804
  321TMC3    H1 4881   2.300   3.631  16.748 -0.8451 -0.2160 -0.8063
  321TMC3    H2 4882   1.981   3.574  17.037 -1.5285  1.3208 -0.7238
  321TMC3    C7 4883   2.233   3.610  17.013  0.2842  0.0841 -0.1013
  321TMC3    C8 4884   1.930   3.335  16.950  0.1196 -0.2646  0.0314
  321TMC3    O1 4885   2.211   3.514  17.084 -0.1735  0.4112  0.0384
  321TMC3    O2 4886   1.822   3.273  16.931 -0.0088 -0.1337  0.1730
  322MPD2     C 4887   0.718   0.470  14.197  0.7380  0.2912 -0.4594
  322MPD2    C1 4888   0.819   0.380  14.188 -0.0393 -0.2469 -0.1475
  322MPD2    C2 4889   0.825   0.281  14.087 -0.6118  0.1838 -0.4844
  322MPD2    C3 4890   0.722   0.280  13.997  0.3206  0.4026  0.1692
  322MPD2    C4 4891   0.614   0.378  14.006 -0.3550  0.6038 -0.2462
  322MPD2    C5 4892   0.617   0.475  14.102 -0.0514 -0.2790 -0.3587
  322MPD2     H 4893   0.909   0.214  14.078 -0.5645  0.0097  1.1749
  322MPD2    H1 4894   0.531   0.375  13.936 -0.5448  0.4616 -0.0127
  322MPD2    H2 4895   0.719   0.538  14.282  0.1600  0.4421 -0.5708
  322MPD2    H3 4896   0.538   0.549  14.108 -0.3558 -0.5325 -1.2723
  322MPD2     N 4897   0.705   0.172  13.905  0.1689 -0.7061 -0.4409
  322MPD2    H5 4898   0.616   0.155  13.860  0.8802  0.0752 -2.1533
  322MPD2    N1 4899   0.918   0.368  14.290  0.3943  0.4662 -0.6306
  322MPD2    H7 4900   1.000   0.309  14.278  0.9851  1.7367 -2.9546
  323TMC3    C1 4901   1.033   0.390  14.494 -0.3472  0.1091 -0.4094
  323TMC3    C2 4902   1.155   0.389  14.431 -0.2559 -0.8118 -0.9096
  323TMC3    C3 4903   1.266   0.367  14.511 -0.3008 -0.4431 -0.4137
  323TMC3    C4 4904   1.014   0.350  14.623 -0.0718 -0.4182 -1.0214
  323TMC3    C5 4905   1.130   0.323  14.690 -0.0967  0.3101  0.1962
  323TMC3    C6 4906   1.261   0.339  14.642 -0.1776  0.3867 -0.1776
  323TMC3     C 4907   0.913   0.423  14.415 -0.0858 -0.3857  0.2058
  323TMC3     O 4908   0.817   0.462  14.477 -0.0805  0.0839 -0.7541
  323TMC3     H 4909   1.175   0.426  14.331  0.1211  0.2539 -0.4405
  323TMC3    H1 4910   0.913   0.350  14.664  1.1781  1.2240  2.0948
  323TMC3    H2 4911   1.345   0.301  14.699 -1.6278 -1.0959  1.0100
  323TMC3    C7 4912   1.105   0.208  14.771 -0.6582  0.2146  0.2145
  323TMC3    C8 4913   1.399   0.392  14.460  0.2400 -0.3529 -0.7359
  323TMC3    O1 4914   1.024   0.129  14.720  0.0696 -0.0375  0.4009
  323TMC3    O2 4915   1.489   0.311  14.497  0.0317 -0.5248  0.8565
  324MPD2     C 4916   2.450   1.290  14.749 -0.3470  0.7901  0.5580
  324MPD2    C1 4917   2.505   1.333  14.635 -1.0448 -0.0830  0.1767
  324MPD2    C2 4918   2.420   1.365  14.527 -0.5289  0.1043 -0.4135
  324MPD2    C3 4919   2.292   1.314  14.520 -0.0903 -0.3014  0.0398
  324MPD2    C4 4920   2.241   1.253  14.635  0.3489  0.5177 -0.8577
  324MPD2    C5 4921   2.320   1.251  14.747 -0.1110 -0.1818 -0.1971
  324MPD2     H 4922   2.465   1.414  14.442  0.8661 -3.2621 -1.6414
  324MPD2    H1 4923   2.144   1.205  14.643 -0.6786  2.7394 -0.1279
  324MPD2    H2 4924   2.510   1.274  14.837  1.4027  1.6065 -0.4979
  324MPD2    H3 4925   2.270   1.228  14.841  0.8617  0.3329  0.4381
  324MPD2     N 4926   2.197   1.341  14.419  0.5197 -0.3386  0.8088
  324MPD2    H5 4927   2.103   1.307  14.434  0.6455 -1.3118 -0.6254
  324MPD2    N1 4928   2.645   1.363  14.621 -0.3400 -0.3918 -0.7181
  324MPD2    H7 4929   2.664   1.403  14.529 -0.3072 -2.5074 -1.6303
  325TMC3    C1 4930   2.108   1.417  14.206 -0.2585  1.1489 -1.0815
  325TMC3    C2 4931   2.013   1.314  14.208  0.6855 -0.1923 -0.8850
  325TMC3    C3 4932   1.882   1.346  14.187  0.8766 -0.7422 -0.4182
  325TMC3    C4 4933   2.070   1.545  14.186  0.3403 -0.0414 -0.1478
  325TMC3    C5 4934   1.940   1.574  14.153 -1.1834  0.1021 -0.0066
  325TMC3    C6 4935   1.843   1.476  14.157 -0.1336  0.2468 -0.0054
  325TMC3     C 4936   2.224   1.403  14.295 -0.4250  0.3689 -0.3878
  325TMC3     O 4937   2.322   1.462  14.259 -0.1682  0.3762 -0.3385
  325TMC3     H 4938   2.036   1.210  14.230  0.9206 -0.4717 -2.4798
  325TMC3    H1 4939   2.156   1.611  14.183  0.2890  0.0124 -0.4129
  325TMC3    H2 4940   1.738   1.500  14.152 -0.6601 -2.3445 -1.3944
  325TMC3    C7 4941   1.906   1.718  14.164 -0.5199 -0.1137 -0.7859
  325TMC3    C8 4942   1.787   1.243  14.191  0.1937 -0.0670 -0.3935
  325TMC3    O1 4943   1.995   1.789  14.210  0.6022 -0.3604 -0.0489
  325TMC3    O2 4944   1.823   1.134  14.145 -0.0134  0.4666  0.5882
  326MPD2     C 4945   3.180   2.082  11.767 -0.1101  0.7872 -0.4086
  326MPD2    C1 4946   3.111   2.142  11.675  0.3807  0.4578  0.1280
  326MPD2    C2 4947   3.165   2.243  11.599 -0.4042  0.7689  0.2434
  326MPD2    C3 4948   3.292   2.293  11.632 -0.3030 -0.3043  0.1778
  326MPD2    C4 4949   3.350   2.242  11.742  0.4971  0.3553 -0.3996
  326MPD2    C5 4950   3.301   2.130  11.799  0.2494 -0.2464 -0.0879
  326MPD2     H 4951   3.113   2.283  11.512 -0.2174  1.5743  0.4968
  326MPD2    H1 4952   3.452   2.273  11.763  0.9870 -1.4959 -0.0455
  326MPD2    H2 4953   3.140   1.994  11.816 -2.3623  0.5641 -2.6126
  326MPD2    H3 4954   3.352   2.081  11.881 -1.1202 -1.8255 -0.1909
  326MPD2     N 4955   3.358   2.393  11.556 -0.0558  0.5368  0.0003
  326MPD2    H5 4956   3.453   2.411  11.588 -0.1581  0.2311  0.4715
  326MPD2    N1 4957   2.984   2.105  11.632  0.2970 -0.1066 -0.5302
  326MPD2    H7 4958   2.939   2.168  11.566  0.2131 -0.2341 -0.5939
  327TMC3    C1 4959   2.799   1.979  11.577  0.5123  0.0982 -0.3663
  327TMC3    C2 4960   2.769   2.100  11.523  0.4652  0.2809  0.0796
  327TMC3    C3 4961   2.776   2.125  11.391 -0.0864 -0.2153  0.3430
  327TMC3    C4 4962   2.824   1.877  11.485 -0.0620  0.6151 -0.9638
  327TMC3    C5 4963   2.842   1.907  11.349  0.8288  0.5178 -0.0525
  327TMC3    C6 4964   2.812   2.027  11.304 -0.0064 -0.5433  0.7241
  327TMC3     C 4965   2.917   1.986  11.654 -0.5456 -0.7017 -0.5391
  327TMC3     O 4966   2.965   1.879  11.680  0.3597 -0.1961 -0.1620
  327TMC3     H 4967   2.753   2.183  11.590  2.0545 -1.4426  2.6122
  327TMC3    H1 4968   2.839   1.777  11.521 -1.2461 -0.0298 -2.2436
  327TMC3    H2 4969   2.836   2.066  11.205  0.7961 -2.2346  0.2645
  327TMC3    C7 4970   2.974   1.869  11.303  0.0310 -0.2110 -0.7843
  327TMC3    C8 4971   2.827   2.262  11.360 -1.0790 -0.3674  0.5521
  327TMC3    O1 4972   3.023   1.913  11.197 -0.8091 -0.2235 -0.7070
  327TMC3    O2 4973   2.934   2.260  11.293 -0.2432  0.2443  0.5737
  328MPD2     C 4974   1.247   2.472  17.420 -0.4199 -0.3603  0.6000
  328MPD2    C1 4975   1.152   2.392  17.473  0.3107  0.6549  0.0236
  328MPD2    C2 4976   1.051   2.331  17.395  0.3913  0.5781  0.0411
  328MPD2    C3 4977   1.068   2.351  17.263 -0.1629  0.1602  0.3200
  328MPD2    C4 4978   1.188   2.398  17.207  0.0612 -0.4311  0.8477
  328MPD2    C5 4979   1.269   2.469  17.287  0.4776  0.4691  0.0623
  328MPD2     H 4980   0.962   2.282  17.432  0.8452  0.1909  0.6276
  328MPD2    H1 4981   1.201   2.403  17.100 -1.4297  1.7582  0.7733
  328MPD2    H2 4982   1.319   2.518  17.487 -0.3167 -2.0231  1.6292
  328MPD2    H3 4983   1.356   2.524  17.254  0.6980 -0.9109 -1.6942
  328MPD2     N 4984   0.983   2.300  17.165 -0.4893 -0.3283  0.1860
  328MPD2    H5 4985   1.004   2.327  17.070 -0.8982 -0.1713  0.1400
  328MPD2    N1 4986   1.156   2.392  17.612 -0.4159 -0.1165 -0.1092
  328MPD2    H7 4987   1.234   2.434  17.662 -1.6701  2.0901 -0.0029
  329TMC3    C1 4988   1.099   2.301   0.073  0.1191  0.1877  0.4351
  329TMC3    C2 4989   1.205   2.355   0.134  0.4333 -0.8092  0.0319
  329TMC3    C3 4990   1.219   2.345   0.272  0.8544  0.3532  0.4932
  329TMC3    C4 4991   1.009   2.235   0.145 -0.1275  0.0665  0.5146
  329TMC3    C5 4992   1.032   2.219   0.282  0.3415 -0.2557  0.1678
  329TMC3    C6 4993   1.138   2.274   0.349  0.2203 -0.3311  0.5067
  329TMC3     C 4994   1.069   2.315  17.689  0.2325 -0.7435 -0.5685
  329TMC3     O 4995   0.955   2.274  17.663 -0.0892  0.0843 -0.5923
  329TMC3     H 4996   1.284   2.407   0.081  0.5704 -1.9718 -0.9067
  329TMC3    H1 4997   0.919   2.183   0.112 -0.0081  0.8933 -1.1076
  329TMC3    H2 4998   1.169   2.257   0.452  0.5345  2.8075  0.9391
  329TMC3    C7 4999   0.945   2.126   0.358  0.2706 -0.7493  0.4757
  329TMC3    C8 5000   1.315   2.428   0.321  0.5140 -0.3560 -0.2257
  329TMC3    O1 5001   0.869   2.049   0.294 -0.0193  0.2489 -0.1346
  329TMC3    O2 5002   1.409   2.454   0.247  0.1902 -0.5241 -0.3711
  330TMC3    C1 5003   3.896   1.628   9.998 -0.0263  1.2847  0.8265
  330TMC3    C2 5004   3.841   1.528   9.914 -0.2551 -0.2746 -0.1437
  330TMC3    C3 5005   3.839   1.404   9.973  0.5351 -0.3755  0.1933
  330TMC3    C4 5006   3.938   1.606  10.122  0.5078 -0.2123  0.0807
  330TMC3    C5 5007   3.932   1.479  10.175  0.2779  0.7858 -0.1549
  330TMC3    C6 5008   3.887   1.383  10.104 -0.1965 -0.6524 -0.0254
  330TMC3     C 5009   3.869   1.766   9.966  0.3121  0.2204 -0.0214
  330TMC3     O 5010   3.947   1.859  10.000  0.6737 -0.0580  0.2146
  330TMC3     H 5011   3.819   1.550   9.810  0.0783  1.1493  0.0886
  330TMC3    H1 5012   3.981   1.682  10.187 -0.5878 -0.3726  0.9999
  330TMC3    H2 5013   3.905   1.280  10.132  0.2980 -0.7338 -0.6448
  330TMC3    C7 5014   4.031   1.447  10.281  0.7971  0.3311  0.0518
  330TMC3    C8 5015   3.792   1.296   9.900  0.3361 -1.1081  0.5204
  330TMC3    O1 5016   4.106   1.542  10.305  0.5477 -0.4897 -0.2128
  330TMC3    O2 5017   3.800   1.309   9.778  0.5673 -0.0581 -0.1552
  331MPD2     C 5018   1.426   0.837  12.426  0.1487 -0.2349  0.1786
  331MPD2    C1 5019   1.512   0.825  12.317  0.3463 -0.1800  0.3185
  331MPD2    C2 5020   1.549   0.698  12.296  0.2628  0.0109  0.1449
  331MPD2    C3 5021   1.516   0.589  12.379  0.1304  0.3715 -0.7844
  331MPD2    C4 5022   1.428   0.608  12.483  0.6354  0.6381 -0.2334
  331MPD2    C5 5023   1.382   0.735  12.509 -0.5560 -0.1618  0.3818
  331MPD2     H 5024   1.618   0.672  12.217 -0.3481  0.6487 -0.5951
  331MPD2    H1 5025   1.404   0.528  12.552 -2.4815  2.2425  0.5379
  331MPD2    H2 5026   1.391   0.937  12.450 -4.2201 -1.1791 -2.2051
  331MPD2    H3 5027   1.323   0.754  12.598 -2.7476  1.1722 -1.3619
  331MPD2     N 5028   1.585   0.472  12.358  0.4765 -0.2979 -0.0841
  331MPD2    H5 5029   1.635   0.464  12.270  0.3009 -0.2985 -0.1841
  331MPD2    N1 5030   1.561   0.941  12.247  0.2953  0.5481 -0.2025
  331MPD2    H7 5031   1.551   1.034  12.286 -0.6824  0.1508  0.4800
  332TMC3    C1 5032   1.690   0.279  12.396 -0.1386  0.4059 -0.5005
  332TMC3    C2 5033   1.719   0.292  12.266  0.8891  0.2049  0.2041
  332TMC3    C3 5034   1.850   0.282  12.219 -0.2877 -0.7037  0.4431
  332TMC3    C4 5035   1.787   0.257  12.487  0.6892  0.1501  0.2461
  332TMC3    C5 5036   1.917   0.249  12.443 -0.5800 -0.2210 -0.1248
  332TMC3    C6 5037   1.952   0.262  12.311  0.1202 -0.5296  0.0695
  332TMC3     C 5038   1.582   0.363  12.440 -0.3705 -0.5638  0.4118
  332TMC3     O 5039   1.551   0.340  12.555  0.4876 -0.4098 -0.2573
  332TMC3     H 5040   1.644   0.280  12.189 -0.3322  0.5714  1.3229
  332TMC3    H1 5041   1.767   0.237  12.592 -1.3854 -1.8650 -0.5297
  332TMC3    H2 5042   2.054   0.242  12.279 -0.2868  2.7454 -3.2385
  332TMC3    C7 5043   2.013   0.283  12.547  0.2564  0.0637  0.3088
  332TMC3    C8 5044   1.867   0.226  12.089  0.3782  0.4102  0.6405
  332TMC3    O1 5045   1.976   0.291  12.665 -0.5742  0.0963 -0.0650
  332TMC3    O2 5046   1.777   0.159  12.043  0.2000  0.0344 -0.5290
  333MPD2     C 5047   2.192   0.557  11.351  0.4076 -0.3769 -0.0077
  333MPD2    C1 5048   2.259   0.467  11.276 -0.1405  0.5400 -0.3509
  333MPD2    C2 5049   2.251   0.330  11.298  0.1507  1.4836  0.6376
  333MPD2    C3 5050   2.150   0.281  11.386 -0.7930 -0.3419  0.5889
  333MPD2    C4 5051   2.077   0.368  11.459 -0.6162 -0.7251 -0.6174
  333MPD2    C5 5052   2.101   0.507  11.441 -0.8278 -0.2021 -0.3378
  333MPD2     H 5053   2.316   0.263  11.244 -0.2274  1.3282  0.3734
  333MPD2    H1 5054   1.998   0.338  11.527  0.7523  0.6085  1.5502
  333MPD2    H2 5055   2.205   0.665  11.353 -0.3565 -0.3073  1.5517
  333MPD2    H3 5056   2.041   0.574  11.502 -0.7029  0.8515 -1.3866
  333MPD2     N 5057   2.138   0.142  11.391  0.4317  0.3036  0.6523
  333MPD2    H5 5058   2.211   0.090  11.342 -0.3947  0.2603 -0.5365
  333MPD2    N1 5059   2.349   0.525  11.183  0.4429  0.5608 -0.1845
  333MPD2    H7 5060   2.349   0.626  11.187 -0.4877  0.5960 -1.0075
  334TMC3    C1 5061   2.513   0.568  11.031  0.0435 -0.2728  0.2454
  334TMC3    C2 5062   2.575   0.527  10.919 -0.4105  0.1127 -0.2348
  334TMC3    C3 5063   2.662   0.606  10.853  0.6526 -0.4261  0.2979
  334TMC3    C4 5064   2.501   0.703  11.060  0.4354 -0.7822 -0.1181
  334TMC3    C5 5065   2.582   0.777  10.987  0.6256 -0.0907 -0.1504
  334TMC3    C6 5066   2.666   0.739  10.887  1.0494 -0.3067  0.0152
  334TMC3     C 5067   2.440   0.466  11.096  0.5732 -0.3152 -0.5790
  334TMC3     O 5068   2.484   0.355  11.092 -0.3268  0.1583 -0.3244
  334TMC3     H 5069   2.562   0.422  10.892  2.3228 -0.3687  0.3056
  334TMC3    H1 5070   2.457   0.737  11.153  1.1908  0.6642 -0.2931
  334TMC3    H2 5071   2.720   0.807  10.823 -0.2892  1.0611  0.3413
  334TMC3    C7 5072   2.584   0.926  11.009 -0.4812  1.0410 -0.2544
  334TMC3    C8 5073   2.740   0.558  10.737  0.0417 -0.1411  0.2104
  334TMC3    O1 5074   2.684   0.979  10.965  0.1036  0.1856  0.2600
  334TMC3    O2 5075   2.699   0.446  10.690 -0.0001 -0.2983 -0.3777
  335TMC3    C1 5076   2.198   2.272  17.532 -0.6674 -0.0998  0.1308
  335TMC3    C2 5077   2.112   2.233  17.433  0.1266 -0.4279 -0.0110
  335TMC3    C3 5078   2.167   2.161  17.330  0.2150  0.2502 -0.3649
  335TMC3    C4 5079   2.321   2.220  17.542 -0.1775 -0.0505  0.3117
  335TMC3    C5 5080   2.367   2.142  17.447  0.5912 -0.8022  0.1209
  335TMC3    C6 5081   2.296   2.111  17.330  0.6169 -0.8494 -0.4509
  335TMC3     C 5082   2.163   2.373  17.623 -0.0155  0.1601  0.2436
  335TMC3     O 5083   2.224   2.388  17.732 -0.0592 -0.1105 -0.1855
  335TMC3     H 5084   2.010   2.267  17.417 -0.4231 -1.3641  1.5637
  335TMC3    H1 5085   2.386   2.254  17.623  1.3884 -0.6153 -0.7009
  335TMC3    H2 5086   2.331   2.053  17.245  1.2089 -0.6050 -0.3741
  335TMC3    C7 5087   2.508   2.104  17.442  0.1798 -0.3083 -0.1561
  335TMC3    C8 5088   2.082   2.126  17.214  0.1276 -0.1209 -0.0710
  335TMC3    O1 5089   2.554   2.053  17.341  0.4740  0.2624  0.2401
  335TMC3    O2 5090   2.131   2.143  17.102 -0.0299 -0.2816  0.3964
  336MPD2     C 5091   1.238   0.116  16.256 -0.4061 -0.8049  0.0269
  336MPD2    C1 5092   1.261   0.052  16.139  0.1420  0.4133  0.2497
  336MPD2    C2 5093   1.356   4.693  16.140  0.1750 -0.1095  0.1514
  336MPD2    C3 5094   1.428   4.657  16.252  0.0522 -0.5083  0.7071
  336MPD2    C4 5095   1.397   4.726  16.368  0.3916  0.6786 -0.0777
  336MPD2    C5 5096   1.313   0.090  16.367  0.3890  0.2262  0.2706
  336MPD2     H 5097   1.381   4.643  16.047 -0.5034 -0.0644 -0.0608
  336MPD2    H1 5098   1.455   4.707  16.457  0.1569  1.3912  0.2322
  336MPD2    H2 5099   1.169   0.198  16.270  0.0565 -0.2700 -0.8164
  336MPD2    H3 5100   1.301   0.153  16.454  1.2979  0.4737  0.2192
  336MPD2     N 5101   1.509   4.544  16.272  0.9151 -0.2915 -0.3125
  336MPD2    H5 5102   1.542   4.529  16.367 -0.0482  1.7541  0.3623
  336MPD2    N1 5103   1.201   0.088  16.014 -0.0490 -0.2062  0.4640
  336MPD2    H7 5104   1.200   0.024  15.935 -1.2150  2.4217 -1.6357
  337TMC3    C1 5105   1.067   0.198  15.859 -0.3547 -0.4259 -1.0182
  337TMC3    C2 5106   1.001   0.091  15.817 -0.0558 -0.6409  0.1899
  337TMC3    C3 5107   0.900   0.104  15.725 -0.1050 -0.0635  0.1020
  337TMC3    C4 5108   1.038   0.324  15.811 -0.0202  0.3741 -0.0258
  337TMC3    C5 5109   0.946   0.336  15.710  0.6548 -0.0989 -0.5698
  337TMC3    C6 5110   0.874   0.231  15.672  0.2045  0.9108 -0.0233
  337TMC3     C 5111   1.112   0.200  15.999 -0.8860 -0.0509 -0.2194
  337TMC3     O 5112   1.093   0.302  16.061  0.1288  0.2558  0.4131
  337TMC3     H 5113   1.015   4.731  15.857  2.4001 -0.5216 -0.3901
  337TMC3    H1 5114   1.083   0.410  15.859  1.8144 -0.2105 -0.6730
  337TMC3    H2 5115   0.794   0.256  15.603  0.8677  2.2644 -0.2900
  337TMC3    C7 5116   0.886   0.473  15.689 -0.2267 -0.0670 -0.1221
  337TMC3    C8 5117   0.829   4.724  15.673 -0.2874 -0.9577  0.3454
  337TMC3    O1 5118   0.780   0.473  15.627  0.0317  0.5007  0.1365
  337TMC3    O2 5119   0.846   4.617  15.733 -0.1697  0.3608  0.6026
  338MPD2     C 5120   2.317   4.712   0.937 -0.1638 -0.0523  0.3060
  338MPD2    C1 5121   2.192   4.687   0.891 -0.3491  0.5649 -0.0975
  338MPD2    C2 5122   2.093   0.042   0.910  0.4280  0.0143  0.7329
  338MPD2    C3 5123   2.118   0.153   0.985  0.1876  0.4755  0.2041
  338MPD2    C4 5124   2.239   0.171   1.042  0.8470 -0.4345 -0.1108
  338MPD2    C5 5125   2.339   0.086   1.022 -0.7458  0.2800 -0.3160
  338MPD2     H 5126   2.007   0.033   0.844  0.4322 -0.0948  0.7433
  338MPD2    H1 5127   2.248   0.264   1.097 -1.3456  0.7859 -1.7952
  338MPD2    H2 5128   2.387   4.629   0.934  0.1371  0.1247  2.5607
  338MPD2    H3 5129   2.436   0.115   1.060 -1.4400  0.3464  1.4298
  338MPD2     N 5130   2.004   0.230   1.012 -0.2045 -0.2612 -0.2489
  338MPD2    H5 5131   1.923   0.204   0.955  0.5149  0.4467 -1.6092
  338MPD2    N1 5132   2.159   4.570   0.822 -0.0405 -0.2341 -0.4713
  338MPD2    H7 5133   2.066   4.561   0.780 -0.1143 -0.3398 -0.2865
  339TMC3    C1 5134   1.839   0.351   1.110 -0.0683  0.6342 -0.7373
  339TMC3    C2 5135   1.802   0.373   1.242 -0.3168  0.4782 -0.2913
  339TMC3    C3 5136   1.722   0.279   1.290 -0.2404 -0.5933 -0.0252
  339TMC3    C4 5137   1.770   0.277   1.020  1.2651 -0.0589  0.0209
  339TMC3    C5 5138   1.683   0.195   1.073 -0.1628 -0.1368  0.4601
  339TMC3    C6 5139   1.662   0.187   1.214 -0.5190 -0.7084 -1.0249
  339TMC3     C 5140   1.980   0.319   1.105 -0.1951  1.0389  0.4040
  339TMC3     O 5141   2.058   0.357   1.192 -0.3748 -0.0755 -0.3509
  339TMC3     H 5142   1.867   0.424   1.313  0.2460  0.8032 -1.0375
  339TMC3    H1 5143   1.782   0.296   0.914 -2.9483  0.6433 -0.3257
  339TMC3    H2 5144   1.622   0.097   1.260 -1.1842 -0.7382 -1.6570
  339TMC3    C7 5145   1.647   0.083   0.982 -0.7098 -0.0841 -0.3305
  339TMC3    C8 5146   1.659   0.316   1.413 -0.3062  0.2527  0.3313
  339TMC3    O1 5147   1.735   0.072   0.893 -0.1575  0.3605  0.0974
  339TMC3    O2 5148   1.699   0.411   1.478 -0.5984 -0.6548 -0.1879
  340MPD2     C 5149   2.278   2.380  10.326 -0.0328  0.3290  0.0191
  340MPD2    C1 5150   2.178   2.288  10.340  0.0308  0.9201  0.2578
  340MPD2    C2 5151   2.098   2.298  10.452  0.4187 -0.4214 -0.6096
  340MPD2    C3 5152   2.120   2.406  10.538 -0.3595  0.5189 -0.6129
  340MPD2    C4 5153   2.209   2.506  10.520 -0.0281 -0.2035 -0.3173
  340MPD2    C5 5154   2.294   2.487  10.414 -0.3002  0.4045 -0.3041
  340MPD2     H 5155   2.032   2.214  10.466  1.3946 -1.0833 -0.0283
  340MPD2    H1 5156   2.224   2.586  10.592  0.6671 -0.8018  0.1957
  340MPD2    H2 5157   2.346   2.385  10.242  1.2665  1.2659  1.1089
  340MPD2    H3 5158   2.371   2.563  10.402 -1.8144  2.1954  1.3443
  340MPD2     N 5159   2.054   2.423  10.653 -0.0055 -0.0882  0.0853
  340MPD2    H5 5160   2.101   2.477  10.724  0.1220  2.2498 -1.8125
  340MPD2    N1 5161   2.182   2.176  10.260  0.4115  0.3535 -0.0070
  340MPD2    H7 5162   2.254   2.178  10.188  0.7437 -4.0572  0.1799
  341TMC3    C1 5163   2.143   1.956  10.167  0.2206  0.6796  0.3005
  341TMC3    C2 5164   2.065   1.842  10.163 -0.6793  0.5148  0.4945
  341TMC3    C3 5165   2.069   1.759  10.054  0.2235 -0.3885  0.0821
  341TMC3    C4 5166   2.238   1.982  10.070  0.5524  0.1701 -0.2947
  341TMC3    C5 5167   2.235   1.901   9.958  0.3042  0.0631  0.7817
  341TMC3    C6 5168   2.149   1.794   9.951  0.2737 -0.1315 -0.0183
  341TMC3     C 5169   2.105   2.061  10.263 -0.0987 -0.6715  0.5286
  341TMC3     O 5170   1.997   2.041  10.327  0.2623 -0.9549 -0.3339
  341TMC3     H 5171   1.996   1.821  10.244 -0.2896 -1.5187  0.3036
  341TMC3    H1 5172   2.292   2.074  10.051  1.0895 -0.3897 -1.5272
  341TMC3    H2 5173   2.183   1.725   9.874 -1.4587 -2.5828  1.4621
  341TMC3    C7 5174   2.357   1.882   9.883 -0.2049 -0.2493  0.0871
  341TMC3    C8 5175   2.020   1.622  10.068 -0.5194  0.1747  0.2743
  341TMC3    O1 5176   2.352   1.820   9.775  0.4983  0.0282 -0.7707
  341TMC3    O2 5177   1.979   1.589  10.173 -0.5678  0.1987  0.4077
  342MPD2     C 5178   4.392   0.475   0.023  0.1671 -0.2382 -0.5027
  342MPD2    C1 5179   4.520   0.472  17.732  0.7895  0.1305 -0.1196
  342MPD2    C2 5180   4.589   0.582  17.697  0.1801  0.3906 -0.5548
  342MPD2    C3 5181   4.539   0.705  17.717 -0.4404  0.3118 -0.2518
  342MPD2    C4 5182   4.417   0.711   0.031  0.7275  0.4874 -0.1794
  342MPD2    C5 5183   4.341   0.602   0.053 -0.4868  0.1050  0.3509
  342MPD2     H 5184   4.689   0.570  17.657  0.5342 -0.6938  0.6434
  342MPD2    H1 5185   4.362   0.802   0.050 -0.4231 -0.4210  0.8817
  342MPD2    H2 5186   4.327   0.389   0.039  1.5930 -0.8942  1.8260
  342MPD2    H3 5187   4.241   0.604   0.094 -0.4903  0.4318  0.3219
  342MPD2     N 5188   4.616   0.827  17.708  0.2603  0.3187 -0.5842
  342MPD2    H5 5189   4.561   0.910  17.727  0.1068  0.1527 -0.2982
  342MPD2    N1 5190   4.581   0.349  17.705  0.2318  0.2485 -0.0174
  342MPD2    H7 5191   4.671   0.360  17.659 -0.2152  0.5221 -0.8166
  343TMC3    C1 5192   4.630   0.124  17.698  0.5105 -0.6704 -0.0127
  343TMC3    C2 5193   4.713   0.150  17.598 -0.5227 -0.0977  0.4235
  343TMC3    C3 5194   0.027   0.052  17.518 -0.4875 -0.0601 -0.3848
  343TMC3    C4 5195   4.589   0.000  17.728  0.3016 -0.3212 -0.4015
  343TMC3    C5 5196   4.641   4.640  17.651  0.1504  0.2024  0.8796
  343TMC3    C6 5197   4.738   4.667  17.556  0.2611  0.3291 -0.2331
  343TMC3     C 5198   4.544   0.227  17.749  0.8351  0.6910  0.4770
  343TMC3     O 5199   4.456   0.192   0.071  0.0518 -0.0888 -0.2324
  343TMC3     H 5200   0.005   0.249  17.569  1.4175 -0.7106  0.4660
  343TMC3    H1 5201   4.512   4.718   0.043  0.1295 -2.1501 -1.1563
  343TMC3    H2 5202   0.048   4.584  17.508  1.1306 -0.6658  2.3824
  343TMC3    C7 5203   4.566   4.515  17.632  0.1930 -0.3128  0.1260
  343TMC3    C8 5204   0.156   0.080  17.457 -0.1916 -0.1568  0.8410
  343TMC3    O1 5205   4.546   4.481  17.519  0.1816 -0.0685 -0.4254
  343TMC3    O2 5206   0.218   0.180  17.498 -0.6129 -0.6259 -0.3439
  344MPD2     C 5207   1.053   4.406  10.254 -0.2207  0.5006 -0.4116
  344MPD2    C1 5208   1.022   4.484  10.365  0.0109  0.7967  1.0432
  344MPD2    C2 5209   1.057   4.620  10.365  0.0630  0.7838  0.1386
  344MPD2    C3 5210   1.129   4.672  10.257 -0.6412 -0.6574  0.4028
  344MPD2    C4 5211   1.177   4.590  10.159  0.6594 -0.9170 -0.1786
  344MPD2    C5 5212   1.131   4.461  10.151 -0.2915  0.4388 -0.1722
  344MPD2     H 5213   1.022   4.686  10.443 -0.0216 -1.2600  1.8251
  344MPD2    H1 5214   1.246   4.621  10.081  0.0305 -3.1733 -1.6144
  344MPD2    H2 5215   1.026   4.302  10.243  1.9803 -0.2263  1.2815
  344MPD2    H3 5216   1.170   4.395  10.074  2.5909  0.5313  1.2026
  344MPD2     N 5217   1.174   0.062  10.250  0.2707 -0.0252 -0.0009
  344MPD2    H5 5218   1.228   0.090  10.168  1.3326 -1.2959  0.2716
  344MPD2    N1 5219   0.956   4.428  10.472  0.0856  0.0155  0.4509
  344MPD2    H7 5220   0.932   4.493  10.546  1.2787  0.1871  0.6877
  345TMC3    C1 5221   1.178   0.282  10.305  0.1494  0.2974  0.7344
  345TMC3    C2 5222   1.247   0.371  10.387 -0.3191 -1.0753 -0.5954
  345TMC3    C3 5223   1.270   0.490  10.330  0.5575  0.1284  0.4563
  345TMC3    C4 5224   1.142   0.306  10.174 -0.0090 -1.1179 -0.0942
  345TMC3    C5 5225   1.164   0.427  10.118 -0.3812 -0.2074 -1.2108
  345TMC3    C6 5226   1.235   0.515  10.201  0.9561  0.6319  0.6638
  345TMC3     C 5227   1.169   0.145  10.355 -0.0789 -0.0075  0.5300
  345TMC3     O 5228   1.176   0.128  10.476 -0.5204  0.0707 -0.7510
  345TMC3     H 5229   1.273   0.343  10.488 -0.7124  1.2571  0.1619
  345TMC3    H1 5230   1.065   0.241  10.135 -0.2496 -0.0733 -1.3678
  345TMC3    H2 5231   1.255   0.614  10.160  0.7156  0.1025 -0.7575
  345TMC3    C7 5232   1.050   0.487  10.055  0.2532  0.6730 -0.0262
  345TMC3    C8 5233   1.249   0.606  10.406 -0.7092 -0.4371 -0.7909
  345TMC3    O1 5234   1.031   0.603  10.091  0.2305 -0.0084  0.2491
  345TMC3    O2 5235   1.248   0.711  10.343  0.1452 -0.5020 -0.2644
  346MPD2     C 5236   0.785   1.319  13.856 -0.1173  0.6664 -0.3295
  346MPD2    C1 5237   0.918   1.343  13.863 -0.3765 -0.3944 -0.1592
  346MPD2    C2 5238   0.966   1.465  13.911 -0.2851  0.2013 -0.1965
  346MPD2    C3 5239   0.875   1.546  13.973 -0.4588 -0.3072 -0.0880
  346MPD2    C4 5240   0.740   1.517  13.986  0.1340 -0.1011 -0.4517
  346MPD2    C5 5241   0.697   1.405  13.920  0.3339  0.5239  0.3633
  346MPD2     H 5242   1.069   1.483  13.883 -0.6075 -0.1773 -1.6090
  346MPD2    H1 5243   0.673   1.582  14.041  0.4141  0.2366 -0.5152
  346MPD2    H2 5244   0.744   1.230  13.809 -0.4069 -0.5362  2.1969
  346MPD2    H3 5245   0.592   1.379  13.931  0.1799  0.6180 -0.8777
  346MPD2     N 5246   0.922   1.668  14.018 -0.1418  0.0542 -0.3815
  346MPD2    H5 5247   1.019   1.689  13.995  0.2908 -1.4597  0.0564
  346MPD2    N1 5248   1.019   1.258  13.799  0.8721  0.8992  0.2362
  346MPD2    H7 5249   1.104   1.310  13.780  2.1385 -1.1102  0.5002
  347TMC3    C1 5250   0.932   1.880  14.127  0.0648 -0.5085  0.2206
  347TMC3    C2 5251   1.070   1.855  14.128  0.5465  0.1876 -0.2354
  347TMC3    C3 5252   1.150   1.961  14.125 -0.4026  0.2629 -0.2159
  347TMC3    C4 5253   0.884   2.008  14.126  0.7922 -0.2060  0.9354
  347TMC3    C5 5254   0.967   2.115  14.132 -0.5904 -0.0193  0.2377
  347TMC3    C6 5255   1.102   2.087  14.130 -0.6695 -0.0557 -0.1469
  347TMC3     C 5256   0.846   1.768  14.079 -0.5652 -0.2915 -0.1930
  347TMC3     O 5257   0.727   1.793  14.071 -0.0157 -0.1642 -0.2936
  347TMC3     H 5258   1.114   1.756  14.133  1.7738  0.8600  2.5470
  347TMC3    H1 5259   0.776   2.018  14.130  1.1648  3.4100  1.6463
  347TMC3    H2 5260   1.165   2.174  14.119 -0.9396  0.0111 -1.1722
  347TMC3    C7 5261   0.911   2.247  14.146 -0.7483 -0.4143 -0.1863
  347TMC3    C8 5262   1.288   1.929  14.123  0.3292  0.0152  0.1800
  347TMC3    O1 5263   0.795   2.265  14.112 -0.6690 -0.4351 -0.3097
  347TMC3    O2 5264   1.315   1.824  14.067  0.5319 -0.1343  0.2028
  348MPD2     C 5265   4.007   0.797  12.253 -0.0104  0.0738 -0.3407
  348MPD2    C1 5266   4.109   0.855  12.180  0.0605  0.1494 -0.5568
  348MPD2    C2 5267   4.069   0.947  12.083  0.6142 -0.4456 -0.6927
  348MPD2    C3 5268   3.942   0.984  12.066 -0.6796  0.2540 -0.3234
  348MPD2    C4 5269   3.836   0.922  12.135 -0.3934  0.1983  0.0612
  348MPD2    C5 5270   3.875   0.827  12.231  0.4421 -0.5453  0.1064
  348MPD2     H 5271   4.139   1.009  12.029  0.3628  2.0170  1.8106
  348MPD2    H1 5272   3.736   0.963  12.127 -0.1073  0.5778 -1.6049
  348MPD2    H2 5273   4.036   0.718  12.322 -0.4786  1.4226  1.3914
  348MPD2    H3 5274   3.792   0.774  12.276  0.2884 -0.0050  0.4653
  348MPD2     N 5275   3.925   1.094  11.977  0.4592 -0.0224  0.3304
  348MPD2    H5 5276   4.004   1.132  11.926 -0.4192  1.6991  0.2279
  348MPD2    N1 5277   4.245   0.832  12.198  0.3150  0.9566  0.0518
  348MPD2    H7 5278   4.311   0.884  12.141  1.2698 -0.7936 -0.4551
  349TMC3    C1 5279   4.437   0.706  12.243  0.6883 -0.1064  0.5205
  349TMC3    C2 5280   4.496   0.608  12.320 -0.2171  1.0422 -0.2161
  349TMC3    C3 5281   4.592   0.531  12.252 -0.3149 -0.1176 -0.2323
  349TMC3    C4 5282   4.476   0.723  12.113 -0.4785  0.6418  0.3121
  349TMC3    C5 5283   4.582   0.651  12.058  0.0878  0.0862 -0.4066
  349TMC3    C6 5284   4.637   0.547  12.125 -0.1563 -0.1244 -0.2221
  349TMC3     C 5285   4.299   0.733  12.275  0.7115 -0.3871  0.0996
  349TMC3     O 5286   4.251   0.659  12.360 -0.3255  0.5352 -0.4043
  349TMC3     H 5287   4.456   0.573  12.415  1.0928  0.1098 -0.0079
  349TMC3    H1 5288   4.427   0.790  12.042  1.3588 -0.5250 -2.0811
  349TMC3    H2 5289   4.716   0.480  12.093  1.6653  1.2186  1.4154
  349TMC3    C7 5290   4.576   0.645  11.910  0.0456  0.0897  0.7970
  349TMC3    C8 5291   4.649   0.431  12.338  0.4753  0.3364  0.1826
  349TMC3    O1 5292   4.463   0.646  11.856 -0.2684 -0.5093 -0.2018
  349TMC3    O2 5293   0.030   0.397  12.329 -0.3379  0.7655  0.2357
  350MPD2     C 5294   3.995   4.383  10.517  0.2787  0.4117  0.2743
  350MPD2    C1 5295   3.882   4.316  10.481 -0.0053 -0.2017 -0.3402
  350MPD2    C2 5296   3.775   4.336  10.570 -0.6802 -0.1966 -0.1601
  350MPD2    C3 5297   3.770   4.412  10.683 -0.6112 -0.4330  0.0437
  350MPD2    C4 5298   3.878   4.480  10.716 -0.6240 -0.0081 -0.2900
  350MPD2    C5 5299   3.985   4.474  10.623 -0.4688  0.2352  0.2742
  350MPD2     H 5300   3.685   4.280  10.548 -1.4228  0.5371  1.0455
  350MPD2    H1 5301   3.883   4.553  10.797  1.5800 -0.8761  0.3556
  350MPD2    H2 5302   4.083   4.366  10.456  0.6761 -1.4894  1.3952
  350MPD2    H3 5303   4.072   4.536  10.639  0.1416 -0.8379  1.2020
  350MPD2     N 5304   3.660   4.408  10.766 -0.0936 -0.3807  0.4114
  350MPD2    H5 5305   3.584   4.347  10.740 -0.3321 -0.3744  1.0923
  350MPD2    N1 5306   3.884   4.223  10.381 -0.3268 -0.0338  0.6433
  350MPD2    H7 5307   3.977   4.211  10.341  0.1134 -1.7153  2.1961
  351TMC3    C1 5308   3.821   4.043  10.251 -0.1893  0.1241  0.2459
  351TMC3    C2 5309   3.741   3.934  10.245  0.4525 -0.2410  0.2037
  351TMC3    C3 5310   3.760   3.843  10.138 -0.2267 -0.3364 -0.1632
  351TMC3    C4 5311   3.918   4.071  10.152  0.1262 -0.0936  0.0309
  351TMC3    C5 5312   3.932   3.973  10.057  0.8107  0.1079  0.2714
  351TMC3    C6 5313   3.852   3.860  10.046 -0.1591  0.8539  0.4794
  351TMC3     C 5314   3.776   4.147  10.336  0.0422  0.1762 -0.3286
  351TMC3     O 5315   3.654   4.146  10.365  0.5251  0.2061  0.0592
  351TMC3     H 5316   3.671   3.913  10.326 -0.8426 -1.5117 -1.2376
  351TMC3    H1 5317   3.969   4.166  10.155  0.2274 -0.2270  2.1555
  351TMC3    H2 5318   3.869   3.785   9.970 -0.3269  0.1559  1.1272
  351TMC3    C7 5319   4.029   3.999   9.950  0.4997  0.1803  0.0662
  351TMC3    C8 5320   3.667   3.729  10.126  0.2217  0.5865 -0.2112
  351TMC3    O1 5321   4.043   4.115   9.909  0.2860  0.1305 -0.0644
  351TMC3    O2 5322   3.678   3.657  10.029  0.1929  0.7569 -0.5564
  352MPD2     C 5323   2.547   1.865   0.614  0.8261  0.1618 -0.1444
  352MPD2    C1 5324   2.442   1.811   0.541  0.3239 -0.1991 -0.6338
  352MPD2    C2 5325   2.443   1.679   0.501 -0.0865  0.8603  0.3928
  352MPD2    C3 5326   2.562   1.608   0.506 -0.7123 -0.0304 -0.1913
  352MPD2    C4 5327   2.667   1.671   0.564  0.7279  0.4780  0.0967
  352MPD2    C5 5328   2.661   1.794   0.624  0.6658 -0.5472 -0.4673
  352MPD2     H 5329   2.361   1.637   0.445  0.1694  0.6821  0.1488
  352MPD2    H1 5330   2.762   1.620   0.576  0.1224  0.2595  3.9533
  352MPD2    H2 5331   2.541   1.965   0.656  0.0739  0.5007 -1.0591
  352MPD2    H3 5332   2.752   1.840   0.659  1.8331 -2.3904 -1.0307
  352MPD2     N 5333   2.578   1.470   0.469  0.3110 -0.1125  0.3181
  352MPD2    H5 5334   2.675   1.439   0.470  0.4249  0.3217  1.5976
  352MPD2    N1 5335   2.328   1.889   0.528 -0.3859 -0.3621  0.4168
  352MPD2    H7 5336   2.337   1.981   0.569 -1.3920  0.2598 -0.7464
  353TMC3    C1 5337   2.504   1.250   0.443 -0.2603 -0.2308 -0.4416
  353TMC3    C2 5338   2.623   1.199   0.498  0.4439 -0.2505  0.4472
  353TMC3    C3 5339   2.626   1.069   0.525 -0.4580 -0.2172  0.1184
  353TMC3    C4 5340   2.390   1.169   0.426  1.2313  0.6163 -0.2953
  353TMC3    C5 5341   2.401   1.040   0.456 -0.1368  0.1850 -0.1082
  353TMC3    C6 5342   2.518   0.988   0.504  0.1036  0.7912  0.0609
  353TMC3     C 5343   2.476   1.387   0.418  0.2918 -0.4672 -0.4139
  353TMC3     O 5344   2.363   1.423   0.388  0.5630  0.0498 -0.2716
  353TMC3     H 5345   2.709   1.262   0.516  0.1257  0.6876 -1.3581
  353TMC3    H1 5346   2.304   1.207   0.373  1.1573  0.6160 -0.1739
  353TMC3    H2 5347   2.523   0.884   0.534 -0.8016  0.7689  0.1391
  353TMC3    C7 5348   2.281   0.963   0.477  0.0781 -0.1044  0.5032
  353TMC3    C8 5349   2.737   1.022   0.596  0.4419 -0.6380  0.3735
  353TMC3    O1 5350   2.301   0.857   0.538  0.3074  0.0141  0.1006
  353TMC3    O2 5351   2.819   1.106   0.633  0.5091 -0.4018  0.0087
  354TMC3    C1 5352   3.596   2.648  13.715  0.1856 -0.3335  0.2425
  354TMC3    C2 5353   3.692   2.745  13.734 -0.2718  0.1585  0.3193
  354TMC3    C3 5354   3.722   2.821  13.625  0.0969 -0.5451  0.6770
  354TMC3    C4 5355   3.539   2.623  13.595 -0.1018 -0.5544 -0.6961
  354TMC3    C5 5356   3.571   2.700  13.488  0.7591 -0.2788 -0.3038
  354TMC3    C6 5357   3.672   2.793  13.497  0.3755 -0.3241 -0.1685
  354TMC3     C 5358   3.557   2.558  13.825  0.3234  0.2856  0.5178
  354TMC3     O 5359   3.441   2.523  13.829 -0.2413 -0.3114 -0.3953
  354TMC3     H 5360   3.732   2.760  13.834 -0.4737  0.4986  0.3503
  354TMC3    H1 5361   3.464   2.544  13.588  2.5643 -3.0775 -1.0955
  354TMC3    H2 5362   3.703   2.846  13.408 -2.5656  0.4179 -0.7298
  354TMC3    C7 5363   3.568   2.620  13.363  0.1722 -0.6536 -0.2765
  354TMC3    C8 5364   3.785   2.952  13.630  0.1188 -0.1572 -0.1903
  354TMC3    O1 5365   3.533   2.508  13.368 -0.0123 -0.0188 -0.0665
  354TMC3    O2 5366   3.873   2.981  13.709  0.0907  0.2973  0.6593
  355MPD2     C 5367   3.604   3.341  11.960 -0.1468  0.7798 -0.8223
  355MPD2    C1 5368   3.732   3.397  11.946 -0.5120  0.3917 -0.4830
  355MPD2    C2 5369   3.801   3.441  12.059  0.8699  1.1225 -0.2048
  355MPD2    C3 5370   3.745   3.413  12.187 -0.7405 -0.9456  0.1842
  355MPD2    C4 5371   3.626   3.346  12.194  0.7960 -0.0670 -0.1384
  355MPD2    C5 5372   3.555   3.317  12.083  0.7074  0.2592 -0.9459
  355MPD2     H 5373   3.897   3.488  12.045  1.7904 -0.9738 -0.9519
  355MPD2    H1 5374   3.583   3.323  12.291 -0.2820  0.4162 -0.4984
  355MPD2    H2 5375   3.548   3.299  11.878 -0.4828 -0.5805  0.1108
  355MPD2    H3 5376   3.459   3.270  12.100  1.0115  0.1525  0.4109
  355MPD2     N 5377   3.817   3.417  12.306  0.0781  0.1829 -0.2362
  355MPD2    H5 5378   3.772   3.363  12.379  2.4120  0.9470  1.7471
  355MPD2    N1 5379   3.801   3.415  11.822  0.1883  0.1284  0.0729
  355MPD2    H7 5380   3.897   3.448  11.824  0.4525 -0.6437  0.3977
  356TMC3    C1 5381   3.997   3.568  12.250 -0.3655  0.4250 -0.4823
  356TMC3    C2 5382   4.124   3.547  12.205  0.1397  0.0587  0.8526
  356TMC3    C3 5383   4.192   3.646  12.150 -0.2070  0.4336  0.3975
  356TMC3    C4 5384   3.940   3.687  12.261 -0.4761  0.5091  0.3588
  356TMC3    C5 5385   4.016   3.792  12.219  0.0675  0.3625  0.6113
  356TMC3    C6 5386   4.140   3.774  12.157  0.3651 -0.2481 -0.3736
  356TMC3     C 5387   3.947   3.453  12.329 -0.0613 -0.0000 -0.1145
  356TMC3     O 5388   4.013   3.421  12.428 -0.3467 -0.1643  0.6411
  356TMC3     H 5389   4.153   3.443  12.196 -0.0310 -0.1553  2.7679
  356TMC3    H1 5390   3.849   3.700  12.318  0.1315 -0.3026  1.5218
  356TMC3    H2 5391   4.166   3.847  12.082 -1.2972 -0.4755 -1.1818
  356TMC3    C7 5392   3.984   3.925  12.262 -0.5992 -0.2361  0.0731
  356TMC3    C8 5393   4.300   3.613  12.055  0.7739 -0.4573 -0.1023
  356TMC3    O1 5394   3.869   3.937  12.310  0.1842  0.3123  0.5013
  356TMC3    O2 5395   4.309   3.491  12.028  0.2883  0.0013 -0.2159
  357MPD2     C 5396   2.812   3.591   0.883 -0.2932 -0.1766 -0.1495
  357MPD2    C1 5397   2.861   3.462   0.869  0.3310 -0.7315 -0.2635
  357MPD2    C2 5398   2.868   3.413   0.745 -0.5020 -0.5046  0.0794
  357MPD2    C3 5399   2.809   3.472   0.636  0.2478  0.2205 -0.4142
  357MPD2    C4 5400   2.751   3.599   0.650 -0.2508  0.0861 -0.4086
  357MPD2    C5 5401   2.765   3.661   0.772  0.3573  0.2650  0.0239
  357MPD2     H 5402   2.918   3.319   0.724 -2.0993 -1.5115  0.8334
  357MPD2    H1 5403   2.714   3.671   0.577  0.1983  0.6227 -0.0977
  357MPD2    H2 5404   2.798   3.647   0.975 -0.4631  0.5344 -0.6088
  357MPD2    H3 5405   2.717   3.758   0.779 -0.8995 -0.2517 -1.2201
  357MPD2     N 5406   2.801   3.402   0.515 -0.2995  1.0818  0.0377
  357MPD2    H5 5407   2.812   3.305   0.541 -0.0842  1.1572  0.2289
  357MPD2    N1 5408   2.905   3.392   0.990  0.5824 -0.1263 -0.2333
  357MPD2    H7 5409   2.874   3.413   1.084 -0.3666  0.4030 -0.6652
  358TMC3    C1 5410   3.026   3.218   1.107  0.5818 -0.5360  0.7521
  358TMC3    C2 5411   3.070   3.094   1.074  0.1683 -0.4791 -0.4025
  358TMC3    C3 5412   3.186   3.052   1.117 -0.1831 -0.5957 -0.2515
  358TMC3    C4 5413   3.101   3.310   1.177 -0.3208 -0.9010  0.0903
  358TMC3    C5 5414   3.224   3.260   1.225  0.1389 -0.4162  1.2474
  358TMC3    C6 5415   3.258   3.125   1.209 -1.0873 -0.3979  0.3795
  358TMC3     C 5416   2.977   3.275   0.988 -0.6558 -0.0494 -0.2965
  358TMC3     O 5417   3.019   3.218   0.887  0.0859 -0.3928 -0.0558
  358TMC3     H 5418   3.007   3.039   1.006 -0.5931 -0.9705  0.7013
  358TMC3    H1 5419   3.084   3.417   1.169  2.0039 -0.5435 -0.2082
  358TMC3    H2 5420   3.358   3.087   1.226 -1.6605 -1.1185  2.1414
  358TMC3    C7 5421   3.308   3.341   1.312  0.2371 -0.0660 -0.1737
  358TMC3    C8 5422   3.265   2.989   1.014 -0.2004 -0.4889  0.5136
  358TMC3    O1 5423   3.416   3.291   1.342 -0.4286  0.1681  0.2886
  358TMC3    O2 5424   3.357   2.922   1.049  0.4052 -0.9843  0.0462
  359MPD2     C 5425   4.338   1.768  12.728 -0.2933 -0.2311 -0.0432
  359MPD2    C1 5426   4.237   1.698  12.678 -0.0909 -0.5355  0.5464
  359MPD2    C2 5427   4.115   1.727  12.723  0.1842 -0.2066  0.2757
  359MPD2    C3 5428   4.088   1.822  12.829 -0.0066  0.3219  0.2105
  359MPD2    C4 5429   4.194   1.894  12.882  0.1027 -0.1629  0.6490
  359MPD2    C5 5430   4.310   1.872  12.821  0.8920 -0.1385 -0.4832
  359MPD2     H 5431   4.034   1.667  12.683 -1.1063  1.6166  0.1101
  359MPD2    H1 5432   4.184   1.966  12.963  0.1706  2.0849 -1.3533
  359MPD2    H2 5433   4.438   1.762  12.687 -0.4552 -1.9024 -0.2091
  359MPD2    H3 5434   4.399   1.928  12.848 -0.2704  1.0316  0.8702
  359MPD2     N 5435   3.962   1.835  12.903 -0.0154  0.0550  0.1766
  359MPD2    H5 5436   3.970   1.863  13.000 -1.1673 -1.9751  0.8408
  359MPD2    N1 5437   4.246   1.597  12.579  0.5456  0.4321  0.2163
  359MPD2    H7 5438   4.160   1.558  12.541  0.2412  2.0976 -0.8487
  360TMC3    C1 5439   4.347   1.445  12.438 -0.0274  0.2599  0.4577
  360TMC3    C2 5440   4.430   1.342  12.474 -0.2693 -0.2768  0.0226
  360TMC3    C3 5441   4.378   1.221  12.466  0.9286  0.4950 -0.2196
  360TMC3    C4 5442   4.221   1.427  12.398 -1.4141 -0.0951  0.2306
  360TMC3    C5 5443   4.172   1.297  12.390 -0.0367  0.4978  0.5151
  360TMC3    C6 5444   4.249   1.196  12.430 -0.1504 -0.0369 -0.5508
  360TMC3     C 5445   4.367   1.552  12.531 -1.0487 -0.3251  0.5679
  360TMC3     O 5446   4.476   1.556  12.583 -1.0104 -0.4161  0.2342
  360TMC3     H 5447   4.538   1.350  12.475 -0.3675  1.0685 -0.8868
  360TMC3    H1 5448   4.162   1.505  12.350 -0.9761  0.9173  1.3724
  360TMC3    H2 5449   4.224   1.091  12.425  4.4203 -1.2003  0.2423
  360TMC3    C7 5450   4.056   1.276  12.305 -0.1317  0.5949  0.0069
  360TMC3    C8 5451   4.468   1.112  12.425  0.1602 -0.8510 -0.0923
  360TMC3    O1 5452   4.066   1.323  12.192 -0.2213 -0.1884  0.7267
  360TMC3    O2 5453   4.446   1.005  12.480 -0.2447  0.2780 -0.0060
  361MPD2     C 5454   0.522   0.581  16.562  0.3222 -0.1634 -0.6234
  361MPD2    C1 5455   0.550   0.644  16.681 -0.3758  0.5066  0.1110
  361MPD2    C2 5456   0.675   0.627  16.736 -0.0997 -0.1323  0.2247
  361MPD2    C3 5457   0.780   0.554  16.681  0.2427  0.4947 -0.1152
  361MPD2    C4 5458   0.750   0.495  16.559 -0.4693  0.2168 -0.2594
  361MPD2    C5 5459   0.627   0.519  16.503 -0.0824  0.0260  0.1439
  361MPD2     H 5460   0.695   0.685  16.825  0.4387 -0.8659  0.5849
  361MPD2    H1 5461   0.829   0.440  16.509  0.6457 -1.1897  3.0754
  361MPD2    H2 5462   0.425   0.582  16.513  0.6307 -0.4087 -1.2302
  361MPD2    H3 5463   0.617   0.464  16.410  0.0364  2.0465 -1.0580
  361MPD2     N 5464   0.903   0.532  16.741 -0.2640  0.3243  0.0961
  361MPD2    H5 5465   0.961   0.462  16.696  0.7160  0.3309  1.3481
  361MPD2    N1 5466   0.457   0.724  16.747  0.4348 -0.0837 -0.1467
  361MPD2    H7 5467   0.487   0.756  16.839  0.3851 -3.2311  0.9966
  362TMC3    C1 5468   0.256   0.859  16.782 -0.3522 -0.1195 -0.3857
  362TMC3    C2 5469   0.286   0.880  16.916 -0.1998  0.3161  0.0793
  362TMC3    C3 5470   0.227   0.985  16.981  0.1207 -0.3277 -0.2186
  362TMC3    C4 5471   0.170   0.943  16.713 -0.1927  0.0653  0.1553
  362TMC3    C5 5472   0.128   1.060  16.779 -0.9870  0.3343  0.7596
  362TMC3    C6 5473   0.155   1.077  16.910 -0.2307  0.3354 -0.1055
  362TMC3     C 5474   0.333   0.764  16.700 -0.0248 -0.3216 -0.5343
  362TMC3     O 5475   0.281   0.749  16.589 -0.2645  0.0015  0.0196
  362TMC3     H 5476   0.345   0.801  16.960  1.0002  0.1045 -1.9598
  362TMC3    H1 5477   0.158   0.943  16.605  1.3806 -1.3310 -0.0187
  362TMC3    H2 5478   0.131   1.175  16.949 -0.9198 -0.1812  0.7650
  362TMC3    C7 5479   0.049   1.157  16.709 -0.3693  0.0074 -0.4670
  362TMC3    C8 5480   0.275   1.011  17.114 -0.3027  0.3226 -0.0340
  362TMC3    O1 5481   0.046   1.274  16.747  0.3756 -0.8110  0.0845
  362TMC3    O2 5482   0.383   0.963  17.139  0.5697  0.4380 -0.1572
  363TMC3    C1 5483   4.233   3.685   9.440  0.0363  0.3945 -0.3962
  363TMC3    C2 5484   4.142   3.609   9.507 -0.5609 -0.6930 -0.1508
  363TMC3    C3 5485   4.019   3.656   9.538 -0.2322 -0.0185  0.1954
  363TMC3    C4 5486   4.193   3.805   9.396 -0.0630 -0.2369 -0.3466
  363TMC3    C5 5487   4.066   3.848   9.423 -1.0877 -0.2714  0.7408
  363TMC3    C6 5488   3.970   3.771   9.488 -0.4905 -0.6994 -0.2104
  363TMC3     C 5489   4.363   3.637   9.422 -0.5894 -0.0587 -0.6419
  363TMC3     O 5490   4.445   3.726   9.389  0.1267 -0.8669 -0.0847
  363TMC3     H 5491   4.181   3.531   9.572  1.5269  0.8894  0.4953
  363TMC3    H1 5492   4.266   3.861   9.337 -2.8551  0.7149 -2.8934
  363TMC3    H2 5493   3.880   3.816   9.529 -1.3064 -2.9954  0.4845
  363TMC3    C7 5494   4.047   3.989   9.448 -0.1525  0.7698 -0.0283
  363TMC3    C8 5495   3.933   3.578   9.625  0.2407  0.7624 -0.2118
  363TMC3    O1 5496   3.946   4.022   9.512  0.6805 -0.2515 -0.6144
  363TMC3    O2 5497   3.837   3.634   9.680  0.4158  0.1640  0.4234
  364MPD2     C 5498   2.827   2.762  11.402 -0.4178 -0.3239 -0.4540
  364MPD2    C1 5499   2.904   2.681  11.324 -0.3510  0.3005  0.5099
  364MPD2    C2 5500   2.886   2.547  11.339 -0.1032 -0.2940 -0.6646
  364MPD2    C3 5501   2.780   2.495  11.420  0.0935 -0.9679  0.5284
  364MPD2    C4 5502   2.690   2.581  11.475 -0.4030 -0.3170 -0.1491
  364MPD2    C5 5503   2.719   2.717  11.481 -0.0492  0.5633 -0.2658
  364MPD2     H 5504   2.961   2.485  11.292  1.7780  2.1819 -0.9128
  364MPD2    H1 5505   2.605   2.551  11.535 -1.6611 -1.2099 -2.3382
  364MPD2    H2 5506   2.840   2.870  11.411  1.7121 -0.6177  0.0430
  364MPD2    H3 5507   2.650   2.783  11.533  0.5640  0.0090  1.2580
  364MPD2     N 5508   2.762   2.356  11.434  0.5554  0.0666 -0.1109
  364MPD2    H5 5509   2.681   2.318  11.481  0.8326 -0.0747  0.2452
  364MPD2    N1 5510   3.020   2.730  11.260  1.1269 -0.1945  0.1896
  364MPD2    H7 5511   3.039   2.828  11.275 -3.8336  0.5006  2.0430
  365TMC3    C1 5512   3.227   2.743  11.142 -0.0578 -0.2095 -0.0418
  365TMC3    C2 5513   3.309   2.685  11.045  0.0042 -0.2901  0.0989
  365TMC3    C3 5514   3.415   2.763  10.997  0.8968 -0.2238  0.3022
  365TMC3    C4 5515   3.264   2.859  11.206 -0.4996 -0.6182 -0.6337
  365TMC3    C5 5516   3.368   2.933  11.153  0.5749  0.1287  0.4353
  365TMC3    C6 5517   3.447   2.891  11.047  0.0163  0.1054 -0.3890
  365TMC3     C 5518   3.107   2.662  11.175  0.2489  0.3958  0.1379
  365TMC3     O 5519   3.117   2.545  11.136  0.1185  0.3359 -0.1078
  365TMC3     H 5520   3.282   2.592  10.996 -0.7234  0.8322 -1.6235
  365TMC3    H1 5521   3.194   2.889  11.284 -0.5444 -1.6337 -0.2823
  365TMC3    H2 5522   3.514   2.960  10.997  1.5089 -0.3766  0.9676
  365TMC3    C7 5523   3.374   3.074  11.190 -0.3625  0.4961  0.0505
  365TMC3    C8 5524   3.457   2.762  10.851  0.4735 -1.7697  0.1007
  365TMC3    O1 5525   3.419   3.149  11.106  0.0136 -0.0573 -0.0615
  365TMC3    O2 5526   3.544   2.842  10.820 -0.6705  0.2053 -0.1805
  366MPD2     C 5527   0.808   3.935  15.474  0.1131 -0.3063  0.2187
  366MPD2    C1 5528   0.930   3.986  15.508 -0.2216  0.1513  0.8534
  366MPD2    C2 5529   1.031   3.896  15.543 -0.5050 -0.5988 -0.2722
  366MPD2    C3 5530   0.997   3.757  15.550  0.0369 -0.3782  0.5618
  366MPD2    C4 5531   0.866   3.706  15.520 -0.3022  0.0849  0.4781
  366MPD2    C5 5532   0.785   3.800  15.472  0.7671 -0.2885  0.1469
  366MPD2     H 5533   1.133   3.925  15.563 -0.4619 -0.4558 -0.6989
  366MPD2    H1 5534   0.841   3.601  15.514 -0.0496  0.0553 -0.0656
  366MPD2    H2 5535   0.732   3.992  15.422 -1.1890 -1.5344  0.8028
  366MPD2    H3 5536   0.685   3.767  15.446 -0.3332  1.2499  2.4380
  366MPD2     N 5537   1.096   3.661  15.597  0.2172  0.3230 -0.3946
  366MPD2    H5 5538   1.184   3.696  15.634  0.1485  0.4690 -0.3688
  366MPD2    N1 5539   0.967   4.122  15.492 -0.2989  0.0358 -0.1781
  366MPD2    H7 5540   1.066   4.142  15.505 -0.6607  0.5838  1.7573
  367TMC3    C1 5541   0.944   4.354  15.455  0.2871  0.6645 -0.5073
  367TMC3    C2 5542   1.058   4.373  15.536  0.0620  0.7611  0.6501
  367TMC3    C3 5543   1.117   4.500  15.524  0.4252 -0.4206  0.2973
  367TMC3    C4 5544   0.904   4.441  15.353 -0.4177 -0.1718  0.3754
  367TMC3    C5 5545   0.975   4.559  15.334  0.3625 -0.4921  0.0003
  367TMC3    C6 5546   1.076   4.590  15.424 -0.1256  0.0733  0.4220
  367TMC3     C 5547   0.876   4.223  15.452 -0.0900 -0.1414 -0.4544
  367TMC3     O 5548   0.761   4.219  15.428  0.3132  0.0397 -0.2527
  367TMC3     H 5549   1.091   4.313  15.619 -2.5625  0.7517  1.6979
  367TMC3    H1 5550   0.805   4.414  15.316 -0.4127  1.6459 -0.9561
  367TMC3    H2 5551   1.154   4.658  15.391 -2.7346  2.4450 -0.8191
  367TMC3    C7 5552   0.915   4.654  15.241  0.5423 -0.5788  0.4405
  367TMC3    C8 5553   1.222   4.528  15.617 -0.2664 -0.1575 -0.6046
  367TMC3    O1 5554   0.817   4.599  15.188 -0.0304  0.1217 -0.0822
  367TMC3    O2 5555   1.267   4.434  15.689 -0.8551 -0.2850 -0.0564
  368MPD2     C 5556   2.326   0.691  13.125  0.4924  0.2722  0.4877
  368MPD2    C1 5557   2.327   0.826  13.093 -0.0365 -0.5523 -0.7792
  368MPD2    C2 5558   2.448   0.878  13.051  0.1359 -0.3316  0.1052
  368MPD2    C3 5559   2.558   0.797  13.031  0.3452 -0.5459  0.6625
  368MPD2    C4 5560   2.548   0.659  13.053  0.3973 -0.7430 -0.0809
  368MPD2    C5 5561   2.434   0.604  13.110  0.1110 -0.4843  0.1084
  368MPD2     H 5562   2.457   0.984  13.029 -2.3576 -0.2402 -0.4664
  368MPD2    H1 5563   2.638   0.601  13.035 -0.0925 -0.8468 -2.1672
  368MPD2    H2 5564   2.237   0.650  13.173  1.0935 -3.5094 -1.6579
  368MPD2    H3 5565   2.425   0.496  13.123  0.6347 -0.5425 -0.0245
  368MPD2     N 5566   2.680   0.835  12.970  0.2238 -0.1254  0.4738
  368MPD2    H5 5567   2.746   0.761  12.951 -0.2278  0.3380 -3.0085
  368MPD2    N1 5568   2.209   0.897  13.106 -0.0207  0.4106 -0.0844
  368MPD2    H7 5569   2.129   0.835  13.107  1.2068 -1.1417  1.4913
  369TMC3    C1 5570   2.072   1.073  13.065 -0.2917 -0.9511 -0.2648
  369TMC3    C2 5571   2.060   1.168  12.972  0.4285 -0.2124 -0.0995
  369TMC3    C3 5572   1.935   1.195  12.919 -0.4439  0.0426 -0.6147
  369TMC3    C4 5573   1.957   1.011  13.111 -0.0053 -0.2177 -0.1686
  369TMC3    C5 5574   1.836   1.040  13.059  0.0915 -0.1248 -0.2706
  369TMC3    C6 5575   1.822   1.125  12.959  0.3173 -0.0611  0.1128
  369TMC3     C 5576   2.202   1.032  13.099 -0.2241 -0.3430 -0.1858
  369TMC3     O 5577   2.295   1.111  13.106  0.5074  0.6135 -0.2890
  369TMC3     H 5578   2.152   1.224  12.956  0.1450 -0.1393 -1.5076
  369TMC3    H1 5579   1.955   0.939  13.192 -1.3851 -1.8646 -1.6903
  369TMC3    H2 5580   1.731   1.135  12.901 -0.1320 -1.9629  0.4760
  369TMC3    C7 5581   1.717   0.969  13.114  0.0386  0.1586  0.3838
  369TMC3    C8 5582   1.935   1.252  12.789 -0.1012  0.7422  0.1768
  369TMC3    O1 5583   1.737   0.862  13.168 -0.5277  0.4206  0.4130
  369TMC3    O2 5584   1.832   1.304  12.746 -0.4792 -0.3508  0.2099
  370TMC3    C1 5585   2.122   1.885  16.170 -0.1274 -0.6419 -0.8403
  370TMC3    C2 5586   2.068   1.812  16.274 -0.0060 -0.7824  0.0164
  370TMC3    C3 5587   2.012   1.695  16.240  0.0373 -0.3322  0.6716
  370TMC3    C4 5588   2.142   1.833  16.042  1.0339  0.3993 -0.0025
  370TMC3    C5 5589   2.105   1.699  16.029 -0.5697 -0.0147  0.4785
  370TMC3    C6 5590   2.036   1.630  16.127  0.2000 -0.7708 -0.6985
  370TMC3     C 5591   2.217   1.983  16.218 -0.1015  0.1876 -0.1894
  370TMC3     O 5592   2.237   1.997  16.340  0.5680 -0.1822 -0.6008
  370TMC3     H 5593   2.047   1.854  16.372  2.0062 -1.1799  0.6191
  370TMC3    H1 5594   2.198   1.886  15.966 -0.2606 -1.0737 -1.9881
  370TMC3    H2 5595   2.005   1.527  16.115 -0.6724 -0.5229 -0.5793
  370TMC3    C7 5596   2.163   1.639  15.912  0.5724 -0.0182  0.2450
  370TMC3    C8 5597   1.947   1.613  16.338 -0.7040  0.1181  0.5250
  370TMC3    O1 5598   2.202   1.718  15.827 -0.1288  0.2046  0.0626
  370TMC3    O2 5599   1.918   1.501  16.306 -0.3292 -0.2784 -0.0465
  371TMC3    C1 5600   3.142   4.646  15.352  0.3022  0.3127 -0.2165
  371TMC3    C2 5601   3.054   4.632  15.455  0.3644  0.1449  0.8324
  371TMC3    C3 5602   3.027   0.001  15.526 -0.1098 -0.4739  0.1317
  371TMC3    C4 5603   3.228   0.010  15.337 -0.2681  0.9249  0.3127
  371TMC3    C5 5604   3.197   0.114  15.415  0.9818  1.0622  0.0807
  371TMC3    C6 5605   3.097   0.118  15.512  0.1986 -0.0957  0.1166
  371TMC3     C 5606   3.189   4.517  15.298  0.8558  0.3397  0.6117
  371TMC3     O 5607   3.255   4.527  15.196  0.6307  0.8522 -0.0608
  371TMC3     H 5608   2.978   4.555  15.446  0.8266 -0.0465 -1.2368
  371TMC3    H1 5609   3.309   0.001  15.266 -0.9469 -1.1155 -0.2093
  371TMC3    H2 5610   3.081   0.201  15.580 -1.3983  0.2441 -0.6722
  371TMC3    C7 5611   3.310   0.196  15.457 -0.8496 -0.6622 -0.4202
  371TMC3    C8 5612   2.911   0.003  15.622  0.3107  0.2564  0.0280
  371TMC3    O1 5613   3.279   0.300  15.516  0.1807 -0.1397 -0.1180
  371TMC3    O2 5614   2.880   4.637  15.675 -0.0369 -0.3348 -0.0603
  372MPD2     C 5615   2.908   1.387  13.498 -0.3783 -0.1540 -0.5940
  372MPD2    C1 5616   3.010   1.315  13.555  0.1457  0.1165 -0.0112
  372MPD2    C2 5617   2.977   1.212  13.644 -0.6617  0.2267  0.8766
  372MPD2    C3 5618   2.848   1.173  13.678  0.1930 -0.8676  0.1057
  372MPD2    C4 5619   2.749   1.236  13.607  0.2297  0.1002  0.0429
  372MPD2    C5 5620   2.777   1.341  13.525  0.0283  0.3028 -0.1537
  372MPD2     H 5621   3.054   1.155  13.694 -1.2412 -0.1612  1.3278
  372MPD2    H1 5622   2.643   1.215  13.614  0.1885 -0.1807 -1.2489
  372MPD2    H2 5623   2.931   1.469  13.431  0.6439 -0.1386 -0.2317
  372MPD2    H3 5624   2.700   1.397  13.474 -0.3423  1.8502  2.1017
  372MPD2     N 5625   2.823   1.080  13.776 -0.1086  0.1325  0.4235
  372MPD2    H5 5626   2.899   1.029  13.820  2.4422  3.2576 -0.3704
  372MPD2    N1 5627   3.148   1.352  13.554  0.6236 -0.7473  0.2489
  372MPD2    H7 5628   3.221   1.302  13.603 -1.5785 -1.7859  2.4425
  373TMC3    C1 5629   2.710   0.944  13.929  0.5558  0.3330  0.6349
  373TMC3    C2 5630   2.654   0.969  14.052 -0.2645 -0.0799 -0.1033
  373TMC3    C3 5631   2.635   0.861  14.136 -0.2725 -0.3092 -0.1325
  373TMC3    C4 5632   2.769   0.826  13.895 -0.1741 -0.4694  0.7650
  373TMC3    C5 5633   2.763   0.728  13.989  0.4038  0.0052 -0.0654
  373TMC3    C6 5634   2.707   0.749  14.111 -0.0077 -0.0245 -0.2101
  373TMC3     C 5635   2.700   1.055  13.836 -0.0279 -0.0692 -0.3888
  373TMC3     O 5636   2.588   1.104  13.823 -0.0703 -0.1160 -0.0634
  373TMC3     H 5637   2.614   1.065  14.083  1.5864  0.1528  1.5038
  373TMC3    H1 5638   2.822   0.817  13.801 -2.2941 -2.0411 -0.2692
  373TMC3    H2 5639   2.704   0.666  14.180  0.8302  0.6689  0.6540
  373TMC3    C7 5640   2.866   0.632  13.973 -0.8607 -0.8979  0.4204
  373TMC3    C8 5641   2.642   0.886  14.283  0.4558 -0.8753 -0.3607
  373TMC3    O1 5642   2.908   0.617  13.858  0.2080 -0.1425 -0.3134
  373TMC3    O2 5643   2.586   0.805  14.354  0.0719 -0.3923 -0.5925
  374TMC3    C1 5644   2.927   1.411  10.036 -0.3894 -0.5776 -0.8396
  374TMC3    C2 5645   3.026   1.501  10.080 -0.2314  0.7460  1.2047
  374TMC3    C3 5646   3.151   1.450  10.097  0.0484  0.2204  0.0253
  374TMC3    C4 5647   2.966   1.290   9.989  0.1610 -0.1308 -0.8675
  374TMC3    C5 5648   3.092   1.245  10.009  0.0684  0.3419  0.3404
  374TMC3    C6 5649   3.186   1.322  10.064  0.0518 -0.5347  0.2475
  374TMC3     C 5650   2.779   1.438  10.038 -0.6788  0.3171 -0.0489
  374TMC3     O 5651   2.705   1.342  10.020 -0.4557  0.4851 -0.2769
  374TMC3     H 5652   3.000   1.597  10.123 -1.8014  1.0718 -0.4407
  374TMC3    H1 5653   2.894   1.228   9.936 -0.6471 -0.5368  0.7053
  374TMC3    H2 5654   3.287   1.283  10.066  0.4626  0.5140 -0.2263
  374TMC3    C7 5655   3.141   1.168   9.893 -0.1731  0.0678  0.4104
  374TMC3    C8 5656   3.250   1.550  10.136  0.3086  0.4196 -0.0509
  374TMC3    O1 5657   3.244   1.207   9.843 -0.0311 -0.3617 -0.3917
  374TMC3    O2 5658   3.222   1.662  10.095 -0.3973  0.0049 -0.8421
  375MPD2     C 5659   3.827   1.769  17.117  1.2324  0.1678 -0.1485
  375MPD2    C1 5660   3.730   1.812  17.028 -0.5443  0.1382 -0.0338
  375MPD2    C2 5661   3.756   1.800  16.897 -0.6897  0.3989  0.1335
  375MPD2    C3 5662   3.871   1.743  16.848 -0.9100  0.3051 -0.5649
  375MPD2    C4 5663   3.970   1.697  16.932  0.7920  0.3467 -0.9365
  375MPD2    C5 5664   3.946   1.711  17.064 -0.8530  0.0216 -0.1514
  375MPD2     H 5665   3.695   1.857  16.827 -1.9625 -1.1867 -0.0360
  375MPD2    H1 5666   4.062   1.655  16.893  0.3169  0.3065 -2.0178
  375MPD2    H2 5667   3.820   1.784  17.224 -0.0858 -1.7627  0.0123
  375MPD2    H3 5668   4.026   1.673  17.126 -0.4725 -1.7125 -1.6977
  375MPD2     N 5669   3.896   1.722  16.715 -0.2340  0.5695  0.1449
  375MPD2    H5 5670   3.988   1.682  16.697  0.7979  3.0080  0.0527
  375MPD2    N1 5671   3.607   1.869  17.067 -0.4307  0.1596  0.1152
  375MPD2    H7 5672   3.549   1.916  16.999 -0.3349 -0.1500 -0.1765
  376TMC3    C1 5673   3.862   1.682  16.479  0.0711  0.2180  0.8352
  376TMC3    C2 5674   3.987   1.711  16.452 -0.3240 -0.2890  0.1210
  376TMC3    C3 5675   4.035   1.698  16.325 -0.4028  0.0066  0.3494
  376TMC3    C4 5676   3.772   1.665  16.376 -0.7533  0.3090  0.8570
  376TMC3    C5 5677   3.819   1.638  16.252 -0.2763  0.3917  0.2866
  376TMC3    C6 5678   3.947   1.666  16.220 -1.0793 -0.3663 -0.4864
  376TMC3     C 5679   3.811   1.738  16.604  1.0620  0.9642 -0.3822
  376TMC3     O 5680   3.700   1.795  16.597 -0.3098  0.0116  0.7386
  376TMC3     H 5681   4.055   1.735  16.533  0.3509 -2.3610  0.1605
  376TMC3    H1 5682   3.668   1.647  16.398 -1.2029  0.1918 -1.3566
  376TMC3    H2 5683   3.987   1.658  16.119  0.7794  0.6800  0.1596
  376TMC3    C7 5684   3.718   1.672  16.152 -0.2371 -0.1554  0.1957
  376TMC3    C8 5685   4.154   1.771  16.280 -0.4983  0.2918  0.2976
  376TMC3    O1 5686   3.629   1.740  16.198 -0.3367  0.1556  0.1117
  376TMC3    O2 5687   4.167   1.781  16.158 -0.7233  0.2471 -0.4271
  377MPD2     C 5688   1.477   1.085  12.717 -0.0755 -0.2259  0.4752
  377MPD2    C1 5689   1.583   1.009  12.679 -0.7720  0.2434 -0.2017
  377MPD2    C2 5690   1.594   0.884  12.739  0.2799  0.0514  0.7584
  377MPD2    C3 5691   1.486   0.834  12.813  0.8461  0.0042 -0.1177
  377MPD2    C4 5692   1.371   0.913  12.831 -0.0498  0.5591  1.2708
  377MPD2    C5 5693   1.369   1.042  12.791  0.7033  0.0204  0.0067
  377MPD2     H 5694   1.688   0.831  12.735  0.7773  1.0861 -1.5371
  377MPD2    H1 5695   1.286   0.870  12.882  0.5984  0.5856  2.3938
  377MPD2    H2 5696   1.462   1.182  12.672 -0.0119  0.9558  3.0086
  377MPD2    H3 5697   1.277   1.100  12.803 -0.0478 -1.2237  0.3004
  377MPD2     N 5698   1.469   0.706  12.868 -0.6122  0.0972 -0.6914
  377MPD2    H5 5699   1.386   0.691  12.924 -1.6446  0.1259 -2.1932
  377MPD2    N1 5700   1.687   1.076  12.603 -0.6710 -0.9530 -0.3870
  377MPD2    H7 5701   1.668   1.172  12.577 -0.9461 -0.5883  1.1745
  378TMC3    C1 5702   1.878   1.259  12.300  0.6197  0.6867  0.3599
  378TMC3    C2 5703   1.840   1.212  12.428  0.1708  0.5174  0.0214
  378TMC3    C3 5704   1.895   1.091  12.471 -0.1361  0.2642  0.3016
  378TMC3    C4 5705   1.973   1.206  12.219  0.1564 -0.4235 -0.2420
  378TMC3    C5 5706   2.030   1.098  12.272 -0.1714 -0.0605  0.0173
  378TMC3    C6 5707   1.987   1.035  12.390 -0.0212 -0.3694  0.1379
  378TMC3     C 5708   1.819   1.384  12.266 -0.4367  0.0088 -0.1396
  378TMC3     O 5709   1.712   1.401  12.323 -0.3018  0.5356 -0.4059
  378TMC3     H 5710   1.764   1.263  12.486  0.9657  1.5752  0.1164
  378TMC3    H1 5711   1.992   1.247  12.120  2.2271 -1.1847 -0.1588
  378TMC3    H2 5712   2.025   0.937  12.417 -2.0845 -1.1502  0.2087
  378TMC3    C7 5713   2.129   1.013  12.200 -0.0852 -0.1312  0.0602
  378TMC3    C8 5714   1.801   1.010  12.557 -0.3997 -0.6676  0.3405
  378TMC3    O1 5715   2.129   0.891  12.225  0.6301  0.0109  0.3466
  378TMC3    O2 5716   1.829   0.888  12.567 -0.5288  0.0075 -0.5740
  379MPD2     C 5717   2.543   4.440  16.057 -1.0460  0.3255  0.0371
  379MPD2    C1 5718   2.441   4.469  16.141  0.2724 -0.5257  0.2528
  379MPD2    C2 5719   2.461   4.494  16.276  0.6573  0.2464 -0.4524
  379MPD2    C3 5720   2.594   4.511  16.325 -0.3921 -0.6076  0.1063
  379MPD2    C4 5721   2.694   4.479  16.240  0.7157 -0.2234 -0.6166
  379MPD2    C5 5722   2.668   4.455  16.106  0.1225  0.6282 -0.0375
  379MPD2     H 5723   2.378   4.491  16.345  1.4472 -0.2432  0.4685
  379MPD2    H1 5724   2.796   4.478  16.276  0.5131  1.8567 -0.0043
  379MPD2    H2 5725   2.534   4.423  15.950  0.8564 -0.4264 -0.0067
  379MPD2    H3 5726   2.748   4.459  16.034  0.0194 -0.1431 -0.1956
  379MPD2     N 5727   2.637   4.541  16.454  0.1347 -0.0625 -0.3820
  379MPD2    H5 5728   2.736   4.539  16.476  0.5978  0.8876 -2.3379
  379MPD2    N1 5729   2.309   4.479  16.085  0.5755  0.0654  0.5736
  379MPD2    H7 5730   2.302   4.446  15.989 -0.8205 -0.3692  0.8276
  380TMC3    C1 5731   2.065   4.495  16.058 -0.8835  0.1183  0.3980
  380TMC3    C2 5732   2.046   4.378  15.989  0.3756  0.2476  0.0443
  380TMC3    C3 5733   1.935   4.356  15.911  0.0740 -0.7880 -0.5160
  380TMC3    C4 5734   1.967   4.589  16.062 -0.2590 -0.3407 -0.4113
  380TMC3    C5 5735   1.862   4.569  15.976 -0.5820  0.0954 -0.6319
  380TMC3    C6 5736   1.836   4.452  15.909  0.4535  0.2494 -0.1145
  380TMC3     C 5737   2.187   4.514  16.141 -0.5843 -0.3450  0.0530
  380TMC3     O 5738   2.162   4.549  16.252 -0.2619 -0.7058  0.3984
  380TMC3     H 5739   2.116   4.296  15.988 -2.1161 -1.8886  0.0950
  380TMC3    H1 5740   1.983   4.682  16.116 -1.3436 -1.8099  2.4145
  380TMC3    H2 5741   1.768   4.441  15.825 -0.1427 -0.9424  0.5309
  380TMC3    C7 5742   1.767   4.676  15.952  0.2785 -0.5448  0.7068
  380TMC3    C8 5743   1.958   4.277  15.792  0.2981  0.3118 -0.5131
  380TMC3    O1 5744   1.799   0.052  15.976  0.1093 -0.0080 -0.6128
  380TMC3    O2 5745   2.076   4.263  15.764  0.0465  0.1647 -0.2801
  381TMC3    C1 5746   1.805   1.016  16.144  0.1108  0.0799  0.4169
  381TMC3    C2 5747   1.901   1.119  16.138 -0.0047  0.2734 -0.2341
  381TMC3    C3 5748   1.946   1.172  16.258 -0.3425 -0.5386  0.1161
  381TMC3    C4 5749   1.752   0.973  16.263  0.1600 -0.7102  0.0536
  381TMC3    C5 5750   1.808   1.022  16.380 -0.1751 -0.2589 -0.1972
  381TMC3    C6 5751   1.904   1.118  16.380 -0.0722  0.4631  0.6937
  381TMC3     C 5752   1.774   0.947  16.021 -0.8591 -0.7201  0.1800
  381TMC3     O 5753   1.808   1.008  15.919 -0.2721 -0.4342 -0.0162
  381TMC3     H 5754   1.924   1.164  16.042  0.2386  0.4730 -0.0821
  381TMC3    H1 5755   1.670   0.904  16.274 -1.1870  0.5979 -1.7314
  381TMC3    H2 5756   1.935   1.158  16.476  1.0345  0.0978  0.4988
  381TMC3    C7 5757   1.747   0.983  16.514  0.2790  0.6392 -0.4182
  381TMC3    C8 5758   2.068   1.253  16.241  0.1730 -0.4956  0.1945
  381TMC3    O1 5759   1.734   0.862  16.527  0.2626 -0.2366 -0.0391
  381TMC3    O2 5760   2.111   1.260  16.128  0.0399  0.7400  0.0527
  382MPD2     C 5761   1.034   3.134  16.791  0.4513  0.1105 -0.0836
  382MPD2    C1 5762   1.062   3.177  16.919 -0.2989 -0.4913 -0.2078
  382MPD2    C2 5763   1.091   3.079  17.010  0.3057 -0.1303  0.1296
  382MPD2    C3 5764   1.086   2.944  16.976  0.5320 -0.0240 -0.8797
  382MPD2    C4 5765   1.046   2.905  16.854  0.0867  0.0552 -0.3413
  382MPD2    C5 5766   1.019   2.998  16.765 -0.0290  0.2064  0.3557
  382MPD2     H 5767   1.108   3.113  17.112 -0.3433  0.2823  0.0987
  382MPD2    H1 5768   1.048   2.800  16.827  1.3908  0.3068 -1.1818
  382MPD2    H2 5769   1.017   3.202  16.708 -1.5337 -1.0387 -0.6284
  382MPD2    H3 5770   1.002   2.960  16.665 -1.2917  1.4612  0.1096
  382MPD2     N 5771   1.080   2.838  17.078 -0.2396  0.7757 -0.7515
  382MPD2    H5 5772   1.043   2.748  17.049 -0.4350  0.0477  1.7561
  382MPD2    N1 5773   1.072   3.308  16.968  0.0594 -0.3651 -0.2653
  382MPD2    H7 5774   1.114   3.320  17.060 -2.2472 -1.6811  0.9727
  383TMC3    C1 5775   1.048   2.738  17.283 -0.6732  0.4097  0.9392
  383TMC3    C2 5776   0.930   2.678  17.249 -1.2229  0.3553  0.6631
  383TMC3    C3 5777   0.853   2.630  17.350  0.1864  0.4203 -0.1875
  383TMC3    C4 5778   1.087   2.742  17.416 -0.0271 -0.3273 -0.1848
  383TMC3    C5 5779   1.006   2.697  17.514  0.4488  0.2949  0.2639
  383TMC3    C6 5780   0.884   2.643  17.485  0.5495 -0.2434  0.3882
  383TMC3     C 5781   1.093   2.852  17.214  0.2548 -0.3032  0.1123
  383TMC3     O 5782   1.140   2.944  17.277  0.4194 -0.2779 -0.1193
  383TMC3     H 5783   0.906   2.669  17.143 -3.2912 -2.8199  1.4174
  383TMC3    H1 5784   1.178   2.795  17.440 -0.2950 -0.1094  0.3388
  383TMC3    H2 5785   0.815   2.603  17.558  1.7642  1.1318  2.2609
  383TMC3    C7 5786   1.045   2.722  17.651  0.2177  0.5799  0.5498
  383TMC3    C8 5787   0.740   2.548  17.310  0.1998  0.2700  0.3082
  383TMC3    O1 5788   1.145   2.796  17.660  0.1683 -0.5199 -0.1220
  383TMC3    O2 5789   0.703   2.566  17.194  0.5135  0.6222  0.4806
  384MPD2     C 5790   2.751   0.008  12.168  0.3948 -0.5099 -0.0993
  384MPD2    C1 5791   2.679   4.658  12.241  0.7581  0.1002  0.8862
  384MPD2    C2 5792   2.713   4.522  12.230 -0.0009 -0.8072  0.0323
  384MPD2    C3 5793   2.832   4.481  12.169  0.1961 -0.1139 -0.8717
  384MPD2    C4 5794   2.898   4.574  12.103 -1.1079  0.4487  0.6921
  384MPD2    C5 5795   2.862   4.705  12.101 -0.1014  0.0277  0.3942
  384MPD2     H 5796   2.648   4.460  12.291 -1.7994  1.3759  0.3193
  384MPD2    H1 5797   2.986   4.547  12.046 -1.7323 -0.1985  0.0311
  384MPD2    H2 5798   2.727   0.113  12.177 -2.5136 -1.1786  0.0312
  384MPD2    H3 5799   2.920   0.037  12.045 -3.0862  1.5061 -0.7864
  384MPD2     N 5800   2.881   4.348  12.179  0.0672 -0.0155 -0.0030
  384MPD2    H5 5801   2.972   4.321  12.145 -0.8104 -3.2983  0.2744
  384MPD2    N1 5802   2.579   4.708  12.324  0.7416  0.4639 -0.3068
  384MPD2    H7 5803   2.583   0.068  12.344  1.8198  0.4221 -0.3212
  385TMC3    C1 5804   2.913   4.166  12.319 -0.2818  0.0955 -0.2868
  385TMC3    C2 5805   2.861   4.046  12.358 -0.4206 -0.3623 -0.1417
  385TMC3    C3 5806   2.857   3.999  12.486  1.1202  0.1621  0.2233
  385TMC3    C4 5807   2.964   4.239  12.420 -0.3093 -0.2205 -0.4126
  385TMC3    C5 5808   2.949   4.197  12.552  0.8987  0.0288 -0.4280
  385TMC3    C6 5809   2.908   4.072  12.589  0.3084 -0.0216 -0.8135
  385TMC3     C 5810   2.818   4.247  12.239 -0.1478 -0.4191 -0.0493
  385TMC3     O 5811   2.699   4.231  12.264 -0.1965 -0.3459 -0.4257
  385TMC3     H 5812   2.810   3.993  12.279  0.3742  2.0841 -2.3181
  385TMC3    H1 5813   3.009   4.337  12.403 -0.7259 -0.4447 -2.7631
  385TMC3    H2 5814   2.884   4.036  12.688 -2.2356  1.3533 -0.9267
  385TMC3    C7 5815   2.917   4.309  12.644  0.7108 -0.1953  0.0637
  385TMC3    C8 5816   2.819   3.850  12.507  0.0349 -0.0404 -0.1904
  385TMC3    O1 5817   2.937   4.422  12.602 -0.2553 -0.1011  0.6105
  385TMC3    O2 5818   2.792   3.815  12.620 -0.4909  0.1071  0.0165
  386TMC3    C1 5819   2.890   1.806  11.992 -0.3726 -1.0474 -0.3649
  386TMC3    C2 5820   2.908   1.693  11.920  0.2647 -0.4378 -0.6735
  386TMC3    C3 5821   2.798   1.626  11.868  0.2034 -0.3250  0.7598
  386TMC3    C4 5822   2.765   1.859  12.000 -0.5320  0.3233  0.3135
  386TMC3    C5 5823   2.655   1.792  11.949 -0.0338 -0.5211  0.0413
  386TMC3    C6 5824   2.667   1.674  11.879 -0.2279 -0.7879 -0.2173
  386TMC3     C 5825   3.010   1.876  12.033  0.1022 -0.1064 -0.1200
  386TMC3     O 5826   2.997   1.995  12.049 -0.6770 -0.1187 -0.3604
  386TMC3     H 5827   3.011   1.662  11.912  0.0572 -1.1735 -0.4245
  386TMC3    H1 5828   2.737   1.937  12.070  1.3075  0.9600  0.3397
  386TMC3    H2 5829   2.577   1.623  11.845  0.3282 -1.7168 -0.3049
  386TMC3    C7 5830   2.528   1.865  11.945 -0.1446  0.4404  1.0774
  386TMC3    C8 5831   2.817   1.565  11.738  1.2143 -0.0550 -0.1396
  386TMC3    O1 5832   2.423   1.797  11.938 -0.6514 -0.9620  0.2574
  386TMC3    O2 5833   2.720   1.544  11.668  0.0965 -0.0285 -0.0576
  387MPD2     C 5834   0.355   1.666  10.098 -0.7499  0.4463 -0.0112
  387MPD2    C1 5835   0.488   1.675  10.079  0.1541  0.4419  0.2366
  387MPD2    C2 5836   0.544   1.616   9.969 -0.0566  0.9153  0.0259
  387MPD2    C3 5837   0.472   1.523   9.903 -0.5764 -0.3037  0.0860
  387MPD2    C4 5838   0.341   1.504   9.921 -0.1263 -0.1784 -0.2106
  387MPD2    C5 5839   0.282   1.582  10.018  0.2785 -0.0984  0.8700
  387MPD2     H 5840   0.652   1.628   9.963  0.1741 -0.3486  1.6720
  387MPD2    H1 5841   0.272   1.440   9.868  1.0993 -1.7528  0.0886
  387MPD2    H2 5842   0.300   1.723  10.172 -0.7352 -0.3528  0.6186
  387MPD2    H3 5843   0.175   1.586  10.033 -0.1208 -1.1310 -1.7480
  387MPD2     N 5844   0.545   1.430   9.831  0.0800 -0.2714 -0.4198
  387MPD2    H5 5845   0.643   1.456   9.821 -0.4398  1.6134 -0.5025
  387MPD2    N1 5846   0.578   1.747  10.157 -0.0917 -0.2200  0.1064
  387MPD2    H7 5847   0.664   1.755  10.104 -0.6961 -0.9808 -0.9700
  388TMC3    C1 5848   0.675   1.882  10.315  0.7815  0.3808 -0.2863
  388TMC3    C2 5849   0.667   1.936  10.444  0.1969 -0.7117  0.1526
  388TMC3    C3 5850   0.788   1.983  10.498 -0.0155  0.1828  0.0046
  388TMC3    C4 5851   0.799   1.858  10.258 -0.2856 -0.4372 -0.0011
  388TMC3    C5 5852   0.910   1.897  10.321 -0.5553  0.0902 -0.3339
  388TMC3    C6 5853   0.910   1.957  10.444 -0.1708  0.2310  0.1504
  388TMC3     C 5854   0.553   1.823  10.272  0.2490 -0.3642  0.5624
  388TMC3     O 5855   0.450   1.831  10.339  0.3337  0.6786  0.3380
  388TMC3     H 5856   0.574   1.947  10.499  0.1373  1.2777 -0.3473
  388TMC3    H1 5857   0.813   1.841  10.152  2.3662  2.4189 -0.1157
  388TMC3    H2 5858   1.003   1.958  10.498 -0.7088 -0.4534  1.0848
  388TMC3    C7 5859   1.027   1.819  10.280  0.3179 -1.1087 -0.2448
  388TMC3    C8 5860   0.789   2.063  10.622  0.1457 -0.2610  0.4668
  388TMC3    O1 5861   1.128   1.869  10.242 -0.5303  0.7077  0.2403
  388TMC3    O2 5862   0.681   2.068  10.679 -0.2847  0.2615  0.4268
  389MPD2     C 5863   0.506   4.590  10.964  0.6307 -0.3279 -0.2974
  389MPD2    C1 5864   0.457   4.515  10.862  0.0350  0.3470  0.0862
  389MPD2    C2 5865   0.375   4.408  10.896 -0.3918  0.3488  0.4100
  389MPD2    C3 5866   0.338   4.386  11.030 -0.3438 -0.1206  0.0116
  389MPD2    C4 5867   0.380   4.473  11.130 -0.1483  0.1449 -0.8724
  389MPD2    C5 5868   0.459   4.578  11.096 -0.0279  0.2448 -0.0076
  389MPD2     H 5869   0.328   4.354  10.814  1.0744  0.4202 -0.4713
  389MPD2    H1 5870   0.361   4.468  11.237 -1.5296  1.4831 -1.0567
  389MPD2    H2 5871   0.577   4.669  10.943 -1.7346  1.1026 -2.8077
  389MPD2    H3 5872   0.487   4.644  11.178  1.3072 -0.4680  0.0962
  389MPD2     N 5873   0.244   4.285  11.054  0.1291 -0.2231 -0.0506
  389MPD2    H5 5874   0.227   4.290  11.154 -4.1690 -0.4791 -0.7800
  389MPD2    N1 5875   0.497   4.553  10.726  0.3138  0.7164  0.5016
  389MPD2    H7 5876   0.573   4.619  10.715  0.9367 -0.1666 -0.6074
  390TMC3    C1 5877   0.084   4.118  11.030  0.2085 -0.2292  0.2034
  390TMC3    C2 5878   0.104   4.074  11.160 -0.5367  0.3506 -0.3611
  390TMC3    C3 5879   0.018   3.982  11.208 -0.5865  0.2742  0.2653
  390TMC3    C4 5880   4.716   4.082  10.955  0.6207  0.2019 -0.2327
  390TMC3    C5 5881   4.632   3.994  11.011 -0.1122  0.4418 -0.5251
  390TMC3    C6 5882   4.650   3.946  11.138 -0.2555  0.0938 -0.7219
  390TMC3     C 5883   0.161   4.222  10.971 -0.3791 -0.5816  0.0270
  390TMC3     O 5884   0.137   4.256  10.858  0.2593 -0.1064 -0.3488
  390TMC3     H 5885   0.195   4.089  11.217 -1.7096 -0.6346  1.8155
  390TMC3    H1 5886   4.698   4.116  10.854 -2.2589 -2.0378 -0.4611
  390TMC3    H2 5887   4.579   3.871  11.171  0.1897  0.2144  0.4963
  390TMC3    C7 5888   4.496   3.990  10.963 -0.5001 -0.1284 -0.1975
  390TMC3    C8 5889   0.017   3.971  11.354  0.1842  0.3514  0.2334
  390TMC3    O1 5890   4.483   3.951  10.845 -0.4718  0.2168  0.2079
  390TMC3    O2 5891   0.061   4.062  11.422 -0.4961  0.7217  0.6034
  391MPD2     C 5892   3.587   1.131  11.375 -0.0756  0.4572  0.6009
  391MPD2    C1 5893   3.653   1.251  11.388  0.2680 -0.1011  0.1766
  391MPD2    C2 5894   3.729   1.293  11.279  0.1390 -0.5217  0.3603
  391MPD2    C3 5895   3.742   1.220  11.161  0.6024 -0.6080 -0.0082
  391MPD2    C4 5896   3.683   1.096  11.156 -0.5800  0.3072 -0.1916
  391MPD2    C5 5897   3.615   1.053  11.263 -0.4272 -0.3489 -1.0177
  391MPD2     H 5898   3.774   1.391  11.293  1.1517 -0.7717 -1.1736
  391MPD2    H1 5899   3.691   1.029  11.071 -3.1522 -2.0358  1.4100
  391MPD2    H2 5900   3.536   1.082  11.457 -2.6043  1.8223 -0.1410
  391MPD2    H3 5901   3.581   0.951  11.252  0.1614 -0.7285  0.6970
  391MPD2     N 5902   3.823   1.273  11.057 -0.6688 -0.2299  0.1149
  391MPD2    H5 5903   3.871   1.361  11.073  0.6767 -0.7131 -1.1815
  391MPD2    N1 5904   3.660   1.314  11.515 -0.5177 -0.0927  0.1558
  391MPD2    H7 5905   3.613   1.261  11.588 -2.1100  0.8914 -0.1601
  392TMC3    C1 5906   3.910   1.313  10.855 -0.2247  0.0530 -0.0421
  392TMC3    C2 5907   3.850   1.322  10.735 -0.3316 -0.1681  0.4873
  392TMC3    C3 5908   3.826   1.451  10.679  0.0643 -0.2081 -0.0558
  392TMC3    C4 5909   3.962   1.426  10.910 -0.0188  0.3632  0.1946
  392TMC3    C5 5910   3.947   1.552  10.847 -0.8180  0.1294 -0.1630
  392TMC3    C6 5911   3.875   1.569  10.734 -0.3846  0.1512 -0.4151
  392TMC3     C 5912   3.859   1.216  10.944  0.0471  0.1481 -0.3189
  392TMC3     O 5913   3.830   1.106  10.901 -0.1743 -0.1803  0.5738
  392TMC3     H 5914   3.805   1.239  10.682 -1.3008 -0.2559  1.4303
  392TMC3    H1 5915   4.029   1.418  10.994 -0.7946 -2.4869  0.5512
  392TMC3    H2 5916   3.849   1.668  10.700 -0.3818  0.5299  0.6996
  392TMC3    C7 5917   4.027   1.656  10.907  0.4933  0.0318  0.0616
  392TMC3    C8 5918   3.752   1.456  10.554 -0.2672 -0.5235 -0.0087
  392TMC3    O1 5919   4.062   1.647  11.024  0.3000 -0.2668  0.0997
  392TMC3    O2 5920   3.681   1.354  10.519  0.0247  0.5981  0.1568
  393TMC3    C1 5921   2.347   4.291  11.034 -0.9161  0.3036 -0.6548
  393TMC3    C2 5922   2.233   4.243  11.086  0.2488  0.0117 -0.2112
  393TMC3    C3 5923   2.215   4.108  11.094 -0.1433  0.1555 -0.0850
  393TMC3    C4 5924   2.459   4.215  11.002  0.2005  0.1688 -0.4153
  393TMC3    C5 5925   2.437   4.079  11.028  0.3039 -0.4754  0.1204
  393TMC3    C6 5926   2.314   4.024  11.060 -0.0780  0.1007  0.2464
  393TMC3     C 5927   2.338   4.430  10.977  0.0076 -1.4531 -0.1335
  393TMC3     O 5928   2.255   4.507  11.016 -0.1925  0.5626 -0.4338
  393TMC3     H 5929   2.156   4.317  11.105  0.3455 -0.3212  1.5149
  393TMC3    H1 5930   2.556   4.260  10.982 -0.1817  1.8071  1.4211
  393TMC3    H2 5931   2.317   3.920  11.089 -0.9358  0.0272  0.0782
  393TMC3    C7 5932   2.544   3.988  11.007 -0.0502  0.2224 -0.1403
  393TMC3    C8 5933   2.085   4.070  11.145 -0.3086 -0.0998  0.5373
  393TMC3    O1 5934   2.526   3.872  10.987 -0.4264 -0.2349 -0.1679
  393TMC3    O2 5935   2.010   4.163  11.174 -0.1128  0.1396 -0.2051
  394TMC3    C1 5936   0.522   4.508  10.495 -0.4859 -0.3633  0.5653
  394TMC3    C2 5937   0.523   4.399  10.411  0.0901  0.2071  0.5627
  394TMC3    C3 5938   0.613   4.395  10.310 -0.1350  0.2138  0.3540
  394TMC3    C4 5939   0.617   4.606  10.481 -0.1134 -0.4019 -0.1127
  394TMC3    C5 5940   0.693   4.609  10.366 -0.1499  0.3616  0.2902
  394TMC3    C6 5941   0.697   4.500  10.282  0.2785 -0.9026  0.5455
  394TMC3     C 5942   0.439   4.502  10.614 -0.1045 -0.3623 -0.1503
  394TMC3     O 5943   0.347   4.425  10.610 -0.3423 -0.0640 -0.0612
  394TMC3     H 5944   0.465   4.311  10.434  1.3949 -1.0896 -1.0858
  394TMC3    H1 5945   0.606   4.686  10.553 -1.6879 -0.0985 -0.6949
  394TMC3    H2 5946   0.764   4.504  10.197 -2.7224 -2.4281 -1.8979
  394TMC3    C7 5947   0.723   4.738  10.317 -0.4624 -0.3402 -0.7071
  394TMC3    C8 5948   0.585   4.288  10.200 -0.1682 -0.1065 -0.2259
  394TMC3    O1 5949   0.737   0.016  10.199  0.1095  0.6651  0.1164
  394TMC3    O2 5950   0.645   4.298  10.096 -0.2437 -0.1652 -0.6692
  395TMC3    C1 5951   4.725   1.862  14.874 -0.5422 -0.0846 -0.5157
  395TMC3    C2 5952   4.592   1.909  14.869  0.6304  0.4546 -0.2580
  395TMC3    C3 5953   4.569   2.037  14.917 -0.0322 -0.6745 -0.4021
  395TMC3    C4 5954   0.079   1.941  14.923 -0.1422  0.5782 -0.0725
  395TMC3    C5 5955   0.048   2.076  14.955 -0.1733 -0.2052 -0.1290
  395TMC3    C6 5956   4.666   2.123  14.950  0.1501 -0.3739  0.2365
  395TMC3     C 5957   0.005   1.723  14.916  0.3481 -0.5595 -0.3001
  395TMC3     O 5958   0.074   1.699  15.013  0.3590 -0.2929 -0.0624
  395TMC3     H 5959   4.513   1.847  14.827 -1.0532  1.1137  1.9184
  395TMC3    H1 5960   0.176   1.899  14.948 -1.3373 -1.6308  0.8377
  395TMC3    H2 5961   4.649   2.219  14.998 -0.5595 -0.5289  0.2974
  395TMC3    C7 5962   0.155   2.175  14.935 -0.6739 -0.3047  0.0974
  395TMC3    C8 5963   4.444   2.070  14.976 -0.3352  0.0087  0.1883
  395TMC3    O1 5964   0.126   2.293  14.954 -0.2075  0.5184  0.3561
  395TMC3    O2 5965   4.403   2.184  14.977  0.3604 -0.4394  0.1331
  396MPD2     C 5966   4.097   2.709  17.255 -0.0775 -0.2827 -0.2976
  396MPD2    C1 5967   4.195   2.789  17.306 -0.2660  0.1681  0.2475
  396MPD2    C2 5968   4.232   2.906  17.244  0.2931  0.5127  0.1324
  396MPD2    C3 5969   4.174   2.947  17.121 -0.0514 -0.1413 -0.3976
  396MPD2    C4 5970   4.074   2.866  17.071  0.2236 -0.1350  0.2531
  396MPD2    C5 5971   4.026   2.756  17.144 -0.5229 -0.2630  0.4238
  396MPD2     H 5972   4.306   2.973  17.287 -1.5299  1.3144  1.9978
  396MPD2    H1 5973   4.025   2.892  16.978 -1.0673 -2.8553  0.1769
  396MPD2    H2 5974   4.071   2.619  17.308 -1.4645  0.4663  0.3040
  396MPD2    H3 5975   3.938   2.703  17.110 -1.2418  1.2246 -0.0216
  396MPD2     N 5976   4.227   3.055  17.049 -0.2887  0.0752  0.0545
  396MPD2    H5 5977   4.306   3.096  17.098 -0.4435  0.2470  0.1590
  396MPD2    N1 5978   4.255   2.739  17.426  0.1747  0.5012 -0.1354
  396MPD2    H7 5979   4.222   2.651  17.464  1.2469 -0.9170 -2.4711
  397TMC3    C1 5980   4.450   2.715  17.557  0.6585  0.1608 -0.5299
  397TMC3    C2 5981   4.544   2.702  17.455 -0.3979 -0.1558  0.6061
  397TMC3    C3 5982   4.581   2.577  17.407 -0.2965 -0.4760 -0.8445
  397TMC3    C4 5983   4.400   2.599  17.608  0.3944 -0.0189  0.5492
  397TMC3    C5 5984   4.447   2.476  17.565  0.0091 -0.1361 -0.3246
  397TMC3    C6 5985   4.527   2.460  17.454  0.2136  0.9586  0.2818
  397TMC3     C 5986   4.357   2.806  17.495 -0.0375  0.1855  0.4611
  397TMC3     O 5987   4.385   2.926  17.498  0.0067  0.4399 -0.1672
  397TMC3     H 5988   4.554   2.790  17.392  0.4986 -2.2866 -2.2412
  397TMC3    H1 5989   4.331   2.613  17.690 -0.3672 -0.3465 -0.0388
  397TMC3    H2 5990   4.564   2.371  17.404  0.4387  0.4055  1.4528
  397TMC3    C7 5991   4.381   2.353  17.605 -1.0030  0.4889  0.1899
  397TMC3    C8 5992   4.593   2.572  17.269  0.5840  0.5509  0.5998
  397TMC3    O1 5993   4.387   2.257  17.530 -0.2115  0.0318  0.4233
  397TMC3    O2 5994   4.519   2.493  17.209 -0.9319  0.0056  0.9852
  398MPD2     C 5995   2.289   0.032   0.105 -0.0473 -0.3205 -0.3391
  398MPD2    C1 5996   2.376   4.663   0.093  0.0574  0.2208 -0.7640
  398MPD2    C2 5997   2.515   4.676   0.107 -0.3372 -0.4310 -0.7334
  398MPD2    C3 5998   2.574   0.056   0.155  0.1957  0.6255  0.0675
  398MPD2    C4 5999   2.488   0.167   0.163 -0.4317 -0.0834 -0.2190
  398MPD2    C5 6000   2.345   0.151   0.133  0.6177 -0.0906  0.3531
  398MPD2     H 6001   2.577   4.587   0.106  0.2313 -0.0406  0.2843
  398MPD2    H1 6002   2.521   0.266   0.191 -0.1899 -0.0760 -0.5360
  398MPD2    H2 6003   2.182   0.021   0.092 -0.3027  0.8372  0.8038
  398MPD2    H3 6004   2.281   0.238   0.126  0.6268 -0.1417 -0.3647
  398MPD2     N 6005   2.707   0.059   0.199 -0.3686  0.4180  0.1045
  398MPD2    H5 6006   2.762   4.718   0.172 -0.0096  0.8763 -0.5634
  398MPD2    N1 6007   2.325   4.529   0.075 -0.3906 -0.1512 -0.1320
  398MPD2    H7 6008   2.398   4.461   0.093 -0.6699  0.1626  2.2180
  399TMC3    C1 6009   2.169   4.363   0.024  0.3178  1.3048 -0.3506
  399TMC3    C2 6010   2.183   4.310   0.152  0.0589  0.8087  0.9711
  399TMC3    C3 6011   2.208   4.175   0.178  0.0184 -0.0455  0.1002
  399TMC3    C4 6012   2.200   4.279  17.677  0.4201  0.6120 -0.3208
  399TMC3    C5 6013   2.222   4.144  17.702 -0.3634  0.0411  0.5418
  399TMC3    C6 6014   2.225   4.092   0.068 -0.5716 -0.1808 -0.3236
  399TMC3     C 6015   2.212   4.493   0.005  0.4413  0.2727 -0.7235
  399TMC3     O 6016   2.138   4.565  17.694 -0.0318  0.1273 -0.4706
  399TMC3     H 6017   2.163   4.375   0.237  0.5773 -0.1102  1.7930
  399TMC3    H1 6018   2.216   4.324  17.579  1.8061 -0.0147 -0.3860
  399TMC3    H2 6019   2.244   3.986   0.081 -1.3812 -0.2886 -0.0470
  399TMC3    C7 6020   2.161   4.065  17.596  0.7886  0.0077  0.3527
  399TMC3    C8 6021   2.268   4.135   0.308 -0.1634  0.4076  0.1614
  399TMC3    O1 6022   2.142   4.132  17.496  0.4047  0.2956  0.0439
  399TMC3    O2 6023   2.293   4.237   0.371 -0.1514  0.2458 -0.1101
  400TMC3    C1 6024   0.769   2.238  17.088 -0.2528  0.0685 -0.1302
  400TMC3    C2 6025   0.665   2.142  17.093 -0.2693  0.7778 -0.3442
  400TMC3    C3 6026   0.557   2.158  17.018 -0.8287  0.2372 -0.2513
  400TMC3    C4 6027   0.754   2.355  17.014  0.1067 -0.1594  0.3485
  400TMC3    C5 6028   0.639   2.363  16.941  0.8087 -0.1976  0.3023
  400TMC3    C6 6029   0.549   2.264  16.933  0.3722  0.4721 -0.6122
  400TMC3     C 6030   0.873   2.226  17.193 -0.3808 -0.2179  0.0768
  400TMC3     O 6031   0.856   2.157  17.294  0.0601 -0.4486  0.0265
  400TMC3     H 6032   0.687   2.070  17.171  0.3823  0.9262 -0.3959
  400TMC3    H1 6033   0.826   2.435  17.031  1.0078 -1.4639  2.5020
  400TMC3    H2 6034   0.468   2.282  16.864 -0.7231  0.1472  0.5871
  400TMC3    C7 6035   0.603   2.485  16.865  0.1581  0.0193  0.7352
  400TMC3    C8 6036   0.459   2.047  17.022  0.1879 -0.2163  0.8405
  400TMC3    O1 6037   0.551   2.458  16.756  0.4314 -0.1568 -0.5812
  400TMC3    O2 6038   0.468   1.968  17.118  0.3773  0.5639 -0.8706
  401MPD2     C 6039   3.721   1.552   1.019 -0.4386 -0.1749 -0.5201
  401MPD2    C1 6040   3.819   1.527   0.926  0.8531  1.1183 -0.4741
  401MPD2    C2 6041   3.765   1.494   0.801  0.0051 -1.5323 -0.2952
  401MPD2    C3 6042   3.631   1.484   0.778 -0.4495  0.1807 -0.8557
  401MPD2    C4 6043   3.536   1.503   0.879 -0.1630 -0.3977  0.4225
  401MPD2    C5 6044   3.585   1.552   0.996 -0.4313 -0.4833 -0.2814
  401MPD2     H 6045   3.840   1.467   0.727  2.3859  0.6856  1.2890
  401MPD2    H1 6046   3.430   1.497   0.858  0.2961  1.3344 -2.3714
  401MPD2    H2 6047   3.739   1.577   1.123  0.5564 -1.0691 -0.4728
  401MPD2    H3 6048   3.522   1.585   1.078 -1.4680 -0.0900 -1.2201
  401MPD2     N 6049   3.594   1.451   0.645  0.8434 -0.3529  0.1583
  401MPD2    H5 6050   3.668   1.442   0.576  1.0630  0.1717  0.3284
  401MPD2    N1 6051   3.959   1.543   0.949  0.3115  0.8892 -0.2481
  401MPD2    H7 6052   4.026   1.507   0.882 -0.9342 -0.6665 -0.6579
  402TMC3    C1 6053   3.495   1.341   0.465  0.2706 -0.5332  0.2428
  402TMC3    C2 6054   3.460   1.206   0.456  0.1730  0.2350  0.3612
  402TMC3    C3 6055   3.550   1.125   0.382 -0.2803  0.3868  0.1332
  402TMC3    C4 6056   3.593   1.395   0.389 -0.1693 -1.2221 -0.5575
  402TMC3    C5 6057   3.662   1.314   0.303  0.4522  0.3776  0.2444
  402TMC3    C6 6058   3.649   1.183   0.307  0.6674 -0.0580 -0.2496
  402TMC3     C 6059   3.474   1.408   0.593 -0.3055  0.0465 -0.5540
  402TMC3     O 6060   3.376   1.369   0.654  0.6009 -0.1103  0.1728
  402TMC3     H 6061   3.389   1.163   0.526  0.0380 -0.5355 -0.2519
  402TMC3    H1 6062   3.612   1.501   0.387 -3.2441 -0.6487  0.2006
  402TMC3    H2 6063   3.728   1.128   0.257  1.3617  2.1483 -1.6134
  402TMC3    C7 6064   3.795   1.361   0.286  0.0274  0.0677 -0.0455
  402TMC3    C8 6065   3.616   1.026   0.464  0.3033 -0.3439 -0.3810
  402TMC3    O1 6066   3.844   1.409   0.388  0.6949  0.2967 -0.5129
  402TMC3    O2 6067   3.712   0.969   0.415  0.3847 -0.0977 -0.5198
  403MPD2     C 6068   1.836   4.450  13.549 -0.0343  0.0401 -0.3871
  403MPD2    C1 6069   1.876   4.323  13.575 -0.6149  0.2765 -0.2323
  403MPD2    C2 6070   2.004   4.300  13.618  0.0927  0.3454 -0.1088
  403MPD2    C3 6071   2.093   4.402  13.631  0.0229 -0.2610 -0.6874
  403MPD2    C4 6072   2.044   4.527  13.623  0.1514  1.3725 -0.1350
  403MPD2    C5 6073   1.917   4.551  13.580 -0.8141 -0.2449  0.1257
  403MPD2     H 6074   2.041   4.199  13.626 -0.5723  0.2280  1.5476
  403MPD2    H1 6075   2.106   4.615  13.640 -1.1275  2.0755  0.8629
  403MPD2    H2 6076   1.744   4.462  13.493 -1.2443  2.5408  2.1735
  403MPD2    H3 6077   1.880   4.652  13.572  3.0697  1.0608 -1.5937
  403MPD2     N 6078   2.227   4.377  13.669  0.3831  1.1871  0.1034
  403MPD2    H5 6079   2.255   4.282  13.691  2.3939  1.5875 -0.7449
  403MPD2    N1 6080   1.781   4.217  13.548  0.1539  0.2398 -0.0401
  403MPD2    H7 6081   1.696   4.243  13.499  0.4665  0.9167 -0.2204
  404TMC3    C1 6082   1.729   4.001  13.494 -0.5539 -0.4974  0.0588
  404TMC3    C2 6083   1.741   3.867  13.524  0.1203  0.3862 -0.4894
  404TMC3    C3 6084   1.752   3.780  13.419 -0.1340  0.4358 -0.2182
  404TMC3    C4 6085   1.730   4.047  13.361  0.0453  0.3312  0.6556
  404TMC3    C5 6086   1.742   3.954  13.261  0.2487  0.6614 -0.4485
  404TMC3    C6 6087   1.767   3.819  13.291 -0.3074 -0.5170  0.3332
  404TMC3     C 6088   1.809   4.081  13.580 -0.0259 -0.7381  0.4733
  404TMC3     O 6089   1.903   4.024  13.634 -0.2188 -0.0465  0.1652
  404TMC3     H 6090   1.750   3.846  13.630  1.0417  0.0608 -0.6259
  404TMC3    H1 6091   1.711   4.150  13.330 -1.5010 -0.0155  0.4417
  404TMC3    H2 6092   1.774   3.743  13.215  0.9028  0.6394 -0.7304
  404TMC3    C7 6093   1.789   4.012  13.138 -0.6843 -0.4866 -0.1998
  404TMC3    C8 6094   1.788   3.647  13.449  0.5551 -0.4982  0.3497
  404TMC3    O1 6095   1.841   4.121  13.140  0.0149 -0.0189 -0.6431
  404TMC3    O2 6096   1.869   3.590  13.375  0.4860  0.8709 -0.5063
  405MPD2     C 6097   2.704   4.423  14.827 -0.7889 -0.7379 -0.3051
  405MPD2    C1 6098   2.674   4.325  14.735 -0.1662 -0.2912  0.3639
  405MPD2    C2 6099   2.644   4.357  14.606 -0.4228 -0.1913  0.0599
  405MPD2    C3 6100   2.648   4.488  14.565  0.6172 -0.3713  0.0876
  405MPD2    C4 6101   2.684   4.586  14.652 -0.1313  0.2774 -0.1466
  405MPD2    C5 6102   2.708   4.555  14.786  0.1496  0.7796 -0.4815
  405MPD2     H 6103   2.629   4.278  14.533  1.5949  1.5663 -2.2479
  405MPD2    H1 6104   2.710   4.684  14.614 -1.7347  0.4450 -0.8270
  405MPD2    H2 6105   2.748   4.412  14.925 -0.4227  1.5349 -0.2002
  405MPD2    H3 6106   2.742   4.639  14.845  0.4608 -0.1961  0.7090
  405MPD2     N 6107   2.616   4.511  14.426  0.0084 -0.4777 -0.4072
  405MPD2    H5 6108   2.605   4.432  14.364  1.5911 -0.3135 -0.8912
  405MPD2    N1 6109   2.671   4.188  14.783 -0.2720 -0.7603 -0.1583
  405MPD2    H7 6110   2.673   4.176  14.884 -1.1813 -1.2827 -0.2082
  406TMC3    C1 6111   2.386   4.691  14.094 -0.5167 -0.1412  0.1007
  406TMC3    C2 6112   2.364   4.567  14.041 -0.3729 -0.4236  0.7247
  406TMC3    C3 6113   2.449   4.472  14.084  1.2080  0.3048 -0.3068
  406TMC3    C4 6114   2.482   4.722  14.192  0.8191  0.6669  0.1181
  406TMC3    C5 6115   2.567   4.623  14.225 -0.1340 -0.1824  0.2306
  406TMC3    C6 6116   2.554   4.501  14.167  0.3911 -0.1197  0.3434
  406TMC3     C 6117   2.271   0.045  14.106  0.0137  0.1494  0.0694
  406TMC3     O 6118   2.211   0.085  14.010 -0.2590 -0.2623  0.2472
  406TMC3     H 6119   2.273   4.544  13.987 -0.7124  1.8086  0.3688
  406TMC3    H1 6120   2.491   0.075  14.246 -0.7389  0.5993  0.5032
  406TMC3    H2 6121   2.634   4.429  14.181 -2.8863 -3.6761  0.9225
  406TMC3    C7 6122   2.606   4.636  14.368  0.8719 -0.2541 -0.3453
  406TMC3    C8 6123   2.397   4.336  14.077 -0.1676 -0.0601 -0.4646
  406TMC3    O1 6124   2.604   0.005  14.425  0.1221 -0.7338 -0.0784
  406TMC3    O2 6125   2.297   4.314  14.008  0.8038  0.3848 -0.2039
  407MPD2     C 6126   4.677   1.649   9.884 -0.2384 -0.0762 -0.0824
  407MPD2    C1 6127   0.030   1.747   9.878 -0.2124 -1.1562 -0.0862
  407MPD2    C2 6128   0.040   1.823   9.991  0.2555  0.1903 -0.1692
  407MPD2    C3 6129   4.711   1.800  10.105  0.5483 -0.2421  0.0609
  407MPD2    C4 6130   4.630   1.691  10.106 -0.4626 -0.5427  0.3925
  407MPD2    C5 6131   4.607   1.618   9.994  0.1238 -0.1120  0.2735
  407MPD2     H 6132   0.119   1.897   9.998 -0.2656  0.6907  0.4053
  407MPD2    H1 6133   4.575   1.655  10.192  1.1644 -1.5177  1.0123
  407MPD2    H2 6134   4.666   1.569   9.811  1.7067 -0.4245 -0.0015
  407MPD2    H3 6135   4.554   1.525  10.010  1.7288 -1.1892 -0.6397
  407MPD2     N 6136   4.735   1.883  10.221 -0.1259  0.3703  0.0518
  407MPD2    H5 6137   0.035   1.970  10.186  0.9954 -0.0451  0.3022
  407MPD2    N1 6138   0.119   1.777   9.773  0.3881  0.4839  0.1692
  407MPD2    H7 6139   0.181   1.857   9.782  1.8934 -0.6590 -0.0518
  408TMC3    C1 6140   0.275   1.733   9.597 -0.4341  0.2111 -0.8520
  408TMC3    C2 6141   0.330   1.621   9.537 -0.1745 -0.2217 -0.2138
  408TMC3    C3 6142   0.468   1.615   9.525  0.8726 -0.2876  0.2144
  408TMC3    C4 6143   0.347   1.838   9.643  0.3382  0.0022  0.1312
  408TMC3    C5 6144   0.484   1.840   9.615  0.7857  0.5503  0.0652
  408TMC3    C6 6145   0.544   1.725   9.555  0.3536 -0.4714 -0.0503
  408TMC3     C 6146   0.148   1.698   9.660  0.9063  0.6029 -0.0642
  408TMC3     O 6147   0.089   1.595   9.630  0.3282  0.2110 -0.3059
  408TMC3     H 6148   0.273   1.531   9.519  1.7150 -1.0461 -2.0866
  408TMC3    H1 6149   0.305   1.927   9.690  0.7478  0.0924  0.3344
  408TMC3    H2 6150   0.651   1.728   9.535  0.4396  1.1138  0.5859
  408TMC3    C7 6151   0.573   1.928   9.690 -0.1134 -0.5366  0.0892
  408TMC3    C8 6152   0.533   1.497   9.466 -0.0039  0.1309 -0.1405
  408TMC3    O1 6153   0.534   1.971   9.802  0.5445  0.2910  0.1674
  408TMC3    O2 6154   0.457   1.418   9.407 -0.1211 -0.3294  0.1269
  409MPD2     C 6155   4.331   1.734  17.152 -0.3282 -0.2932  0.0781
  409MPD2    C1 6156   4.402   1.802  17.248 -0.3183  0.5271  0.5586
  409MPD2    C2 6157   4.467   1.924  17.218 -0.3290  0.0284  0.1269
  409MPD2    C3 6158   4.455   1.970  17.092  0.0464 -0.4016 -0.1949
  409MPD2    C4 6159   4.378   1.904  16.999  0.2591 -0.6393  0.7411
  409MPD2    C5 6160   4.317   1.788  17.025 -0.0191 -0.4435  0.3879
  409MPD2     H 6161   4.520   1.980  17.294  1.9360 -0.4663 -1.0976
  409MPD2    H1 6162   4.384   1.943  16.898  2.2768 -1.7186  0.4467
  409MPD2    H2 6163   4.274   1.647  17.180 -0.0508 -0.2731  0.7061
  409MPD2    H3 6164   4.272   1.737  16.940 -2.3030 -2.2468  2.6976
  409MPD2     N 6165   4.522   2.088  17.043 -0.8074  0.8149 -0.2892
  409MPD2    H5 6166   4.500   2.124  16.951 -0.7126  1.5977 -0.0029
  409MPD2    N1 6167   4.415   1.757  17.382  0.0702 -0.1236 -0.2642
  409MPD2    H7 6168   4.478   1.806  17.446  1.3683 -1.2827 -0.6539
  410TMC3    C1 6169   4.668   2.266  17.025 -0.9338  0.3676 -0.2813
  410TMC3    C2 6170   0.032   2.336  17.081 -0.1952 -0.8385  0.0699
  410TMC3    C3 6171   0.131   2.390  17.013  0.7745  0.0763  0.0484
  410TMC3    C4 6172   4.662   2.246  16.891 -1.3532 -0.4367  0.5646
  410TMC3    C5 6173   0.027   2.306  16.824  0.0175  0.0019 -0.4520
  410TMC3    C6 6174   0.137   2.377  16.877 -0.4630 -0.5335  0.2526
  410TMC3     C 6175   4.615   2.162  17.107  0.1354  0.3651 -0.2127
  410TMC3     O 6176   4.668   2.149  17.213 -0.0080 -0.0543 -0.5016
  410TMC3     H 6177   0.009   2.354  17.186  0.4965 -0.7093  0.2028
  410TMC3    H1 6178   4.576   2.202  16.842 -0.4145  1.5289 -2.7750
  410TMC3    H2 6179   0.227   2.386  16.817 -1.0660  0.6061 -0.4879
  410TMC3    C7 6180   4.736   2.332  16.686 -0.1829  0.1121 -0.0711
  410TMC3    C8 6181   0.255   2.416  17.076 -0.2666  0.5847 -0.3848
  410TMC3    O1 6182   4.677   2.248  16.626  0.5102 -0.2255 -0.2347
  410TMC3    O2 6183   0.346   2.470  17.017  0.1056  0.1643  0.5795
  411MPD2     C 6184   0.510   2.791  14.433  0.1096 -0.4408 -0.2588
  411MPD2    C1 6185   0.375   2.774  14.404 -0.4335 -0.1028 -0.2480
  411MPD2    C2 6186   0.304   2.662  14.443 -0.2453 -0.7647  0.4093
  411MPD2    C3 6187   0.376   2.559  14.509  0.1550 -1.0674 -0.7276
  411MPD2    C4 6188   0.514   2.566  14.521 -0.0918 -0.0299 -0.2036
  411MPD2    C5 6189   0.572   2.687  14.495  0.1773  0.5081  0.0183
  411MPD2     H 6190   0.200   2.648  14.417 -0.0003 -0.9305 -0.5079
  411MPD2    H1 6191   0.576   2.502  14.583  1.8999  2.5490  0.4613
  411MPD2    H2 6192   0.563   2.879  14.398  1.4915 -1.7178 -1.3577
  411MPD2    H3 6193   0.675   2.690  14.529 -0.6326  2.8371  2.3367
  411MPD2     N 6194   0.309   2.446  14.560  0.3041 -0.5475 -0.2220
  411MPD2    H5 6195   0.370   2.369  14.586  1.3207  0.1467 -0.5636
  411MPD2    N1 6196   0.304   2.884  14.338 -0.2285  0.7044  0.0189
  411MPD2    H7 6197   0.358   2.971  14.337  1.4694 -0.3343  2.3923
  412TMC3    C1 6198   0.121   2.318  14.634  0.3988  0.3601  0.3693
  412TMC3    C2 6199   4.729   2.321  14.666 -0.8893  0.2431 -0.0182
  412TMC3    C3 6200   4.636   2.237  14.603  0.0317 -0.8516 -0.0403
  412TMC3    C4 6201   0.172   2.209  14.570  0.3901  0.0920  0.1031
  412TMC3    C5 6202   0.084   2.116  14.524 -0.6408  0.2584  0.2883
  412TMC3    C6 6203   4.689   2.137  14.528 -0.1105 -0.5578 -0.0482
  412TMC3     C 6204   0.168   2.445  14.585 -0.0580  0.5938 -0.4543
  412TMC3     O 6205   0.072   2.522  14.563 -0.6747 -0.2668 -0.1035
  412TMC3     H 6206   4.686   2.412  14.708 -0.0289  0.4917  0.3105
  412TMC3    H1 6207   0.279   2.197  14.561  0.5577  0.0296  2.2265
  412TMC3    H2 6208   4.636   2.078  14.454  0.7904 -0.0860 -1.0823
  412TMC3    C7 6209   0.125   2.087  14.385 -0.2110 -0.2423 -0.7730
  412TMC3    C8 6210   4.551   2.316  14.524  0.0192 -0.5882  0.3351
  412TMC3    O1 6211   0.229   2.023  14.373 -0.2423 -0.3813 -0.0842
  412TMC3    O2 6212   4.590   2.328  14.407 -0.0062 -0.2241  0.3559
  413MPD2     C 6213   2.082   0.790  15.929 -0.7384  0.6935 -0.2243
  413MPD2    C1 6214   2.121   0.844  15.804 -0.6804  0.3709  0.0074
  413MPD2    C2 6215   2.194   0.766  15.717  1.3832 -0.6223  0.0548
  413MPD2    C3 6216   2.238   0.638  15.748  0.0816 -0.2820 -0.4847
  413MPD2    C4 6217   2.202   0.586  15.872 -0.3123 -0.5606  0.7468
  413MPD2    C5 6218   2.113   0.660  15.952  0.2834  0.3743 -1.0091
  413MPD2     H 6219   2.212   0.811  15.620  0.3547  1.4399  0.8087
  413MPD2    H1 6220   2.220   0.484  15.904  0.7862 -0.5873  0.0103
  413MPD2    H2 6221   2.009   0.838  15.994  1.0576 -0.8538  2.9697
  413MPD2    H3 6222   2.070   0.623  16.044  1.2277  1.5538 -0.0894
  413MPD2     N 6223   2.306   0.572  15.647  0.1589 -0.2215 -0.4924
  413MPD2    H5 6224   2.337   0.637  15.575 -0.4972  0.6039 -0.0288
  413MPD2    N1 6225   2.074   0.971  15.776  0.2807 -0.6995 -0.0214
  413MPD2    H7 6226   2.015   1.028  15.836 -0.9800  0.5471 -2.4174
  414TMC3    C1 6227   2.400   0.387  15.533  0.1438 -0.0847 -0.6098
  414TMC3    C2 6228   2.445   0.257  15.546 -0.0833 -0.0510  0.3664
  414TMC3    C3 6229   2.470   0.190  15.429  0.2083 -0.4902  0.4134
  414TMC3    C4 6230   2.377   0.447  15.408  0.2204  0.0270 -0.5112
  414TMC3    C5 6231   2.406   0.368  15.297  0.7567 -0.1975  0.2724
  414TMC3    C6 6232   2.453   0.242  15.306  0.0041 -0.3160  0.5554
  414TMC3     C 6233   2.344   0.441  15.655 -0.2994  0.0021 -0.2917
  414TMC3     O 6234   2.334   0.365  15.749  0.2893  0.3289 -0.2014
  414TMC3     H 6235   2.465   0.205  15.639  2.4626  0.7186  0.2549
  414TMC3    H1 6236   2.338   0.548  15.403  2.6341  1.0956  1.7769
  414TMC3    H2 6237   2.461   0.176  15.221  0.8426  0.2550  0.1814
  414TMC3    C7 6238   2.373   0.419  15.165 -0.7198  0.3732  0.3574
  414TMC3    C8 6239   2.538   0.060  15.450 -0.2090  0.8528 -0.0314
  414TMC3    O1 6240   2.294   0.509  15.169  0.2207 -0.2996 -0.0158
  414TMC3    O2 6241   2.470   4.725  15.520 -0.0397  0.3658  0.1043
  415TMC3    C1 6242   2.442   3.978  10.593 -0.1126  0.5836  0.0700
  415TMC3    C2 6243   2.405   4.111  10.597  0.2858  0.2851 -0.6200
  415TMC3    C3 6244   2.292   4.135  10.674  0.5726 -0.0543 -0.6591
  415TMC3    C4 6245   2.378   3.874  10.658  0.3825  0.2552  0.9388
  415TMC3    C5 6246   2.269   3.902  10.738  0.0788 -1.2957 -0.2398
  415TMC3    C6 6247   2.232   4.034  10.748 -0.3439  0.4181  0.9899
  415TMC3     C 6248   2.526   3.939  10.491  0.4256  0.2754 -0.0799
  415TMC3     O 6249   2.510   3.826  10.443 -0.2655  0.1664  0.1006
  415TMC3     H 6250   2.456   4.189  10.543  0.9285  1.3190  1.4823
  415TMC3    H1 6251   2.402   3.770  10.639  1.6070  0.2048  2.7729
  415TMC3    H2 6252   2.149   4.062  10.812  0.5674  1.0963  1.8835
  415TMC3    C7 6253   2.188   3.797  10.802 -0.3849 -0.1212 -0.0788
  415TMC3    C8 6254   2.224   4.265  10.678  0.4954 -0.2050  0.8630
  415TMC3    O1 6255   2.119   3.833  10.893 -0.7071  0.6593 -0.0815
  415TMC3    O2 6256   2.117   4.263  10.740  0.3152 -0.0577 -0.0472
  416MPD2     C 6257   3.841   2.385  12.254  0.3321  0.3289  0.1636
  416MPD2    C1 6258   3.734   2.381  12.160  0.7744  0.0871 -0.2777
  416MPD2    C2 6259   3.714   2.264  12.084  0.5779 -0.5123 -0.5249
  416MPD2    C3 6260   3.794   2.156  12.110 -0.4410 -0.0800 -0.1397
  416MPD2    C4 6261   3.896   2.162  12.201 -0.4620 -0.1895  0.5693
  416MPD2    C5 6262   3.921   2.276  12.282  0.4677 -0.6235  0.3228
  416MPD2     H 6263   3.638   2.263  12.006  1.7042  1.9434 -1.6647
  416MPD2    H1 6264   3.943   2.069  12.231 -1.9486 -0.9115  0.6867
  416MPD2    H2 6265   3.871   2.474  12.308  2.3816  1.2580 -2.5019
  416MPD2    H3 6266   4.004   2.284  12.352 -0.0527 -0.3420  0.9126
  416MPD2     N 6267   3.773   2.030  12.045 -0.2244  0.1295 -0.0941
  416MPD2    H5 6268   3.834   1.956  12.079  0.9599  0.9014 -0.5542
  416MPD2    N1 6269   3.665   2.500  12.133 -0.2538  0.1460  0.2047
  416MPD2    H7 6270   3.698   2.577  12.191  3.5432 -1.1114 -0.2449
  417TMC3    C1 6271   3.517   2.658  12.072  0.0191  0.4827  0.2570
  417TMC3    C2 6272   3.511   2.706  12.199  0.2428 -0.7683 -0.5548
  417TMC3    C3 6273   3.463   2.834  12.208 -0.6763  0.4931 -0.6110
  417TMC3    C4 6274   3.473   2.728  11.961  0.3164  0.1074 -0.4022
  417TMC3    C5 6275   3.416   2.861  11.982  0.1431  0.3698 -0.3260
  417TMC3    C6 6276   3.412   2.908  12.112  0.1232 -0.1287  0.7174
  417TMC3     C 6277   3.564   2.527  12.053  0.1397  0.7454  0.3182
  417TMC3     O 6278   3.501   2.457  11.971 -0.4479 -0.1047 -0.4216
  417TMC3     H 6279   3.533   2.644  12.286  0.3935 -0.3384 -0.2845
  417TMC3    H1 6280   3.475   2.686  11.860  1.6868 -1.1399  0.1363
  417TMC3    H2 6281   3.391   3.011  12.141 -3.3278 -0.0496 -2.1933
  417TMC3    C7 6282   3.401   2.959  11.873 -0.1377  0.6282  0.0419
  417TMC3    C8 6283   3.516   2.915  12.311  0.3665  0.0086 -0.6008
  417TMC3    O1 6284   3.460   2.952  11.767 -0.1323 -0.6145 -0.5939
  417TMC3    O2 6285   3.436   2.966  12.390 -0.5138 -0.1774 -0.6213
  418TMC3    C1 6286   3.072   4.714   0.189  0.6277 -0.2279 -0.1068
  418TMC3    C2 6287   2.963   0.054   0.173  0.6072  0.5104  0.2188
  418TMC3    C3 6288   2.915   0.123   0.286  0.0432  0.2926 -0.4874
  418TMC3    C4 6289   3.137   4.697   0.310 -0.3607 -0.1129 -0.3669
  418TMC3    C5 6290   3.080   0.019   0.414 -1.0889  0.6926 -0.1854
  418TMC3    C6 6291   2.973   0.105   0.412  0.0278  0.5660 -0.5861
  418TMC3     C 6292   3.134   4.653   0.074  0.0363 -0.2397 -0.3149
  418TMC3     O 6293   3.141   4.735  17.740 -0.4364  0.6169 -0.4118
  418TMC3     H 6294   2.906   0.056   0.080  0.7255 -0.3719  0.1291
  418TMC3    H1 6295   3.233   4.646   0.316 -0.9683 -1.1147  0.6779
  418TMC3    H2 6296   2.916   0.145   0.495  1.5541  2.2764 -0.3833
  418TMC3    C7 6297   3.105   4.686   0.537  0.7698 -0.4325  0.1619
  418TMC3    C8 6298   2.768   0.150   0.286  0.0973  0.5949  0.5236
  418TMC3    O1 6299   3.172   4.585   0.526 -0.0763 -0.4081  0.5221
  418TMC3    O2 6300   2.723   0.224   0.370 -0.1151  0.0429 -0.3381
  419MPD2     C 6301   1.613   2.653  12.456  0.4677  0.5464 -0.4747
  419MPD2    C1 6302   1.502   2.717  12.410 -0.2967 -0.2090 -0.5656
  419MPD2    C2 6303   1.426   2.774  12.508  0.2809  0.5278  1.1400
  419MPD2    C3 6304   1.457   2.778  12.642  0.6079  0.0484 -0.8318
  419MPD2    C4 6305   1.569   2.711  12.683 -0.4291  0.0452  0.0924
  419MPD2    C5 6306   1.647   2.653  12.588  0.3934  0.3481  0.1222
  419MPD2     H 6307   1.334   2.822  12.476 -0.0262  0.6347  2.1777
  419MPD2    H1 6308   1.607   2.720  12.784 -2.5685 -2.2447  1.0890
  419MPD2    H2 6309   1.679   2.596  12.392  3.2616  0.9612  2.0781
  419MPD2    H3 6310   1.727   2.584  12.613  0.4081 -0.1507 -1.2835
  419MPD2     N 6311   1.366   2.840  12.727  0.4175  0.6937 -0.1009
  419MPD2    H5 6312   1.290   2.900  12.696  1.0885  1.1807 -0.8076
  419MPD2    N1 6313   1.463   2.727  12.273 -0.7941 -0.1643  0.8277
  419MPD2    H7 6314   1.367   2.753  12.252 -0.1318  1.2593 -0.4626
  420TMC3    C1 6315   1.256   2.926  12.924  0.6857  0.6136 -0.0524
  420TMC3    C2 6316   1.165   2.986  12.844  0.8139  0.4962  0.5429
  420TMC3    C3 6317   1.048   3.013  12.894 -1.0588 -0.5618  0.0019
  420TMC3    C4 6318   1.233   2.894  13.057 -0.5224 -0.2759 -0.3399
  420TMC3    C5 6319   1.107   2.922  13.104  0.4066  0.2827  0.0380
  420TMC3    C6 6320   1.010   2.985  13.022  0.0396 -0.2708  0.2951
  420TMC3     C 6321   1.372   2.849  12.865  0.3780 -0.1005  0.7033
  420TMC3     O 6322   1.452   2.800  12.942 -0.3593 -0.2311 -0.1741
  420TMC3     H 6323   1.202   3.028  12.751  0.3388 -2.2782 -0.8822
  420TMC3    H1 6324   1.299   2.828  13.112  0.4034  1.3117  0.4396
  420TMC3    H2 6325   0.913   3.014  13.062 -1.5692 -2.5401 -1.9650
  420TMC3    C7 6326   1.067   2.843  13.221 -0.1324  0.0502 -0.7999
  420TMC3    C8 6327   0.961   3.094  12.805 -0.0280 -0.0300 -0.4894
  420TMC3    O1 6328   1.158   2.807  13.290  0.1368  0.3824  0.3077
  420TMC3    O2 6329   1.011   3.148  12.709 -0.0426  0.3962 -0.0242
  421TMC3    C1 6330   2.463   4.422  13.683 -0.5103 -0.6117  0.7526
  421TMC3    C2 6331   2.565   4.516  13.677  0.6118  0.1456  0.1553
  421TMC3    C3 6332   2.677   4.487  13.737 -0.3796  0.5548  0.2263
  421TMC3    C4 6333   2.474   4.297  13.740  0.2257 -0.7192  0.3416
  421TMC3    C5 6334   2.597   4.273  13.803  1.0798  0.0633  0.1060
  421TMC3    C6 6335   2.693   4.369  13.809 -0.0386  0.3156  0.0674
  421TMC3     C 6336   2.325   4.470  13.655 -0.7148 -0.6006  0.2458
  421TMC3     O 6337   2.320   4.578  13.597  0.2065  0.3955 -0.1902
  421TMC3     H 6338   2.552   4.600  13.611 -0.3213  0.0848  0.2601
  421TMC3    H1 6339   2.397   4.221  13.731 -1.8882  1.2029  2.1117
  421TMC3    H2 6340   2.788   4.346  13.855 -0.4850  1.1224  1.4031
  421TMC3    C7 6341   2.605   4.160  13.890 -0.1868 -0.2029  0.3434
  421TMC3    C8 6342   2.792   4.569  13.709  0.2137  0.0785  0.7534
  421TMC3    O1 6343   2.682   4.181  13.983  0.3918  0.0824  0.6022
  421TMC3    O2 6344   2.901   4.523  13.734 -0.0278  0.6451  0.3308
  422TMC3    C1 6345   0.357   0.736  12.548 -0.5324  0.6712  0.4435
  422TMC3    C2 6346   0.333   0.863  12.561 -0.6359  0.6381  0.2274
  422TMC3    C3 6347   0.225   0.900  12.637  0.3710  0.0879 -0.2249
  422TMC3    C4 6348   0.280   0.646  12.611 -0.4219 -0.1431 -0.1360
  422TMC3    C5 6349   0.178   0.683  12.689  0.8341  0.2409 -0.2747
  422TMC3    C6 6350   0.148   0.814  12.712 -0.0474 -0.5174  0.2938
  422TMC3     C 6351   0.458   0.694  12.450 -0.0114  0.2819  0.6427
  422TMC3     O 6352   0.479   0.772  12.356  0.2744 -0.3248 -0.1548
  422TMC3     H 6353   0.394   0.929  12.502  0.5377 -1.8394 -1.3419
  422TMC3    H1 6354   0.290   0.543  12.579 -0.4256 -0.7473  1.8378
  422TMC3    H2 6355   0.074   0.830  12.790  2.1376  0.4356  2.1681
  422TMC3    C7 6356   0.093   0.575  12.742  0.0474 -0.5790  0.5126
  422TMC3    C8 6357   0.205   1.042  12.663  0.8095 -0.2963  0.0015
  422TMC3    O1 6358   0.126   0.458  12.734  0.0349  0.0078 -0.2288
  422TMC3    O2 6359   0.298   1.116  12.637 -0.5668  0.2580 -0.3186
  423MPD2     C 6360   1.555   1.705   0.512 -0.3365 -0.4369 -0.0437
  423MPD2    C1 6361   1.616   1.769   0.405 -0.2574 -0.2741  0.1886
  423MPD2    C2 6362   1.583   1.710   0.277 -0.0951  0.8640 -0.6235
  423MPD2    C3 6363   1.502   1.601   0.253  0.1625 -0.1911  0.0674
  423MPD2    C4 6364   1.434   1.559   0.365 -0.6797  1.1975 -0.0280
  423MPD2    C5 6365   1.470   1.598   0.492 -0.2891  0.3167  0.1935
  423MPD2     H 6366   1.654   1.744   0.202  1.5237 -0.0141  0.5148
  423MPD2    H1 6367   1.364   1.478   0.349 -0.7061  0.6916  2.5802
  423MPD2    H2 6368   1.570   1.743   0.612 -0.2111  0.5777 -0.4483
  423MPD2    H3 6369   1.427   1.556   0.582 -1.6900  0.4974 -0.3945
  423MPD2     N 6370   1.488   1.551   0.123  0.2264 -0.1463 -0.1229
  423MPD2    H5 6371   1.443   1.460   0.111 -1.5457  0.7328 -0.1796
  423MPD2    N1 6372   1.717   1.867   0.414  0.0279 -0.5713 -0.1664
  423MPD2    H7 6373   1.759   1.897   0.327 -0.0886 -0.8724 -0.3265
  424TMC3    C1 6374   1.888   2.000   0.497  0.2443 -0.4945  0.3551
  424TMC3    C2 6375   1.990   1.939   0.433 -0.0538  0.0994  0.1505
  424TMC3    C3 6376   2.123   1.969   0.463 -0.5844 -0.0935 -0.7038
  424TMC3    C4 6377   1.916   2.094   0.590 -0.0799 -0.5610 -0.4919
  424TMC3    C5 6378   2.051   2.134   0.604 -0.0273  0.2174  0.2912
  424TMC3    C6 6379   2.155   2.083   0.535  0.4217  0.0496  0.2074
  424TMC3     C 6380   1.770   1.918   0.533 -0.3340  0.3617  0.1264
  424TMC3     O 6381   1.720   1.924   0.646 -0.2134  0.0788 -0.4067
  424TMC3     H 6382   1.965   1.847   0.381  1.8599 -0.8191  0.8576
  424TMC3    H1 6383   1.830   2.138   0.638 -0.1420 -1.0102 -0.1899
  424TMC3    H2 6384   2.253   2.121   0.559  2.3690 -3.1586 -2.8400
  424TMC3    C7 6385   2.088   2.232   0.708  0.5411 -0.6685 -0.2186
  424TMC3    C8 6386   2.209   1.854   0.464 -0.6992  0.2515 -0.0476
  424TMC3    O1 6387   2.200   2.283   0.704  0.0483 -0.1453 -0.3963
  424TMC3    O2 6388   2.175   1.756   0.387  0.3786  0.3372  0.0231
  425MPD2     C 6389   0.798   0.729   0.104 -0.1171 -0.3241 -0.1260
  425MPD2    C1 6390   0.753   0.712  17.733  0.1985 -0.0284  0.1656
  425MPD2    C2 6391   0.638   0.781  17.692 -0.4018 -0.6310 -0.0376
  425MPD2    C3 6392   0.573   0.860   0.020 -0.1115 -0.0692 -0.3870
  425MPD2    C4 6393   0.613   0.876   0.149  0.5440  1.0524  0.7452
  425MPD2    C5 6394   0.721   0.807   0.196  0.8943 -0.2289 -0.2019
  425MPD2     H 6395   0.611   0.774  17.588  1.4871 -1.0303 -0.5045
  425MPD2    H1 6396   0.566   0.953   0.210 -0.9841  1.4091 -0.8933
  425MPD2    H2 6397   0.879   0.667   0.140  0.1295 -0.1274 -0.3446
  425MPD2    H3 6398   0.755   0.831   0.296  1.3523 -0.4554 -0.3032
  425MPD2     N 6399   0.465   0.942  17.729  0.0629  0.2505  0.4134
  425MPD2    H5 6400   0.438   0.912  17.636  2.0292 -0.1062 -0.0506
  425MPD2    N1 6401   0.836   0.642  17.639  0.5437 -0.6846 -0.2216
  425MPD2    H7 6402   0.919   0.606  17.684  0.6118  0.9426  0.9762
  426TMC3    C1 6403   0.873   0.507  17.449 -0.3781  0.1701 -0.6046
  426TMC3    C2 6404   0.855   0.500  17.313 -0.0563 -0.4349 -0.8926
  426TMC3    C3 6405   0.912   0.394  17.244  0.7469  0.6836  0.7653
  426TMC3    C4 6406   0.930   0.402  17.517  0.3739 -0.1728 -0.1246
  426TMC3    C5 6407   0.981   0.295  17.446 -0.0036  0.6097 -0.8317
  426TMC3    C6 6408   0.972   0.294  17.310 -0.6764 -0.0052  0.3754
  426TMC3     C 6409   0.799   0.612  17.512  0.2636  0.4358 -0.1861
  426TMC3     O 6410   0.700   0.635  17.445 -0.3170 -0.5592 -0.8166
  426TMC3     H 6411   0.823   0.588  17.259 -0.4239  0.3449  0.5975
  426TMC3    H1 6412   0.928   0.410  17.625 -0.3680  1.4475 -0.2618
  426TMC3    H2 6413   1.007   0.210  17.251  0.2128  1.5622 -1.3738
  426TMC3    C7 6414   0.992   0.164  17.508  0.2896  0.1977 -0.3917
  426TMC3    C8 6415   0.847   0.364  17.118 -0.3006  0.2015 -0.4517
  426TMC3    O1 6416   1.061   0.080  17.449  0.0298  0.1291  0.0326
  426TMC3    O2 6417   0.884   0.272  17.047  0.9571 -0.2528  0.5947
  427MPD2     C 6418   4.170   2.949  14.786 -0.3195  0.4160  0.0560
  427MPD2    C1 6419   4.129   2.843  14.870  0.5072  0.1714 -0.1079
  427MPD2    C2 6420   3.997   2.830  14.900 -0.2719 -0.4474  0.0298
  427MPD2    C3 6421   3.905   2.922  14.851 -0.3594 -0.2519  0.0726
  427MPD2    C4 6422   3.946   3.033  14.780 -0.3864 -0.6654 -0.2790
  427MPD2    C5 6423   4.078   3.043  14.741 -0.3246  0.2942  0.4173
  427MPD2     H 6424   3.967   2.743  14.957  0.9352 -1.4179 -0.8181
  427MPD2    H1 6425   3.873   3.108  14.753  1.7690  1.2293 -0.8074
  427MPD2    H2 6426   4.273   2.962  14.756 -0.4721 -1.7890 -1.4762
  427MPD2    H3 6427   4.122   3.123  14.682 -0.7876  0.4603  0.2939
  427MPD2     N 6428   3.769   2.920  14.877 -0.2844  0.1749 -0.7628
  427MPD2    H5 6429   3.704   2.987  14.836  1.4005  1.2710 -1.6339
  427MPD2    N1 6430   4.225   2.745  14.915  0.2334  0.1641 -0.4065
  427MPD2    H7 6431   4.187   2.679  14.981  0.0327 -0.0026 -0.6887
  428TMC3    C1 6432   4.429   2.624  14.943 -0.5547  0.0424 -0.1685
  428TMC3    C2 6433   4.385   2.568  15.064 -0.7756  0.2284 -0.2009
  428TMC3    C3 6434   4.482   2.493  15.134 -0.0572  0.2108 -0.2310
  428TMC3    C4 6435   4.555   2.601  14.897 -0.3195  0.0866 -0.7141
  428TMC3    C5 6436   4.650   2.540  14.976  0.3317  0.1436  0.4104
  428TMC3    C6 6437   4.612   2.482  15.095 -0.7105 -0.0175 -0.4720
  428TMC3     C 6438   4.355   2.735  14.884  0.5554 -0.6733 -0.6995
  428TMC3     O 6439   4.419   2.818  14.827 -0.0104 -0.2196 -0.2008
  428TMC3     H 6440   4.294   2.604  15.111 -1.6471 -1.7349 -0.3515
  428TMC3    H1 6441   4.584   2.654  14.807  0.2765 -1.7383 -1.5983
  428TMC3    H2 6442   4.687   2.427  15.152 -0.0256  1.1069 -0.2910
  428TMC3    C7 6443   0.037   2.616  14.999  0.1206 -0.0572  0.8375
  428TMC3    C8 6444   4.437   2.390  15.227  0.1633 -0.4335  0.5083
  428TMC3    O1 6445   0.072   2.617  15.113 -0.6068 -0.0057  0.7477
  428TMC3    O2 6446   4.523   2.308  15.257  0.0698 -0.2805  0.3824
  429MPD2     C 6447   0.230   2.987   0.035 -0.4085 -0.0006  0.0362
  429MPD2    C1 6448   0.322   2.907  17.724  0.1856  0.6194  0.9677
  429MPD2    C2 6449   0.389   2.973  17.625  0.6719 -0.2423  0.2660
  429MPD2    C3 6450   0.363   3.107  17.593 -0.0285  0.1250 -0.1707
  429MPD2    C4 6451   0.283   3.185  17.667 -0.2777  0.2723  0.1536
  429MPD2    C5 6452   0.218   3.119   0.009  0.0608 -0.5461  0.2105
  429MPD2     H 6453   0.462   2.922  17.563  0.6932 -0.9238  0.8578
  429MPD2    H1 6454   0.262   3.291  17.656 -1.5988 -0.0924 -0.8433
  429MPD2    H2 6455   0.166   2.958   0.118  0.7273 -0.9949  0.5685
  429MPD2    H3 6456   0.145   3.176   0.065 -0.7722 -1.3431 -0.0520
  429MPD2     N 6457   0.437   3.151  17.475 -0.6385  0.4951 -0.3707
  429MPD2    H5 6458   0.503   3.086  17.433 -1.4483 -0.1015 -0.7283
  429MPD2    N1 6459   0.347   2.774  17.753 -0.2033  0.3354 -0.1602
  429MPD2    H7 6460   0.420   2.733  17.697  1.3467  2.6521  0.1663
  430TMC3    C1 6461   0.512   3.284  17.303 -1.0115 -0.1687 -1.0107
  430TMC3    C2 6462   0.494   3.380  17.206 -0.4386 -0.1053 -0.2962
  430TMC3    C3 6463   0.581   3.396  17.104  0.4779  0.2158  0.0161
  430TMC3    C4 6464   0.614   3.190  17.286 -0.3144  0.0432  0.1408
  430TMC3    C5 6465   0.703   3.213  17.183 -0.4662  0.2300  0.8338
  430TMC3    C6 6466   0.690   3.318  17.093 -0.2548  0.1257 -0.1356
  430TMC3     C 6467   0.418   3.266  17.410  0.2565 -0.3505 -0.0643
  430TMC3     O 6468   0.339   3.355  17.437 -0.7655 -0.0468 -0.4880
  430TMC3     H 6469   0.406   3.442  17.215  0.3712  0.8894  0.7551
  430TMC3    H1 6470   0.630   3.106  17.353  0.1338 -0.0573 -0.0913
  430TMC3    H2 6471   0.772   3.338  17.025  0.3177 -0.1617  0.4669
  430TMC3    C7 6472   0.744   3.094  17.129 -0.3111 -1.0365 -0.1700
  430TMC3    C8 6473   0.523   3.425  16.973  0.0302  0.2547  0.3701
  430TMC3    O1 6474   0.759   3.001  17.208  0.1394 -0.3114 -0.1160
  430TMC3    O2 6475   0.580   3.359  16.887  0.1590 -0.1717  0.2039
  431MPD2     C 6476   1.083   3.358  12.294 -0.0616  0.3751 -0.2333
  431MPD2    C1 6477   1.188   3.401  12.210  0.0901 -0.1938  0.0536
  431MPD2    C2 6478   1.234   3.311  12.123  0.1982  0.2227  0.2899
  431MPD2    C3 6479   1.202   3.179  12.148  0.7657 -0.4920  0.0577
  431MPD2    C4 6480   1.104   3.138  12.239  0.1721 -0.7261  0.8098
  431MPD2    C5 6481   1.033   3.235  12.310 -0.3590 -0.3829 -0.6679
  431MPD2     H 6482   1.317   3.330  12.056 -2.0403  2.0759 -1.9269
  431MPD2    H1 6483   1.082   3.032  12.243 -1.0150 -0.4687  1.1452
  431MPD2    H2 6484   1.030   3.435  12.349 -0.3631  2.7682 -3.8282
  431MPD2    H3 6485   0.960   3.200  12.382 -0.1613 -0.6003 -0.5735
  431MPD2     N 6486   1.266   3.072  12.081 -0.6132 -0.6350 -0.4679
  431MPD2    H5 6487   1.235   2.979  12.109  0.2981 -1.5682 -2.5706
  431MPD2    N1 6488   1.249   3.529  12.212  0.0772 -0.0130  0.3962
  431MPD2    H7 6489   1.319   3.533  12.139  0.0817 -0.9364  0.3579
  432TMC3    C1 6490   1.422   2.943  11.950  0.1814  0.7822 -0.9767
  432TMC3    C2 6491   1.519   2.941  11.856  0.3112 -0.3428 -0.1409
  432TMC3    C3 6492   1.591   2.823  11.847  0.1441  0.0808  0.3397
  432TMC3    C4 6493   1.390   2.829  12.035 -0.1879  0.6644  0.2226
  432TMC3    C5 6494   1.491   2.730  12.043  0.0299  0.3512  0.4233
  432TMC3    C6 6495   1.583   2.727  11.947  0.2919 -0.6148 -0.3931
  432TMC3     C 6496   1.367   3.077  11.990  0.8248  0.4258 -0.0364
  432TMC3     O 6497   1.414   3.167  11.920  0.1458 -0.1319  0.5346
  432TMC3     H 6498   1.534   3.025  11.788 -1.1965 -1.8169 -2.3126
  432TMC3    H1 6499   1.298   2.826  12.093 -1.1864  0.5491 -1.3595
  432TMC3    H2 6500   1.654   2.646  11.940  0.9733  0.1053 -1.6181
  432TMC3    C7 6501   1.532   2.673  12.167 -0.3130  0.5622 -0.4693
  432TMC3    C8 6502   1.713   2.853  11.778 -0.0760 -0.1124 -0.4828
  432TMC3    O1 6503   1.641   2.617  12.153 -0.1863  0.0853 -0.1955
  432TMC3    O2 6504   1.702   2.916  11.674  0.4034  0.6114  0.2936
  433MPD2     C 6505   4.570   1.394  10.932 -0.6256  0.6921  0.4920
  433MPD2    C1 6506   4.700   1.336  10.944  0.2101 -0.0219  0.9099
  433MPD2    C2 6507   4.727   1.278  11.065  0.5013  0.2315 -0.1746
  433MPD2    C3 6508   4.648   1.307  11.174  0.4279 -0.4065  0.3939
  433MPD2    C4 6509   4.522   1.360  11.165  0.6371 -0.9203  0.5101
  433MPD2    C5 6510   4.487   1.399  11.039 -0.5261 -0.6443  0.6705
  433MPD2     H 6511   0.077   1.222  11.085 -1.1835 -2.8936 -1.4083
  433MPD2    H1 6512   4.462   1.367  11.255  2.8467  2.2486  1.7140
  433MPD2    H2 6513   4.547   1.425  10.830  2.1334 -1.4063 -0.7512
  433MPD2    H3 6514   4.388   1.439  11.019 -0.9913 -1.3915  1.4966
  433MPD2     N 6515   4.711   1.274  11.297 -0.0977 -0.0407  0.1567
  433MPD2    H5 6516   0.065   1.238  11.287 -0.7325 -0.4643 -4.1440
  433MPD2    N1 6517   0.048   1.342  10.836 -0.6849 -0.4275  0.1923
  433MPD2    H7 6518   0.019   1.375  10.745  2.7546 -2.1390 -1.5227
  434TMC3    C1 6519   0.255   1.313  10.710  0.4566 -0.1644 -0.4024
  434TMC3    C2 6520   0.393   1.322  10.726 -0.1332 -0.0696  0.3203
  434TMC3    C3 6521   0.470   1.248  10.636 -0.2999  0.0951 -0.1981
  434TMC3    C4 6522   0.193   1.268  10.599  0.0831  0.7680 -0.0338
  434TMC3    C5 6523   0.274   1.212  10.509 -0.3754 -0.1081 -0.7001
  434TMC3    C6 6524   0.412   1.185  10.533  0.8616  0.9779  0.1681
  434TMC3     C 6525   0.177   1.283  10.835 -0.6541  0.3976 -0.3730
  434TMC3     O 6526   0.258   1.260  10.927  0.0645  0.1981 -0.2107
  434TMC3     H 6527   0.426   1.355  10.824 -0.4515 -1.2409  0.8279
  434TMC3    H1 6528   0.085   1.271  10.590  0.2767  2.7787 -1.9809
  434TMC3    H2 6529   0.467   1.143  10.449  2.2374  0.2688  1.4344
  434TMC3    C7 6530   0.207   1.134  10.406 -0.4131  0.5329  0.2092
  434TMC3    C8 6531   0.591   1.196  10.694  0.1596  0.6909  0.1142
  434TMC3    O1 6532   0.092   1.160  10.382 -0.0041 -0.5345 -0.0455
  434TMC3    O2 6533   0.637   1.255  10.790 -0.1675 -0.6003 -0.1169
  435MPD2     C 6534   2.468   1.804  15.398 -1.9832  0.2569 -0.0621
  435MPD2    C1 6535   2.411   1.779  15.518  0.4471 -0.1371 -0.2417
  435MPD2    C2 6536   2.483   1.713  15.614  0.4442  0.0802  0.3574
  435MPD2    C3 6537   2.608   1.672  15.600  0.5772  0.3067 -0.8484
  435MPD2    C4 6538   2.670   1.700  15.480  0.5765  0.3277  0.3998
  435MPD2    C5 6539   2.600   1.768  15.380  0.3980 -0.3038 -1.2450
  435MPD2     H 6540   2.426   1.693  15.704 -0.8834 -1.4844 -0.8346
  435MPD2    H1 6541   2.774   1.679  15.458  0.0973 -3.1747  1.3465
  435MPD2    H2 6542   2.418   1.834  15.307  0.2706  1.7785 -0.7740
  435MPD2    H3 6543   2.641   1.780  15.280 -1.1091 -0.0619 -1.8237
  435MPD2     N 6544   2.662   1.592  15.705 -0.5453  0.0497  0.3927
  435MPD2    H5 6545   2.604   1.559  15.781 -0.0989 -0.7042  0.4085
  435MPD2    N1 6546   2.274   1.811  15.544  0.1232 -0.4714 -0.5386
  435MPD2    H7 6547   2.253   1.806  15.643 -1.4121  1.0537 -0.7987
  436TMC3    C1 6548   1.977   2.005  15.724  0.4784  1.1887  0.0680
  436TMC3    C2 6549   2.082   1.949  15.654  0.3881  0.3798  0.2546
  436TMC3    C3 6550   2.061   1.902  15.528 -0.6523  0.5686  0.1546
  436TMC3    C4 6551   1.865   2.024  15.659  0.2615  0.6303 -0.1081
  436TMC3    C5 6552   1.840   1.977  15.534 -0.3359  0.4226 -0.6269
  436TMC3    C6 6553   1.942   1.922  15.463  0.2143 -0.5305  0.1540
  436TMC3     C 6554   2.016   2.089  15.844  0.2908  0.4231 -0.6144
  436TMC3     O 6555   2.129   2.092  15.884  0.1328  0.0900 -0.2658
  436TMC3     H 6556   2.178   1.958  15.704  0.4967 -0.0303  0.1282
  436TMC3    H1 6557   1.786   2.078  15.710  0.0557 -0.6612  0.9383
  436TMC3    H2 6558   1.942   1.874  15.366  0.8713 -2.4660  1.1160
  436TMC3    C7 6559   1.758   2.063  15.456 -0.1444 -0.1199  0.5115
  436TMC3    C8 6560   2.175   1.844  15.456  0.0476 -0.2755  0.1079
  436TMC3    O1 6561   1.721   2.168  15.502  0.4264  0.2490  0.1439
  436TMC3    O2 6562   2.175   1.856  15.333 -0.1907  0.0238 -0.2401
  437TMC3    C1 6563   0.797   4.360  12.343 -0.1726 -0.2766 -0.0780
  437TMC3    C2 6564   0.723   4.432  12.255 -0.1639  0.3083  1.1095
  437TMC3    C3 6565   0.755   4.419  12.122 -0.2018  0.4741 -0.1027
  437TMC3    C4 6566   0.895   4.274  12.311  0.2550 -0.2787 -0.3520
  437TMC3    C5 6567   0.925   4.265  12.175  0.0163  0.1961 -0.2176
  437TMC3    C6 6568   0.860   4.342  12.082  0.0460  0.2954  0.1480
  437TMC3     C 6569   0.753   4.368  12.480  0.2289  1.3888 -0.7454
  437TMC3     O 6570   0.645   4.425  12.485  0.4971  0.2336  0.6278
  437TMC3     H 6571   0.632   4.486  12.275  0.1637  1.5083 -0.6323
  437TMC3    H1 6572   0.958   4.244  12.394  0.3273 -1.1194 -0.7097
  437TMC3    H2 6573   0.885   4.330  11.977 -1.2122 -0.3927 -0.0863
  437TMC3    C7 6574   1.062   4.239  12.124 -0.4920 -0.6332  0.3185
  437TMC3    C8 6575   0.722   4.539  12.048 -0.0825  0.1634 -0.4012
  437TMC3    O1 6576   1.099   4.291  12.022  0.3545 -0.0677  0.8017
  437TMC3    O2 6577   0.663   4.630  12.101 -0.4936 -0.6323 -0.3774
  438MPD2     C 6578   3.106   0.107  16.666 -0.7958  0.2776  0.4413
  438MPD2    C1 6579   3.190   0.024  16.733 -0.4010 -0.5117  0.2570
  438MPD2    C2 6580   3.197   0.023  16.872 -0.3531 -0.8559 -0.0988
  438MPD2    C3 6581   3.108   0.104  16.944 -0.6178  0.0565  0.4638
  438MPD2    C4 6582   3.014   0.178  16.875  0.9148 -0.5776 -0.0551
  438MPD2    C5 6583   3.021   0.176  16.743  0.8929  0.4144  0.0788
  438MPD2     H 6584   3.279   4.709  16.917 -0.2129 -0.4956  0.0872
  438MPD2    H1 6585   2.942   0.240  16.928 -0.0251 -2.0124  0.3357
  438MPD2    H2 6586   3.095   0.103  16.558  0.3977  0.0379  0.3271
  438MPD2    H3 6587   2.950   0.241  16.692  1.2397 -0.1060 -1.0735
  438MPD2     N 6588   3.094   0.089  17.094  0.1594 -0.2053 -0.3471
  438MPD2    H5 6589   3.014   0.132  17.141  0.6361  3.4701 -2.9546
  438MPD2    N1 6590   3.295   4.686  16.675 -0.5466  0.5066 -0.8203
  438MPD2    H7 6591   3.345   4.622  16.737  0.4640  2.1196  0.0223
  439TMC3    C1 6592   3.407   4.544  16.531  1.1783  0.2023  0.4499
  439TMC3    C2 6593   3.398   4.439  16.439 -0.2206  1.0337  0.3836
  439TMC3    C3 6594   3.479   4.324  16.451 -0.1688  1.2148  0.8254
  439TMC3    C4 6595   3.499   4.532  16.627  0.7386  0.2544 -0.1540
  439TMC3    C5 6596   3.581   4.429  16.639 -0.5186 -0.1306 -0.3732
  439TMC3    C6 6597   3.575   4.319  16.552  0.1024  0.1814  0.5348
  439TMC3     C 6598   3.302   4.639  16.543 -0.2484 -0.3474 -0.4410
  439TMC3     O 6599   3.262   4.688  16.436  0.3391  0.3979 -0.0026
  439TMC3     H 6600   3.318   4.453  16.368 -0.5294  0.0542  0.5314
  439TMC3    H1 6601   3.513   4.621  16.687 -1.1328  0.3311  0.1637
  439TMC3    H2 6602   3.638   4.232  16.559 -1.3989 -1.0476 -1.3659
  439TMC3    C7 6603   3.685   4.444  16.735  0.2083  0.0794 -0.4141
  439TMC3    C8 6604   3.501   4.234  16.342 -0.5852 -0.5773 -0.2958
  439TMC3    O1 6605   3.713   4.552  16.778 -0.2605 -0.8716  0.1275
  439TMC3    O2 6606   3.552   4.126  16.363  0.3264  0.5545 -0.6529
  440MPD2     C 6607   2.257   0.091  14.721  0.3657  0.8633  0.6845
  440MPD2    C1 6608   2.181   0.074  14.837 -0.4460 -0.1560 -0.5307
  440MPD2    C2 6609   2.186   4.693  14.901  0.7803 -0.1291 -0.2863
  440MPD2    C3 6610   2.250   4.585  14.842 -0.2135 -0.0004  0.2773
  440MPD2    C4 6611   2.322   4.613  14.732 -0.8090  0.1944  0.0648
  440MPD2    C5 6612   2.336   4.733  14.671 -0.0168  0.2144 -0.0320
  440MPD2     H 6613   2.132   4.673  14.992 -1.3072  2.2069 -0.9953
  440MPD2    H1 6614   2.368   4.528  14.683 -3.0460 -0.2956 -1.1738
  440MPD2    H2 6615   2.265   0.183  14.664 -2.6307 -1.2223 -3.0046
  440MPD2    H3 6616   2.395   0.004  14.581 -0.5197  0.2603 -0.3547
  440MPD2     N 6617   2.256   4.448  14.884 -0.0969 -0.1158 -0.0269
  440MPD2    H5 6618   2.319   4.386  14.835 -1.4490 -1.1062 -0.5056
  440MPD2    N1 6619   2.096   0.178  14.896  0.0538  0.0424  0.0059
  440MPD2    H7 6620   2.062   0.158  14.989 -1.0314  2.8503  0.2161
  441TMC3    C1 6621   2.237   4.254  15.025 -0.6766 -0.7481  0.5265
  441TMC3    C2 6622   2.372   4.244  15.033  0.0158  0.3779  0.3069
  441TMC3    C3 6623   2.426   4.183  15.143  0.4773  0.2379 -0.2019
  441TMC3    C4 6624   2.162   4.180  15.112 -0.3309 -0.8636  0.1166
  441TMC3    C5 6625   2.219   4.120  15.220  0.2925 -0.1643 -0.0110
  441TMC3    C6 6626   2.349   4.131  15.244 -0.0071 -0.0669 -0.4298
  441TMC3     C 6627   2.185   4.387  14.991  0.7860  0.0649 -0.2166
  441TMC3     O 6628   2.098   4.436  15.060 -0.5637 -0.2555  0.3228
  441TMC3     H 6629   2.445   4.282  14.961  0.4811  0.1380  0.6525
  441TMC3    H1 6630   2.055   4.193  15.107 -0.1888 -0.0852 -0.9554
  441TMC3    H2 6631   2.382   4.096  15.341  1.8689  0.2602 -0.9519
  441TMC3    C7 6632   2.136   4.110  15.331 -0.6301 -0.3462  0.4708
  441TMC3    C8 6633   2.555   4.221  15.180 -0.3037 -0.1706  0.6711
  441TMC3    O1 6634   2.196   4.123  15.439  0.3684  0.1915 -0.2772
  441TMC3    O2 6635   2.643   4.190  15.104  0.8135 -0.0850 -0.3079
  442MPD2     C 6636   4.737   0.375  17.003 -0.5585  0.2939 -0.1007
  442MPD2    C1 6637   0.006   0.392  16.868 -0.5805 -0.6247 -0.3449
  442MPD2    C2 6638   0.014   0.281  16.782 -0.1926  0.1514  0.6837
  442MPD2    C3 6639   0.023   0.151  16.833 -0.4414 -0.0012 -0.2039
  442MPD2    C4 6640   0.020   0.133  16.970 -0.2310 -0.3549  0.0064
  442MPD2    C5 6641   0.007   0.241  17.054 -0.4186 -0.3438 -0.1325
  442MPD2     H 6642   4.729   0.303  16.679 -1.2345  0.0466  0.9172
  442MPD2    H1 6643   0.044   0.037  17.014  0.3482  0.0940  0.6750
  442MPD2    H2 6644   4.730   0.455  17.077  1.4066 -0.5185  0.9770
  442MPD2    H3 6645   0.016   0.216  17.160 -1.2485 -1.6996 -0.3699
  442MPD2     N 6646   0.038   0.042  16.749  0.6045 -0.4613  0.0907
  442MPD2    H5 6647   0.055   4.691  16.791  0.8758 -0.1879  0.5732
  442MPD2    N1 6648   4.732   0.516  16.807 -0.5233  0.2048  0.5077
  442MPD2    H7 6649   4.734   0.511  16.705  0.7182 -2.6867  0.6590
  443TMC3    C1 6650   4.627   0.729  16.797 -0.0724  0.0674  0.4312
  443TMC3    C2 6651   4.564   0.703  16.682 -0.1298 -0.0148  0.2405
  443TMC3    C3 6652   4.459   0.780  16.644  0.2728  0.4600  0.0209
  443TMC3    C4 6653   4.606   0.850  16.857 -0.0706 -0.5016 -0.3028
  443TMC3    C5 6654   4.501   0.926  16.821 -0.2554 -0.2693 -0.2909
  443TMC3    C6 6655   4.422   0.890  16.716 -0.5863 -0.4831  0.1689
  443TMC3     C 6656   4.699   0.633  16.878  0.3841  0.0128 -0.2356
  443TMC3     O 6657   4.713   0.662  16.995  0.5084  0.6745  0.0463
  443TMC3     H 6658   4.581   0.607  16.633  1.3802  0.2837  0.1993
  443TMC3    H1 6659   4.671   0.874  16.940  2.3301  0.9939 -2.6046
  443TMC3    H2 6660   4.330   0.942  16.692  1.3995  3.1300  0.5076
  443TMC3    C7 6661   4.455   1.037  16.909 -0.1365  0.3332  0.2106
  443TMC3    C8 6662   4.394   0.737  16.523 -0.8446 -0.3253  0.2240
  443TMC3    O1 6663   4.411   1.133  16.848  0.0322  0.0678 -0.5916
  443TMC3    O2 6664   4.434   0.636  16.470  0.1114 -0.5854  0.4030
  444MPD2     C 6665   0.381   0.118  17.272  0.5855  0.0338  0.1278
  444MPD2    C1 6666   0.290   0.016  17.259 -0.3936 -0.4237  0.1553
  444MPD2    C2 6667   0.304   4.660  17.158 -0.0136 -0.3843  0.8038
  444MPD2    C3 6668   0.399   4.678  17.057  0.3134 -0.1575  0.1312
  444MPD2    C4 6669   0.476   0.052  17.072  0.4596 -0.6101 -0.2698
  444MPD2    C5 6670   0.464   0.141  17.174  0.6302 -0.2904 -0.4072
  444MPD2     H 6671   0.236   4.577  17.145  0.4558 -0.4778 -1.0899
  444MPD2    H1 6672   0.556   0.073  17.002  0.7702  2.3613  1.0030
  444MPD2    H2 6673   0.375   0.195  17.348  1.2512  1.1667 -0.9664
  444MPD2    H3 6674   0.524   0.230  17.188  0.0978 -0.1626  1.0890
  444MPD2     N 6675   0.425   4.589  16.953  0.1616 -0.7942  0.0519
  444MPD2    H5 6676   0.357   4.515  16.939 -1.1597  0.4562 -0.0396
  444MPD2    N1 6677   0.181   4.739  17.350 -0.8793  0.3335  0.0930
  444MPD2    H7 6678   0.115   4.665  17.328 -1.4483  1.4641 -1.9389
  445TMC3    C1 6679   0.538   4.491  16.766 -0.2847 -0.2772 -0.0405
  445TMC3    C2 6680   0.420   4.429  16.732 -0.5681  0.0464 -0.0418
  445TMC3    C3 6681   0.431   4.326  16.641  0.8134 -0.2022 -0.5066
  445TMC3    C4 6682   0.654   4.451  16.711 -0.2825  0.1221  0.2012
  445TMC3    C5 6683   0.659   4.346  16.622 -0.6860  0.3524 -0.0239
  445TMC3    C6 6684   0.548   4.283  16.585  0.3436 -0.9970  0.0939
  445TMC3     C 6685   0.542   4.584  16.883 -0.1070  0.1683 -0.3158
  445TMC3     O 6686   0.649   4.641  16.904 -0.3151 -0.2846 -0.1225
  445TMC3     H 6687   0.326   4.463  16.774 -0.1061 -0.9228  1.7705
  445TMC3    H1 6688   0.744   4.505  16.738 -0.0248 -0.0206 -0.3529
  445TMC3    H2 6689   0.550   4.211  16.504  0.2139 -1.4134  0.4672
  445TMC3    C7 6690   0.790   4.292  16.585  0.5303 -0.3257 -0.7133
  445TMC3    C8 6691   0.303   4.262  16.609 -0.5301 -0.3702  0.0806
  445TMC3    O1 6692   0.879   4.378  16.588 -0.2810  0.0340  0.0996
  445TMC3    O2 6693   0.198   4.308  16.656 -0.3754  0.3483  0.0161
  446MPD2     C 6694   0.351   0.723  10.858  0.5102 -0.3121 -0.1988
  446MPD2    C1 6695   0.265   0.825  10.868 -0.3384  0.2671  0.1941
  446MPD2    C2 6696   0.293   0.941  10.936  0.2864  0.6857 -0.2108
  446MPD2    C3 6697   0.420   0.961  10.975 -0.1862 -1.2060  0.2005
  446MPD2    C4 6698   0.512   0.860  10.972 -0.5657  0.0647 -0.0981
  446MPD2    C5 6699   0.479   0.740  10.912  0.6124 -0.3766 -0.4163
  446MPD2     H 6700   0.222   1.023  10.944  0.0111  0.1885  2.2304
  446MPD2    H1 6701   0.617   0.870  11.000 -0.5540  0.6047 -0.3312
  446MPD2    H2 6702   0.334   0.626  10.813 -2.1679  0.2972 -0.5356
  446MPD2    H3 6703   0.555   0.662  10.905 -1.3853 -2.0478 -3.5547
  446MPD2     N 6704   0.453   1.086  11.026  0.3267  0.4809  0.0400
  446MPD2    H5 6705   0.375   1.151  11.017  0.7518  1.3924  3.0233
  446MPD2    N1 6706   0.137   0.815  10.814  0.6470  0.3235  0.7033
  446MPD2    H7 6707   0.074   0.889  10.847  1.4198  0.6048  1.5512
  447TMC3    C1 6708   0.571   1.259  11.126  0.1315 -0.3201 -0.0296
  447TMC3    C2 6709   0.453   1.312  11.168 -0.3966  0.1076 -0.3123
  447TMC3    C3 6710   0.447   1.447  11.187  0.7265  0.2852  0.0443
  447TMC3    C4 6711   0.680   1.332  11.090  0.4779 -0.4595  0.0195
  447TMC3    C5 6712   0.658   1.468  11.098 -0.8102  0.3776  0.0759
  447TMC3    C6 6713   0.545   1.532  11.153  0.0382 -0.2590  0.1098
  447TMC3     C 6714   0.570   1.122  11.083 -0.1702 -0.5600  0.4255
  447TMC3     O 6715   0.669   1.055  11.116 -0.0499  0.0890 -0.0531
  447TMC3     H 6716   0.362   1.253  11.184  1.1631 -1.6526  2.1712
  447TMC3    H1 6717   0.761   1.268  11.059 -0.3875 -1.3508 -0.4269
  447TMC3    H2 6718   0.526   1.638  11.151  0.4332 -0.1651  1.2924
  447TMC3    C7 6719   0.766   1.552  11.066 -0.3042 -0.1123 -0.8142
  447TMC3    C8 6720   0.315   1.499  11.198  0.3854  0.1831  0.4576
  447TMC3    O1 6721   0.843   1.511  10.983 -0.3079  0.3012  0.0411
  447TMC3    O2 6722   0.240   1.449  11.277  0.2306 -0.4133  0.1679
  448TMC3    C1 6723   3.036   1.254  17.126  0.0842 -0.4611 -0.2225
  448TMC3    C2 6724   3.039   1.135  17.057  0.4581  0.8061 -0.2944
  448TMC3    C3 6725   3.076   1.025  17.132  0.5345  0.1838 -0.7683
  448TMC3    C4 6726   3.069   1.261  17.261 -0.1534  0.4599  0.6338
  448TMC3    C5 6727   3.088   1.146  17.332 -0.1034 -0.2052  0.0299
  448TMC3    C6 6728   3.100   1.030  17.264  0.0496 -0.3361 -0.9018
  448TMC3     C 6729   2.958   1.360  17.061 -0.3297  0.0181  0.6479
  448TMC3     O 6730   2.933   1.343  16.941 -0.4052  0.2295  0.0345
  448TMC3     H 6731   3.032   1.129  16.949 -1.0794  1.6075 -0.2443
  448TMC3    H1 6732   3.063   1.358  17.310  0.7451  1.4151 -1.1571
  448TMC3    H2 6733   3.131   0.943  17.321 -0.6686 -0.1195 -0.1864
  448TMC3    C7 6734   3.149   1.163  17.458 -0.2656  1.1428 -0.2293
  448TMC3    C8 6735   3.067   0.894  17.075 -0.2613  0.0285  0.1485
  448TMC3    O1 6736   3.209   1.272  17.483  0.5255 -0.0602  0.0226
  448TMC3    O2 6737   3.088   0.802  17.155  0.0014  0.5746  0.1701
  449MPD2     C 6738   0.261   3.997  13.990  0.2061  0.3972 -0.4692
  449MPD2    C1 6739   0.164   4.098  14.018 -0.3416  0.6099 -0.4877
  449MPD2    C2 6740   0.032   4.054  14.015 -0.1450  0.6475  0.6140
  449MPD2    C3 6741   4.728   3.922  14.000 -0.3782  0.1170  0.4449
  449MPD2    C4 6742   0.081   3.825  13.975  0.2887 -0.3228  0.4888
  449MPD2    C5 6743   0.213   3.870  13.971 -0.3961  0.1794  0.1970
  449MPD2     H 6744   4.699   4.132  14.033 -0.1637  0.7228  0.1975
  449MPD2    H1 6745   0.060   3.721  13.953 -1.0256  0.2695 -1.0464
  449MPD2    H2 6746   0.367   4.015  13.975  0.4836 -0.8555 -0.0064
  449MPD2    H3 6747   0.287   3.796  13.944  0.1342  0.2304  1.5211
  449MPD2     N 6748   4.590   3.903  13.996 -0.5740  0.0100 -0.2104
  449MPD2    H5 6749   4.539   3.991  13.997  0.4619  0.6051  0.2318
  449MPD2    N1 6750   0.191   4.233  14.053  0.2788  0.1424  0.1693
  449MPD2    H7 6751   0.109   4.289  14.075  1.9308  2.8340 -0.4478
  450TMC3    C1 6752   0.287   4.430  14.073  0.0177 -0.5414 -1.1206
  450TMC3    C2 6753   0.315   4.513  13.967 -0.5578  0.0817  0.3654
  450TMC3    C3 6754   0.224   4.618  13.949 -0.3364 -0.4219 -0.4790
  450TMC3    C4 6755   0.176   4.448  14.152 -0.6800 -0.1166 -0.1748
  450TMC3    C5 6756   0.090   4.550  14.131  0.3158  0.5192 -0.5000
  450TMC3    C6 6757   0.121   4.644  14.037 -0.2387 -0.1456  0.9392
  450TMC3     C 6758   0.310   4.290  14.051  0.1717 -0.2291  0.1517
  450TMC3     O 6759   0.414   4.251  13.999 -0.3034 -0.2399  0.2189
  450TMC3     H 6760   0.391   4.483  13.895  0.3351 -0.0230  1.3501
  450TMC3    H1 6761   0.153   4.383  14.236 -0.3928 -1.4461 -1.1189
  450TMC3    H2 6762   0.061   4.733  14.026 -1.3440 -0.9496  0.5171
  450TMC3    C7 6763   4.694   4.499  14.113  0.1159  0.8041 -0.0443
  450TMC3    C8 6764   0.253   4.725  13.859  0.0416 -0.0219 -1.4127
  450TMC3    O1 6765   4.697   4.377  14.102  0.3564 -0.0742  0.6618
  450TMC3    O2 6766   0.187   0.091  13.871  0.0684 -0.0283  0.3402
  451MPD2     C 6767   1.260   2.660   1.238  0.5485 -0.2344  0.2103
  451MPD2    C1 6768   1.372   2.737   1.211  0.6469 -0.3596  0.6436
  451MPD2    C2 6769   1.469   2.690   1.117  0.3148  0.5757  0.2714
  451MPD2    C3 6770   1.461   2.561   1.071  0.0627  0.3732  0.3085
  451MPD2    C4 6771   1.350   2.482   1.103  0.8422  0.0078  1.5881
  451MPD2    C5 6772   1.249   2.531   1.187 -0.5495 -0.2892 -0.2134
  451MPD2     H 6773   1.557   2.752   1.103  0.9708 -0.2307  0.8261
  451MPD2    H1 6774   1.345   2.382   1.061 -1.3877  0.8808 -0.2422
  451MPD2    H2 6775   1.181   2.693   1.304 -2.3862 -1.4236 -2.6970
  451MPD2    H3 6776   1.156   2.477   1.201 -1.7692  2.4651  2.5535
  451MPD2     N 6777   1.537   2.517   0.963  0.1098 -0.3196  0.5527
  451MPD2    H5 6778   1.528   2.419   0.937 -2.9465  0.1394 -0.1172
  451MPD2    N1 6779   1.360   2.869   1.256 -0.3376 -0.5365 -0.6817
  451MPD2    H7 6780   1.271   2.895   1.297 -0.3320  0.9849 -1.6180
  452TMC3    C1 6781   1.708   2.515   0.801  0.2131 -0.4725  0.0110
  452TMC3    C2 6782   1.656   2.401   0.746  0.2375 -0.0185 -0.1707
  452TMC3    C3 6783   1.676   2.382   0.614  0.6310 -0.5781 -0.7431
  452TMC3    C4 6784   1.791   2.598   0.731  0.5004  0.7752  1.2067
  452TMC3    C5 6785   1.817   2.571   0.601  0.2048  0.0566 -0.8480
  452TMC3    C6 6786   1.754   2.470   0.538 -0.4657  0.3363  0.1297
  452TMC3     C 6787   1.641   2.588   0.902 -0.2844 -0.8058 -0.2094
  452TMC3     O 6788   1.687   2.701   0.925  0.4059 -0.2649  0.1756
  452TMC3     H 6789   1.603   2.331   0.810 -0.5688  0.5244 -0.2572
  452TMC3    H1 6790   1.840   2.680   0.782  2.5794  0.5794 -0.4998
  452TMC3    H2 6791   1.766   2.449   0.433  0.0516  1.6028 -0.0739
  452TMC3    C7 6792   1.845   2.680   0.515  0.7563 -0.2654 -0.2009
  452TMC3    C8 6793   1.570   2.291   0.562 -0.3518  0.3740 -0.2009
  452TMC3    O1 6794   1.806   2.674   0.398  0.6609  0.4613 -0.1561
  452TMC3    O2 6795   1.481   2.258   0.635 -0.3052  0.2061  0.2799
  453TMC3    C1 6796   2.511   0.399  12.114  0.1611 -0.0948 -0.3038
  453TMC3    C2 6797   2.411   0.319  12.163 -0.7689 -0.0651  0.5609
  453TMC3    C3 6798   2.392   0.193  12.102  0.1987 -0.0775  0.3538
  453TMC3    C4 6799   2.584   0.370  12.012  0.0130 -0.2946 -0.6352
  453TMC3    C5 6800   2.572   0.245  11.958  0.4296  0.2886 -0.1581
  453TMC3    C6 6801   2.478   0.149  12.003  0.3039 -0.1057  0.5147
  453TMC3     C 6802   2.533   0.536  12.176  0.2347 -0.2610 -0.3097
  453TMC3     O 6803   2.647   0.583  12.162  0.3901 -0.2985  0.1306
  453TMC3     H 6804   2.336   0.346  12.236 -1.1473 -0.4047  0.3013
  453TMC3    H1 6805   2.650   0.442  11.965  0.1592  0.2348  0.3663
  453TMC3    H2 6806   2.446   0.067  11.940  1.6193 -0.3614  0.1619
  453TMC3    C7 6807   2.639   0.214  11.836  0.2957 -1.2331  0.2686
  453TMC3    C8 6808   2.306   0.095  12.180  0.2058  0.3338 -0.6224
  453TMC3    O1 6809   2.691   0.310  11.782 -0.2164 -0.1598 -0.3348
  453TMC3    O2 6810   2.264   0.137  12.287 -0.0200  0.3679  0.3747
  454MPD2     C 6811   1.091   4.419  16.138  0.3497 -0.2669  0.2875
  454MPD2    C1 6812   1.001   4.488  16.050 -0.4884  0.3977  0.2008
  454MPD2    C2 6813   0.944   4.610  16.089 -0.4014  0.0141  0.7954
  454MPD2    C3 6814   0.975   4.671  16.205  1.2141 -0.3740 -0.1905
  454MPD2    C4 6815   1.060   4.602  16.291  0.3635 -0.4390 -0.0839
  454MPD2    C5 6816   1.120   4.478  16.261 -0.1244  0.5611 -0.1053
  454MPD2     H 6817   0.857   4.645  16.034  1.1580  0.7002 -1.2447
  454MPD2    H1 6818   1.097   4.655  16.378 -0.4219  0.9375 -0.5897
  454MPD2    H2 6819   1.128   4.323  16.105  2.3974  0.2168  1.1779
  454MPD2    H3 6820   1.193   4.435  16.328 -1.0137  0.3330  0.7260
  454MPD2     N 6821   0.904   0.042  16.262 -0.3291  0.0549  0.0378
  454MPD2    H5 6822   0.926   0.060  16.359  0.7983 -1.3702  0.0568
  454MPD2    N1 6823   0.947   4.428  15.936  0.6329 -0.2329  0.1589
  454MPD2    H7 6824   0.881   4.485  15.885  0.2082  1.1922  2.3275
  455TMC3    C1 6825   0.704   0.135  16.303  0.1788 -1.3171  0.5027
  455TMC3    C2 6826   0.732   0.164  16.429  0.0338 -0.0020 -0.4614
  455TMC3    C3 6827   0.645   0.116  16.521  0.2975 -0.3580 -0.0178
  455TMC3    C4 6828   0.608   0.045  16.266  0.4306 -0.6778  0.0929
  455TMC3    C5 6829   0.515   0.002  16.357 -0.4375 -0.4620  0.1369
  455TMC3    C6 6830   0.531   0.044  16.490 -0.2462  1.1349 -0.2572
  455TMC3     C 6831   0.809   0.114  16.207  0.9153  0.0279 -0.7841
  455TMC3     O 6832   0.788   0.127  16.088  0.0866  0.1671 -0.4093
  455TMC3     H 6833   0.817   0.227  16.453 -0.8406  0.9327  0.1748
  455TMC3    H1 6834   0.590   0.019  16.162  1.1254 -0.4128 -0.0969
  455TMC3    H2 6835   0.471   0.006  16.572  2.6267  1.8027  2.1219
  455TMC3    C7 6836   0.493   4.599  16.348  0.1462  0.1077  0.1699
  455TMC3    C8 6837   0.660   0.165  16.654 -0.2932  0.2288 -0.0877
  455TMC3    O1 6838   0.412   4.551  16.423  0.5990  0.4490  0.4979
  455TMC3    O2 6839   0.769   0.182  16.696 -0.4298 -0.2173  0.1469
  456MPD2     C 6840   3.562   0.113  16.130  0.3339 -0.9045  0.4499
  456MPD2    C1 6841   3.613   0.023  16.225 -0.5564 -0.0346 -0.6902
  456MPD2    C2 6842   3.591   0.051  16.357  0.4994 -0.2535  0.0006
  456MPD2    C3 6843   3.523   0.172  16.397  0.0072  0.5330  0.2062
  456MPD2    C4 6844   3.474   0.256  16.300 -0.4417 -0.2264  0.5963
  456MPD2    C5 6845   3.505   0.229  16.174 -0.9567 -0.8693 -0.3517
  456MPD2     H 6846   3.635   4.726  16.432  0.4701 -2.6214 -2.0379
  456MPD2    H1 6847   3.420   0.343  16.335 -2.9016 -1.9841  1.2228
  456MPD2    H2 6848   3.579   0.091  16.025 -0.1509  2.0444 -0.2220
  456MPD2    H3 6849   3.471   0.299  16.098  0.3053  0.6512  0.4848
  456MPD2     N 6850   3.494   0.207  16.529 -0.0238 -0.1835 -0.4262
  456MPD2    H5 6851   3.430   0.283  16.547 -0.3652 -0.2449 -1.3511
  456MPD2    N1 6852   3.691   4.656  16.183  0.3345  0.3134 -0.2346
  456MPD2    H7 6853   3.684   4.636  16.084 -1.5078  1.4440 -0.3360
  457TMC3    C1 6854   3.510   0.187  16.768  0.6933  0.4202 -0.0382
  457TMC3    C2 6855   3.424   0.286  16.779  0.1126 -0.1821 -0.3345
  457TMC3    C3 6856   3.402   0.340  16.902 -0.1934  0.1013 -0.6322
  457TMC3    C4 6857   3.575   0.128  16.869  0.5032  0.2340  0.2207
  457TMC3    C5 6858   3.539   0.172  17.001 -0.0090 -0.3151  0.7467
  457TMC3    C6 6859   3.457   0.282  17.012 -0.4681 -0.5901 -0.2659
  457TMC3     C 6860   3.555   0.141  16.636  1.0704 -0.5166 -0.2268
  457TMC3     O 6861   3.654   0.066  16.639  0.4128 -0.3933 -0.3735
  457TMC3     H 6862   3.377   0.329  16.691  0.2585  1.7237  0.5320
  457TMC3    H1 6863   3.634   0.038  16.857 -0.0216  0.4303 -3.7526
  457TMC3    H2 6864   3.441   0.320  17.112 -0.4013  2.1467 -1.2935
  457TMC3    C7 6865   3.588   0.090  17.117  0.8477  0.3515  0.6429
  457TMC3    C8 6866   3.310   0.453  16.908 -0.7215 -0.0631 -0.3183
  457TMC3    O1 6867   3.676   0.008  17.091  0.2115  0.0895 -0.1111
  457TMC3    O2 6868   3.326   0.525  17.007  0.1246 -0.2697 -0.0956
  458MPD2     C 6869   1.539   4.216  12.296  0.4597 -1.0084 -0.1913
  458MPD2    C1 6870   1.458   4.175  12.397  0.3892 -0.3439 -0.0661
  458MPD2    C2 6871   1.322   4.149  12.368 -0.0659 -0.4419 -0.1311
  458MPD2    C3 6872   1.270   4.188  12.247  0.1761  0.6296  0.2385
  458MPD2    C4 6873   1.349   4.224  12.141 -0.0161  0.2510 -0.1985
  458MPD2    C5 6874   1.484   4.232  12.172  0.3425  0.4814  0.4617
  458MPD2     H 6875   1.249   4.109  12.437  1.5296 -1.1971  1.1123
  458MPD2    H1 6876   1.322   4.230  12.037 -3.3879  0.7617  0.7150
  458MPD2    H2 6877   1.645   4.217  12.321  0.8543  0.9550 -1.9598
  458MPD2    H3 6878   1.556   4.256  12.095  0.6577 -1.9312  0.0142
  458MPD2     N 6879   1.133   4.185  12.236  0.4741 -0.2436  0.4488
  458MPD2    H5 6880   1.082   4.146  12.314  0.6076 -2.0299 -0.3542
  458MPD2    N1 6881   1.518   4.163  12.526  0.0111  0.6358 -0.8063
  458MPD2    H7 6882   1.614   4.195  12.535 -0.6003  1.3786  2.7674
  459TMC3    C1 6883   1.516   4.155  12.760 -0.0212 -0.2974 -0.5564
  459TMC3    C2 6884   1.608   4.259  12.762  0.0085 -0.3630  0.0255
  459TMC3    C3 6885   1.650   4.311  12.885 -0.5971  0.7600  1.3431
  459TMC3    C4 6886   1.463   4.107  12.877  0.6363  0.8388 -0.2320
  459TMC3    C5 6887   1.506   4.168  12.993  0.6316  0.3883 -0.8836
  459TMC3    C6 6888   1.599   4.263  13.001  0.0894 -0.4993  0.9355
  459TMC3     C 6889   1.447   4.126  12.637  0.6456  0.1300 -0.1422
  459TMC3     O 6890   1.338   4.078  12.648 -0.2938  0.7216 -0.2996
  459TMC3     H 6891   1.649   4.300  12.671  0.8250  1.3557  1.1613
  459TMC3    H1 6892   1.378   4.040  12.878  0.1606  1.4496  0.2997
  459TMC3    H2 6893   1.613   4.331  13.085 -1.5946  2.2644 -1.0068
  459TMC3    C7 6894   1.463   4.113  13.118  1.0979 -0.1086 -0.1586
  459TMC3    C8 6895   1.772   4.382  12.880  0.7513 -0.5088  0.2229
  459TMC3    O1 6896   1.448   4.198  13.200  0.6732  0.5168  0.2008
  459TMC3    O2 6897   1.799   4.443  12.778  0.0302  0.0459 -0.2517
  460MPD2     C 6898   0.051   1.643  11.176 -0.6617 -0.2112  0.2317
  460MPD2    C1 6899   0.148   1.649  11.081  0.2948 -0.8557 -0.1730
  460MPD2    C2 6900   0.128   1.730  10.974  0.0324  0.2620  0.1645
  460MPD2    C3 6901   0.014   1.797  10.958  0.6984 -0.0218 -0.3163
  460MPD2    C4 6902   4.656   1.796  11.053  0.2284  0.3664 -0.2125
  460MPD2    C5 6903   4.674   1.719  11.166 -0.2004  0.3241  0.1347
  460MPD2     H 6904   0.203   1.739  10.897  1.2193 -0.7648  1.2108
  460MPD2    H1 6905   4.566   1.855  11.037  0.5324  1.0292  0.5052
  460MPD2    H2 6906   0.070   1.581  11.263 -0.4158 -0.2981  0.1145
  460MPD2    H3 6907   4.594   1.713  11.239 -0.7458  1.3247 -0.3816
  460MPD2     N 6908   0.008   1.870  10.839 -0.5522 -0.1902 -0.8390
  460MPD2    H5 6909   0.078   1.843  10.771 -0.1779 -1.6800  0.1279
  460MPD2    N1 6910   0.282   1.592  11.097 -0.4280  0.2272  0.6298
  460MPD2    H7 6911   0.352   1.600  11.024 -0.8873 -0.6922  0.0757
  461TMC3    C1 6912   4.678   2.015  10.667  0.0570 -0.7500  0.2808
  461TMC3    C2 6913   4.716   1.925  10.578 -0.0475  0.4379  0.4365
  461TMC3    C3 6914   4.716   1.962  10.442  0.5863 -0.0156 -0.2531
  461TMC3    C4 6915   4.635   2.138  10.633 -0.2316 -0.0787 -0.4579
  461TMC3    C5 6916   4.630   2.163  10.499  0.1369 -0.1567 -0.5111
  461TMC3    C6 6917   4.675   2.082  10.403 -0.1343  0.0391 -0.5528
  461TMC3     C 6918   4.671   1.977  10.813 -0.6834 -0.0547 -0.1795
  461TMC3     O 6919   4.614   2.055  10.889 -0.0677  0.5127  0.0385
  461TMC3     H 6920   4.736   1.823  10.610 -3.2737 -0.1223  0.5878
  461TMC3    H1 6921   4.602   2.209  10.708  1.3210 -2.9120  2.9519
  461TMC3    H2 6922   4.664   2.103  10.297 -1.8264  1.4523 -0.0867
  461TMC3    C7 6923   4.552   2.266  10.440 -0.1367  0.0891  0.0690
  461TMC3    C8 6924   4.712   1.851  10.351  0.7163  0.1730 -0.0088
  461TMC3    O1 6925   4.514   2.255  10.323 -0.6262 -0.0027  0.6274
  461TMC3    O2 6926   4.679   1.741  10.394 -0.2753 -0.2734  0.5450
  462TMC3    C1 6927   0.921   2.980   0.983 -0.7220  0.6092 -0.1741
  462TMC3    C2 6928   1.057   2.962   1.012 -0.3632 -0.0369  0.2016
  462TMC3    C3 6929   1.101   2.841   0.983 -0.0812 -0.2780 -0.2051
  462TMC3    C4 6930   0.842   2.877   0.940 -0.5295  0.1647 -0.6779
  462TMC3    C5 6931   0.896   2.754   0.926 -0.2010 -0.3960 -0.2592
  462TMC3    C6 6932   1.025   2.733   0.947 -0.3596 -0.5765 -0.7793
  462TMC3     C 6933   0.867   3.109   1.012 -0.2865 -0.7648 -0.0105
  462TMC3     O 6934   0.947   3.195   1.044  0.5457 -0.0067  0.2653
  462TMC3     H 6935   1.119   3.048   1.036  2.1393 -0.7923 -3.7235
  462TMC3    H1 6936   0.735   2.892   0.931 -0.7105 -0.6863  0.1506
  462TMC3    H2 6937   1.070   2.639   0.976  3.9676  2.4827  2.3924
  462TMC3    C7 6938   0.847   2.657   0.835  0.2072  0.2462 -0.8650
  462TMC3    C8 6939   1.230   2.848   0.909  0.2093 -0.2151  0.2241
  462TMC3    O1 6940   0.910   2.551   0.839 -0.2604 -0.0014  0.3727
  462TMC3    O2 6941   1.301   2.944   0.918 -0.1512  1.0273  0.3400
  463MPD2     C 6942   1.956   0.972   0.835 -0.1809  0.4929 -0.3371
  463MPD2    C1 6943   1.862   1.042   0.914  0.1406 -0.8423 -0.4280
  463MPD2    C2 6944   1.896   1.162   0.963  0.3194  0.5231  0.1124
  463MPD2    C3 6945   2.020   1.218   0.932  0.7485 -0.3604 -0.2493
  463MPD2    C4 6946   2.108   1.160   0.846 -0.2956 -0.0589  0.5250
  463MPD2    C5 6947   2.075   1.034   0.803 -0.0822  0.0646 -0.5029
  463MPD2     H 6948   1.822   1.211   1.025 -1.2132 -1.2137 -0.3493
  463MPD2    H1 6949   2.197   1.203   0.801 -2.1865  2.7553 -0.5127
  463MPD2    H2 6950   1.938   0.873   0.797  0.0790 -0.9440  3.2356
  463MPD2    H3 6951   2.132   0.975   0.732 -1.5384 -1.2860 -0.5644
  463MPD2     N 6952   2.065   1.339   0.983  0.3492 -0.3421 -0.2719
  463MPD2    H5 6953   2.152   1.376   0.947  0.7116 -0.8152  0.1299
  463MPD2    N1 6954   1.731   0.990   0.947 -0.4484 -0.4048 -0.0790
  463MPD2    H7 6955   1.669   1.054   0.996  0.4946  0.2336  0.2778
  464TMC3    C1 6956   1.572   0.819   0.997  0.5998 -0.5773  0.5637
  464TMC3    C2 6957   1.477   0.916   1.023  0.2376  0.0779 -0.0851
  464TMC3    C3 6958   1.370   0.872   1.101  0.5162 -0.3607  0.2749
  464TMC3    C4 6959   1.558   0.689   1.033 -0.4351  0.1866  0.8196
  464TMC3    C5 6960   1.444   0.649   1.089 -0.1154 -0.7339 -0.2418
  464TMC3    C6 6961   1.356   0.740   1.145 -0.4993 -0.5309  0.3100
  464TMC3     C 6962   1.695   0.857   0.929  0.0488  0.6907 -0.0247
  464TMC3     O 6963   1.759   0.765   0.880  0.3569  0.5527 -0.1765
  464TMC3     H 6964   1.482   1.012   0.974  0.5043 -1.2879 -2.7047
  464TMC3    H1 6965   1.623   0.612   0.995 -1.3168  0.4278 -1.2037
  464TMC3    H2 6966   1.268   0.704   1.196 -1.2896  0.7345 -0.1535
  464TMC3    C7 6967   1.399   0.520   1.040 -0.0335 -0.1112 -0.2166
  464TMC3    C8 6968   1.298   0.972   1.173 -0.3598  0.2567 -1.2256
  464TMC3    O1 6969   1.488   0.442   1.006 -0.0903  0.0654 -0.7383
  464TMC3    O2 6970   1.301   1.084   1.121  0.3415 -0.5340 -0.8161
  465MPD2     C 6971   2.676   0.319  16.927  0.4700  0.7211 -0.2722
  465MPD2    C1 6972   2.578   0.229  16.926  0.0737  0.3441 -0.1671
  465MPD2    C2 6973   2.525   0.199  16.803  0.2758 -0.3198  0.1441
  465MPD2    C3 6974   2.582   0.235  16.679 -0.1766 -0.7556 -0.1032
  465MPD2    C4 6975   2.691   0.319  16.684  0.4359  0.4815 -0.3545
  465MPD2    C5 6976   2.729   0.364  16.808  0.1562  0.2816 -0.4164
  465MPD2     H 6977   2.430   0.147  16.794  1.3470 -1.9896 -1.7564
  465MPD2    H1 6978   2.743   0.362  16.599 -2.7637  1.1896 -1.9644
  465MPD2    H2 6979   2.718   0.363  17.017  1.9435  1.5487 -1.3642
  465MPD2    H3 6980   2.794   0.451  16.807  0.7022 -0.1165  1.7988
  465MPD2     N 6981   2.522   0.187  16.558  0.7745 -0.1502 -0.7256
  465MPD2    H5 6982   2.440   0.128  16.567  0.0121  0.8505 -1.2510
  465MPD2    N1 6983   2.522   0.180  17.046 -0.4361 -0.2294 -0.0373
  465MPD2    H7 6984   2.452   0.108  17.028 -2.5357  1.1564  2.5481
  466TMC3    C1 6985   2.233   0.166  16.322 -0.1432  0.4672 -0.0788
  466TMC3    C2 6986   2.228   0.279  16.255  0.0204 -0.1139  0.0763
  466TMC3    C3 6987   2.340   0.333  16.210  0.4305 -0.8469  0.1321
  466TMC3    C4 6988   2.357   0.113  16.363 -0.0408 -0.0839  0.1410
  466TMC3    C5 6989   2.465   0.183  16.327  0.3831 -0.1833 -0.0555
  466TMC3    C6 6990   2.463   0.286  16.236 -0.3318  0.2696  0.2956
  466TMC3     C 6991   2.111   0.125  16.393  0.1401  0.1932 -0.1766
  466TMC3     O 6992   2.129   0.044  16.484  0.5528  0.1863  0.2019
  466TMC3     H 6993   2.139   0.330  16.219  1.0796  0.4181 -1.7747
  466TMC3    H1 6994   2.360   0.018  16.415 -0.8031 -0.1375  0.0931
  466TMC3    H2 6995   2.554   0.345  16.225 -0.3015  0.1269 -0.2283
  466TMC3    C7 6996   2.561   0.216  16.428 -0.4196  0.2310 -0.0301
  466TMC3    C8 6997   2.334   0.471  16.176  0.6595  0.2639  0.3465
  466TMC3    O1 6998   2.668   0.271  16.387  0.4031  0.7419  0.6062
  466TMC3    O2 6999   2.399   0.496  16.075  0.2170 -0.4844  0.0464
  467TMC3    C1 7000   3.260   3.356  13.543 -0.2538  0.0775 -0.1116
  467TMC3    C2 7001   3.208   3.465  13.612 -0.3659 -0.2811 -0.6530
  467TMC3    C3 7002   3.149   3.456  13.736 -0.2999 -0.3857  0.7825
  467TMC3    C4 7003   3.217   3.235  13.587 -0.4011  0.9173  0.1014
  467TMC3    C5 7004   3.140   3.222  13.704  0.3960  0.8627  0.3235
  467TMC3    C6 7005   3.121   3.334  13.788 -0.6043  0.1725  0.3882
  467TMC3     C 7006   3.404   3.368  13.539 -0.3438  0.5946  0.1323
  467TMC3     O 7007   3.475   3.295  13.605  0.3724 -0.5378  0.0207
  467TMC3     H 7008   3.235   3.562  13.571 -0.2670  0.2432  0.6355
  467TMC3    H1 7009   3.226   3.148  13.523 -1.5981  1.1169 -0.3262
  467TMC3    H2 7010   3.084   3.333  13.889  2.2130 -1.9875  1.3851
  467TMC3    C7 7011   3.123   3.090  13.765 -0.0369 -0.3751 -0.2830
  467TMC3    C8 7012   3.225   3.547  13.823  0.4175 -0.0383  0.6771
  467TMC3    O1 7013   3.211   3.011  13.736 -0.4752  0.1597  0.6356
  467TMC3    O2 7014   3.222   3.666  13.805 -0.3348  0.2919  0.0187
  468MPD2     C 7015   2.366   1.388  11.021  0.3899 -0.2641 -0.0902
  468MPD2    C1 7016   2.489   1.348  10.972  0.4124 -0.2478  0.9945
  468MPD2    C2 7017   2.512   1.217  10.981  0.0561  0.4782 -0.4346
  468MPD2    C3 7018   2.431   1.117  11.023 -0.2802 -0.7542  0.3905
  468MPD2    C4 7019   2.309   1.155  11.057 -0.5575 -0.6222  0.1213
  468MPD2    C5 7020   2.277   1.287  11.054  0.5128 -0.5874  0.2120
  468MPD2     H 7021   2.613   1.180  10.967  1.1750  1.8657  3.9847
  468MPD2    H1 7022   2.229   1.098  11.104  0.8619 -0.9429  2.1749
  468MPD2    H2 7023   2.325   1.488  11.031  0.7493 -0.1319  0.0440
  468MPD2    H3 7024   2.185   1.322  11.101  0.7637  0.5506 -0.1440
  468MPD2     N 7025   2.470   0.978  11.044  0.0106  0.6322  0.0710
  468MPD2    H5 7026   2.397   0.912  11.071 -0.3375  1.6509  1.6169
  468MPD2    N1 7027   2.597   1.428  10.933  0.1711 -0.1827 -0.3432
  468MPD2    H7 7028   2.687   1.385  10.914  0.5252 -0.2071  1.4772
  469TMC3    C1 7029   2.727   1.619  10.939 -0.6935  0.9338 -0.3347
  469TMC3    C2 7030   2.826   1.543  11.005 -0.2278 -0.8188  0.1616
  469TMC3    C3 7031   2.948   1.591  11.007  0.3194 -0.0222  0.0373
  469TMC3    C4 7032   2.751   1.746  10.897 -0.2574  0.2964  0.0422
  469TMC3    C5 7033   2.881   1.791  10.912 -0.3370  0.1484 -0.3519
  469TMC3    C6 7034   2.978   1.715  10.966  0.1686 -0.0533 -0.0619
  469TMC3     C 7035   2.592   1.566  10.936  0.3463  0.2917  0.4289
  469TMC3     O 7036   2.497   1.640  10.956  0.2348  0.0343  0.6355
  469TMC3     H 7037   2.820   1.439  11.032  1.5065 -0.7901  0.6370
  469TMC3    H1 7038   2.688   1.804  10.831 -2.2438 -0.8517  0.9220
  469TMC3    H2 7039   3.062   1.775  11.001 -0.0527  0.3555 -0.2283
  469TMC3    C7 7040   2.913   1.933  10.884  0.2152  0.2478 -0.2999
  469TMC3    C8 7041   3.022   1.538  11.113 -0.3243  0.2694 -0.0759
  469TMC3    O1 7042   3.030   1.967  10.863  0.6406 -0.0637 -0.7713
  469TMC3    O2 7043   3.136   1.505  11.087 -0.4495 -0.0261 -0.0032
  470TMC3    C1 7044   4.275   2.490   1.358  0.0980  0.4710  0.2236
  470TMC3    C2 7045   4.373   2.573   1.408 -1.0342  0.4929  0.4592
  470TMC3    C3 7046   4.356   2.708   1.420  0.0234  0.2815  0.5596
  470TMC3    C4 7047   4.155   2.539   1.321 -0.6282 -0.2781  0.4750
  470TMC3    C5 7048   4.136   2.675   1.330 -0.8193  0.3510  0.4451
  470TMC3    C6 7049   4.239   2.758   1.370 -0.3190  0.0388 -0.8239
  470TMC3     C 7050   4.283   2.347   1.383  0.6297 -0.3173  0.0405
  470TMC3     O 7051   4.393   2.296   1.393  0.6549 -0.1322  0.7569
  470TMC3     H 7052   4.469   2.527   1.430 -1.3749  0.5227  2.0180
  470TMC3    H1 7053   4.074   2.485   1.273 -0.3198  0.0806 -0.4331
  470TMC3    H2 7054   4.223   2.865   1.373  1.8022  0.3223  0.1030
  470TMC3    C7 7055   4.010   2.724   1.284 -0.6786 -0.5055  0.3430
  470TMC3    C8 7056   4.475   2.791   1.415 -0.1775 -0.7640 -0.9384
  470TMC3    O1 7057   3.945   2.660   1.204 -0.4370 -0.5401 -0.0386
  470TMC3    O2 7058   4.457   2.897   1.359 -0.6369  0.2018 -0.8515
  471MPD2     C 7059   0.229   3.572  16.582 -0.1249  0.0561 -0.0791
  471MPD2    C1 7060   0.295   3.456  16.609  0.2182 -0.0870 -0.2824
  471MPD2    C2 7061   0.371   3.440  16.725 -0.0612  0.4084  0.5710
  471MPD2    C3 7062   0.364   3.532  16.830  1.0616 -0.6336  0.3282
  471MPD2    C4 7063   0.296   3.649  16.802 -0.8167  0.2346  0.2116
  471MPD2    C5 7064   0.227   3.667  16.685  0.0008  0.2000 -0.1135
  471MPD2     H 7065   0.422   3.345  16.736  0.8371  0.8347  0.0618
  471MPD2    H1 7066   0.297   3.735  16.868 -0.0563 -1.7114  2.7661
  471MPD2    H2 7067   0.175   3.597  16.492 -0.8529 -2.4392 -0.3344
  471MPD2    H3 7068   0.187   3.767  16.671 -0.4067  0.2070  1.0936
  471MPD2     N 7069   0.418   3.509  16.958  0.3516 -0.3163  0.1915
  471MPD2    H5 7070   0.402   3.571  17.037 -2.3375 -2.8022  1.5806
  471MPD2    N1 7071   0.296   3.348  16.522  0.3496  0.1421  0.3538
  471MPD2    H7 7072   0.366   3.276  16.537  0.6175  0.7737  2.1809
  472TMC3    C1 7073   0.243   3.212  16.322 -0.2530 -1.5223 -0.7162
  472TMC3    C2 7074   0.214   3.209  16.189  0.0348 -0.0002 -0.2511
  472TMC3    C3 7075   0.260   3.095  16.135  0.1710  0.3299 -0.1944
  472TMC3    C4 7076   0.298   3.102  16.386  0.5110 -0.2068 -0.3002
  472TMC3    C5 7077   0.330   2.990  16.329 -0.4821  0.7401 -0.7727
  472TMC3    C6 7078   0.319   2.990  16.200  0.1946 -0.0994  0.6493
  472TMC3     C 7079   0.234   3.341  16.397  0.2056 -0.5010 -0.7071
  472TMC3     O 7080   0.129   3.395  16.361  0.3040 -0.4460 -0.5894
  472TMC3     H 7081   0.162   3.287  16.134  0.9991  0.5705 -0.3674
  472TMC3    H1 7082   0.322   3.110  16.492 -0.4156 -1.4812  0.0063
  472TMC3    H2 7083   0.340   2.897  16.147  0.2517  1.7708 -2.6317
  472TMC3    C7 7084   0.287   2.865  16.403  0.2622 -0.0396 -0.2925
  472TMC3    C8 7085   0.193   3.044  16.018  0.4577 -0.2027  0.7351
  472TMC3    O1 7086   0.286   2.862  16.526 -0.3063 -0.6612  0.1139
  472TMC3    O2 7087   0.270   2.987  15.944  0.3204  0.0041  0.4471
  473MPD2     C 7088   0.542   0.823  14.027  0.7468 -0.6200 -0.4962
  473MPD2    C1 7089   0.500   0.938  13.963 -0.3655  0.4366 -0.5849
  473MPD2    C2 7090   0.511   1.061  14.034  0.2032  0.7399  0.4680
  473MPD2    C3 7091   0.545   1.059  14.169 -0.2859  0.0804 -0.2215
  473MPD2    C4 7092   0.583   0.943  14.233 -0.2387 -0.1563  0.4412
  473MPD2    C5 7093   0.587   0.829  14.159 -0.0898  0.3114  0.3193
  473MPD2     H 7094   0.488   1.155  13.986  1.8859  1.2306  0.6342
  473MPD2    H1 7095   0.611   0.948  14.338 -1.4021  0.9326  0.7072
  473MPD2    H2 7096   0.543   0.734  13.965 -0.2780  0.4854 -2.1186
  473MPD2    H3 7097   0.611   0.734  14.205  0.4159 -0.2837 -1.1920
  473MPD2     N 7098   0.531   1.179  14.248  0.0398  0.1704  0.3672
  473MPD2    H5 7099   0.569   1.170  14.341  1.9042  1.7134 -0.2350
  473MPD2    N1 7100   0.451   0.945  13.833 -0.4841 -0.2361  0.0559
  473MPD2    H7 7101   0.417   1.036  13.802  0.9848  0.0694 -0.6496
  474TMC3    C1 7102   0.481   1.402  14.300 -0.0076 -0.4203  0.6740
  474TMC3    C2 7103   0.380   1.492  14.288  0.4278 -0.0386 -0.2127
  474TMC3    C3 7104   0.410   1.624  14.303 -0.1122  0.1585 -0.6626
  474TMC3    C4 7105   0.610   1.434  14.332  0.7923  0.0392 -0.4042
  474TMC3    C5 7106   0.633   1.564  14.371  0.3060  0.0549  0.1014
  474TMC3    C6 7107   0.538   1.663  14.346 -0.3680 -0.0625 -0.6661
  474TMC3     C 7108   0.462   1.291  14.211 -0.9160  0.1025  0.0266
  474TMC3     O 7109   0.372   1.304  14.132  0.6914 -0.5120 -0.2803
  474TMC3     H 7110   0.282   1.475  14.247  0.5151 -0.6689 -0.1604
  474TMC3    H1 7111   0.670   1.346  14.352 -1.6795 -1.7031 -0.7276
  474TMC3    H2 7112   0.571   1.764  14.366 -0.4574  0.1792 -1.7508
  474TMC3    C7 7113   0.767   1.599  14.408 -0.6270 -0.0946  0.1283
  474TMC3    C8 7114   0.367   1.693  14.179 -0.3457  0.2128 -0.2538
  474TMC3    O1 7115   0.862   1.550  14.348 -0.0647  0.5820 -0.2140
  474TMC3    O2 7116   0.308   1.624  14.095 -0.8261  0.4455 -0.3798
  475MPD2     C 7117   3.029   3.968  10.870 -0.1860  0.2685  0.9543
  475MPD2    C1 7118   3.007   4.093  10.922 -0.1812  0.0868 -0.0265
  475MPD2    C2 7119   2.881   4.115  10.975  0.7915  1.1275 -0.8001
  475MPD2    C3 7120   2.780   4.024  10.969  0.5560  0.1674 -0.0783
  475MPD2    C4 7121   2.800   3.911  10.888 -0.2673  0.4442  0.1613
  475MPD2    C5 7122   2.923   3.888  10.839  0.0709 -0.5079  0.4512
  475MPD2     H 7123   2.864   4.209  11.025 -1.6633  0.6703 -0.7891
  475MPD2    H1 7124   2.720   3.840  10.868  0.3389  0.0244 -0.7458
  475MPD2    H2 7125   3.123   3.935  10.827 -1.1712 -0.1211 -0.8825
  475MPD2    H3 7126   2.941   3.799  10.779 -0.7131 -1.3015  1.3873
  475MPD2     N 7127   2.663   4.052  11.035  0.6569  0.0634 -0.4775
  475MPD2    H5 7128   2.647   4.140  11.084  1.5983 -0.4075  0.6676
  475MPD2    N1 7129   3.106   4.195  10.941  0.3805 -0.2358  0.2203
  475MPD2    H7 7130   3.069   4.284  10.971 -2.9854 -0.8096 -2.2401
  476TMC3    C1 7131   3.318   4.307  10.968  0.4923  0.6636  0.1661
  476TMC3    C2 7132   3.443   4.324  10.917  0.0656  0.4542 -0.0937
  476TMC3    C3 7133   3.528   4.417  10.969  0.2048 -0.0267  0.0811
  476TMC3    C4 7134   3.281   4.385  11.075 -1.1468  0.4294 -0.3054
  476TMC3    C5 7135   3.368   4.476  11.126 -0.3217  0.2551 -0.1042
  476TMC3    C6 7136   3.492   4.497  11.074 -0.0015 -0.6772 -0.1064
  476TMC3     C 7137   3.241   4.187  10.916  0.3386 -0.6010  0.1239
  476TMC3     O 7138   3.297   4.103  10.848  0.0139 -0.6044  0.4222
  476TMC3     H 7139   3.484   4.248  10.850  0.9492  1.9807 -1.2942
  476TMC3    H1 7140   3.180   4.372  11.111 -0.8556 -1.0351 -0.0561
  476TMC3    H2 7141   3.569   4.552  11.125 -0.7703  1.9576 -1.7766
  476TMC3    C7 7142   3.332   4.555  11.245 -0.8474 -0.4610  0.0570
  476TMC3    C8 7143   3.646   4.463  10.896  0.1839 -0.1639  0.1651
  476TMC3    O1 7144   3.267   4.504  11.338 -0.4912 -0.1442 -0.3169
  476TMC3    O2 7145   3.721   4.544  10.959  0.1880  0.0124  0.0630
  477MPD2     C 7146   1.447   0.817  11.708  0.0250 -0.1241 -0.0541
  477MPD2    C1 7147   1.341   0.742  11.669  0.2511  0.2201 -0.2570
  477MPD2    C2 7148   1.315   0.622  11.738  0.3495 -0.0274  0.6324
  477MPD2    C3 7149   1.392   0.585  11.844 -0.0188  0.5232  0.2819
  477MPD2    C4 7150   1.484   0.676  11.894  0.3560  0.2650 -0.0475
  477MPD2    C5 7151   1.512   0.784  11.826 -0.0999  0.3827 -1.3016
  477MPD2     H 7152   1.226   0.571  11.702  1.9003 -2.5008  0.2700
  477MPD2    H1 7153   1.535   0.671  11.989  0.1741  1.1704  0.1027
  477MPD2    H2 7154   1.472   0.910  11.658  3.9702 -1.0279  0.1934
  477MPD2    H3 7155   1.596   0.846  11.854  1.6502 -2.4891 -0.1510
  477MPD2     N 7156   1.366   0.462  11.919 -0.2233  0.2735  0.5945
  477MPD2    H5 7157   1.298   0.392  11.891  0.8391  0.4636 -2.5530
  477MPD2    N1 7158   1.268   0.787  11.552  0.3840 -0.5520  0.5486
  477MPD2    H7 7159   1.296   0.880  11.524  0.7256 -0.8399 -0.0710
  478TMC3    C1 7160   1.116   0.808  11.387 -0.1694  0.0733 -0.2844
  478TMC3    C2 7161   1.096   0.940  11.427 -0.5755  0.1511  0.5804
  478TMC3    C3 7162   1.023   1.017  11.349  0.4556  0.0646  0.5496
  478TMC3    C4 7163   1.062   0.755  11.273 -0.0124 -0.7274 -0.3669
  478TMC3    C5 7164   0.992   0.837  11.192 -0.5158 -0.3794  0.4355
  478TMC3    C6 7165   0.972   0.966  11.226 -0.4432 -0.7922 -0.0149
  478TMC3     C 7166   1.167   0.719  11.480 -0.2809 -0.2928 -0.2933
  478TMC3     O 7167   1.135   0.601  11.485  0.3870 -0.4621  0.0158
  478TMC3     H 7168   1.135   0.985  11.517  2.4628 -1.7641  0.2383
  478TMC3    H1 7169   1.083   0.655  11.237  1.0493 -1.1284  1.3462
  478TMC3    H2 7170   0.915   1.041  11.173 -1.4396 -0.6799  1.2216
  478TMC3    C7 7171   0.941   0.784  11.065  0.3958 -0.1878  0.0778
  478TMC3    C8 7172   0.973   1.147  11.394 -0.1720 -0.2123 -0.1222
  478TMC3    O1 7173   0.972   0.670  11.035 -0.0880  0.2756  0.9812
  478TMC3    O2 7174   1.037   1.252  11.371  0.3412  0.4403 -0.3321
  479MPD2     C 7175   0.266   2.798  14.770  0.6891  0.4699  0.5155
  479MPD2    C1 7176   0.188   2.781  14.881  1.0733 -0.2505  0.3806
  479MPD2    C2 7177   0.209   2.860  14.991 -0.5596 -0.6523  0.1507
  479MPD2    C3 7178   0.305   2.959  14.980 -0.1758  0.1413 -0.5572
  479MPD2    C4 7179   0.366   2.995  14.866  0.5686  0.5374  0.4247
  479MPD2    C5 7180   0.345   2.906  14.762 -0.1217  0.0093  0.0049
  479MPD2     H 7181   0.139   2.852  15.073 -1.2648  2.3978 -0.1507
  479MPD2    H1 7182   0.442   3.071  14.857  1.5817 -0.5400 -0.2278
  479MPD2    H2 7183   0.255   2.735  14.682  1.5157  2.7174 -1.1965
  479MPD2    H3 7184   0.395   2.902  14.666 -1.1171  1.5603 -0.5728
  479MPD2     N 7185   0.329   3.039  15.091 -0.4642  0.3810 -0.0624
  479MPD2    H5 7186   0.380   3.123  15.065  1.8352 -0.7377  0.8801
  479MPD2    N1 7187   0.091   2.675  14.883 -0.0223  0.8821  0.0624
  479MPD2    H7 7188   0.063   2.646  14.790 -1.2820  2.1094  0.0576
  480TMC3    C1 7189   0.143   3.160  15.500  0.4229  0.1073  0.1407
  480TMC3    C2 7190   0.092   3.273  15.437 -0.0511 -0.1799  0.1740
  480TMC3    C3 7191   0.144   3.304  15.313 -0.2427 -0.6901  0.6923
  480TMC3    C4 7192   0.233   3.075  15.432 -0.8440 -1.2285 -0.2507
  480TMC3    C5 7193   0.282   3.118  15.312 -0.8592  0.5824 -0.0965
  480TMC3    C6 7194   0.234   3.230  15.248  0.1440  0.5146  0.2064
  480TMC3     C 7195   0.048   3.083  15.569  0.1149 -0.2643  0.2463
  480TMC3     O 7196   0.079   2.968  15.585 -0.4658  0.2266  0.2060
  480TMC3     H 7197   0.028   3.345  15.485 -1.0041 -0.4618 -0.6799
  480TMC3    H1 7198   0.263   2.978  15.468  2.8761 -0.8416 -2.3111
  480TMC3    H2 7199   0.287   3.274  15.164 -0.2216  0.3978 -0.0877
  480TMC3    C7 7200   0.301   3.001  15.223 -0.4448 -0.9475  0.5503
  480TMC3    C8 7201   0.040   3.367  15.232  0.2053  0.4940 -0.1842
  480TMC3    O1 7202   0.288   2.888  15.270  0.6783  0.6710  0.0768
  480TMC3    O2 7203   4.686   3.421  15.286 -0.7009 -0.4895 -0.1571
  481MPD2     C 7204   1.658   2.378  13.896 -1.4779 -0.7125  0.5925
  481MPD2    C1 7205   1.532   2.386  13.953  0.5314  0.2211 -0.2495
  481MPD2    C2 7206   1.518   2.435  14.083  0.7666 -0.2282  0.7784
  481MPD2    C3 7207   1.632   2.484  14.150  0.1414 -0.1266 -0.1937
  481MPD2    C4 7208   1.753   2.473  14.092 -0.1271  0.0016 -0.3062
  481MPD2    C5 7209   1.764   2.414  13.967 -0.3045  0.0952  0.1268
  481MPD2     H 7210   1.417   2.439  14.123  0.5729  0.9055  0.1551
  481MPD2    H1 7211   1.841   2.507  14.145 -0.4994  1.9985 -0.9475
  481MPD2    H2 7212   1.672   2.346  13.793 -1.6358  0.3949  0.2268
  481MPD2    H3 7213   1.862   2.409  13.920 -1.4381  0.4040 -2.2951
  481MPD2     N 7214   1.632   2.527  14.284  0.2257 -0.4178 -0.3250
  481MPD2    H5 7215   1.718   2.542  14.336 -1.6100  0.7043  2.3851
  481MPD2    N1 7216   1.428   2.331  13.880  0.2726 -0.6985 -0.4468
  481MPD2    H7 7217   1.466   2.272  13.807 -0.3900 -0.1566 -1.2274
  482TMC3    C1 7218   1.225   2.257  13.797  0.4716 -0.5604 -0.0511
  482TMC3    C2 7219   1.225   2.123  13.805 -0.2227  0.1300  0.0465
  482TMC3    C3 7220   1.129   2.056  13.735 -0.1489 -0.0946  0.3225
  482TMC3    C4 7221   1.134   2.324  13.722 -0.2294  0.0280  0.0030
  482TMC3    C5 7222   1.044   2.245  13.655  0.0077  0.7402  0.8740
  482TMC3    C6 7223   1.036   2.116  13.647  0.2527 -0.0512 -0.6689
  482TMC3     C 7224   1.294   2.324  13.901 -0.5493 -0.3740  0.0354
  482TMC3     O 7225   1.221   2.370  13.992  0.5510  0.1391  0.2785
  482TMC3     H 7226   1.300   2.069  13.861 -2.4540 -3.4208 -0.4373
  482TMC3    H1 7227   1.145   2.431  13.717  0.1613 -0.0172 -0.0839
  482TMC3    H2 7228   0.964   2.061  13.586 -0.2556 -0.2827  0.1392
  482TMC3    C7 7229   0.939   2.314  13.582  0.5999  0.4599  0.2143
  482TMC3    C8 7230   1.128   1.915  13.725  0.2474 -0.4649 -0.1529
  482TMC3    O1 7231   0.847   2.253  13.527 -0.2304 -0.5712 -0.4772
  482TMC3    O2 7232   1.234   1.856  13.715  0.1359  0.1454 -0.2895
  483TMC3    C1 7233   4.164   1.583   1.077 -0.4041 -0.4742 -0.4803
  483TMC3    C2 7234   4.246   1.669   1.145 -0.0331 -0.0605  0.6595
  483TMC3    C3 7235   4.379   1.657   1.122 -0.4712  1.1907 -0.9630
  483TMC3    C4 7236   4.212   1.471   1.010 -0.0139  0.3444 -0.4256
  483TMC3    C5 7237   4.349   1.466   0.996 -0.2299 -0.1847 -0.3730
  483TMC3    C6 7238   4.436   1.547   1.057 -0.8834 -0.0518  0.3012
  483TMC3     C 7239   4.019   1.599   1.067 -0.0163 -0.5048  0.2757
  483TMC3     O 7240   3.968   1.668   1.154 -0.4333  0.2345  0.0963
  483TMC3     H 7241   4.205   1.760   1.187 -1.3438 -0.7330  0.8376
  483TMC3    H1 7242   4.160   1.380   0.985 -2.3555  1.5953 -0.0983
  483TMC3    H2 7243   4.542   1.533   1.043 -1.3926  0.3433 -4.0330
  483TMC3    C7 7244   4.405   1.343   0.961 -0.2555 -0.8454  0.4509
  483TMC3    C8 7245   4.478   1.757   1.166 -0.3095  0.9192  0.1720
  483TMC3    O1 7246   4.513   1.312   1.012  0.1837  0.1962  0.1312
  483TMC3    O2 7247   4.466   1.822   1.269 -0.2635 -0.2210 -0.3083
  484MPD2     C 7248   2.015   4.396  13.162 -0.1748  0.1094 -0.2281
  484MPD2    C1 7249   1.957   4.433  13.041  1.1859  0.5321  0.2517
  484MPD2    C2 7250   2.026   4.524  12.966 -0.7526  0.1268 -0.0002
  484MPD2    C3 7251   2.156   4.567  12.992 -0.0380  0.2264  0.5545
  484MPD2    C4 7252   2.216   4.531  13.107  0.0284  0.1489  0.6057
  484MPD2    C5 7253   2.143   4.449  13.191 -0.7420 -0.1348 -0.7209
  484MPD2     H 7254   1.986   4.547  12.868  0.9051 -0.8477 -0.9017
  484MPD2    H1 7255   2.311   4.575  13.137 -0.6986  0.4130  2.5075
  484MPD2    H2 7256   1.959   4.325  13.222  3.2751 -0.5715  2.1228
  484MPD2    H3 7257   2.195   4.408  13.277 -1.5192  1.7929  0.6518
  484MPD2     N 7258   2.233   4.644  12.904 -0.6493 -0.3003  0.1027
  484MPD2    H5 7259   2.327   4.660  12.938 -0.5468  0.0391 -0.3323
  484MPD2    N1 7260   1.842   4.371  13.000 -0.0790  0.0949 -0.1635
  484MPD2    H7 7261   1.811   4.310  13.075  1.1672  1.9629  1.8785
  485TMC3    C1 7262   2.321   4.740  12.710  0.1328  0.2094 -0.5326
  485TMC3    C2 7263   2.419   0.057  12.782  0.1881 -0.2351  0.4539
  485TMC3    C3 7264   2.544   0.071  12.732  0.1997  0.2926  0.6508
  485TMC3    C4 7265   2.340   4.693  12.581 -0.1611 -0.2370  0.1166
  485TMC3    C5 7266   2.457   4.730  12.528 -0.2238 -0.1715 -0.6610
  485TMC3    C6 7267   2.557   0.046  12.595 -0.2928 -0.3183 -0.3507
  485TMC3     C 7268   2.201   4.693  12.783 -0.3842 -0.1462 -0.2022
  485TMC3     O 7269   2.091   4.695  12.727  0.4350 -0.0317 -0.2905
  485TMC3     H 7270   2.400   0.094  12.882 -0.3751  1.0354 -0.1119
  485TMC3    H1 7271   2.268   4.643  12.519 -1.4535  0.1403  1.3073
  485TMC3    H2 7272   2.652   0.037  12.545 -0.4779  1.8193 -1.0769
  485TMC3    C7 7273   2.499   4.644  12.421 -0.5586  0.0310  0.5472
  485TMC3    C8 7274   2.660   0.019  12.805 -0.3453 -0.2927  0.3242
  485TMC3    O1 7275   2.485   4.522  12.431 -0.3372 -0.0878  0.4193
  485TMC3    O2 7276   2.770   0.012  12.748  0.1086  0.1589  0.2038
  486MPD2     C 7277   4.087   3.557  13.135 -0.4990 -0.1892 -0.2740
  486MPD2    C1 7278   4.068   3.499  13.014  0.4516 -0.7445  0.0010
  486MPD2    C2 7279   4.003   3.570  12.916 -0.3360  0.4259 -0.3422
  486MPD2    C3 7280   3.945   3.698  12.939  0.3167  0.2842  0.3606
  486MPD2    C4 7281   3.937   3.742  13.067 -0.3428  0.0920  0.3351
  486MPD2    C5 7282   4.013   3.667  13.160  0.0986 -0.2598  0.3945
  486MPD2     H 7283   4.005   3.531  12.815 -1.1432 -0.3724 -0.0559
  486MPD2    H1 7284   3.896   3.835  13.104  1.0398  0.8436  0.0140
  486MPD2    H2 7285   4.142   3.515  13.219  0.1092  1.0233 -0.0618
  486MPD2    H3 7286   4.025   3.712  13.258  1.8037  0.2297 -0.0497
  486MPD2     N 7287   3.880   3.767  12.838 -0.0448  0.0740  0.0644
  486MPD2    H5 7288   3.882   3.723  12.747  0.6441 -0.8031  0.5122
  486MPD2    N1 7289   4.116   3.365  12.993  0.3116 -0.5748  0.2010
  486MPD2    H7 7290   4.175   3.326  13.065  2.0558  1.5638 -0.0762
  487TMC3    C1 7291   4.125   3.146  12.900  0.0932 -0.9895  0.3221
  487TMC3    C2 7292   4.054   3.046  12.837  0.4253  0.0227 -0.1680
  487TMC3    C3 7293   4.100   2.916  12.849 -0.1093  0.5297 -0.3502
  487TMC3    C4 7294   4.232   3.112  12.982 -0.6380  0.2063  0.1825
  487TMC3    C5 7295   4.274   2.986  12.990  0.3699  0.0849  0.4777
  487TMC3    C6 7296   4.215   2.894  12.916  0.5890 -0.1273 -0.1872
  487TMC3     C 7297   4.073   3.281  12.895  0.4430  0.0461 -0.5538
  487TMC3     O 7298   3.964   3.305  12.841  0.4877 -0.4297 -0.6801
  487TMC3     H 7299   3.951   3.063  12.808  0.4506  1.9801  0.8918
  487TMC3    H1 7300   4.277   3.189  13.044 -0.8577  1.6453 -1.4323
  487TMC3    H2 7301   4.246   2.791  12.932  1.0676  0.0208 -0.1601
  487TMC3    C7 7302   4.283   2.956  13.133 -0.5759 -0.4436  1.0815
  487TMC3    C8 7303   4.016   2.796  12.829  0.4674 -0.1397  0.4053
  487TMC3    O1 7304   4.379   2.995  13.201  0.2700 -0.3718 -0.8673
  487TMC3    O2 7305   4.065   2.690  12.795  0.3330 -0.0102  0.0854
  488MPD2     C 7306   4.322   4.702  16.342  0.3969  0.2770 -0.5442
  488MPD2    C1 7307   4.363   0.088  16.350 -0.0837  0.2311  0.0782
  488MPD2    C2 7308   4.398   0.140  16.479  0.0085 -0.1077  0.0864
  488MPD2    C3 7309   4.377   0.068  16.592  1.0961  0.2157  0.4384
  488MPD2    C4 7310   4.338   4.673  16.580 -0.3001 -0.7354 -0.8965
  488MPD2    C5 7311   4.311   4.624  16.451  0.9339  0.5901  0.1473
  488MPD2     H 7312   4.422   0.245  16.486 -0.0697 -0.1449  0.8818
  488MPD2    H1 7313   4.321   4.606  16.663  1.5130 -0.4387 -0.2683
  488MPD2    H2 7314   4.292   4.649  16.252 -1.6262 -0.1060  0.3575
  488MPD2    H3 7315   4.274   4.523  16.441  0.6660  0.5113  1.8740
  488MPD2     N 7316   4.389   0.138  16.718  0.8136 -0.0002 -0.6826
  488MPD2    H5 7317   4.384   0.240  16.719 -1.2245 -0.0978 -0.9757
  488MPD2    N1 7318   4.371   0.166  16.234 -0.1112  0.6804 -0.5274
  488MPD2    H7 7319   4.378   0.265  16.257 -0.2932  0.4221  0.6383
  489TMC3    C1 7320   4.367   0.162  16.951 -0.0187  0.1134 -0.1738
  489TMC3    C2 7321   4.387   0.298  16.947  0.3193  0.1989  0.5466
  489TMC3    C3 7322   4.390   0.365  17.070 -0.5902 -0.3966  0.3005
  489TMC3    C4 7323   4.356   0.098  17.077  0.0523  0.3472 -0.5578
  489TMC3    C5 7324   4.340   0.172  17.192 -0.1570  0.1984 -0.1048
  489TMC3    C6 7325   4.353   0.306  17.187  0.0021  0.4933 -0.2949
  489TMC3     C 7326   4.393   0.075  16.839  0.1705 -0.3321 -0.1379
  489TMC3     O 7327   4.431   4.700  16.852 -0.0423 -0.0580 -0.1765
  489TMC3     H 7328   4.418   0.350  16.857 -1.0774 -0.3578 -0.2644
  489TMC3    H1 7329   4.342   4.730  17.079  3.7629 -0.1919 -2.7685
  489TMC3    H2 7330   4.327   0.376  17.265  1.8658  1.1470 -0.2526
  489TMC3    C7 7331   4.351   0.116  17.328  0.6382 -0.2126 -0.0579
  489TMC3    C8 7332   4.413   0.506  17.060 -0.1041  0.0028 -0.8381
  489TMC3    O1 7333   4.403   0.191  17.408 -0.4963  0.4506 -0.0293
  489TMC3    O2 7334   4.387   0.556  16.956  0.2285  0.8780 -0.1708
  490MPD2     C 7335   0.222   4.442  17.744 -0.3667  0.2225  0.5915
  490MPD2    C1 7336   0.255   4.326   0.047 -0.6529 -0.0462 -0.9303
  490MPD2    C2 7337   0.385   4.307   0.090  0.3071 -0.3163  0.5346
  490MPD2    C3 7338   0.480   4.404   0.073  0.9155 -0.3456 -0.2248
  490MPD2    C4 7339   0.435   4.525   0.027  0.4747 -0.5856 -0.0193
  490MPD2    C5 7340   0.305   4.544  17.747 -0.0539  0.5134  0.5019
  490MPD2     H 7341   0.410   4.207   0.124 -0.4352 -0.6572  0.0898
  490MPD2    H1 7342   0.504   4.608   0.027 -0.2906  0.0395 -2.0963
  490MPD2    H2 7343   0.123   4.454  17.702 -1.1526 -0.5484  2.2066
  490MPD2    H3 7344   0.280   4.646  17.720  3.2475  0.8231 -1.3517
  490MPD2     N 7345   0.615   4.396   0.097 -0.3236 -0.0331 -0.2032
  490MPD2    H5 7346   0.681   4.461   0.054  0.4139 -0.3397  0.4610
  490MPD2    N1 7347   0.166   4.212   0.040 -0.0871  0.1075  0.6857
  490MPD2    H7 7348   0.183   4.124   0.088  2.6508 -0.0227 -0.5410
  491TMC3    C1 7349   0.008   4.063  17.690 -0.3233 -0.1838 -0.3806
  491TMC3    C2 7350   0.011   3.973   0.040  0.2764 -0.6407 -0.0851
  491TMC3    C3 7351   4.720   3.839   0.021  0.0413  0.1974 -0.3487
  491TMC3    C4 7352   4.709   4.015  17.569 -0.1246 -0.1601 -0.9867
  491TMC3    C5 7353   4.671   3.881  17.554  0.3758  0.4137 -0.2845
  491TMC3    C6 7354   4.674   3.789  17.656 -0.8274 -0.2138  0.0534
  491TMC3     C 7355   0.072   4.199  17.694 -0.0625  0.6706  0.4776
  491TMC3     O 7356   0.045   4.275  17.599  0.8050  0.5603 -0.0405
  491TMC3     H 7357   0.037   4.007   0.139  0.7110 -0.4857 -0.2506
  491TMC3    H1 7358   4.728   4.077  17.481 -0.6924  1.4554  0.0326
  491TMC3    H2 7359   4.643   3.687  17.638 -0.0149  0.2177 -3.7329
  491TMC3    C7 7360   4.626   3.826  17.426 -0.3366 -0.3213  0.1340
  491TMC3    C8 7361   0.001   3.737   0.124  0.1146 -0.1490  1.0233
  491TMC3    O1 7362   4.626   3.706  17.417  0.1126  0.3974 -0.4866
  491TMC3    O2 7363   4.684   3.627   0.108  0.2302  0.3063  0.3791
  492MPD2     C 7364   1.176   4.257  11.040 -0.6014 -0.1150  0.6676
  492MPD2    C1 7365   1.043   4.222  11.026  0.4174 -0.8128  0.6959
  492MPD2    C2 7366   0.983   4.121  11.106  0.5831  0.2167 -0.0918
  492MPD2    C3 7367   1.053   4.069  11.218 -0.2406  0.1835  0.2438
  492MPD2    C4 7368   1.187   4.107  11.228  0.0795  0.2583  0.1769
  492MPD2    C5 7369   1.249   4.193  11.137  0.9362  0.1349 -0.2417
  492MPD2     H 7370   0.882   4.088  11.083  0.2446  1.1444  0.0719
  492MPD2    H1 7371   1.243   4.055  11.305  0.5090 -1.8287 -1.5502
  492MPD2    H2 7372   1.233   4.327  10.980 -2.4184  0.4631 -0.4111
  492MPD2    H3 7373   1.355   4.216  11.136  0.6645  1.3400 -1.4405
  492MPD2     N 7374   0.996   3.982  11.313 -0.7383 -0.1320  0.4124
  492MPD2    H5 7375   1.043   3.970  11.402 -0.3549 -0.7606  0.1216
  492MPD2    N1 7376   0.971   4.298  10.933  0.6298  0.0160  0.0292
  492MPD2    H7 7377   1.020   4.349  10.860 -2.2774 -1.4529 -2.9278
  493TMC3    C1 7378   0.772   4.329  10.813 -0.0418 -0.2405 -0.3958
  493TMC3    C2 7379   0.854   4.350  10.709  0.0577 -0.1269  0.5763
  493TMC3    C3 7380   0.814   4.287  10.594 -0.4911 -0.3413 -0.1035
  493TMC3    C4 7381   0.658   4.253  10.811 -0.0340  0.4814 -0.1785
  493TMC3    C5 7382   0.628   4.190  10.690  0.2533  0.6592 -0.0909
  493TMC3    C6 7383   0.708   4.201  10.579 -0.2418 -0.1848  0.3007
  493TMC3     C 7384   0.836   4.310  10.942 -0.0611 -0.8904  0.2337
  493TMC3     O 7385   0.763   4.280  11.032  0.4151  0.5409 -0.1259
  493TMC3     H 7386   0.941   4.415  10.719 -0.5383  0.5689  1.1844
  493TMC3    H1 7387   0.597   4.235  10.899 -0.7566  3.2504 -0.1180
  493TMC3    H2 7388   0.682   4.144  10.490 -0.6793  0.2889  0.1298
  493TMC3    C7 7389   0.506   4.113  10.669  0.1809 -0.3485  0.4382
  493TMC3    C8 7390   0.887   4.313  10.473 -0.0450 -0.0854 -0.9932
  493TMC3    O1 7391   0.461   4.101  10.557 -0.7251  0.0054 -0.2035
  493TMC3    O2 7392   0.878   4.227  10.387  0.8260 -0.0890  0.0464
  494TMC3    C1 7393   0.884   1.074   0.438  0.4971  0.6363 -0.2516
  494TMC3    C2 7394   0.939   0.955   0.473 -0.1487  0.5291  0.1843
  494TMC3    C3 7395   1.013   0.879   0.385 -0.0019 -0.0839 -0.2421
  494TMC3    C4 7396   0.899   1.123   0.310  0.3692 -0.2668 -0.3832
  494TMC3    C5 7397   0.980   1.048   0.226  0.3613 -1.2066  0.5944
  494TMC3    C6 7398   1.032   0.928   0.258  0.4068  0.5939 -0.4464
  494TMC3     C 7399   0.825   1.155   0.541 -0.8342 -0.1839  0.0499
  494TMC3     O 7400   0.859   1.133   0.654 -0.4180 -0.3785 -0.2985
  494TMC3     H 7401   0.947   0.935   0.579  1.7114  1.0577  0.1587
  494TMC3    H1 7402   0.861   1.216   0.269  1.7787  0.3814 -0.2280
  494TMC3    H2 7403   1.101   0.876   0.192 -1.0440 -0.6327 -1.0081
  494TMC3    C7 7404   1.037   1.121   0.110  0.0375 -0.3381 -0.4134
  494TMC3    C8 7405   1.090   0.773   0.435  0.6734  0.1195 -0.1346
  494TMC3    O1 7406   1.085   1.063   0.010 -0.0380  0.0271  0.3932
  494TMC3    O2 7407   1.202   0.770   0.385 -0.0103  0.1042  0.6502
  495TMC3    C1 7408   0.118   3.023  14.285  0.1659 -0.3767  0.3123
  495TMC3    C2 7409   0.008   3.032  14.206  0.6443  0.2754  0.4453
  495TMC3    C3 7410   4.652   3.126  14.240 -0.3791  0.5935  0.2522
  495TMC3    C4 7411   0.139   3.086  14.405 -0.3425 -0.0113 -0.4336
  495TMC3    C5 7412   0.037   3.167  14.448 -0.5264 -0.0988  0.1404
  495TMC3    C6 7413   4.667   3.187  14.364  0.0641 -0.0216 -0.2385
  495TMC3     C 7414   0.185   2.891  14.273 -0.8662  0.9600 -0.2646
  495TMC3     O 7415   0.111   2.801  14.238  0.4367 -0.3336  0.0192
  495TMC3     H 7416   4.725   2.971  14.119  2.2978  1.2631 -0.6804
  495TMC3    H1 7417   0.217   3.060  14.476  0.9746 -1.3519 -2.3672
  495TMC3    H2 7418   4.576   3.230  14.405 -1.8368 -3.7052 -0.5627
  495TMC3    C7 7419   0.047   3.216  14.587 -0.2124  0.9495 -0.2877
  495TMC3    C8 7420   4.523   3.133  14.176 -0.2174  0.3268  0.0256
  495TMC3    O1 7421   0.147   3.186  14.653 -0.0127  0.4820 -0.3972
  495TMC3    O2 7422   4.425   3.147  14.243 -0.5304  0.1526  0.6739
  496MPD2     C 7423   1.916   3.188  15.472  0.0751  0.2460  0.4060
  496MPD2    C1 7424   1.838   3.083  15.503 -0.3180  0.4915  0.6965
  496MPD2    C2 7425   1.764   3.086  15.625 -1.2462 -0.7805 -0.1710
  496MPD2    C3 7426   1.757   3.203  15.700 -0.6800  0.4008  0.2023
  496MPD2    C4 7427   1.836   3.310  15.664  0.3519  0.0594 -0.2572
  496MPD2    C5 7428   1.907   3.304  15.547 -0.6659 -0.1329  0.8149
  496MPD2     H 7429   1.703   3.000  15.650 -0.5032 -0.5252  2.5203
  496MPD2    H1 7430   1.839   3.399  15.726  1.7124  0.8378 -1.4352
  496MPD2    H2 7431   1.983   3.191  15.387  0.8400  0.0067  0.9971
  496MPD2    H3 7432   1.978   3.382  15.520 -0.5064  0.8322  3.9387
  496MPD2     N 7433   1.672   3.213  15.811  0.4298 -0.2153  0.1865
  496MPD2    H5 7434   1.603   3.138  15.814 -0.2235  0.2906 -2.7660
  496MPD2    N1 7435   1.851   2.976  15.409 -0.2735 -0.5374  0.0027
  496MPD2    H7 7436   1.913   2.992  15.330 -0.9606 -2.5461 -0.9201
  497TMC3    C1 7437   1.604   3.256  16.017 -0.2890 -0.2834 -0.4032
  497TMC3    C2 7438   1.476   3.235  15.987  0.5465  0.3133  0.1013
  497TMC3    C3 7439   1.400   3.184  16.084 -0.6313  0.5334 -0.0134
  497TMC3    C4 7440   1.666   3.229  16.139 -0.6210 -0.4492  0.1879
  497TMC3    C5 7441   1.581   3.166  16.226 -0.7669 -0.5311 -0.0431
  497TMC3    C6 7442   1.445   3.149  16.206  0.6707  0.4710  0.0598
  497TMC3     C 7443   1.689   3.296  15.917 -0.4670  0.2722 -0.1278
  497TMC3     O 7444   1.796   3.348  15.948  0.2988  0.2617  0.1904
  497TMC3     H 7445   1.435   3.265  15.892 -1.1747 -0.8235  0.4682
  497TMC3    H1 7446   1.769   3.258  16.158 -0.1885 -2.9023  1.5834
  497TMC3    H2 7447   1.389   3.086  16.273 -0.2859  2.0487  0.7359
  497TMC3    C7 7448   1.631   3.106  16.346  0.0824 -0.7204 -0.3560
  497TMC3    C8 7449   1.258   3.171  16.061 -0.5244  0.8414  0.3647
  497TMC3    O1 7450   1.547   3.068  16.425 -0.1009 -0.0857 -0.2953
  497TMC3    O2 7451   1.226   3.244  15.967 -0.3327 -0.2569  0.6687
  498MPD2     C 7452   2.172   0.021  10.566 -0.5772  0.1546  0.3222
  498MPD2    C1 7453   2.251   4.698  10.471  0.3943 -0.5138  0.0490
  498MPD2    C2 7454   2.284   4.571  10.485  0.2310  0.3710 -0.8688
  498MPD2    C3 7455   2.236   4.500  10.589  0.0023 -0.7442 -0.4368
  498MPD2    C4 7456   2.146   4.558  10.675  0.3829  0.4439  0.2501
  498MPD2    C5 7457   2.111   4.690  10.663 -0.2248  0.4236  0.2614
  498MPD2     H 7458   2.353   4.524  10.416 -1.5103 -1.4805 -1.3451
  498MPD2    H1 7459   2.110   4.497  10.757 -0.1600  0.4398  0.0102
  498MPD2    H2 7460   2.157   0.128  10.556  0.1088  0.3463  1.4499
  498MPD2    H3 7461   2.060   4.728  10.751  0.9261  1.2345  0.5817
  498MPD2     N 7462   2.280   4.363  10.598  0.3233 -0.4602 -0.4016
  498MPD2    H5 7463   2.359   4.328  10.544  0.2678 -1.8595  0.4275
  498MPD2    N1 7464   2.310   0.040  10.366  0.1390  0.2533  0.2520
  498MPD2    H7 7465   2.364   4.735  10.292  0.1636 -0.1459  0.5122
  499TMC3    C1 7466   2.354   0.198  10.204 -0.4277 -0.2788  0.2302
  499TMC3    C2 7467   2.283   0.281  10.123  0.3960 -0.2160  0.7719
  499TMC3    C3 7468   2.317   0.291   9.992  0.2484  0.6157  0.4861
  499TMC3    C4 7469   2.465   0.127  10.166 -0.1703 -0.1936  0.1143
  499TMC3    C5 7470   2.487   0.136  10.032 -0.3701 -0.1733 -0.1780
  499TMC3    C6 7471   2.423   0.221   9.947 -1.6305  0.4867 -0.2945
  499TMC3     C 7472   2.291   0.166  10.328 -0.4548  0.6404  0.8458
  499TMC3     O 7473   2.237   0.256  10.387 -0.1877 -0.0371  0.3567
  499TMC3     H 7474   2.203   0.339  10.168 -0.4062 -1.4596  0.9488
  499TMC3    H1 7475   2.529   0.069  10.233  0.9877  1.0249  0.0593
  499TMC3    H2 7476   2.464   0.241   9.848  0.1481  0.5242  0.4547
  499TMC3    C7 7477   2.621   0.089   9.986 -0.4358 -0.9332 -0.1953
  499TMC3    C8 7478   2.257   0.393   9.902 -0.0096 -0.0808 -0.1533
  499TMC3    O1 7479   2.633   0.009   9.895  0.9275 -0.3699  0.0509
  499TMC3    O2 7480   2.274   0.383   9.782 -0.1327 -0.5631 -0.4054
  500MPD2     C 7481   4.574   0.298  10.753 -0.6658  0.8877 -0.0888
  500MPD2    C1 7482   4.602   0.291  10.618 -0.0633  0.5677 -0.0814
  500MPD2    C2 7483   4.504   0.315  10.528  0.4503 -0.4695  0.4018
  500MPD2    C3 7484   4.377   0.349  10.570  0.2394  0.2063 -0.6632
  500MPD2    C4 7485   4.347   0.352  10.701 -0.1640 -1.0871 -0.2341
  500MPD2    C5 7486   4.444   0.324  10.797  0.1295  0.1501  0.9932
  500MPD2     H 7487   4.537   0.317  10.425  1.1412 -0.9849  0.6190
  500MPD2    H1 7488   4.245   0.375  10.730  0.1273  2.2879 -1.8981
  500MPD2    H2 7489   4.649   0.285  10.829  0.6504  0.0845 -1.5276
  500MPD2    H3 7490   4.423   0.333  10.903 -2.8755 -0.0719  0.4043
  500MPD2     N 7491   4.269   0.354  10.480  0.1284  0.4352 -0.3338
  500MPD2    H5 7492   4.177   0.350  10.524  0.3064 -1.2674 -0.1180
  500MPD2    N1 7493   4.737   0.269  10.572  0.4911  0.0707 -0.5827
  500MPD2    H7 7494   0.013   0.278  10.472 -0.3234 -1.3197 -0.8371
  501TMC3    C1 7495   0.233   0.244  10.560 -0.8619  0.1985 -0.3607
  501TMC3    C2 7496   0.248   0.349  10.469 -0.0071  0.3959  0.6763
  501TMC3    C3 7497   0.375   0.378  10.427  0.1472  0.4313  0.2091
  501TMC3    C4 7498   0.341   0.182  10.623 -0.0064  0.1454  0.5597
  501TMC3    C5 7499   0.465   0.231  10.591  0.6355 -0.6497  0.4316
  501TMC3    C6 7500   0.486   0.326  10.490 -0.6827  0.2342  0.6310
  501TMC3     C 7501   0.110   0.243  10.640  0.5179 -0.0225 -0.4365
  501TMC3     O 7502   0.115   0.208  10.760 -0.4785  0.1416 -0.2194
  501TMC3     H 7503   0.165   0.416  10.450 -0.1173 -0.5282 -2.0921
  501TMC3    H1 7504   0.324   0.102  10.693 -1.6853  0.9000  1.0143
  501TMC3    H2 7505   0.586   0.355  10.461 -0.0739 -0.6699  1.8278
  501TMC3    C7 7506   0.559   0.195  10.691 -0.1300  0.1994  0.2040
  501TMC3    C8 7507   0.388   0.515  10.372  0.1354  0.5329 -0.3054
  501TMC3    O1 7508   0.550   0.081  10.737 -0.4682  0.0111  0.2147
  501TMC3    O2 7509   0.485   0.581  10.408  0.1951  0.4137  0.3805
  502TMC3    C1 7510   4.213   4.196  15.040 -0.3023 -0.6148  0.6325
  502TMC3    C2 7511   4.155   4.318  15.032  0.5616 -0.2146 -0.0062
  502TMC3    C3 7512   4.023   4.320  15.036  0.3840  0.2471 -0.1895
  502TMC3    C4 7513   4.130   4.086  15.039 -0.2583  0.3673  0.6891
  502TMC3    C5 7514   3.990   4.091  15.043  0.0565  0.5741 -0.4918
  502TMC3    C6 7515   3.937   4.214  15.053 -0.4204  0.4172  0.6317
  502TMC3     C 7516   4.317   4.195  15.137  0.2987 -0.1226 -0.2819
  502TMC3     O 7517   4.404   4.281  15.133 -0.3203 -0.1220  0.0177
  502TMC3     H 7518   4.222   4.402  15.041  0.6933 -0.2787 -0.3962
  502TMC3    H1 7519   4.175   3.991  15.014 -1.6212 -0.2355  0.4968
  502TMC3    H2 7520   3.834   4.236  15.077 -0.9802 -0.3763 -1.0524
  502TMC3    C7 7521   3.931   3.983  15.118  0.6411  0.3122  0.7912
  502TMC3    C8 7522   3.962   4.450  14.993 -1.0567  0.3806  0.1928
  502TMC3    O1 7523   4.011   3.919  15.188 -0.5936  0.4637  0.4138
  502TMC3    O2 7524   4.041   4.545  14.992 -0.2417  0.1185  0.2584
  503MPD2     C 7525   1.381   4.693  16.872 -0.0779 -0.3153 -0.3603
  503MPD2    C1 7526   1.372   0.021  16.987  0.3771 -0.1934  0.7653
  503MPD2    C2 7527   1.443   4.720  17.094  0.0006  0.2317  0.0197
  503MPD2    C3 7528   1.522   4.609  17.078 -0.2430  0.6354 -0.6805
  503MPD2    C4 7529   1.533   4.543  16.956  0.0974 -0.2862 -0.0680
  503MPD2    C5 7530   1.468   4.590  16.849  0.3369  0.6912  0.0933
  503MPD2     H 7531   1.449   0.038  17.185 -0.8059  0.0097  0.2183
  503MPD2    H1 7532   1.599   4.459  16.937 -2.6550 -2.9516  2.1430
  503MPD2    H2 7533   1.336   4.734  16.782 -0.7432 -1.0513 -0.3599
  503MPD2    H3 7534   1.486   4.559  16.747  1.3760 -1.2593  0.8798
  503MPD2     N 7535   1.591   4.572  17.195  0.3581 -0.0412  0.0672
  503MPD2    H5 7536   1.593   4.633  17.275 -0.1140 -2.5389  1.9733
  503MPD2    N1 7537   1.294   0.141  17.001  0.0073  0.2303  0.2417
  503MPD2    H7 7538   1.284   0.184  17.092  2.6027  0.2231  0.5473
  504TMC3    C1 7539   1.714   4.445  17.347 -0.1529  0.0184  0.1741
  504TMC3    C2 7540   1.714   4.323  17.414 -0.8127 -0.3264  0.1348
  504TMC3    C3 7541   1.815   4.297  17.493 -0.6604  0.3921  0.1871
  504TMC3    C4 7542   1.820   4.532  17.354  0.7873 -0.2085 -0.2286
  504TMC3    C5 7543   1.928   4.493  17.435  0.1571 -0.2405  0.1406
  504TMC3    C6 7544   1.917   4.382  17.507  0.9226  0.2709 -0.1368
  504TMC3     C 7545   1.639   4.445  17.219  0.7385  0.0150 -0.4626
  504TMC3     O 7546   1.635   4.348  17.147  0.2826 -0.1572  0.1468
  504TMC3     H 7547   1.626   4.260  17.417 -1.2120  0.2021 -0.4927
  504TMC3    H1 7548   1.833   4.608  17.278  0.5022 -0.5501 -0.6167
  504TMC3    H2 7549   1.998   4.365  17.578 -1.1193 -4.0634  1.1475
  504TMC3    C7 7550   2.045   4.498  17.354  0.2658  0.3916 -0.5211
  504TMC3    C8 7551   1.806   4.181  17.580 -0.3226 -0.2195 -0.6499
  504TMC3    O1 7552   2.061   4.595  17.282  0.6019  0.0560 -0.2096
  504TMC3    O2 7553   1.742   4.090  17.533  0.4616 -0.8812 -0.4904
  505MPD2     C 7554   2.715   3.055  10.684 -0.5499  0.1288 -0.6514
  505MPD2    C1 7555   2.662   3.030  10.557 -0.7690  0.0989 -1.5606
  505MPD2    C2 7556   2.725   3.082  10.449 -0.1468  0.0657 -0.1937
  505MPD2    C3 7557   2.835   3.164  10.459 -0.1261  0.5944 -0.5698
  505MPD2    C4 7558   2.883   3.189  10.589  0.4447  0.4773  0.0329
  505MPD2    C5 7559   2.824   3.135  10.700  0.7002 -0.3388 -0.7205
  505MPD2     H 7560   2.689   3.061  10.349  0.9840 -1.8895 -0.1779
  505MPD2    H1 7561   2.967   3.254  10.609 -0.1687  0.9495  1.0871
  505MPD2    H2 7562   2.690   2.997  10.772 -0.7289 -1.0031 -1.4493
  505MPD2    H3 7563   2.881   3.148  10.791  1.5468  0.7100 -1.3913
  505MPD2     N 7564   2.893   3.214  10.340  0.5174 -0.1848  0.4997
  505MPD2    H5 7565   2.852   3.179  10.254  2.2440  1.0468 -0.8149
  505MPD2    N1 7566   2.533   2.966  10.547  0.9759 -0.2496 -0.5683
  505MPD2    H7 7567   2.494   2.950  10.640  0.5569  0.4066 -0.6320
  506TMC3    C1 7568   2.332   2.921  10.448 -0.6899 -0.1388 -0.0845
  506TMC3    C2 7569   2.260   2.998  10.540 -0.0429 -0.8315  0.9615
  506TMC3    C3 7570   2.132   3.030  10.505 -0.2883 -0.3308  0.1767
  506TMC3    C4 7571   2.270   2.876  10.334  0.8692  0.5984  0.5974
  506TMC3    C5 7572   2.147   2.916  10.293 -0.4954  0.2947  0.3698
  506TMC3    C6 7573   2.090   3.005  10.374 -0.0640 -0.2297  0.4834
  506TMC3     C 7574   2.469   2.949  10.427 -0.3411  0.0177  0.1316
  506TMC3     O 7575   2.497   2.967  10.309 -0.7931  0.5261 -0.7341
  506TMC3     H 7576   2.300   3.039  10.632  1.0435  0.6032 -0.1505
  506TMC3    H1 7577   2.319   2.803  10.270  0.1705 -0.0635  0.8106
  506TMC3    H2 7578   1.999   3.048  10.335  0.2441 -0.5149 -0.5377
  506TMC3    C7 7579   2.161   2.964  10.163 -0.1165 -0.3469 -0.3576
  506TMC3    C8 7580   2.063   3.124  10.593 -0.5168  0.1484 -0.7934
  506TMC3    O1 7581   2.059   2.970  10.094  0.0824 -0.0191  0.3573
  506TMC3    O2 7582   1.946   3.094  10.616 -0.2812 -0.4669 -0.1531
  507TMC3    C1 7583   2.468   3.846  14.873  0.9514  0.4638  0.3905
  507TMC3    C2 7584   2.448   3.750  14.774  0.3196  0.5122  0.3543
  507TMC3    C3 7585   2.536   3.768  14.671 -0.4123 -0.2597  0.2545
  507TMC3    C4 7586   2.557   3.949  14.870 -0.2346  0.1367  0.2537
  507TMC3    C5 7587   2.645   3.954  14.767  0.1865 -0.2057  0.5531
  507TMC3    C6 7588   2.642   3.858  14.673  0.3505 -0.3489  0.1842
  507TMC3     C 7589   2.375   3.863  14.981  0.2216 -0.9015  0.6610
  507TMC3     O 7590   2.424   3.915  15.081 -0.5952 -0.1258 -0.4230
  507TMC3     H 7591   2.362   3.683  14.766  2.1138 -1.7394 -0.1461
  507TMC3    H1 7592   2.565   4.029  14.942  0.4698 -1.9283  2.5058
  507TMC3    H2 7593   2.710   3.854  14.588  0.1582 -1.1623  0.0644
  507TMC3    C7 7594   2.665   4.077  14.699 -0.0021  0.3589  0.2242
  507TMC3    C8 7595   2.470   3.766  14.539  0.2067 -0.0401 -0.4203
  507TMC3    O1 7596   2.684   4.066  14.580 -0.0825 -0.0990 -0.4690
  507TMC3    O2 7597   2.402   3.669  14.513 -0.0821  0.3507  0.6313
  508MPD2     C 7598   3.706   1.678  15.786 -0.2272  0.1667 -0.4642
  508MPD2    C1 7599   3.696   1.727  15.914 -0.6916  0.2254  0.0234
  508MPD2    C2 7600   3.659   1.857  15.931 -0.0130 -0.6954  0.6205
  508MPD2    C3 7601   3.626   1.941  15.826  0.7324  0.1090 -0.3350
  508MPD2    C4 7602   3.612   1.884  15.700  0.4160  0.1506 -0.2755
  508MPD2    C5 7603   3.662   1.753  15.683  0.3649  0.0299  0.2749
  508MPD2     H 7604   3.656   1.898  16.032  0.7908  0.5442  0.1404
  508MPD2    H1 7605   3.561   1.935  15.620  0.2436 -0.0244 -0.2774
  508MPD2    H2 7606   3.749   1.579  15.773 -1.0202 -0.0854 -1.2155
  508MPD2    H3 7607   3.664   1.708  15.584  2.3648 -0.6111  0.6087
  508MPD2     N 7608   3.602   2.077  15.857 -0.0773 -0.1476 -0.1090
  508MPD2    H5 7609   3.592   2.102  15.955  0.7665  0.7316 -0.2568
  508MPD2    N1 7610   3.754   1.655  16.022 -0.4060 -0.6537 -0.3197
  508MPD2    H7 7611   3.810   1.572  16.008 -0.8887 -1.0965  0.3504
  509TMC3    C1 7612   3.436   2.503  15.835  0.5531  0.5926 -0.2814
  509TMC3    C2 7613   3.487   2.525  15.961 -0.1463  0.1609  0.1590
  509TMC3    C3 7614   3.564   2.428  16.019  0.5806  0.1521  0.7276
  509TMC3    C4 7615   3.469   2.386  15.768 -0.7358  0.4839 -0.1416
  509TMC3    C5 7616   3.563   2.302  15.829 -0.6497  0.0212  0.1672
  509TMC3    C6 7617   3.615   2.318  15.949  0.1640  0.0534 -0.5599
  509TMC3     C 7618   3.332   2.585  15.771  0.5580 -0.1372  0.6033
  509TMC3     O 7619   3.255   2.648  15.843 -0.0606  0.0304 -0.0531
  509TMC3     H 7620   3.454   2.614  16.013  1.0373 -0.1466  1.4247
  509TMC3    H1 7621   3.435   2.361  15.669 -3.4200 -3.2646  1.7011
  509TMC3    H2 7622   3.699   2.269  15.996 -0.1282  1.9900  2.0409
  509TMC3    C7 7623   3.579   2.172  15.764  0.0214  0.1394 -1.0953
  509TMC3    C8 7624   3.638   2.453  16.140  0.3107 -0.0489  0.0577
  509TMC3    O1 7625   3.565   2.166  15.642 -0.4187 -0.2369  0.3445
  509TMC3    O2 7626   3.658   2.364  16.227  0.4226 -0.2490 -0.2136
  510MPD2     C 7627   1.004   3.706  14.632 -0.4390  0.3908  0.0054
  510MPD2    C1 7628   1.047   3.590  14.689 -0.1842 -0.4767 -0.1645
  510MPD2    C2 7629   1.136   3.510  14.618  0.1989  0.8018  0.1076
  510MPD2    C3 7630   1.183   3.537  14.491 -0.1937 -0.3201  0.5746
  510MPD2    C4 7631   1.131   3.645  14.425 -0.1041  0.3687 -0.0902
  510MPD2    C5 7632   1.046   3.730  14.497 -0.4189 -0.1542  0.4348
  510MPD2     H 7633   1.174   3.422  14.669 -1.0389 -0.9003 -1.8910
  510MPD2    H1 7634   1.161   3.682  14.328  0.4989 -0.0159 -0.0568
  510MPD2    H2 7635   0.920   3.758  14.676 -1.4840 -1.4321  0.1742
  510MPD2    H3 7636   1.004   3.816  14.446  1.5229  0.7645  0.4016
  510MPD2     N 7637   1.277   3.455  14.435  0.5821 -0.6573 -0.1361
  510MPD2    H5 7638   1.308   3.387  14.504  2.6945 -0.6928 -1.1306
  510MPD2    N1 7639   1.011   3.537  14.815 -0.4778 -0.0685  0.2585
  510MPD2    H7 7640   1.054   3.448  14.841 -0.7590 -0.3344 -0.1773
  511TMC3    C1 7641   0.930   3.512  15.037  0.0612 -0.0887  0.9087
  511TMC3    C2 7642   0.823   3.535  15.121  0.1214  0.1278  0.1868
  511TMC3    C3 7643   0.816   3.442  15.224 -0.4854 -0.0070 -0.6215
  511TMC3    C4 7644   1.013   3.402  15.046  0.3871 -0.0144  0.6385
  511TMC3    C5 7645   1.005   3.323  15.159  0.4703  0.0420 -0.0127
  511TMC3    C6 7646   0.902   3.340  15.249 -0.0728  0.3443  0.2206
  511TMC3     C 7647   0.937   3.593  14.918 -0.1356 -0.1774 -0.1634
  511TMC3     O 7648   0.878   3.698  14.919 -0.0085 -0.3643  0.0564
  511TMC3     H 7649   0.745   3.609  15.110  0.1195  0.0564 -0.2520
  511TMC3    H1 7650   1.088   3.384  14.971  1.4096 -0.0469  1.6588
  511TMC3    H2 7651   0.908   3.289  15.345 -0.9491 -0.8231 -0.3437
  511TMC3    C7 7652   1.110   3.226  15.181 -0.6338 -0.1717  0.2650
  511TMC3    C8 7653   0.697   3.461  15.308 -1.0461  0.5041  0.8183
  511TMC3    O1 7654   1.216   3.237  15.117  0.9358 -0.0630 -0.6073
  511TMC3    O2 7655   0.637   3.565  15.294 -0.3174  0.5711  0.5260
  512TMC3    C1 7656   4.685   3.005  12.994 -0.4717 -0.6988 -0.5608
  512TMC3    C2 7657   4.698   2.977  13.124  0.0444  0.5977 -0.0521
  512TMC3    C3 7658   0.003   2.851  13.158 -0.5105 -0.0166 -0.8867
  512TMC3    C4 7659   4.722   2.915  12.885  0.4013 -0.1766 -0.6418
  512TMC3    C5 7660   0.003   2.788  12.932 -0.0623  0.0785 -0.1438
  512TMC3    C6 7661   0.025   2.758  13.062 -0.2768  1.0368 -0.1677
  512TMC3     C 7662   4.626   3.137  12.952  0.9107  0.1545 -0.4277
  512TMC3     O 7663   4.637   3.223  13.043 -0.3142  0.3119  0.0826
  512TMC3     H 7664   4.658   3.044  13.200  1.1877  1.6553 -0.3888
  512TMC3    H1 7665   4.709   2.933  12.779  0.5960  1.9367 -0.3006
  512TMC3    H2 7666   0.069   2.664  13.092 -1.9708  1.2142  2.8613
  512TMC3    C7 7667   0.078   2.710  12.833  0.9127  0.6422  0.1133
  512TMC3    C8 7668   0.069   2.825  13.278 -0.1770  0.6662  0.1531
  512TMC3    O1 7669   0.121   2.769  12.738  0.2203 -0.0547  0.2821
  512TMC3    O2 7670   0.100   2.707  13.303  0.1351  0.2519 -0.1040
  513MPD2     C 7671   2.017   2.162  13.472  0.0135  0.8274 -0.3823
  513MPD2    C1 7672   2.083   2.263  13.403  0.2504 -0.1982  0.1165
  513MPD2    C2 7673   2.126   2.376  13.464 -0.1278 -0.2824 -0.4445
  513MPD2    C3 7674   2.103   2.401  13.599  0.2352 -0.1541 -0.1408
  513MPD2    C4 7675   2.025   2.302  13.663 -0.5744 -0.1563  0.5853
  513MPD2    C5 7676   1.985   2.182  13.603  0.6936  0.3229  0.1260
  513MPD2     H 7677   2.177   2.450  13.403 -0.1334 -1.2341 -1.5743
  513MPD2    H1 7678   2.006   2.308  13.770  0.8340 -0.2206  0.8379
  513MPD2    H2 7679   1.984   2.068  13.428 -1.3148  1.4411 -0.6934
  513MPD2    H3 7680   1.924   2.106  13.651  0.2901  1.3458  1.2286
  513MPD2     N 7681   2.156   2.522  13.656  0.2058 -0.4057  0.3236
  513MPD2    H5 7682   2.213   2.572  13.588 -1.1067 -0.3867 -0.7615
  513MPD2    N1 7683   2.113   2.228  13.268  0.2766  0.1501  0.2930
  513MPD2    H7 7684   2.074   2.139  13.241 -1.1540  1.6729 -2.6510
  514TMC3    C1 7685   2.254   2.202  13.099 -0.5239 -0.3233  1.1785
  514TMC3    C2 7686   2.257   2.231  12.965 -0.1274 -0.0703 -0.3046
  514TMC3    C3 7687   2.371   2.199  12.897  0.0647  0.0797  0.2020
  514TMC3    C4 7688   2.357   2.142  13.164 -0.0466 -0.4230  0.4937
  514TMC3    C5 7689   2.473   2.119  13.089  0.6075 -0.2269 -0.0983
  514TMC3    C6 7690   2.472   2.134  12.955 -0.1992  0.3081 -0.0616
  514TMC3     C 7691   2.188   2.298  13.179 -0.9957  0.1330 -0.3982
  514TMC3     O 7692   2.235   2.409  13.187 -0.3064 -0.0256  0.9835
  514TMC3     H 7693   2.177   2.293  12.926  0.0593  0.5416  0.2980
  514TMC3    H1 7694   2.349   2.128  13.271  0.8508 -0.3607  0.5697
  514TMC3    H2 7695   2.566   2.127  12.900  0.4737  1.4162  0.9515
  514TMC3    C7 7696   2.597   2.167  13.148 -0.0720 -0.4432  0.5883
  514TMC3    C8 7697   2.379   2.185  12.754  0.3657 -0.1618 -0.2173
  514TMC3    O1 7698   2.699   2.132  13.090  0.2490 -0.4037  0.1224
  514TMC3    O2 7699   2.396   2.071  12.708  0.0765 -0.3306  0.0213
  515MPD2     C 7700   0.323   4.151  14.340 -0.0075  0.1643 -0.1854
  515MPD2    C1 7701   0.208   4.202  14.402 -0.2147 -0.5682 -1.2278
  515MPD2    C2 7702   0.223   4.310  14.489  0.0147 -0.4827  0.4499
  515MPD2    C3 7703   0.344   4.369  14.508  0.8414 -0.6123 -0.4643
  515MPD2    C4 7704   0.452   4.330  14.430  0.5652 -0.9180  0.9656
  515MPD2    C5 7705   0.437   4.216  14.353  0.2470 -0.3005  0.1972
  515MPD2     H 7706   0.137   4.338  14.549  1.5043 -0.9305  2.7880
  515MPD2    H1 7707   0.546   4.384  14.433 -0.1156  0.3827 -1.2365
  515MPD2    H2 7708   0.326   4.063  14.277  0.7964  1.0570 -1.3996
  515MPD2    H3 7709   0.519   4.176  14.294  1.0540  0.3491  0.8849
  515MPD2     N 7710   0.373   4.473  14.598  0.1122 -0.0230  0.6156
  515MPD2    H5 7711   0.472   4.486  14.615  0.2795 -1.7114  0.8349
  515MPD2    N1 7712   0.085   4.137  14.387 -0.1039 -0.4985 -0.1947
  515MPD2    H7 7713   0.006   4.193  14.417  0.7626  0.4452  0.3574
  516TMC3    C1 7714   4.658   3.989  14.348 -0.1520  0.2400  0.2559
  516TMC3    C2 7715   4.577   4.101  14.321 -0.2457 -0.6792 -0.7796
  516TMC3    C3 7716   4.442   4.083  14.339  0.1175 -0.4110  0.0041
  516TMC3    C4 7717   4.604   3.862  14.368  0.3279  0.4539 -0.0423
  516TMC3    C5 7718   4.468   3.856  14.393  0.9647  0.0183  0.2288
  516TMC3    C6 7719   4.385   3.961  14.376  0.0864  0.4952 -0.3828
  516TMC3     C 7720   0.060   4.010  14.344  0.1610 -0.1123  0.4296
  516TMC3     O 7721   0.142   3.919  14.345 -0.2999 -0.7567 -0.1118
  516TMC3     H 7722   4.616   4.176  14.253  0.2808  0.6418  0.9832
  516TMC3    H1 7723   4.676   3.781  14.370 -1.2556 -0.9593  0.3935
  516TMC3    H2 7724   4.278   3.957  14.393 -0.1790 -1.2942 -2.5027
  516TMC3    C7 7725   4.451   3.785  14.518  0.3598  0.1977 -0.2007
  516TMC3    C8 7726   4.349   4.191  14.305  0.2585 -0.2157 -0.9217
  516TMC3    O1 7727   4.553   3.736  14.567  0.2233 -0.6784 -0.2475
  516TMC3    O2 7728   4.232   4.155  14.284 -0.2566  0.0890 -0.5623
  517MPD2     C 7729   4.618   1.543   0.224 -0.2242 -0.5837 -0.0490
  517MPD2    C1 7730   0.014   1.517   0.208 -0.6778 -0.4939 -0.0063
  517MPD2    C2 7731   0.106   1.610   0.255  0.0044  0.0474  0.5426
  517MPD2    C3 7732   0.067   1.721   0.327  0.1333 -0.6053 -0.0617
  517MPD2    C4 7733   4.675   1.732   0.354 -0.4161  0.2094  0.0705
  517MPD2    C5 7734   4.583   1.646   0.302  0.2897 -0.3192 -0.8848
  517MPD2     H 7735   0.209   1.577   0.254 -0.0545 -0.1320  0.3641
  517MPD2    H1 7736   4.643   1.819   0.410 -0.4311 -0.6564  1.4180
  517MPD2    H2 7737   4.541   1.494   0.165  0.8894 -3.6531  1.0241
  517MPD2    H3 7738   4.477   1.667   0.304  0.7457  1.8371  1.0712
  517MPD2     N 7739   0.154   1.813   0.384  0.7709 -0.3125  0.4424
  517MPD2    H5 7740   0.113   1.886   0.440 -0.5548 -0.6628 -0.0832
  517MPD2    N1 7741   0.061   1.403   0.131  0.7194  0.6098 -0.5675
  517MPD2    H7 7742   0.162   1.400   0.124  0.6059 -1.5891 -0.9906
  518TMC3    C1 7743   0.062   1.183   0.034  0.2179  0.1649 -0.1394
  518TMC3    C2 7744   4.729   1.079  17.736  0.1862 -0.0540  0.1372
  518TMC3    C3 7745   0.060   0.975  17.682  0.3714 -0.1357  0.0956
  518TMC3    C4 7746   0.199   1.178   0.031  0.2628 -0.4041  0.2003
  518TMC3    C5 7747   0.266   1.076  17.731 -0.7850 -0.1413  0.6072
  518TMC3    C6 7748   0.198   0.969  17.686 -0.0292  1.2787 -0.2884
  518TMC3     C 7749   4.728   1.291   0.098  0.6323 -0.0150  0.1437
  518TMC3     O 7750   4.604   1.280   0.109 -0.5768 -0.0031  0.5090
  518TMC3     H 7751   4.621   1.086  17.736  0.1581 -0.6101  0.9619
  518TMC3    H1 7752   0.263   1.245   0.087  0.9526 -1.6904  0.9506
  518TMC3    H2 7753   0.248   0.882  17.646 -0.2255  1.4082 -0.8208
  518TMC3    C7 7754   0.397   1.050   0.027 -0.0636 -0.0257  0.0241
  518TMC3    C8 7755   0.012   0.835  17.682  0.6047 -0.7833 -0.0264
  518TMC3    O1 7756   0.434   1.121   0.123  0.8120  0.5927 -0.2530
  518TMC3    O2 7757   0.092   0.749  17.664  0.4876 -0.4126  0.0098
  519MPD2     C 7758   1.346   4.244  14.810  0.1685 -0.6843  0.6944
  519MPD2    C1 7759   1.321   4.292  14.687  0.0182 -0.2506 -0.0410
  519MPD2    C2 7760   1.320   4.207  14.576 -0.6166 -0.0404  0.6817
  519MPD2    C3 7761   1.350   4.077  14.586 -0.6870 -0.5482 -0.0752
  519MPD2    C4 7762   1.370   4.024  14.712 -0.1300 -0.6975 -0.4053
  519MPD2    C5 7763   1.365   4.109  14.821 -0.5116 -0.3728  0.3089
  519MPD2     H 7764   1.289   4.242  14.478 -1.4154  0.1948  1.0188
  519MPD2    H1 7765   1.403   3.925  14.741 -0.2580 -0.0851  1.8493
  519MPD2    H2 7766   1.359   4.309  14.896 -1.2436 -1.5542  1.5517
  519MPD2    H3 7767   1.383   4.064  14.918 -1.0721  1.8957  1.4549
  519MPD2     N 7768   1.380   4.002  14.468  0.0153 -0.4382 -0.2145
  519MPD2    H5 7769   1.358   4.045  14.379  0.5995  0.1074 -0.1025
  519MPD2    N1 7770   1.302   4.429  14.654  0.7045  0.3805 -0.6466
  519MPD2    H7 7771   1.251   4.458  14.571  1.3782 -0.3651 -1.3226
  520TMC3    C1 7772   1.466   3.838  14.320  0.2068 -0.5690 -0.9956
  520TMC3    C2 7773   1.422   3.914  14.212 -0.3592 -0.2272 -0.0181
  520TMC3    C3 7774   1.479   3.891  14.091  0.3536 -0.0009 -0.0246
  520TMC3    C4 7775   1.569   3.746  14.303  0.0843  0.4049 -0.4125
  520TMC3    C5 7776   1.623   3.735  14.179 -0.2168  0.0260  0.2328
  520TMC3    C6 7777   1.588   3.811  14.073  0.2062  0.3591  0.0560
  520TMC3     C 7778   1.433   3.876  14.461  0.4484  0.4759  0.0000
  520TMC3     O 7779   1.460   3.800  14.555  0.2462 -0.0942  0.0510
  520TMC3     H 7780   1.333   3.973  14.230  0.3466  1.0073 -0.5671
  520TMC3    H1 7781   1.607   3.693  14.390  1.8686  1.0268 -0.8172
  520TMC3    H2 7782   1.619   3.787  13.972 -0.8276 -2.0064  0.3070
  520TMC3    C7 7783   1.752   3.677  14.175  0.1295  0.4945 -0.0886
  520TMC3    C8 7784   1.447   3.979  13.979  0.5289 -0.1258 -0.0065
  520TMC3    O1 7785   1.797   3.633  14.276 -0.3042  0.0162 -0.2882
  520TMC3    O2 7786   1.526   3.968  13.890 -0.3651  0.2241  0.6889
  521MPD2     C 7787   2.747   2.092  17.727 -0.5192  0.3217  0.3934
  521MPD2    C1 7788   2.708   2.085  17.598  0.4496 -0.3528 -0.7194
  521MPD2    C2 7789   2.801   2.061  17.500  0.7623 -0.0364  0.3948
  521MPD2    C3 7790   2.936   2.041  17.542  1.0117  0.2921  0.2680
  521MPD2    C4 7791   2.963   2.017  17.674 -0.3091  0.7383  0.1596
  521MPD2    C5 7792   2.872   2.048   0.007 -0.1967  0.2090 -0.2738
  521MPD2     H 7793   2.787   2.057  17.393  2.9860  0.8142  0.0673
  521MPD2    H1 7794   3.066   1.994  17.695 -1.7102 -1.5726  4.5163
  521MPD2    H2 7795   2.681   2.127   0.048  0.7577  0.8072  1.2407
  521MPD2    H3 7796   2.894   2.045   0.113 -1.8809  0.2914  0.0843
  521MPD2     N 7797   3.030   2.035  17.441 -0.7200 -0.6888 -0.0375
  521MPD2    H5 7798   2.999   2.057  17.347 -3.0260  0.1211  0.9068
  521MPD2    N1 7799   2.568   2.110  17.563 -0.8928  0.0513  0.2574
  521MPD2    H7 7800   2.507   2.139  17.639  0.1445  1.2786  0.6263
  522TMC3    C1 7801   3.249   1.999  17.332 -0.4962 -0.4371  0.8540
  522TMC3    C2 7802   3.367   1.933  17.313 -0.4452  0.2325  0.2816
  522TMC3    C3 7803   3.451   1.959  17.212  0.3587 -0.1537  0.3434
  522TMC3    C4 7804   3.203   2.100  17.241  0.2365 -0.2331 -0.0788
  522TMC3    C5 7805   3.300   2.119  17.141  0.3541  0.0789  0.0281
  522TMC3    C6 7806   3.416   2.051  17.115 -0.2928  0.3540 -0.6177
  522TMC3     C 7807   3.161   1.988  17.449  0.2177 -0.5643  0.3511
  522TMC3     O 7808   3.212   1.934  17.545 -0.1001 -0.1565 -0.3757
  522TMC3     H 7809   3.393   1.856  17.385  0.3353  1.5703  1.4187
  522TMC3    H1 7810   3.124   2.168  17.270  0.1276  0.5006 -2.1321
  522TMC3    H2 7811   3.492   2.077  17.042 -0.5450 -0.8432 -1.3051
  522TMC3    C7 7812   3.287   2.244  17.064  0.2891 -0.1814 -0.1975
  522TMC3    C8 7813   3.571   1.882  17.202 -0.1399 -0.7618  0.2511
  522TMC3    O1 7814   3.395   2.285  17.022 -0.0141 -0.3654  0.3959
  522TMC3    O2 7815   3.624   1.835  17.302  0.1465  0.3744  0.3280
  523MPD2     C 7816   4.519   2.608  10.576  0.2229  0.1516  0.3263
  523MPD2    C1 7817   4.494   2.507  10.482 -0.9850 -0.3025 -0.2138
  523MPD2    C2 7818   4.425   2.538  10.367  0.0648  0.0962 -0.4811
  523MPD2    C3 7819   4.370   2.662  10.338 -0.0797 -0.4665 -0.1847
  523MPD2    C4 7820   4.390   2.757  10.442  0.5555 -0.0796  0.1300
  523MPD2    C5 7821   4.460   2.734  10.559  0.2362  0.5491 -0.3051
  523MPD2     H 7822   4.403   2.454  10.302 -1.2993 -0.7402  1.0665
  523MPD2    H1 7823   4.346   2.856  10.440  0.1390 -0.2913 -1.4527
  523MPD2    H2 7824   4.564   2.592  10.674  0.1014 -0.4984  0.2779
  523MPD2    H3 7825   4.466   2.807  10.639 -3.1223 -3.3007  3.4751
  523MPD2     N 7826   4.301   2.696  10.225 -0.1520 -0.0445  0.4248
  523MPD2    H5 7827   4.253   2.786  10.221 -0.9523 -0.5447 -1.2447
  523MPD2    N1 7828   4.545   2.380  10.519  0.1360 -0.0664 -0.2158
  523MPD2    H7 7829   4.601   2.377  10.604  0.7441 -0.0729 -0.6200
  524TMC3    C1 7830   4.212   2.689  10.009 -0.6504  0.5642 -0.5710
  524TMC3    C2 7831   4.222   2.630   9.879  0.3150  0.3639  0.0722
  524TMC3    C3 7832   4.148   2.675   9.774 -0.2568  0.1799 -0.0904
  524TMC3    C4 7833   4.116   2.781  10.032  0.3569  0.0794  0.0525
  524TMC3    C5 7834   4.031   2.810   9.928  0.4864 -0.0943 -0.0255
  524TMC3    C6 7835   4.053   2.773   9.794  0.3838  0.0362 -0.7445
  524TMC3     C 7836   4.292   2.624  10.111 -0.4414 -0.4948 -0.1693
  524TMC3     O 7837   4.348   2.523  10.073  0.0737  0.1903  0.4243
  524TMC3     H 7838   4.280   2.540   9.864  0.9732  0.7831  0.0784
  524TMC3    H1 7839   4.089   2.814  10.131  0.4464  0.2400  0.0230
  524TMC3    H2 7840   3.984   2.803   9.716  1.1634  2.0508 -0.6472
  524TMC3    C7 7841   3.937   2.918   9.952 -0.0639  0.3018  0.0474
  524TMC3    C8 7842   4.148   2.607   9.646 -0.6004  0.3109 -0.2176
  524TMC3    O1 7843   3.889   2.920  10.064  0.8341  0.0999  0.0756
  524TMC3    O2 7844   4.197   2.494   9.649  0.4616 -0.1251  0.2550
  525MPD2     C 7845   2.836   3.654  14.437 -1.0871 -0.0298  0.3063
  525MPD2    C1 7846   2.961   3.655  14.491  0.5968  1.1471 -0.0774
  525MPD2    C2 7847   3.052   3.753  14.465 -0.2123 -0.0485  0.0834
  525MPD2    C3 7848   3.021   3.861  14.389 -0.6465  0.4074 -0.4685
  525MPD2    C4 7849   2.895   3.870  14.336  0.4261 -0.0309  0.2259
  525MPD2    C5 7850   2.810   3.760  14.355  0.1357  0.3908 -0.5269
  525MPD2     H 7851   3.147   3.747  14.517  0.6362 -2.4034 -1.7237
  525MPD2    H1 7852   2.853   3.956  14.285 -2.3969  0.0867  2.7385
  525MPD2    H2 7853   2.760   3.578  14.453 -1.9467  0.5770 -0.7959
  525MPD2    H3 7854   2.709   3.769  14.315 -0.3295 -3.1298 -0.1546
  525MPD2     N 7855   3.111   3.963  14.352 -0.2804  0.4657 -0.2835
  525MPD2    H5 7856   3.063   4.038  14.303 -0.0424  0.7353 -0.1049
  525MPD2    N1 7857   3.010   3.551  14.576 -0.6071 -0.5229 -0.1663
  525MPD2    H7 7858   3.103   3.564  14.616 -0.8132 -0.4771  0.3086
  526TMC3    C1 7859   3.020   3.358  14.698 -0.8620  0.4210  0.3911
  526TMC3    C2 7860   2.977   3.313  14.817 -0.2354  0.0728  0.1621
  526TMC3    C3 7861   3.070   3.261  14.895  0.3083 -0.5165 -0.2350
  526TMC3    C4 7862   3.148   3.340  14.647 -0.1503 -0.2882  0.1862
  526TMC3    C5 7863   3.236   3.287  14.737 -0.7703 -0.0991  0.5885
  526TMC3    C6 7864   3.195   3.249  14.859  0.3874 -1.2745 -0.1763
  526TMC3     C 7865   2.934   3.457  14.635 -0.6339  0.6873  0.0763
  526TMC3     O 7866   2.813   3.450  14.638  0.1986 -0.1676 -0.6840
  526TMC3     H 7867   2.882   3.355  14.848 -0.0493  0.7050 -0.1088
  526TMC3    H1 7868   3.189   3.389  14.559  1.2967  0.2234  1.1304
  526TMC3    H2 7869   3.274   3.209  14.922  1.1292  0.8389  0.2292
  526TMC3    C7 7870   3.376   3.302  14.709  0.0213 -0.4821  0.0877
  526TMC3    C8 7871   3.058   3.260  15.038 -1.0083  1.4027  0.8276
  526TMC3    O1 7872   3.438   3.335  14.808  0.3887 -0.1184 -0.1925
  526TMC3    O2 7873   3.161   3.261  15.107 -0.3819  0.0619  0.1001
  527MPD2     C 7874   1.969   2.490   1.135 -0.6354  0.2453 -0.2726
  527MPD2    C1 7875   1.869   2.398   1.108 -0.5767 -0.4280  0.5550
  527MPD2    C2 7876   1.872   2.321   0.996 -0.1247 -0.3658 -0.3445
  527MPD2    C3 7877   1.983   2.322   0.916  0.2194  0.2900  0.4229
  527MPD2    C4 7878   2.086   2.412   0.947 -0.0964 -0.3295 -0.1613
  527MPD2    C5 7879   2.078   2.502   1.056  0.9272 -0.0584 -0.1902
  527MPD2     H 7880   1.793   2.248   0.978 -1.0065 -0.1030  2.3582
  527MPD2    H1 7881   2.170   2.432   0.881  0.1415  2.7071  1.0222
  527MPD2    H2 7882   1.975   2.550   1.225 -0.0642 -1.1074  0.6025
  527MPD2    H3 7883   2.144   2.587   1.063 -0.8262  1.3005 -0.0681
  527MPD2     N 7884   1.991   2.237   0.803  0.3462  0.0302 -0.1355
  527MPD2    H5 7885   1.909   2.179   0.787 -0.7744  1.7812 -0.7211
  527MPD2    N1 7886   1.751   2.378   1.187  0.1272  0.9561 -0.5361
  527MPD2    H7 7887   1.699   2.300   1.147  2.2116 -0.6341 -0.1479
  528TMC3    C1 7888   1.619   2.385   1.389 -0.4789  0.4731 -0.1048
  528TMC3    C2 7889   1.589   2.259   1.367  0.3563 -0.2114 -0.0467
  528TMC3    C3 7890   1.470   2.217   1.419 -0.4532 -0.4233 -0.0184
  528TMC3    C4 7891   1.561   2.463   1.479 -0.6627 -0.7845  1.0723
  528TMC3    C5 7892   1.442   2.419   1.537  0.6519 -0.6878  0.3253
  528TMC3    C6 7893   1.392   2.297   1.505 -0.5187  0.4061  0.3749
  528TMC3     C 7894   1.733   2.437   1.313  0.3480 -1.3880  0.0309
  528TMC3     O 7895   1.762   2.551   1.335  0.3624  0.4000 -0.4005
  528TMC3     H 7896   1.644   2.196   1.298 -0.4785 -0.4074 -0.5423
  528TMC3    H1 7897   1.580   2.569   1.481  3.9018 -1.5551 -2.4997
  528TMC3    H2 7898   1.290   2.276   1.536 -0.7477  0.5830 -0.2418
  528TMC3    C7 7899   1.359   2.525   1.579 -0.4311  0.3966  0.1977
  528TMC3    C8 7900   1.405   2.112   1.347 -0.2257  0.0521  0.0856
  528TMC3    O1 7901   1.245   2.520   1.537 -0.3576 -0.2932 -0.3672
  528TMC3    O2 7902   1.432   2.106   1.228  0.0478 -0.3504  0.3138
  529MPD2     C 7903   3.357   0.389   1.084 -0.3318 -0.1234  1.4030
  529MPD2    C1 7904   3.323   0.289   0.993 -0.0824  0.0386 -0.0313
  529MPD2    C2 7905   3.250   0.326   0.880  0.2588  0.4197  0.3360
  529MPD2    C3 7906   3.215   0.458   0.851  0.3918 -0.3083  0.5818
  529MPD2    C4 7907   3.251   0.552   0.945  0.2347 -0.3508  0.1423
  529MPD2    C5 7908   3.300   0.514   1.068  0.2230  0.0415  0.1418
  529MPD2     H 7909   3.231   0.246   0.809 -1.4119  1.6349 -0.5749
  529MPD2    H1 7910   3.220   0.655   0.930 -0.7276 -0.7581 -0.7011
  529MPD2    H2 7911   3.415   0.385   1.176  1.0451  3.6394  0.6890
  529MPD2    H3 7912   3.313   0.588   1.146  1.3850  0.2711 -0.2698
  529MPD2     N 7913   3.142   0.489   0.733  0.2767  0.1551  0.2094
  529MPD2    H5 7914   3.148   0.585   0.702 -1.9946  0.6287  1.1596
  529MPD2    N1 7915   3.373   0.160   0.999  0.3976 -0.4378 -0.0437
  529MPD2    H7 7916   3.371   0.103   0.915  0.3770 -0.0638 -0.2956
  530TMC3    C1 7917   3.494   4.727   1.079 -0.2799 -1.2322  0.1143
  530TMC3    C2 7918   3.580   4.736   0.976  0.1109 -0.5998 -0.2512
  530TMC3    C3 7919   3.690   4.658   0.980  0.6328 -0.4069 -0.2569
  530TMC3    C4 7920   3.512   4.640   1.186 -0.1184  0.6794 -0.3116
  530TMC3    C5 7921   3.608   4.543   1.169 -0.3603  0.4931  0.0779
  530TMC3    C6 7922   3.702   4.554   1.069  0.2834  0.5414 -0.0008
  530TMC3     C 7923   3.429   0.111   1.114 -0.6555  0.3824  0.1874
  530TMC3     O 7924   3.425   0.153   1.232  0.5920 -0.0439  0.2210
  530TMC3     H 7925   3.577   0.070   0.896  3.0189 -0.2475 -0.0378
  530TMC3    H1 7926   3.444   4.652   1.269  1.6910 -1.1690  1.4361
  530TMC3    H2 7927   3.782   4.480   1.062 -1.3768 -1.2638  0.0659
  530TMC3    C7 7928   3.621   4.434   1.266 -0.5370  0.0323 -0.0725
  530TMC3    C8 7929   3.784   4.681   0.870 -0.6023  0.5567  0.1866
  530TMC3    O1 7930   3.733   4.400   1.300  0.5385 -0.0477 -0.0665
  530TMC3    O2 7931   3.770   0.044   0.807 -0.0416  0.3162 -0.1527
  531MPD2     C 7932   2.790   2.525  13.452  0.2693  0.1104 -0.3427
  531MPD2    C1 7933   2.655   2.530  13.462  0.3327 -0.5880  1.0501
  531MPD2    C2 7934   2.586   2.449  13.376 -0.4417  0.1201  0.0670
  531MPD2    C3 7935   2.654   2.350  13.303  0.0266  0.1594 -0.1133
  531MPD2    C4 7936   2.789   2.348  13.284  0.6000  0.5377  1.4908
  531MPD2    C5 7937   2.855   2.443  13.364  0.1534  0.7445 -0.5563
  531MPD2     H 7938   2.478   2.450  13.371 -0.4354  0.6124 -0.0653
  531MPD2    H1 7939   2.849   2.279  13.225 -0.3762  0.6411  0.3747
  531MPD2    H2 7940   2.860   2.583  13.512  0.5107 -0.3797 -0.1542
  531MPD2    H3 7941   2.963   2.454  13.360  0.0533  1.8932  0.0296
  531MPD2     N 7942   2.565   2.267  13.238 -0.1534  0.4231 -0.3198
  531MPD2    H5 7943   2.466   2.279  13.256 -0.8829 -1.7323 -2.8023
  531MPD2    N1 7944   2.604   2.629  13.547  0.0659 -0.6751 -0.6168
  531MPD2    H7 7945   2.677   2.682  13.594 -1.0709 -0.7337  1.1967
  532TMC3    C1 7946   2.430   2.731  13.664 -0.1338  0.4167  0.7366
  532TMC3    C2 7947   2.300   2.727  13.680  0.4002 -0.6500  0.7586
  532TMC3    C3 7948   2.244   2.674  13.802  0.4968  0.6720  0.2359
  532TMC3    C4 7949   2.513   2.706  13.774  0.6850  0.8082 -0.0226
  532TMC3    C5 7950   2.458   2.672  13.892  0.4482  0.2027 -0.1262
  532TMC3    C6 7951   2.325   2.652  13.910 -0.1604 -0.5272  0.6920
  532TMC3     C 7952   2.470   2.660  13.543  0.2813  0.4623  0.4718
  532TMC3     O 7953   2.377   2.633  13.468  0.1991  0.4319  0.0062
  532TMC3     H 7954   2.232   2.745  13.598  0.7409 -0.8353  0.4336
  532TMC3    H1 7955   2.621   2.711  13.770  0.7615 -1.4009 -0.6151
  532TMC3    H2 7956   2.289   2.607  14.002 -0.7110 -1.4357  0.0302
  532TMC3    C7 7957   2.537   2.594  13.980 -0.0002  0.3415  0.2734
  532TMC3    C8 7958   2.148   2.574  13.784 -0.3706 -0.1779  0.5497
  532TMC3    O1 7959   2.544   2.616  14.099  0.0624 -0.1843  0.4828
  532TMC3    O2 7960   2.092   2.535  13.887  0.4205  0.1313 -0.0718
  533TMC3    C1 7961   3.305   4.089  14.334  0.3375  0.2834 -0.3959
  533TMC3    C2 7962   3.439   4.103  14.358  0.6192  0.0549  0.3242
  533TMC3    C3 7963   3.484   4.232  14.361  0.1851 -0.5908  0.3279
  533TMC3    C4 7964   3.221   4.199  14.329 -0.3830  0.2861 -0.0047
  533TMC3    C5 7965   3.278   4.326  14.342 -0.2152  0.3099 -1.1895
  533TMC3    C6 7966   3.414   4.344  14.346  0.5415  0.2466  1.0722
  533TMC3     C 7967   3.246   3.968  14.381  0.6524  0.0801 -0.0188
  533TMC3     O 7968   3.313   3.881  14.439 -1.4756  0.2672  0.2030
  533TMC3     H 7969   3.493   4.015  14.392  0.0237 -0.5494 -0.2787
  533TMC3    H1 7970   3.113   4.198  14.326 -0.3880  1.8169 -0.0516
  533TMC3    H2 7971   3.455   4.435  14.389  0.3981  0.3466  0.9964
  533TMC3    C7 7972   3.221   4.406  14.446 -0.2323 -0.7802 -0.7329
  533TMC3    C8 7973   3.614   4.260  14.431  0.6100 -0.4061  0.0575
  533TMC3    O1 7974   3.273   4.512  14.476  0.6510 -0.1182  0.0666
  533TMC3    O2 7975   3.675   4.365  14.409  0.4076  0.2150 -0.0522
  534MPD2     C 7976   1.274   0.252   1.016  0.9796  0.4638 -0.2497
  534MPD2    C1 7977   1.204   0.369   1.037  0.3509  0.0972 -0.7632
  534MPD2    C2 7978   1.065   0.369   1.047 -0.5242  0.2713  0.5276
  534MPD2    C3 7979   0.998   0.248   1.018 -0.5140  0.2196 -0.7548
  534MPD2    C4 7980   1.064   0.134   0.989  0.5866 -0.1025  0.8445
  534MPD2    C5 7981   1.206   0.134   0.985 -0.2743 -0.0561  0.0962
  534MPD2     H 7982   1.008   0.458   1.069 -0.5946  0.3878 -0.1416
  534MPD2    H1 7983   1.001   0.048   0.968 -1.4258  1.5536  0.0907
  534MPD2    H2 7984   1.382   0.258   1.016  0.9308  1.3463 -0.9543
  534MPD2    H3 7985   1.261   0.044   0.964 -0.1355  0.2593 -0.8744
  534MPD2     N 7986   0.851   0.234   1.013  0.1647 -0.2312 -0.4695
  534MPD2    H5 7987   0.821   0.140   0.991  2.1436 -1.3459  1.5234
  534MPD2    N1 7988   1.265   0.499   1.063 -0.4593  0.0051 -0.4376
  534MPD2    H7 7989   1.206   0.581   1.074 -1.3552 -0.6782 -0.0816
  535TMC3    C1 7990   0.628   0.296   0.960  0.3773  0.2116 -0.4593
  535TMC3    C2 7991   0.525   0.382   0.986 -0.2664  0.2551 -0.4528
  535TMC3    C3 7992   0.417   0.373   0.902 -0.4314  0.4218  0.1512
  535TMC3    C4 7993   0.630   0.208   0.855 -0.6355 -0.3543  0.0853
  535TMC3    C5 7994   0.528   0.224   0.766  0.1706 -0.4450  0.4580
  535TMC3    C6 7995   0.416   0.306   0.789 -0.0845 -0.6473 -0.3459
  535TMC3     C 7996   0.756   0.335   1.016  1.2337  0.9568  0.5463
  535TMC3     O 7997   0.762   0.449   1.051 -0.3376 -0.4177 -0.0864
  535TMC3     H 7998   0.526   0.437   1.078  0.5298 -2.5345  1.2135
  535TMC3    H1 7999   0.724   0.165   0.824 -0.8129 -0.3116 -0.5143
  535TMC3    H2 8000   0.341   0.320   0.712 -0.4427 -0.3125  0.0628
  535TMC3    C7 8001   0.562   0.192   0.635 -0.6508 -0.6882  0.6781
  535TMC3    C8 8002   0.301   0.452   0.943  0.5716 -1.1081 -0.1372
  535TMC3    O1 8003   0.648   0.108   0.614 -0.1621 -0.0610 -0.5313
  535TMC3    O2 8004   0.192   0.416   0.904 -0.6048 -0.8055  0.2565
  536MPD2     C 8005   4.583   3.509  16.380  0.2530 -0.5508  0.8400
  536MPD2    C1 8006   4.447   3.488  16.396 -0.3826  0.0041  0.3350
  536MPD2    C2 8007   4.361   3.529  16.294 -0.1693  0.2000 -0.0742
  536MPD2    C3 8008   4.403   3.609  16.187 -0.1767  0.4460  0.2329
  536MPD2    C4 8009   4.538   3.623  16.172 -0.0559 -0.5444 -0.0908
  536MPD2    C5 8010   4.626   3.576  16.265  0.7762 -0.4149  0.2172
  536MPD2     H 8011   4.255   3.507  16.302  0.2127 -1.7697 -0.5158
  536MPD2    H1 8012   4.587   3.692  16.104  0.3529  0.3065  1.0663
  536MPD2    H2 8013   4.662   3.480  16.447  2.0404 -2.4902 -2.0775
  536MPD2    H3 8014   4.731   3.598  16.252  0.1623  2.6977  0.5168
  536MPD2     N 8015   4.318   3.674  16.094  0.3009  0.0915  0.5378
  536MPD2    H5 8016   4.363   3.732  16.023  0.2326 -1.7948 -1.0613
  536MPD2    N1 8017   4.412   3.438  16.524 -0.1189  0.7615 -0.3022
  536MPD2    H7 8018   4.488   3.410  16.586 -0.0521  1.6250  0.0015
  537TMC3    C1 8019   4.306   3.362  16.706  0.2451 -0.3750  0.7624
  537TMC3    C2 8020   4.382   3.447  16.790 -0.5168  0.4881 -0.0951
  537TMC3    C3 8021   4.382   3.416  16.924  0.0807 -0.3171  0.0121
  537TMC3    C4 8022   4.245   3.245  16.739 -0.7810  0.3868 -0.3897
  537TMC3    C5 8023   4.253   3.222  16.879  0.2872 -0.8789  0.2635
  537TMC3    C6 8024   4.319   3.306  16.970  0.3623  0.0406 -0.0219
  537TMC3     C 8025   4.289   3.401  16.571  0.8080 -0.8607 -0.0504
  537TMC3     O 8026   4.193   3.375  16.501 -0.3762 -0.5085 -0.5098
  537TMC3     H 8027   4.448   3.521  16.747  0.1024 -0.7945 -1.3749
  537TMC3    H1 8028   4.189   3.180  16.673  1.7754 -0.1989 -1.9899
  537TMC3    H2 8029   4.319   3.291  17.077  1.7703  0.6450  0.0620
  537TMC3    C7 8030   4.191   3.098  16.923 -0.3447 -0.1943  0.1862
  537TMC3    C8 8031   4.410   3.522  17.014  0.4034  0.5323 -0.2251
  537TMC3    O1 8032   4.118   3.043  16.842 -0.1030  0.2421 -0.6010
  537TMC3    O2 8033   4.432   3.495  17.133 -0.5871 -0.1130  0.1413
  538TMC3    C1 8034   0.980   2.017  11.133  0.0812 -0.0945  0.0418
  538TMC3    C2 8035   1.037   1.967  11.020  0.0847 -0.8727 -0.0745
  538TMC3    C3 8036   0.950   1.925  10.924 -0.1762 -0.0984 -0.2494
  538TMC3    C4 8037   0.851   2.000  11.155 -0.4554  0.3427  0.0807
  538TMC3    C5 8038   0.770   1.968  11.048 -0.2475 -0.1891 -0.1046
  538TMC3    C6 8039   0.812   1.927  10.931 -0.2018 -0.3276  0.5030
  538TMC3     C 8040   1.068   2.101  11.215  0.3857 -0.9609 -0.2004
  538TMC3     O 8041   1.173   2.143  11.173  0.4375  0.6096  0.7503
  538TMC3     H 8042   1.144   1.973  11.006  0.1559 -1.8181  0.0619
  538TMC3    H1 8043   0.807   2.059  11.236 -0.9496  0.4737 -0.2819
  538TMC3    H2 8044   0.748   1.878  10.859  0.0436  0.4074 -0.2243
  538TMC3    C7 8045   0.630   2.004  11.070  0.2343 -0.1691  0.2706
  538TMC3    C8 8046   0.995   1.838  10.812 -0.6418  0.2987  0.1842
  538TMC3    O1 8047   0.603   2.007  11.188  0.4378 -0.1773  0.0210
  538TMC3    O2 8048   0.909   1.761  10.768 -0.6908 -0.5950  1.4027
  539MPD2     C 8049   0.782   1.366  11.443  0.2544 -0.1585  0.0998
  539MPD2    C1 8050   0.752   1.235  11.457  0.0627 -0.2384  0.9407
  539MPD2    C2 8051   0.621   1.188  11.489 -0.5703 -0.5939 -0.5100
  539MPD2    C3 8052   0.527   1.282  11.521  0.1876 -0.4088  0.4320
  539MPD2    C4 8053   0.555   1.417  11.519 -0.1105  0.4944  0.0638
  539MPD2    C5 8054   0.685   1.460  11.490 -0.3429  0.4114 -0.4844
  539MPD2     H 8055   0.605   1.081  11.487 -0.4849 -0.6011 -0.8919
  539MPD2    H1 8056   0.497   1.496  11.565 -1.2105 -0.7127  0.7523
  539MPD2    H2 8057   0.880   1.405  11.416 -0.8108  0.3962 -2.9115
  539MPD2    H3 8058   0.701   1.567  11.499 -1.4528  0.6648 -1.5151
  539MPD2     N 8059   0.398   1.249  11.560  0.1322  0.0976  0.8632
  539MPD2    H5 8060   0.339   1.329  11.576  1.1183  0.8327  0.8407
  539MPD2    N1 8061   0.841   1.129  11.437  0.2441  0.2179  0.2322
  539MPD2    H7 8062   0.818   1.031  11.454 -0.8549  0.0799 -2.0411
  540TMC3    C1 8063   0.211   1.132  11.597  0.6681 -0.2087  0.1876
  540TMC3    C2 8064   0.135   1.200  11.506 -0.5317 -0.2326  0.1344
  540TMC3    C3 8065   4.740   1.216  11.523  0.1115 -0.0731  0.4647
  540TMC3    C4 8066   0.156   1.056  11.698 -0.5765  0.3227  0.3165
  540TMC3    C5 8067   0.019   1.071  11.702  0.3360  0.9722 -0.0523
  540TMC3    C6 8068   4.679   1.157  11.625  0.3982  0.3842  0.3522
  540TMC3     C 8069   0.348   1.126  11.564  0.3334  0.0856 -0.5797
  540TMC3     O 8070   0.393   1.012  11.550  0.4229  0.2716  0.0213
  540TMC3     H 8071   0.192   1.242  11.424 -1.6394  2.4275  0.7198
  540TMC3    H1 8072   0.214   0.975  11.740 -2.3878 -0.3513  1.5132
  540TMC3    H2 8073   4.574   1.175  11.642  0.1238 -0.2494 -0.6556
  540TMC3    C7 8074   4.698   1.052  11.824 -0.2557 -0.7304  0.5154
  540TMC3    C8 8075   4.659   1.287  11.426  0.5425  0.0288  0.3706
  540TMC3    O1 8076   4.580   1.058  11.842  0.1410 -0.5521  0.4811
  540TMC3    O2 8077   4.545   1.307  11.465  0.2646  0.4446 -0.1173
  541MPD2     C 8078   3.962   3.148  13.490 -0.1452 -0.2484 -0.3652
  541MPD2    C1 8079   3.822   3.140  13.478 -0.5472 -0.5285  0.1371
  541MPD2    C2 8080   3.759   3.229  13.390 -0.3809  0.2210 -0.0048
  541MPD2    C3 8081   3.836   3.320  13.319  0.0703  0.7495  0.2561
  541MPD2    C4 8082   3.967   3.331  13.351 -0.7231  0.5700 -0.5219
  541MPD2    C5 8083   4.032   3.246  13.433 -0.6300  0.4469  0.9406
  541MPD2     H 8084   3.651   3.227  13.377 -0.1823 -1.2251 -1.5136
  541MPD2    H1 8085   4.036   3.388  13.291  0.3889  2.0577  2.1821
  541MPD2    H2 8086   4.013   3.072  13.550 -2.3276 -0.9535  0.5952
  541MPD2    H3 8087   4.138   3.261  13.447 -0.2340 -1.2175 -0.2867
  541MPD2     N 8088   3.781   3.397  13.217  0.0584  0.1605 -0.0935
  541MPD2    H5 8089   3.840   3.468  13.173 -1.7471  0.3029 -2.3047
  541MPD2    N1 8090   3.742   3.037  13.536 -0.1619  0.0896 -0.6154
  541MPD2    H7 8091   3.647   3.010  13.512 -0.4221 -0.6355  1.2391
  542TMC3    C1 8092   3.669   3.426  13.013  0.3942  0.6485  0.5694
  542TMC3    C2 8093   3.673   3.350  12.895 -0.3713 -0.7312 -0.1652
  542TMC3    C3 8094   3.604   3.393  12.786  0.3442 -0.3484 -0.0747
  542TMC3    C4 8095   3.604   3.553  13.016  0.2901  0.2740  1.0311
  542TMC3    C5 8096   3.538   3.591  12.898  0.2048  0.9191  0.3811
  542TMC3    C6 8097   3.539   3.515  12.786  0.0087 -0.6946 -0.2484
  542TMC3     C 8098   3.682   3.341  13.133  0.0766 -0.3575  0.0052
  542TMC3     O 8099   3.642   3.226  13.138 -0.1385 -0.5586 -0.2478
  542TMC3     H 8100   3.709   3.248  12.896  0.4333 -0.3978  3.4145
  542TMC3    H1 8101   3.589   3.599  13.113 -1.4683 -1.1650  1.4294
  542TMC3    H2 8102   3.487   3.535  12.692  1.4392  2.1233 -0.4309
  542TMC3    C7 8103   3.467   3.715  12.898  0.1970 -0.0437  0.6372
  542TMC3    C8 8104   3.617   3.307  12.668  0.0779 -0.8261  0.1335
  542TMC3    O1 8105   3.461   3.787  13.001  0.0371 -0.1913  0.5643
  542TMC3    O2 8106   3.540   3.328  12.580 -0.0261  0.1456 -0.1102
  543TMC3    C1 8107   3.135   4.739  17.308  0.1884  0.0036 -0.4503
  543TMC3    C2 8108   3.181   4.623  17.359  0.4705 -0.1726  0.2928
  543TMC3    C3 8109   3.101   4.549  17.438  0.9819 -0.2753 -0.0752
  543TMC3    C4 8110   3.029   0.064  17.360  0.5028 -0.6176 -0.3178
  543TMC3    C5 8111   2.944   4.731  17.438 -0.5942  0.0972 -0.0389
  543TMC3    C6 8112   2.978   4.599  17.470  0.4090 -0.4080  0.6803
  543TMC3     C 8113   3.180   0.016  17.169  0.0959  0.6235 -0.0236
  543TMC3     O 8114   3.284   4.698  17.131  0.1095  0.0356  0.2226
  543TMC3     H 8115   3.272   4.580  17.320 -0.8370 -2.1561 -0.5737
  543TMC3    H1 8116   3.006   0.168  17.340  0.2192 -0.2754  1.8017
  543TMC3    H2 8117   2.897   4.546  17.519  0.4334 -0.4975  0.6227
  543TMC3    C7 8118   2.847   0.061  17.528  0.3463 -0.5435  0.0155
  543TMC3    C8 8119   3.122   4.408  17.407 -1.1852 -0.3246 -0.4304
  543TMC3    O1 8120   2.747   0.003  17.571 -0.3119 -0.1504  1.1042
  543TMC3    O2 8121   3.158   4.381  17.294  0.2134 -0.7952 -0.2731
  544MPD2     C 8122   3.109   3.904  17.503 -0.0768 -0.0174 -0.6261
  544MPD2    C1 8123   3.128   3.972  17.388  0.1510 -0.2371  1.0210
  544MPD2    C2 8124   3.138   4.108  17.387 -0.0681 -0.0120 -0.5045
  544MPD2    C3 8125   3.125   4.179  17.507 -0.4618  0.4908 -0.4939
  544MPD2    C4 8126   3.118   4.107  17.624 -0.2759  0.4218 -0.3722
  544MPD2    C5 8127   3.109   3.974  17.623 -0.1440 -0.2731 -0.4447
  544MPD2     H 8128   3.161   4.161  17.295 -0.6557 -0.4476 -0.9022
  544MPD2    H1 8129   3.111   4.159  17.720  1.9334  0.7899 -0.3928
  544MPD2    H2 8130   3.088   3.798  17.509  1.2077 -0.1659  1.2616
  544MPD2    H3 8131   3.104   3.909  17.710 -0.8290 -0.0965 -0.3530
  544MPD2     N 8132   3.106   4.318  17.509  0.6491 -0.2936 -0.1441
  544MPD2    H5 8133   3.071   4.356  17.597  0.4758 -0.9708  0.0742
  544MPD2    N1 8134   3.124   3.901  17.264 -0.1471  0.4722  0.1969
  544MPD2    H7 8135   3.107   3.801  17.276  0.9458  0.3418  0.6454
  545TMC3    C1 8136   3.130   3.831  17.040  0.2900  0.3830 -0.1860
  545TMC3    C2 8137   3.076   3.864  16.920  0.5321  0.0033 -0.1849
  545TMC3    C3 8138   3.071   3.763  16.824 -0.4184 -0.1254 -0.1075
  545TMC3    C4 8139   3.166   3.702  17.074  0.6875 -0.0055  0.5376
  545TMC3    C5 8140   3.148   3.603  16.973 -1.5617 -0.3303 -1.2033
  545TMC3    C6 8141   3.108   3.637  16.846  0.1796 -0.0381 -0.1488
  545TMC3     C 8142   3.141   3.947  17.137 -1.3063  0.7060  0.4043
  545TMC3     O 8143   3.147   4.065  17.097 -0.0170  0.4112  0.6278
  545TMC3     H 8144   3.049   3.966  16.895 -1.1887 -0.5006 -0.3574
  545TMC3    H1 8145   3.220   3.677  17.165 -0.9474 -3.8907  0.4559
  545TMC3    H2 8146   3.111   3.563  16.768  1.2763  2.2502 -2.2632
  545TMC3    C7 8147   3.175   3.457  17.000 -0.3487  0.2904 -0.7465
  545TMC3    C8 8148   3.032   3.789  16.690 -0.1410 -0.6479  0.6235
  545TMC3    O1 8149   3.206   3.382  16.912 -0.3045  0.2031  0.0623
  545TMC3    O2 8150   3.052   3.705  16.610 -1.2118 -0.0704 -0.0453
  546MPD2     C 8151   4.423   4.059   0.035  0.9883 -0.2528 -0.8874
  546MPD2    C1 8152   4.395   4.121  17.673  1.1017 -0.7229 -0.2821
  546MPD2    C2 8153   4.431   4.253  17.663  0.0807  0.2542 -0.5436
  546MPD2    C3 8154   4.477   4.321   0.013  0.0044 -1.1556  0.6001
  546MPD2    C4 8155   4.496   4.266   0.132 -0.0004  0.2684 -1.1115
  546MPD2    C5 8156   4.479   4.132   0.143  0.4917 -0.4519  0.3729
  546MPD2     H 8157   4.411   4.303  17.568  1.7527  2.0228  0.0283
  546MPD2    H1 8158   4.541   4.319   0.215 -1.0656 -4.3833  2.4017
  546MPD2    H2 8159   4.410   3.953   0.049  0.2465  0.0376  0.6555
  546MPD2    H3 8160   4.500   4.088   0.240  0.5120 -1.3645 -0.0434
  546MPD2     N 8161   4.535   4.457  17.754 -0.0192 -0.0797  0.2221
  546MPD2    H5 8162   4.573   4.494   0.082 -0.2052 -0.5022  0.4831
  546MPD2    N1 8163   4.338   4.039  17.575 -0.6145 -0.2117 -0.4451
  546MPD2    H7 8164   4.320   3.942  17.596  0.9974 -0.0228  1.7599
  547TMC3    C1 8165   4.230   3.993  17.362 -0.5260 -0.2961  0.0457
  547TMC3    C2 8166   4.176   4.048  17.246  0.5006  0.4745 -0.6690
  547TMC3    C3 8167   4.085   3.967  17.180 -0.6003 -0.3804  0.1261
  547TMC3    C4 8168   4.224   3.860  17.392 -0.2091 -0.8601  0.1356
  547TMC3    C5 8169   4.128   3.789  17.322  0.4198  0.2412  0.4759
  547TMC3    C6 8170   4.060   3.838  17.216 -0.1981 -0.0907  0.3914
  547TMC3     C 8171   4.299   4.085  17.451 -0.4762  0.1613 -0.7076
  547TMC3     O 8172   4.310   4.199  17.404  0.0489 -0.2601 -0.1407
  547TMC3     H 8173   4.181   4.155  17.228 -1.9985  0.5499 -0.9376
  547TMC3    H1 8174   4.270   3.816  17.480  0.1604 -0.8381 -0.0436
  547TMC3    H2 8175   3.992   3.774  17.161  1.8983  0.2681 -2.5934
  547TMC3    C7 8176   4.104   3.651  17.360 -0.2507  0.1314  0.3192
  547TMC3    C8 8177   4.030   4.013  17.056 -0.0664 -0.3179 -0.2601
  547TMC3    O1 8178   4.144   3.619  17.474  0.0723  0.6348  0.3448
  547TMC3    O2 8179   3.934   3.952  17.010  0.3605 -0.3393  0.4336
  548MPD2     C 8180   4.083   0.473  12.063  0.3879  0.1554 -0.0623
  548MPD2    C1 8181   4.029   0.354  12.111  0.2327 -0.0255  0.1679
  548MPD2    C2 8182   4.115   0.246  12.111 -0.1129 -0.0623 -0.6985
  548MPD2    C3 8183   4.250   0.258  12.072  0.2371 -0.4566  0.1191
  548MPD2    C4 8184   4.292   0.377  12.020  0.1899  0.5117 -0.6154
  548MPD2    C5 8185   4.203   0.477  12.002  0.5400  0.6845  0.2870
  548MPD2     H 8186   4.082   0.162  12.171  0.4274 -1.8082 -2.8591
  548MPD2    H1 8187   4.387   0.380  11.968  0.9238  0.4437  0.7556
  548MPD2    H2 8188   4.023   0.563  12.067  0.3700  0.2170 -1.7452
  548MPD2    H3 8189   4.242   0.566  11.953 -2.0880  1.3021 -0.7051
  548MPD2     N 8190   4.332   0.144  12.095 -0.0457 -0.3375  0.6422
  548MPD2    H5 8191   4.282   0.060  12.121 -2.1970  0.1602 -1.9239
  548MPD2    N1 8192   3.910   0.363  12.187  0.3262 -0.2664 -0.1703
  548MPD2    H7 8193   3.855   0.445  12.159 -1.3421 -1.0718  0.7406
  549TMC3    C1 8194   3.730   0.302  12.316 -0.9261  0.3597  0.1416
  549TMC3    C2 8195   3.671   0.426  12.300 -0.1739 -0.0226 -0.0193
  549TMC3    C3 8196   3.541   0.445  12.350 -0.0102 -0.5931 -0.9134
  549TMC3    C4 8197   3.667   0.194  12.377 -0.5094 -0.2081  0.4719
  549TMC3    C5 8198   3.544   0.225  12.428 -0.4055 -0.6371  0.0990
  549TMC3    C6 8199   3.487   0.345  12.424 -0.2548  0.8146  0.2535
  549TMC3     C 8200   3.861   0.269  12.268 -0.0890 -0.0031 -0.5190
  549TMC3     O 8201   3.912   0.167  12.308  0.3623 -0.3183 -0.2096
  549TMC3     H 8202   3.732   0.511  12.272 -0.7972  0.6965  0.8372
  549TMC3    H1 8203   3.698   0.091  12.366 -0.6338 -0.3239  1.1873
  549TMC3    H2 8204   3.387   0.358  12.466 -0.6893 -2.0399  0.0558
  549TMC3    C7 8205   3.449   0.118  12.417 -0.0953 -0.0115 -0.3525
  549TMC3    C8 8206   3.462   0.562  12.331  0.6103  0.4121 -0.2097
  549TMC3    O1 8207   3.343   0.150  12.361 -0.4003  0.1643  0.2794
  549TMC3    O2 8208   3.349   0.579  12.381 -0.3315 -0.4916 -0.5181
  550TMC3    C1 8209   2.911   3.364  13.246  0.3581  0.1151  0.7076
  550TMC3    C2 8210   2.850   3.447  13.332  0.1138 -0.4667 -0.1020
  550TMC3    C3 8211   2.764   3.546  13.281  0.1525 -0.4941  0.5303
  550TMC3    C4 8212   2.900   3.386  13.112  0.2478  0.0757 -0.5336
  550TMC3    C5 8213   2.811   3.482  13.067  0.0334  0.3383  0.2641
  550TMC3    C6 8214   2.746   3.564  13.149  0.0348  0.0912 -0.5283
  550TMC3     C 8215   2.909   3.222  13.284  0.4431 -0.3423 -0.5310
  550TMC3     O 8216   2.923   3.191  13.402 -0.1395 -0.2513  0.7803
  550TMC3     H 8217   2.857   3.427  13.438  2.7002  2.0646  0.1939
  550TMC3    H1 8218   2.962   3.331  13.042 -3.5172 -1.7762 -2.3995
  550TMC3    H2 8219   2.681   3.644  13.115 -0.1948 -0.8298 -2.2595
  550TMC3    C7 8220   2.744   3.426  12.953 -0.2641  0.1719 -0.1931
  550TMC3    C8 8221   2.667   3.617  13.370  0.2226 -0.4348  0.3975
  550TMC3    O1 8222   2.754   3.305  12.927 -0.5135 -0.1869  0.4303
  550TMC3    O2 8223   2.610   3.714  13.324 -0.6276  0.6037  0.2442
  551TMC3    C1 8224   0.832   0.694  13.721 -0.8780 -0.1009  0.3465
  551TMC3    C2 8225   0.923   0.592  13.696 -0.6281  0.9312 -0.6608
  551TMC3    C3 8226   0.982   0.540  13.809  0.7345 -0.1389 -0.0668
  551TMC3    C4 8227   0.816   0.752  13.842 -0.6734  0.6973  1.5924
  551TMC3    C5 8228   0.881   0.699  13.947  0.2065 -0.4127 -0.1690
  551TMC3    C6 8229   0.964   0.589  13.931  0.4745  0.0635  0.2052
  551TMC3     C 8230   0.751   0.749  13.602  0.3210 -0.4548 -0.3777
  551TMC3     O 8231   0.716   0.865  13.591  0.0239 -0.1833  0.0526
  551TMC3     H 8232   0.935   0.567  13.591  1.8121 -0.9639  0.0741
  551TMC3    H1 8233   0.744   0.832  13.856 -2.2801 -0.6392  1.0402
  551TMC3    H2 8234   1.008   0.548  14.021  0.2856  0.7492  0.6097
  551TMC3    C7 8235   0.906   0.775  14.068  0.3706 -0.9192 -0.3078
  551TMC3    C8 8236   1.080   0.433  13.797 -0.3787 -0.3795  0.3914
  551TMC3    O1 8237   0.966   0.718  14.156 -0.5690  0.2475  0.4105
  551TMC3    O2 8238   1.124   0.389  13.904  0.9443  0.1721  0.4395
  552MPD2     C 8239   2.253   2.573  14.443  0.5181 -0.7322 -0.3170
  552MPD2    C1 8240   2.328   2.482  14.374  0.4548  0.2035  0.0962
  552MPD2    C2 8241   2.455   2.456  14.426 -0.3425 -0.9547  0.3114
  552MPD2    C3 8242   2.506   2.496  14.553  0.3483 -0.4456 -0.8740
  552MPD2    C4 8243   2.419   2.574  14.625 -0.4388 -0.2106 -0.1327
  552MPD2    C5 8244   2.304   2.617  14.565 -0.2401 -0.0113  0.6107
  552MPD2     H 8245   2.507   2.390  14.357 -1.4899 -1.4582 -0.0766
  552MPD2    H1 8246   2.438   2.617  14.723 -0.8539 -1.5561  0.5438
  552MPD2    H2 8247   2.160   2.613  14.406 -0.2542 -1.9649  0.2853
  552MPD2    H3 8248   2.243   2.693  14.610 -0.0640  0.6743 -0.3075
  552MPD2     N 8249   2.626   2.457  14.609 -0.4522  0.1954 -0.2460
  552MPD2    H5 8250   2.659   2.500  14.695  0.1703  2.7488 -1.7497
  552MPD2    N1 8251   2.289   2.414  14.253  0.1296  0.0421 -0.0191
  552MPD2    H7 8252   2.358   2.349  14.217 -0.3066 -0.4229 -0.0110
  553TMC3    C1 8253   2.135   2.311  14.103  0.0232 -0.3466 -0.5924
  553TMC3    C2 8254   2.237   2.292  14.005  0.1943  0.3155  0.2854
  553TMC3    C3 8255   2.240   2.176  13.946 -0.3891 -0.1458  0.6089
  553TMC3    C4 8256   2.077   2.206  14.165 -0.3436 -0.6122  0.5986
  553TMC3    C5 8257   2.118   2.076  14.135 -0.3984  0.4517  0.0423
  553TMC3    C6 8258   2.194   2.066  14.021  0.1732  0.4790 -0.2024
  553TMC3     C 8259   2.166   2.415  14.195 -0.0485  0.4131  0.1033
  553TMC3     O 8260   2.068   2.474  14.243 -0.0757 -0.5777 -0.0057
  553TMC3     H 8261   2.287   2.380  13.964  1.2515 -0.8654 -0.9488
  553TMC3    H1 8262   2.013   2.228  14.250 -1.1566 -1.5592  0.2265
  553TMC3    H2 8263   2.211   1.963  13.995  2.0783  0.5163  0.8858
  553TMC3    C7 8264   2.185   2.024  14.257 -0.6179  0.8738  0.0643
  553TMC3    C8 8265   2.328   2.158  13.834  0.0615 -0.2693 -0.6116
  553TMC3    O1 8266   2.136   2.063  14.364  0.1844  0.6468 -0.1608
  553TMC3    O2 8267   2.430   2.225  13.827 -0.2350  0.6232 -0.5498
  554TMC3    C1 8268   3.825   1.269  11.850 -0.2481 -0.8127  0.1120
  554TMC3    C2 8269   3.722   1.315  11.774  0.1283 -0.1413 -1.0406
  554TMC3    C3 8270   3.749   1.433  11.704 -0.1656 -0.1648 -0.5097
  554TMC3    C4 8271   3.938   1.342  11.879  0.2198 -0.2396 -0.8478
  554TMC3    C5 8272   3.957   1.459  11.810 -0.0217 -0.2660  0.2908
  554TMC3    C6 8273   3.858   1.514  11.733 -0.0610 -0.0180 -0.0309
  554TMC3     C 8274   3.802   1.147  11.935  0.7478  0.3197  0.0080
  554TMC3     O 8275   3.686   1.120  11.960 -0.0599  0.2958  0.1685
  554TMC3     H 8276   3.644   1.245  11.747 -0.1684  0.1601 -0.9670
  554TMC3    H1 8277   4.011   1.304  11.950 -2.2252 -2.1398  0.6448
  554TMC3    H2 8278   3.873   1.602  11.673  0.4252  1.0512  1.6418
  554TMC3    C7 8279   4.077   1.528  11.809  0.2494 -0.2740 -0.9388
  554TMC3    C8 8280   3.728   1.424  11.559 -0.3517  0.1809 -0.5886
  554TMC3    O1 8281   4.079   1.647  11.778 -0.0915 -0.4445 -0.3019
  554TMC3    O2 8282   3.800   1.495  11.494  0.4631 -0.0606  0.3531
  555TMC3    C1 8283   3.607   0.988  15.302 -0.0031 -0.2849 -0.8287
  555TMC3    C2 8284   3.566   1.082  15.396  1.0662  0.5319  0.3524
  555TMC3    C3 8285   3.549   1.035  15.521  0.1644  0.3194 -0.3630
  555TMC3    C4 8286   3.614   0.856  15.332 -0.4509  0.8904  0.1325
  555TMC3    C5 8287   3.584   0.817  15.456 -0.6654  0.1402 -0.8919
  555TMC3    C6 8288   3.536   0.901  15.553 -1.4164 -0.0577  0.6590
  555TMC3     C 8289   3.650   1.041  15.177 -0.0078  0.5637 -0.4597
  555TMC3     O 8290   3.758   1.001  15.129 -0.6660  0.7719 -0.1096
  555TMC3     H 8291   3.579   1.187  15.371 -0.5785  0.5405 -0.5023
  555TMC3    H1 8292   3.649   0.793  15.251 -0.4794  1.3613 -0.2421
  555TMC3    H2 8293   3.493   0.868  15.647 -0.5511 -0.0960  1.0406
  555TMC3    C7 8294   3.554   0.683  15.464  0.4237  0.0163  0.6137
  555TMC3    C8 8295   3.510   1.130  15.628  0.4980 -0.0858  0.1300
  555TMC3    O1 8296   3.469   0.653  15.539 -0.3237 -0.0427 -0.0018
  555TMC3    O2 8297   3.453   1.230  15.583  0.1261 -0.2231  0.2437
  556MPD2     C 8298   1.802   2.815  10.628 -0.3568  0.3638  0.1844
  556MPD2    C1 8299   1.772   2.710  10.710 -1.0558 -0.7722 -0.0275
  556MPD2    C2 8300   1.740   2.590  10.653 -1.2840 -0.1296  0.5311
  556MPD2    C3 8301   1.745   2.571  10.519  0.4686 -0.1635  0.2020
  556MPD2    C4 8302   1.771   2.680  10.437  0.0296  0.4734 -0.1489
  556MPD2    C5 8303   1.793   2.801  10.493  0.0472  0.2859  0.8265
  556MPD2     H 8304   1.710   2.501  10.708  1.4410 -1.4939 -0.2018
  556MPD2    H1 8305   1.781   2.679  10.329  2.0183  2.4337  0.0194
  556MPD2    H2 8306   1.827   2.915  10.659  0.2957  0.4314 -0.5529
  556MPD2    H3 8307   1.815   2.892  10.437 -1.7554  1.0168  1.3213
  556MPD2     N 8308   1.723   2.440  10.470  0.3134 -0.0196  0.4504
  556MPD2    H5 8309   1.707   2.372  10.544 -2.0058 -0.6491 -0.6313
  556MPD2    N1 8310   1.784   2.726  10.847  0.8222 -0.3866 -0.4722
  556MPD2    H7 8311   1.816   2.818  10.876  1.3116 -1.2090  1.6125
  557TMC3    C1 8312   1.724   2.248  10.327  0.4268  0.0933  0.2670
  557TMC3    C2 8313   1.756   2.192  10.204 -0.2191  0.3767  0.5293
  557TMC3    C3 8314   1.739   2.061  10.188  0.5804  0.1538 -0.5518
  557TMC3    C4 8315   1.668   2.168  10.427 -0.2042  0.2961 -0.3813
  557TMC3    C5 8316   1.648   2.037  10.411 -0.6317 -0.4489 -0.4739
  557TMC3    C6 8317   1.689   1.981  10.291 -0.4364 -0.4237 -0.7040
  557TMC3     C 8318   1.731   2.398  10.342 -0.0531  0.5776  0.0491
  557TMC3     O 8319   1.779   2.462  10.247  0.4086  0.1938  0.4126
  557TMC3     H 8320   1.784   2.249  10.117  1.1372 -0.7521  0.2090
  557TMC3    H1 8321   1.645   2.214  10.522 -0.7147 -2.7506  0.9958
  557TMC3    H2 8322   1.678   1.874  10.276 -0.8866 -0.5152  0.2708
  557TMC3    C7 8323   1.562   1.983  10.508  0.6329  0.4186 -0.2058
  557TMC3    C8 8324   1.766   2.002  10.053  0.2960  0.4052  0.7667
  557TMC3    O1 8325   1.557   2.033  10.620 -0.2288 -0.3264 -0.4072
  557TMC3    O2 8326   1.826   2.074   9.974 -0.1364 -1.0456  0.1189
  558TMC3    C1 8327   4.158   0.369  10.272  1.0226  0.0507  0.5426
  558TMC3    C2 8328   4.050   0.420  10.330  0.6577  0.3433 -0.3332
  558TMC3    C3 8329   3.932   0.407  10.256  0.2084  0.1883  1.0410
  558TMC3    C4 8330   4.160   0.296  10.154 -0.1069 -0.1245 -0.5499
  558TMC3    C5 8331   4.034   0.278  10.101  0.6912 -0.6380  0.1893
  558TMC3    C6 8332   3.919   0.336  10.143  0.4025 -0.7514  0.1151
  558TMC3     C 8333   4.280   0.355  10.345  0.4640 -0.3852 -0.1679
  558TMC3     O 8334   4.381   0.349  10.274  0.2994  0.4556  0.0416
  558TMC3     H 8335   4.054   0.479  10.421 -0.3931  0.6286 -0.4666
  558TMC3    H1 8336   4.246   0.242  10.116 -1.9779 -1.6742 -2.5241
  558TMC3    H2 8337   3.831   0.329  10.080  1.9325  0.9121 -2.1791
  558TMC3    C7 8338   4.033   0.218   9.968 -0.0257  0.2912  0.4565
  558TMC3    C8 8339   3.807   0.435  10.329  0.1503  0.4592  0.2479
  558TMC3    O1 8340   4.128   0.237   9.892  0.3802 -0.4152  0.0392
  558TMC3    O2 8341   3.708   0.430  10.258  0.5390 -0.5311  0.1291
  559MPD2     C 8342   4.020   0.724  10.151 -0.2581  0.3771  0.3641
  559MPD2    C1 8343   3.994   0.770  10.280 -0.9313 -0.1291 -0.1780
  559MPD2    C2 8344   4.100   0.776  10.372 -0.1668  0.4842  0.2803
  559MPD2    C3 8345   4.224   0.730  10.336  1.3429 -0.1543 -0.7041
  559MPD2    C4 8346   4.247   0.697  10.201  0.5185 -0.2421  0.3616
  559MPD2    C5 8347   4.149   0.704  10.110  0.0963 -0.1496  0.0440
  559MPD2     H 8348   4.094   0.800  10.478  2.8036  2.1531  0.0684
  559MPD2    H1 8349   4.342   0.655  10.171 -1.4527 -2.8954 -2.1196
  559MPD2    H2 8350   3.942   0.713  10.077  1.0773  0.6438 -1.1068
  559MPD2    H3 8351   4.169   0.666  10.010  0.9941  0.3722  0.0275
  559MPD2     N 8352   4.320   0.728  10.434  0.3417 -0.1048 -0.3808
  559MPD2    H5 8353   4.308   0.772  10.525 -1.4250  0.3358 -0.8343
  559MPD2    N1 8354   3.860   0.812  10.306  0.1311 -0.1967  0.2049
  559MPD2    H7 8355   3.803   0.810  10.222 -2.6158  0.8352  2.0356
  560TMC3    C1 8356   4.500   0.679  10.556 -0.0863  0.3155 -0.0102
  560TMC3    C2 8357   4.406   0.675  10.657  1.4752  0.0353 -0.4524
  560TMC3    C3 8358   4.463   0.686  10.785  0.2118  0.0377  0.1688
  560TMC3    C4 8359   4.637   0.695  10.580 -0.1285 -0.4024 -0.6405
  560TMC3    C5 8360   4.682   0.708  10.710  0.6362 -0.5265  0.0443
  560TMC3    C6 8361   4.597   0.715  10.815  0.7139 -0.1131  0.2829
  560TMC3     C 8362   4.444   0.684  10.424  1.1402  0.1238 -0.0067
  560TMC3     O 8363   4.510   0.670  10.320  0.0408  0.2578 -0.7437
  560TMC3     H 8364   4.301   0.650  10.647  1.6782 -0.3007 -1.7397
  560TMC3    H1 8365   4.701   0.676  10.495  0.0249 -1.2491 -0.3394
  560TMC3    H2 8366   4.641   0.732  10.912  0.8794  0.9052  0.0246
  560TMC3    C7 8367   0.088   0.717  10.728 -0.2632 -0.4839 -0.3753
  560TMC3    C8 8368   4.366   0.666  10.886 -0.2547  0.5359  0.0789
  560TMC3    O1 8369   0.157   0.639  10.665 -0.0234  0.2368  0.4294
  560TMC3    O2 8370   4.248   0.666  10.852 -0.6432 -0.2086  0.0941
  561TMC3    C1 8371   2.180   4.478  11.423  0.7543  0.3102  0.7482
  561TMC3    C2 8372   2.071   4.404  11.408 -1.0359 -0.2962  0.1840
  561TMC3    C3 8373   1.944   4.459  11.420  0.1076 -0.0465  0.2672
  561TMC3    C4 8374   2.171   4.614  11.434 -0.6020 -0.3193 -0.2947
  561TMC3    C5 8375   2.047   4.671  11.443 -0.1287  0.2209 -0.3605
  561TMC3    C6 8376   1.935   4.593  11.434  0.6050 -0.0902 -0.0082
  561TMC3     C 8377   2.301   4.408  11.382 -0.1124 -0.5969 -0.9142
  561TMC3     O 8378   2.314   4.292  11.421  0.0959 -0.3120 -0.1885
  561TMC3     H 8379   2.084   4.297  11.396 -1.9600 -0.0076 -3.3700
  561TMC3    H1 8380   2.259   4.674  11.451 -1.5760  1.8786 -2.9666
  561TMC3    H2 8381   1.836   4.633  11.415 -0.0399 -1.7158 -0.0954
  561TMC3    C7 8382   2.041   0.071  11.460  0.5101 -0.5831  0.7103
  561TMC3    C8 8383   1.853   4.381  11.511 -0.7678  0.1695  0.5598
  561TMC3    O1 8384   1.934   0.115  11.493  0.1755 -0.0725 -0.0463
  561TMC3    O2 8385   1.853   4.256  11.510 -0.0137 -0.2184  0.1617
  562TMC3    C1 8386   3.439   1.585  16.639 -0.3345  0.1961  0.1719
  562TMC3    C2 8387   3.398   1.709  16.595 -0.5658  0.5597 -1.3096
  562TMC3    C3 8388   3.346   1.723  16.470  0.2915 -0.1691  0.2399
  562TMC3    C4 8389   3.424   1.476  16.561 -0.1263  0.2973 -0.8615
  562TMC3    C5 8390   3.361   1.495  16.445 -0.1143  0.0117  0.1020
  562TMC3    C6 8391   3.336   1.617  16.391  0.2862  0.0527 -0.9287
  562TMC3     C 8392   3.448   1.567  16.789  0.0223  0.2703  0.1455
  562TMC3     O 8393   3.504   1.466  16.838  0.1148  0.0924 -0.6481
  562TMC3     H 8394   3.428   1.792  16.659 -1.4929  0.9029 -1.3249
  562TMC3    H1 8395   3.461   1.388  16.613 -1.2638  0.0922 -0.3832
  562TMC3    H2 8396   3.278   1.610  16.300  0.2683  1.4814 -1.0278
  562TMC3    C7 8397   3.307   1.377  16.376 -0.0128 -0.5256 -0.4092
  562TMC3    C8 8398   3.247   1.827  16.459 -0.4937 -0.6725  0.2327
  562TMC3    O1 8399   3.249   1.397  16.269  0.0791 -0.5308  0.2817
  562TMC3    O2 8400   3.221   1.891  16.563  0.2060  0.2545  0.0839
  563MPD2     C 8401   0.950   2.802  15.986  0.6246 -0.3600 -0.1070
  563MPD2    C1 8402   0.957   2.738  16.105 -0.4904  0.5658 -0.2414
  563MPD2    C2 8403   1.078   2.702  16.162 -0.8979 -0.1915  0.2610
  563MPD2    C3 8404   1.200   2.743  16.112 -0.3264 -0.5551 -0.0935
  563MPD2    C4 8405   1.193   2.814  15.997  0.1355 -1.5437  0.0335
  563MPD2    C5 8406   1.072   2.829  15.935 -0.2902 -0.6143 -0.5401
  563MPD2     H 8407   1.077   2.658  16.261  1.1943  1.0026  0.8001
  563MPD2    H1 8408   1.285   2.844  15.948 -0.9293 -0.3264 -1.2090
  563MPD2    H2 8409   0.859   2.838  15.941  0.0181  0.1026  1.4868
  563MPD2    H3 8410   1.069   2.872  15.836 -2.3715  0.9447  0.1939
  563MPD2     N 8411   1.307   2.709  16.195  0.0267 -0.1679 -0.0634
  563MPD2    H5 8412   1.282   2.659  16.280  1.1903  2.9049  2.0783
  563MPD2    N1 8413   0.843   2.706  16.180 -0.4459 -0.1864  0.2964
  563MPD2    H7 8414   0.859   2.656  16.266 -1.2116 -1.1520 -0.1137
  564TMC3    C1 8415   0.621   2.693  16.256  0.1143  0.1687  0.6430
  564TMC3    C2 8416   0.532   2.602  16.217  0.0972 -0.4264 -0.0649
  564TMC3    C3 8417   0.504   2.494  16.307  0.5064  0.6897 -0.0729
  564TMC3    C4 8418   0.698   2.688  16.369  0.3748 -0.1870 -0.0646
  564TMC3    C5 8419   0.674   2.581  16.453 -0.0115 -0.3145  0.2807
  564TMC3    C6 8420   0.574   2.485  16.421 -0.0627 -0.7304 -0.3631
  564TMC3     C 8421   0.710   2.746  16.150  0.0509  0.8773  0.1793
  564TMC3     O 8422   0.653   2.775  16.041  0.5066  0.0690 -0.4751
  564TMC3     H 8423   0.467   2.611  16.131 -0.4932 -1.1371  0.3107
  564TMC3    H1 8424   0.764   2.767  16.402  1.4512 -0.0772 -2.4953
  564TMC3    H2 8425   0.559   2.399  16.484 -2.1947 -0.3881 -0.4051
  564TMC3    C7 8426   0.795   2.529  16.519 -0.2804 -0.0984 -0.6725
  564TMC3    C8 8427   0.408   2.390  16.278 -0.0058  0.1906 -0.0047
  564TMC3    O1 8428   0.901   2.574  16.478  0.2425  0.5152 -0.4169
  564TMC3    O2 8429   0.379   2.318  16.375  0.1912 -0.3091  0.5865
  565TMC3    C1 8430   1.540   3.965  10.406  0.0191  0.2499 -0.0725
  565TMC3    C2 8431   1.496   3.874  10.498  0.2096  0.2157  0.1078
  565TMC3    C3 8432   1.490   3.747  10.451  0.5622 -0.1785  0.5048
  565TMC3    C4 8433   1.603   3.933  10.287 -0.1976 -0.6556  0.3081
  565TMC3    C5 8434   1.598   3.798  10.253  0.3887  0.2262  0.5608
  565TMC3    C6 8435   1.539   3.700  10.330 -1.0253  0.4922  0.0307
  565TMC3     C 8436   1.553   4.104  10.436  0.2948  0.2123 -0.1097
  565TMC3     O 8437   1.583   4.179  10.344  0.7317  0.1228 -0.1336
  565TMC3     H 8438   1.454   3.904  10.594  1.0954  0.0220  0.5590
  565TMC3    H1 8439   1.661   4.010  10.238  0.0451 -0.2528  1.2275
  565TMC3    H2 8440   1.571   3.597  10.314  0.1164  1.3040 -2.8544
  565TMC3    C7 8441   1.681   3.766  10.145  0.0194  0.1218  0.1368
  565TMC3    C8 8442   1.440   3.646  10.530  0.0196 -0.7472  0.7589
  565TMC3    O1 8443   1.776   3.842  10.125  0.3857 -0.8158  0.3605
  565TMC3    O2 8444   1.441   3.677  10.648  0.1379  0.0926  0.1262
  566MPD2     C 8445   2.899   1.006  14.705 -0.5070 -0.4330  0.1271
  566MPD2    C1 8446   2.971   1.043  14.593  0.2961  0.0647 -0.0940
  566MPD2    C2 8447   2.914   1.041  14.467  0.9015 -0.7135 -0.0925
  566MPD2    C3 8448   2.788   0.993  14.448  0.3239 -0.1173 -0.2428
  566MPD2    C4 8449   2.713   0.955  14.560 -0.4277 -0.0501 -1.1381
  566MPD2    C5 8450   2.774   0.964  14.684  0.3187  0.2696 -0.1851
  566MPD2     H 8451   2.970   1.071  14.379  2.1088  1.6028  1.4523
  566MPD2    H1 8452   2.606   0.939  14.558 -0.4799  0.3023 -1.1227
  566MPD2    H2 8453   2.936   1.014  14.807 -0.4861 -1.1959  0.1810
  566MPD2    H3 8454   2.716   0.947  14.774 -0.7185 -0.8264 -1.0687
  566MPD2     N 8455   2.745   0.975  14.312  0.4133  0.4553  0.6386
  566MPD2    H5 8456   2.796   1.003  14.228 -3.3854 -0.8746 -2.1157
  566MPD2    N1 8457   3.107   1.081  14.615 -0.3103  0.1644 -0.2756
  566MPD2    H7 8458   3.148   1.037  14.697 -0.6974  1.4779  0.6171
  567TMC3    C1 8459   3.313   1.154  14.528 -0.2675  0.5578 -0.3107
  567TMC3    C2 8460   3.363   1.183  14.410 -0.2671  0.0181 -0.4511
  567TMC3    C3 8461   3.471   1.108  14.360  0.5600 -0.2926  0.6044
  567TMC3    C4 8462   3.372   1.056  14.608 -0.0476 -0.2104  0.0940
  567TMC3    C5 8463   3.485   0.992  14.564  0.2374 -0.3719 -0.0225
  567TMC3    C6 8464   3.537   1.021  14.444 -0.1756  0.2305 -0.6585
  567TMC3     C 8465   3.176   1.178  14.543  0.0011  0.8948  0.0996
  567TMC3     O 8466   3.128   1.257  14.466  0.1427 -0.0474 -0.5495
  567TMC3     H 8467   3.317   1.254  14.343 -1.5060 -0.7365 -0.3985
  567TMC3    H1 8468   3.335   1.032  14.707 -1.6493 -1.5554 -0.8431
  567TMC3    H2 8469   3.626   0.971  14.407 -1.2282 -1.6919 -0.5433
  567TMC3    C7 8470   3.562   0.906  14.657  0.6794  0.2802 -0.2380
  567TMC3    C8 8471   3.495   1.107  14.216 -0.0773 -0.9854  0.1006
  567TMC3    O1 8472   3.662   0.849  14.608 -0.5559 -0.0314 -0.5859
  567TMC3    O2 8473   3.403   1.144  14.147  0.5898 -0.8462  0.1229
  568MPD2     C 8474   4.566   1.068  16.423 -0.0834  0.0998  0.2907
  568MPD2    C1 8475   4.633   1.148  16.509 -0.4423  0.3242 -0.2998
  568MPD2    C2 8476   4.626   1.289  16.498 -0.3571  0.4817  0.1408
  568MPD2    C3 8477   4.554   1.350  16.394 -1.3324  0.2943 -0.3250
  568MPD2    C4 8478   4.482   1.263  16.307  0.2801 -0.1085 -0.2371
  568MPD2    C5 8479   4.485   1.125  16.325 -0.3518  0.3061  0.0814
  568MPD2     H 8480   4.670   1.346  16.579 -1.5155  1.9053 -0.2415
  568MPD2    H1 8481   4.427   1.295  16.220 -0.3797 -0.4618  0.0528
  568MPD2    H2 8482   4.567   0.960  16.434  0.3020 -0.0088 -0.8383
  568MPD2    H3 8483   4.431   1.061  16.255 -0.6973 -0.2168  0.8278
  568MPD2     N 8484   4.554   1.485  16.393 -0.2730  0.3873  0.2359
  568MPD2    H5 8485   4.596   1.530  16.474 -0.4007  2.1672 -0.6810
  568MPD2    N1 8486   4.710   1.088  16.610  0.1299  0.1429 -0.6184
  568MPD2    H7 8487   4.719   0.987  16.605 -0.0180  0.1755 -1.5282
  569TMC3    C1 8488   4.507   1.702  16.322  0.0818 -0.4103  0.2107
  569TMC3    C2 8489   4.515   1.741  16.452 -0.0612  0.1840  0.5357
  569TMC3    C3 8490   4.579   1.858  16.480  0.3589  0.3946  0.5198
  569TMC3    C4 8491   4.535   1.782  16.219 -0.0773 -0.0628 -0.4390
  569TMC3    C5 8492   4.611   1.892  16.252 -0.3036  0.6514 -0.1653
  569TMC3    C6 8493   4.633   1.934  16.380  0.3902 -0.5759  0.0137
  569TMC3     C 8494   4.495   1.562  16.291  0.2392  0.2547 -0.3090
  569TMC3     O 8495   4.437   1.530  16.191 -0.1392  0.2845  0.5730
  569TMC3     H 8496   4.478   1.678  16.531 -1.4356 -0.9189 -0.9889
  569TMC3    H1 8497   4.520   1.750  16.117  2.5961  0.1089 -0.8742
  569TMC3    H2 8498   4.677   2.028  16.411 -2.4272  0.2017  1.5918
  569TMC3    C7 8499   4.670   1.965  16.143 -0.6174 -0.0248  0.6172
  569TMC3    C8 8500   4.606   1.883  16.619 -0.3718 -0.0198  0.4243
  569TMC3    O1 8501   4.617   1.945  16.034 -0.3687  0.5912  0.1337
  569TMC3    O2 8502   4.528   1.830  16.694 -0.0110  0.1801  0.3339
  570TMC3    C1 8503   4.353   0.239  16.007 -0.7051 -0.2357  0.4080
  570TMC3    C2 8504   4.458   0.251  15.923  0.0222 -0.0495 -0.4481
  570TMC3    C3 8505   4.457   0.361  15.835 -0.2829 -0.6417 -0.4755
  570TMC3    C4 8506   4.255   0.334  16.021  0.7384  0.8890  0.1371
  570TMC3    C5 8507   4.255   0.436  15.929 -0.0880  0.5756 -0.7569
  570TMC3    C6 8508   4.356   0.451  15.833  0.9006  0.1303 -0.4521
  570TMC3     C 8509   4.360   0.128  16.103 -0.4394  0.3041  0.0604
  570TMC3     O 8510   4.388   0.019  16.058 -0.1478  0.5214  0.1112
  570TMC3     H 8511   4.542   0.183  15.934  1.6623  2.5413  3.3162
  570TMC3    H1 8512   4.163   0.324  16.078  0.4235  0.0969 -0.5066
  570TMC3    H2 8513   4.364   0.547  15.784  1.2143  1.4560  2.1629
  570TMC3    C7 8514   4.186   0.556  15.957 -0.2624  0.6359  0.6594
  570TMC3    C8 8515   4.588   0.414  15.802  0.2068 -0.4550  0.0429
  570TMC3    O1 8516   4.158   0.642  15.877 -0.0252 -0.0454 -0.0473
  570TMC3    O2 8517   4.611   0.529  15.831  0.0542 -0.3763 -0.1565
  571MPD2     C 8518   2.590   1.835   0.205  0.4019 -0.2429  0.2463
  571MPD2    C1 8519   2.481   1.921   0.185  0.2544  0.6258  0.4325
  571MPD2    C2 8520   2.486   2.043   0.251  0.3425 -0.5918 -0.0138
  571MPD2    C3 8521   2.588   2.088   0.330  0.5279  0.0852 -0.1749
  571MPD2    C4 8522   2.696   2.002   0.342  0.5060  0.4965 -0.1087
  571MPD2    C5 8523   2.701   1.884   0.263  0.0719  0.4798 -0.3081
  571MPD2     H 8524   2.399   2.107   0.245  0.5388 -0.4518 -1.3969
  571MPD2    H1 8525   2.769   2.025   0.419  0.7001 -2.6261  0.6688
  571MPD2    H2 8526   2.599   1.733   0.168 -0.1877  0.0784 -0.7934
  571MPD2    H3 8527   2.768   1.803   0.286  2.5678  1.9533 -2.4511
  571MPD2     N 8528   2.589   2.207   0.414  0.3635  0.1738  0.0412
  571MPD2    H5 8529   2.670   2.219   0.473  1.4805 -2.6671 -0.9051
  571MPD2    N1 8530   2.360   1.874   0.129  0.4642  0.0350 -0.9206
  571MPD2    H7 8531   2.357   1.773   0.118  0.9017  0.0672 -1.3270
  572TMC3    C1 8532   2.532   2.417   0.483 -0.5640 -0.9860 -0.1859
  572TMC3    C2 8533   2.565   2.389   0.611  0.0074 -0.0110  0.2855
  572TMC3    C3 8534   2.551   2.489   0.706 -0.2157 -0.3945 -0.6484
  572TMC3    C4 8535   2.493   2.542   0.444 -0.4818 -1.2685 -0.4583
  572TMC3    C5 8536   2.509   2.647   0.537 -0.1168  0.0569 -0.5523
  572TMC3    C6 8537   2.553   2.621   0.667 -0.1320  0.5497  0.8918
  572TMC3     C 8538   2.507   2.312   0.396  0.3159  0.1613  0.3847
  572TMC3     O 8539   2.423   2.327   0.307 -0.0764  0.5818  0.4617
  572TMC3     H 8540   2.565   2.286   0.645  1.6548 -0.4152 -0.9526
  572TMC3    H1 8541   2.451   2.561   0.346  1.5210 -1.3189 -1.3352
  572TMC3    H2 8542   2.607   2.697   0.723 -0.2071  1.7198 -0.6021
  572TMC3    C7 8543   2.488   2.785   0.491  0.1086  0.1762 -0.7009
  572TMC3    C8 8544   2.591   2.461   0.834  0.2450 -0.0815 -1.0956
  572TMC3    O1 8545   2.504   2.800   0.370  0.1823  0.0202 -0.1119
  572TMC3    O2 8546   2.654   2.359   0.855  0.3909  0.0157  0.5070
  573MPD2     C 8547   3.334   2.847   0.741  0.5897 -0.6900  0.0256
  573MPD2    C1 8548   3.255   2.959   0.760  0.4549  0.4810  0.7727
  573MPD2    C2 8549   3.192   3.016   0.651  0.2811 -0.7522 -0.0921
  573MPD2    C3 8550   3.239   2.979   0.525 -0.2525 -0.5104 -0.0580
  573MPD2    C4 8551   3.321   2.870   0.509  0.2012 -0.3509 -0.0264
  573MPD2    C5 8552   3.364   2.799   0.615  0.1280  0.1196 -0.7996
  573MPD2     H 8553   3.131   3.104   0.667 -2.2007 -2.4357 -0.4973
  573MPD2    H1 8554   3.350   2.838   0.409 -2.0480  0.0780 -0.8015
  573MPD2    H2 8555   3.373   2.795   0.828 -0.1913 -0.2115  0.6593
  573MPD2    H3 8556   3.427   2.711   0.617 -0.9866 -0.6556  0.0484
  573MPD2     N 8557   3.206   3.049   0.408 -0.0532 -0.5246  0.3763
  573MPD2    H5 8558   3.260   3.025   0.326  2.5608  0.3897  1.8537
  573MPD2    N1 8559   3.216   3.013   0.884  0.0908 -0.3918  0.2218
  573MPD2    H7 8560   3.143   3.083   0.872  0.4941 -0.3090 -1.8428
  574TMC3    C1 8561   3.122   3.228   0.277  0.1623 -0.1573  0.4032
  574TMC3    C2 8562   3.164   3.163   0.163 -0.3437  0.0198  0.0475
  574TMC3    C3 8563   3.174   3.242   0.053 -0.0962 -0.2253  0.8185
  574TMC3    C4 8564   3.088   3.357   0.280 -0.3877 -0.1382 -0.0074
  574TMC3    C5 8565   3.087   3.428   0.168 -0.1505 -0.8110 -0.3573
  574TMC3    C6 8566   3.134   3.376   0.049 -0.1390 -0.0586 -0.3378
  574TMC3     C 8567   3.122   3.159   0.402  0.1843  0.1697  0.7145
  574TMC3     O 8568   3.051   3.205   0.492  0.3636  0.4324 -0.2562
  574TMC3     H 8569   3.202   3.061   0.169  0.6251  0.4799  1.7190
  574TMC3    H1 8570   3.052   3.406   0.370 -1.0139  1.9833 -1.4056
  574TMC3    H2 8571   3.123   3.433  17.716 -2.9750  1.2087  0.8032
  574TMC3    C7 8572   3.082   3.575   0.170  0.4918 -0.4653 -0.1380
  574TMC3    C8 8573   3.173   3.169  17.677  0.5303  0.4643  0.0913
  574TMC3    O1 8574   3.097   3.640   0.069 -0.0101  0.7566 -0.1166
  574TMC3    O2 8575   3.165   3.044  17.674 -0.0968  0.2433 -0.3181
  575TMC3    C1 8576   1.233   3.212  11.272  1.4009 -0.5828 -0.3027
  575TMC3    C2 8577   1.200   3.079  11.263  0.4081  0.3517 -0.3337
  575TMC3    C3 8578   1.174   3.016  11.143  0.2884 -0.4295 -0.6238
  575TMC3    C4 8579   1.221   3.292  11.166 -0.5333 -0.1484 -0.1159
  575TMC3    C5 8580   1.204   3.233  11.046  0.6211 -0.2916 -0.0448
  575TMC3    C6 8581   1.178   3.094  11.032 -0.0523  0.2069 -0.4715
  575TMC3     C 8582   1.279   3.260  11.410  0.7379 -0.3466  0.6149
  575TMC3     O 8583   1.254   3.193  11.508 -0.1018  0.4886  0.3472
  575TMC3     H 8584   1.204   3.022  11.355 -0.3651 -0.2167 -0.6527
  575TMC3    H1 8585   1.233   3.400  11.173 -0.6224  0.0666 -3.3941
  575TMC3    H2 8586   1.138   3.058  10.938 -1.9866  0.5692  0.2184
  575TMC3    C7 8587   1.257   3.303  10.928  0.7655 -0.0617 -0.1672
  575TMC3    C8 8588   1.152   2.871  11.132  0.2200  0.3850  0.3397
  575TMC3    O1 8589   1.287   3.419  10.951 -0.1115 -0.1347  0.2025
  575TMC3    O2 8590   1.152   2.815  11.027 -0.0552  0.2330 -0.7408
  576MPD2     C 8591   1.199   0.239  12.689 -0.3921  0.5046  0.2759
  576MPD2    C1 8592   1.187   0.321  12.584 -0.4446  0.1794 -0.3019
  576MPD2    C2 8593   1.129   0.448  12.603 -0.1284  0.0034  0.1340
  576MPD2    C3 8594   1.079   0.482  12.734 -0.6460 -0.5110  0.9012
  576MPD2    C4 8595   1.107   0.392  12.841  0.1879 -0.1016  0.0886
  576MPD2    C5 8596   1.165   0.275  12.816  0.0210  0.2179  0.5589
  576MPD2     H 8597   1.115   0.519  12.522 -1.6190 -0.1189  0.2975
  576MPD2    H1 8598   1.090   0.421  12.944 -1.4340 -2.7009  0.5536
  576MPD2    H2 8599   1.236   0.139  12.673  1.3111  1.3994 -1.3450
  576MPD2    H3 8600   1.175   0.201  12.895 -1.2162 -2.0575 -1.3842
  576MPD2     N 8601   1.009   0.601  12.759 -0.3063 -0.6756 -0.3983
  576MPD2    H5 8602   1.009   0.669  12.683  0.9937 -0.7784 -0.5019
  576MPD2    N1 8603   1.231   0.300  12.457 -0.0402 -0.6556  0.2234
  576MPD2    H7 8604   1.222   0.375  12.390 -0.6069 -0.8231  0.1131
  577TMC3    C1 8605   1.322   0.183  12.282 -0.5849 -0.6422  0.1046
  577TMC3    C2 8606   1.346   0.064  12.223  0.0256 -0.0113  0.6058
  577TMC3    C3 8607   1.416   0.063  12.101 -0.0321  0.1282  0.0803
  577TMC3    C4 8608   1.339   0.299  12.213 -0.2685  1.0686 -0.2226
  577TMC3    C5 8609   1.377   0.293  12.086  0.1365  0.2681  0.1182
  577TMC3    C6 8610   1.430   0.181  12.026  0.2555 -0.1753 -0.1037
  577TMC3     C 8611   1.266   0.177  12.413 -0.4348 -0.2324 -0.1154
  577TMC3     O 8612   1.269   0.066  12.465 -0.1766  0.1698  0.4430
  577TMC3     H 8613   1.333   4.709  12.273 -0.6201  0.2241  0.8901
  577TMC3    H1 8614   1.312   0.396  12.253 -4.8690 -0.6684  0.9029
  577TMC3    H2 8615   1.475   0.185  11.928  0.0313 -1.1811 -0.2498
  577TMC3    C7 8616   1.431   0.420  12.038 -0.3157 -0.6679 -0.4453
  577TMC3    C8 8617   1.448   4.674  12.048  0.0446 -0.3622  0.1035
  577TMC3    O1 8618   1.536   0.465  12.086 -1.2943  0.2016  0.8874
  577TMC3    O2 8619   1.392   4.578  12.100  0.3929 -0.0251  0.4394
  578MPD2     C 8620   3.602   1.039   0.834 -0.4082 -0.6432 -0.1844
  578MPD2    C1 8621   3.651   0.992   0.712  0.2243  0.5979 -0.6420
  578MPD2    C2 8622   3.773   0.923   0.716 -0.6531  0.0756 -0.2300
  578MPD2    C3 8623   3.845   0.914   0.831 -0.3841 -0.6677 -0.5370
  578MPD2    C4 8624   3.781   0.948   0.952  0.2945  0.6043  0.0784
  578MPD2    C5 8625   3.665   1.007   0.950 -0.1971  0.2693 -0.8845
  578MPD2     H 8626   3.832   0.914   0.625 -0.3606 -0.8244  0.0535
  578MPD2    H1 8627   3.828   0.909   1.042 -0.2363  3.3792  1.5638
  578MPD2    H2 8628   3.505   1.088   0.832  1.2452  2.6180 -0.8049
  578MPD2    H3 8629   3.624   1.035   1.046 -0.5285  0.2269 -1.0120
  578MPD2     N 8630   3.978   0.859   0.823  0.9153 -0.0290  0.4226
  578MPD2    H5 8631   4.003   0.819   0.733 -1.4429 -2.2774  0.7694
  578MPD2    N1 8632   3.580   1.033   0.596 -0.2258 -0.1736  0.1688
  578MPD2    H7 8633   3.494   1.086   0.606 -0.8418 -1.0051 -0.6369
  579TMC3    C1 8634   4.189   0.798   0.892  0.7829  1.0144  0.4584
  579TMC3    C2 8635   4.299   0.848   0.954  0.0920 -0.2606  0.5868
  579TMC3    C3 8636   4.421   0.808   0.912 -0.3019 -0.9707 -0.0553
  579TMC3    C4 8637   4.195   0.710   0.787 -0.5715  0.2822  0.2580
  579TMC3    C5 8638   4.318   0.670   0.745  0.2529 -0.1237 -0.0563
  579TMC3    C6 8639   4.436   0.716   0.811  0.5283  0.5930 -0.2009
  579TMC3     C 8640   4.064   0.864   0.927  0.4912 -0.6497  0.1424
  579TMC3     O 8641   4.052   0.938   1.030  0.2617  0.2059 -0.1290
  579TMC3     H 8642   4.287   0.908   1.044 -0.8912  0.0107  0.2769
  579TMC3    H1 8643   4.110   0.674   0.730  0.3554  0.3485 -1.1803
  579TMC3    H2 8644   4.538   0.700   0.776  0.3333  1.4125 -1.1516
  579TMC3    C7 8645   4.346   0.551   0.655  0.0875 -0.3205  0.1415
  579TMC3    C8 8646   4.532   0.842   1.001  0.4841  0.0418  0.3133
  579TMC3    O1 8647   4.458   0.523   0.611  0.5577 -0.3079  0.2665
  579TMC3    O2 8648   4.517   0.918   1.095  1.0163 -0.5145  0.0570
  580TMC3    C1 8649   3.769   4.122  11.655 -0.3637  0.2391 -0.4988
  580TMC3    C2 8650   3.846   4.090  11.543 -0.0338 -0.0083  0.7734
  580TMC3    C3 8651   3.849   3.954  11.509  0.4431 -0.2418  0.2603
  580TMC3    C4 8652   3.697   4.031  11.727  0.1021  0.2891  0.0603
  580TMC3    C5 8653   3.702   3.903  11.691  0.0045  0.3543 -0.0576
  580TMC3    C6 8654   3.780   3.858  11.583 -0.2453 -0.0581 -0.3996
  580TMC3     C 8655   3.790   4.257  11.709  0.4094 -0.9092 -0.4035
  580TMC3     O 8656   3.889   4.324  11.681  0.1487  0.0062  0.0321
  580TMC3     H 8657   3.894   4.175  11.494 -0.0538 -0.2210  0.3825
  580TMC3    H1 8658   3.650   4.066  11.818  0.0902 -0.0390  0.1780
  580TMC3    H2 8659   3.804   3.758  11.548  0.6953  0.0391 -0.0308
  580TMC3    C7 8660   3.700   3.809  11.800  0.4190 -0.7142 -0.1952
  580TMC3    C8 8661   3.894   3.910  11.380  0.0110  0.0745  0.1266
  580TMC3    O1 8662   3.799   3.792  11.868  0.2485  0.2517 -0.1922
  580TMC3    O2 8663   3.847   3.803  11.338  0.0312  0.0186 -0.1919
  581MPD2     C 8664   1.448   3.502  15.090  0.6340 -0.2558 -0.5639
  581MPD2    C1 8665   1.361   3.547  15.187  0.2061 -0.3060  0.6414
  581MPD2    C2 8666   1.271   3.649  15.154 -0.4980 -0.3028 -0.5005
  581MPD2    C3 8667   1.263   3.703  15.027 -0.2065 -0.3191 -0.1632
  581MPD2    C4 8668   1.347   3.645  14.925  0.1982 -0.5946  0.7771
  581MPD2    C5 8669   1.450   3.555  14.959 -0.8835  1.1314 -0.4338
  581MPD2     H 8670   1.201   3.686  15.228 -0.4566 -1.6108  0.2035
  581MPD2    H1 8671   1.345   3.689  14.826 -0.2352 -1.1449  0.5415
  581MPD2    H2 8672   1.531   3.433  15.103  0.6984  0.0288  0.5048
  581MPD2    H3 8673   1.521   3.516  14.887  0.3098 -0.6715  1.7475
  581MPD2     N 8674   1.168   3.807  14.991  0.0651  0.1903 -0.3138
  581MPD2    H5 8675   1.143   3.823  14.894  2.0635  0.3392 -0.7883
  581MPD2    N1 8676   1.352   3.483  15.313 -0.4655  0.5129 -0.2048
  581MPD2    H7 8677   1.286   3.520  15.381 -0.0396 -0.9045  0.9918
  582TMC3    C1 8678   1.391   3.361  15.494  0.3624  0.1016  0.8215
  582TMC3    C2 8679   1.482   3.418  15.578 -0.2277 -0.7149  0.2457
  582TMC3    C3 8680   1.435   3.483  15.686  0.7851  0.4760 -0.2082
  582TMC3    C4 8681   1.260   3.387  15.506  0.2076  0.3309  0.1726
  582TMC3    C5 8682   1.208   3.455  15.614  0.5691 -1.2877  0.5947
  582TMC3    C6 8683   1.298   3.507  15.708  0.4025 -0.2362 -0.0398
  582TMC3     C 8684   1.430   3.382  15.358 -0.6443 -0.3829 -0.1903
  582TMC3     O 8685   1.518   3.309  15.314 -0.7734  0.2140  0.4877
  582TMC3     H 8686   1.587   3.392  15.572  0.3242  1.6138 -0.1779
  582TMC3    H1 8687   1.189   3.347  15.434  0.4868 -0.7219  0.4794
  582TMC3    H2 8688   1.256   3.548  15.799  0.6161  0.3445 -0.2060
  582TMC3    C7 8689   1.085   3.522  15.587 -0.4411  0.4619 -1.0351
  582TMC3    C8 8690   1.517   3.553  15.775 -0.8376 -0.5046 -0.5278
  582TMC3    O1 8691   1.000   3.459  15.532  0.4357 -0.1550  0.1629
  582TMC3    O2 8692   1.477   3.547  15.890 -0.9937 -0.2847  0.2307
  583MPD2     C 8693   1.710   0.970  16.798 -0.1395 -0.1584  0.7961
  583MPD2    C1 8694   1.674   1.082  16.725  0.1114 -0.4347  0.6006
  583MPD2    C2 8695   1.597   1.183  16.783 -0.2384  0.3667 -0.5916
  583MPD2    C3 8696   1.564   1.174  16.914 -0.7351  0.1753  0.0177
  583MPD2    C4 8697   1.596   1.058  16.989  0.0547 -0.1018 -0.2995
  583MPD2    C5 8698   1.671   0.964  16.920 -0.1785 -0.3471  0.1804
  583MPD2     H 8699   1.579   1.275  16.729  0.7454  0.2069 -1.1802
  583MPD2    H1 8700   1.569   1.039  17.092  3.1063  0.0646  0.5216
  583MPD2    H2 8701   1.761   0.885  16.754  0.0135 -1.8206  4.1893
  583MPD2    H3 8702   1.694   0.875  16.977  0.5122 -2.0731 -2.8004
  583MPD2     N 8703   1.499   1.283  16.969  0.2818 -0.4440  0.7753
  583MPD2    H5 8704   1.480   1.355  16.900 -2.4818  0.2220  2.2288
  583MPD2    N1 8705   1.724   1.090  16.595 -0.1347  0.6145 -1.1039
  583MPD2    H7 8706   1.711   1.179  16.546  2.6820 -0.2684 -3.4050
  584TMC3    C1 8707   1.394   1.426  17.117 -0.5257  0.3814  0.1880
  584TMC3    C2 8708   1.426   1.537  17.049  0.0973  0.4641 -0.5639
  584TMC3    C3 8709   1.391   1.655  17.109  0.0357  0.1154  0.3437
  584TMC3    C4 8710   1.321   1.429  17.236 -0.3519  0.1156  0.2624
  584TMC3    C5 8711   1.304   1.551  17.292  0.2157  0.5299  0.4579
  584TMC3    C6 8712   1.328   1.667  17.227  0.2122 -0.1984  0.5232
  584TMC3     C 8713   1.450   1.288  17.099 -0.5447  0.4788 -0.0494
  584TMC3     O 8714   1.467   1.207  17.189 -0.0962  0.6698 -0.6843
  584TMC3     H 8715   1.487   1.535  16.960  0.3414  0.5740 -0.4005
  584TMC3    H1 8716   1.291   1.341  17.291  3.1388  0.3256  2.5454
  584TMC3    H2 8717   1.323   1.769  17.264 -0.1945 -0.7516  1.9667
  584TMC3    C7 8718   1.234   1.566  17.421 -0.8240 -0.2799  0.0745
  584TMC3    C8 8719   1.470   1.767  17.050 -0.3275  0.0372 -0.3636
  584TMC3    O1 8720   1.207   1.685  17.440  0.1326 -0.1189 -0.0777
  584TMC3    O2 8721   1.466   1.770  16.931  0.0521  0.2666 -0.0371
  585MPD2     C 8722   1.182   4.653   0.673  0.0875  0.0767  0.1334
  585MPD2    C1 8723   1.213   4.654   0.543 -0.5375  0.0329  0.0620
  585MPD2    C2 8724   1.192   4.544   0.463 -0.4843 -0.0224  0.1937
  585MPD2    C3 8725   1.124   4.435   0.514  0.4815  0.3142  0.0386
  585MPD2    C4 8726   1.081   4.434   0.642 -0.2474 -0.3261  0.0343
  585MPD2    C5 8727   1.117   4.543   0.725 -0.6176  0.4652 -0.2883
  585MPD2     H 8728   1.225   4.549   0.360 -2.7089  0.3333 -0.4917
  585MPD2    H1 8729   1.024   4.348   0.675  0.4450 -0.4521  0.9236
  585MPD2    H2 8730   1.200   0.000   0.734  0.3132  2.1689 -2.9239
  585MPD2    H3 8731   1.076   4.550   0.825 -0.4550  0.6066 -0.2325
  585MPD2     N 8732   1.069   4.340   0.428  0.4105 -0.2176 -0.7860
  585MPD2    H5 8733   0.992   4.279   0.454 -0.4889  1.4470  0.4673
  585MPD2    N1 8734   1.268   0.036   0.495  1.0575 -0.5571 -0.3277
  585MPD2    H7 8735   1.270   0.118   0.555 -0.3217  0.2924 -1.4384
  586TMC3    C1 8736   1.037   4.229   0.225 -0.1147  0.5212 -0.0259
  586TMC3    C2 8737   1.079   4.227   0.091  0.0926 -0.4755  0.0980
  586TMC3    C3 8738   0.980   4.256  17.753 -0.0486 -0.0027  0.3950
  586TMC3    C4 8739   0.906   4.254   0.253 -0.0415  0.1260 -0.0631
  586TMC3    C5 8740   0.817   4.285   0.150  1.4576 -0.3882  0.6261
  586TMC3    C6 8741   0.853   4.291   0.026  0.3394 -0.0701  0.0626
  586TMC3     C 8742   1.122   4.309   0.303  0.0737  0.2504 -0.1882
  586TMC3     O 8743   1.213   4.365   0.245 -0.2401  0.1480 -0.4973
  586TMC3     H 8744   1.175   4.191   0.055  0.3292  2.3768 -2.1062
  586TMC3    H1 8745   0.868   4.235   0.352 -0.3645  0.1157 -0.1871
  586TMC3    H2 8746   0.773   4.301  17.711  1.2366 -0.9218 -1.0325
  586TMC3    C7 8747   0.678   4.308   0.181  0.0864  1.0030 -0.0248
  586TMC3    C8 8748   0.998   4.194  17.627  0.1036  0.1154 -0.2394
  586TMC3    O1 8749   0.616   4.233   0.255 -0.1367 -0.1838  0.4383
  586TMC3    O2 8750   1.079   4.107  17.609  0.0375 -0.2200 -0.3470
  587TMC3    C1 8751   3.274   3.676  16.330  0.0947 -0.0610 -0.1722
  587TMC3    C2 8752   3.251   3.793  16.261  0.8425 -0.6232 -0.6740
  587TMC3    C3 8753   3.264   3.902  16.338 -0.0357 -0.7166  0.4196
  587TMC3    C4 8754   3.304   3.670  16.470  0.0343 -0.1780 -0.8408
  587TMC3    C5 8755   3.345   3.782  16.526 -0.1223  0.1038  0.0977
  587TMC3    C6 8756   3.315   3.904  16.467  0.5023  0.0762  0.0851
  587TMC3     C 8757   3.203   3.561  16.276 -0.9665  0.2207  0.1121
  587TMC3     O 8758   3.223   3.534  16.155  0.5396  0.1309  0.2245
  587TMC3     H 8759   3.224   3.804  16.157  0.9541  1.9486 -0.4304
  587TMC3    H1 8760   3.309   3.576  16.524  0.8841  0.3222 -0.0526
  587TMC3    H2 8761   3.340   3.995  16.521  0.4775  0.5285 -0.6626
  587TMC3    C7 8762   3.395   3.774  16.666  0.2315 -0.2618 -0.3930
  587TMC3    C8 8763   3.191   4.022  16.294 -0.1341  0.2551  0.4280
  587TMC3    O1 8764   3.414   3.885  16.715 -0.6910  0.5516 -0.1719
  587TMC3    O2 8765   3.167   4.021  16.173  0.0566 -0.5676 -0.3495
  588TMC3    C1 8766   0.620   1.218   9.806 -0.1959  0.0605  0.1251
  588TMC3    C2 8767   0.610   1.099   9.740 -0.3054 -0.0345 -0.2634
  588TMC3    C3 8768   0.719   1.014   9.732 -0.0188  0.3716 -0.0775
  588TMC3    C4 8769   0.732   1.260   9.864  0.0744  0.0267 -0.6799
  588TMC3    C5 8770   0.839   1.171   9.860 -0.1240  0.7703 -0.1175
  588TMC3    C6 8771   0.835   1.053   9.793  0.3277  0.4205  0.0115
  588TMC3     C 8772   0.506   1.306   9.802  1.0971 -0.4088 -0.7459
  588TMC3     O 8773   0.398   1.251   9.814  0.0469 -0.1669  0.4772
  588TMC3     H 8774   0.514   1.069   9.699 -0.1928 -1.7376  0.7092
  588TMC3    H1 8775   0.744   1.351   9.921  0.4580 -0.0603 -0.6191
  588TMC3    H2 8776   0.926   0.998   9.777  0.0542 -0.0978  0.2258
  588TMC3    C7 8777   0.967   1.196   9.932 -0.5115  0.0714 -0.4467
  588TMC3    C8 8778   0.693   0.877   9.702  0.2586 -0.0642 -0.5048
  588TMC3    O1 8779   1.073   1.156   9.885 -0.4618 -0.3537 -0.3708
  588TMC3    O2 8780   0.582   0.845   9.669  0.5226 -0.6287  0.0324
  589TMC3    C1 8781   0.124   3.510   1.220  0.3127 -0.6652  0.3505
  589TMC3    C2 8782   0.226   3.535   1.313 -0.3453 -0.5768  0.6132
  589TMC3    C3 8783   0.290   3.429   1.362  0.0403 -0.2134 -0.1766
  589TMC3    C4 8784   0.093   3.375   1.181  0.2449  0.6261  0.0031
  589TMC3    C5 8785   0.176   3.275   1.227  0.2415  0.3279 -0.1137
  589TMC3    C6 8786   0.282   3.305   1.309  0.4649  0.9235 -0.2632
  589TMC3     C 8787   0.021   3.605   1.215  0.3619 -0.2082 -0.5588
  589TMC3     O 8788   4.648   3.570   1.243  0.5678  0.3207 -0.2625
  589TMC3     H 8789   0.242   3.634   1.353 -0.8328  0.4860 -1.8755
  589TMC3    H1 8790   0.008   3.357   1.115  0.3196 -0.8817  0.3217
  589TMC3    H2 8791   0.341   3.228   1.357 -0.9365 -0.0603 -0.1237
  589TMC3    C7 8792   0.115   3.144   1.238  0.3763  0.0448  1.2054
  589TMC3    C8 8793   0.407   3.466   1.428 -0.3794 -0.0820  0.3756
  589TMC3    O1 8794   0.008   3.120   1.183 -0.6146  0.1959 -0.2464
  589TMC3    O2 8795   0.397   3.562   1.502  0.2381 -0.0455 -0.2289
  590MPD2     C 8796   4.306   2.053  16.457 -0.3003 -0.5738 -0.1079
  590MPD2    C1 8797   4.259   1.981  16.352  0.2866 -0.4122  0.0399
  590MPD2    C2 8798   4.294   2.028  16.227  0.3511  0.4457  0.4066
  590MPD2    C3 8799   4.353   2.154  16.216 -0.4097  0.2785 -1.1277
  590MPD2    C4 8800   4.404   2.225  16.322 -0.5448 -0.1423 -0.1782
  590MPD2    C5 8801   4.380   2.168  16.447 -0.1038 -0.5953 -0.1865
  590MPD2     H 8802   4.261   1.987  16.132 -0.9815  0.4457  0.8674
  590MPD2    H1 8803   4.453   2.319  16.304 -1.4459  0.1740 -1.0188
  590MPD2    H2 8804   4.289   2.009  16.555  1.0148 -2.4336 -0.6931
  590MPD2    H3 8805   4.407   2.216  16.541  0.3546 -0.6251 -0.3024
  590MPD2     N 8806   4.357   2.208  16.085 -0.0185  0.4320 -0.0287
  590MPD2    H5 8807   4.328   2.150  16.008  4.7363  0.3138 -1.7051
  590MPD2    N1 8808   4.190   1.862  16.375  0.2500 -0.4944  0.5238
  590MPD2    H7 8809   4.161   1.843  16.470  0.1920 -2.4309  0.1128
  591TMC3    C1 8810   4.373   2.359  15.917 -0.5088 -0.6217 -0.2961
  591TMC3    C2 8811   4.467   2.283  15.849  0.2942  1.0516 -0.3485
  591TMC3    C3 8812   4.507   2.341  15.728  0.0412  0.1583  0.7193
  591TMC3    C4 8813   4.321   2.480  15.874  0.8092  0.4410  0.3159
  591TMC3    C5 8814   4.346   2.522  15.746 -0.4924  1.0569 -0.0407
  591TMC3    C6 8815   4.443   2.450  15.674  0.2006  0.2827 -0.4251
  591TMC3     C 8816   4.369   2.339  16.056  0.2734  0.5764 -0.1050
  591TMC3     O 8817   4.366   2.437  16.128  0.1399  0.1334  0.2312
  591TMC3     H 8818   4.520   2.204  15.901  0.3016 -1.0094 -3.4603
  591TMC3    H1 8819   4.262   2.535  15.946 -1.4453 -1.3497 -0.1742
  591TMC3    H2 8820   4.466   2.483  15.574  0.4934  1.0086 -0.1209
  591TMC3    C7 8821   4.314   2.667  15.736 -0.5713 -0.0995 -0.5766
  591TMC3    C8 8822   4.609   2.261  15.656  0.4052  0.1832 -0.8512
  591TMC3    O1 8823   4.210   2.705  15.782 -0.3400  0.3042  0.3973
  591TMC3    O2 8824   4.613   2.143  15.690 -0.2615  0.3197 -0.0277
  592MPD2     C 8825   4.665   3.747  11.724  0.3199 -0.3604  0.0323
  592MPD2    C1 8826   4.634   3.855  11.802 -0.0020 -0.3682  0.5365
  592MPD2    C2 8827   4.536   3.847  11.897 -0.3061 -0.4507  0.3679
  592MPD2    C3 8828   4.466   3.727  11.904  0.5284  0.3436  0.2320
  592MPD2    C4 8829   4.488   3.617  11.817  0.0577 -0.1970  0.1892
  592MPD2    C5 8830   4.590   3.627  11.721  0.3946  0.1606  0.4718
  592MPD2     H 8831   4.498   3.935  11.948 -2.7415 -0.5837 -1.2424
  592MPD2    H1 8832   4.431   3.526  11.830 -0.9004  0.3446 -0.2025
  592MPD2    H2 8833   4.740   3.742  11.645 -2.6004  0.1487 -2.8081
  592MPD2    H3 8834   4.613   3.544  11.656  0.6396 -0.8118  1.8170
  592MPD2     N 8835   4.360   3.726  12.003  0.2108 -0.6042  0.4654
  592MPD2    H5 8836   4.337   3.814  12.047  0.8705  0.8274 -2.0395
  592MPD2    N1 8837   4.710   3.973  11.782 -0.4726 -0.0132 -0.6811
  592MPD2    H7 8838   0.049   3.961  11.719  0.4981  0.7659  0.3729
  593TMC3    C1 8839   0.047   4.204  11.798 -0.5135  0.2333 -0.0183
  593TMC3    C2 8840   0.015   4.336  11.823  0.2855  1.1411  0.4976
  593TMC3    C3 8841   0.124   4.413  11.857 -0.9626 -0.0850 -0.3060
  593TMC3    C4 8842   0.180   4.157  11.780 -0.3648  0.4887  0.2073
  593TMC3    C5 8843   0.281   4.248  11.800 -0.0028 -0.0303 -0.6025
  593TMC3    C6 8844   0.258   4.371  11.844 -0.2707 -0.2413 -0.5325
  593TMC3     C 8845   4.688   4.098  11.830  0.6505 -0.1219 -0.4448
  593TMC3     O 8846   4.607   4.140  11.910 -0.5912 -0.1446 -0.6349
  593TMC3     H 8847   4.653   4.373  11.829  0.7607  2.1897  1.9663
  593TMC3    H1 8848   0.205   4.051  11.771  3.7602  1.3182  2.0588
  593TMC3    H2 8849   0.341   4.438  11.860  0.5980 -1.2202 -0.9869
  593TMC3    C7 8850   0.403   4.231  11.719 -0.2936 -0.4191 -0.9256
  593TMC3    C8 8851   0.100   4.548  11.894 -0.0359  0.2762 -0.3767
  593TMC3    O1 8852   0.483   4.319  11.744 -0.2674  0.0273 -0.5941
  593TMC3    O2 8853   4.724   4.595  11.872  0.3288  0.1243  0.1424
  594MPD2     C 8854   3.520   2.552  14.742 -0.4918  0.5174  0.1725
  594MPD2    C1 8855   3.428   2.537  14.637  0.5994  0.2881  0.0129
  594MPD2    C2 8856   3.469   2.574  14.510  0.0889 -0.1631 -0.2882
  594MPD2    C3 8857   3.594   2.627  14.487  0.5392  0.5410  0.0444
  594MPD2    C4 8858   3.686   2.625  14.593 -0.0441 -0.1810  0.3374
  594MPD2    C5 8859   3.642   2.587  14.715 -0.0347 -0.0454  0.2644
  594MPD2     H 8860   3.400   2.579  14.427 -1.5739 -1.1874  1.0196
  594MPD2    H1 8861   3.787   2.663  14.580 -0.3279 -0.0138 -1.3231
  594MPD2    H2 8862   3.498   2.521  14.843 -1.0634  0.4017  0.0125
  594MPD2    H3 8863   3.711   2.600  14.798 -1.2510  1.3278  1.0545
  594MPD2     N 8864   3.625   2.675  14.354  0.7938  1.0408  0.0161
  594MPD2    H5 8865   3.548   2.697  14.292  1.0061 -2.0457 -1.3791
  594MPD2    N1 8866   3.290   2.494  14.662  0.6684 -0.8607  0.4822
  594MPD2    H7 8867   3.256   2.480  14.757 -0.6071  0.3184  0.1892
  595TMC3    C1 8868   3.910   2.889  14.078  0.0993 -0.0710 -0.5520
  595TMC3    C2 8869   3.869   2.772  14.130  1.1471  0.3802 -0.4297
  595TMC3    C3 8870   3.745   2.761  14.183  0.0898 -0.2224 -0.4105
  595TMC3    C4 8871   3.820   2.988  14.050  0.1367 -1.2222 -0.5719
  595TMC3    C5 8872   3.692   2.976  14.103 -0.4205 -0.0660  0.1222
  595TMC3    C6 8873   3.654   2.862  14.166  0.1294  0.0364  0.8029
  595TMC3     C 8874   4.053   2.915  14.061  0.0046 -0.5986  0.7294
  595TMC3     O 8875   4.132   2.870  14.146 -0.1570 -0.2724  0.0583
  595TMC3     H 8876   3.938   2.689  14.145  0.6901  0.0271 -0.2745
  595TMC3    H1 8877   3.855   3.086  14.021 -0.2233 -1.8673 -3.1517
  595TMC3    H2 8878   3.550   2.846  14.192 -0.0360  1.4147  0.9543
  595TMC3    C7 8879   3.626   3.092  14.164  0.5278 -0.2273  0.6997
  595TMC3    C8 8880   3.753   2.698  14.312 -0.3737 -0.4913 -0.0649
  595TMC3    O1 8881   3.502   3.087  14.164 -0.2823 -0.3374  0.3978
  595TMC3    O2 8882   3.862   2.686  14.361  0.3830 -0.1844 -0.4170
  596MPD2     C 8883   2.544   0.708  16.701 -1.1593 -0.3624  0.1038
  596MPD2    C1 8884   2.571   0.831  16.649 -0.5787  0.4013 -0.6249
  596MPD2    C2 8885   2.605   0.853  16.519  0.2172  0.7801 -0.3760
  596MPD2    C3 8886   2.609   0.743  16.428  0.9015  0.2950 -0.0366
  596MPD2    C4 8887   2.581   0.620  16.488 -0.0253 -0.2860 -1.1030
  596MPD2    C5 8888   2.547   0.601  16.621  0.1065  0.2236 -0.7992
  596MPD2     H 8889   2.617   0.958  16.495  1.0557  0.9615  0.8087
  596MPD2    H1 8890   2.568   0.535  16.422  0.0062 -0.9975 -0.1750
  596MPD2    H2 8891   2.518   0.691  16.805 -1.9632 -1.2925 -0.2463
  596MPD2    H3 8892   2.513   0.506  16.660  1.3536 -0.0645 -0.4228
  596MPD2     N 8893   2.635   0.744  16.289 -0.3947 -0.2859 -0.0118
  596MPD2    H5 8894   2.616   0.660  16.235  0.4123 -0.5792  0.1566
  596MPD2    N1 8895   2.560   0.950  16.731  0.1166  0.3103  0.3364
  596MPD2    H7 8896   2.576   1.041  16.689  0.7224  0.1624  0.2427
  597TMC3    C1 8897   2.515   1.098  16.915 -0.4194  0.2092 -0.0630
  597TMC3    C2 8898   2.591   1.199  16.852  0.1725  0.8134 -0.3033
  597TMC3    C3 8899   2.573   1.332  16.883  0.3065  0.0790  0.3127
  597TMC3    C4 8900   2.408   1.135  16.995  0.0375  0.5157  0.2748
  597TMC3    C5 8901   2.390   1.269  17.015 -0.1801  0.2285  0.0999
  597TMC3    C6 8902   2.468   1.369  16.966 -0.4421  0.2542 -0.5153
  597TMC3     C 8903   2.522   0.959  16.864  0.3152 -0.5930  0.1878
  597TMC3     O 8904   2.475   0.867  16.934  0.2021  0.4170 -0.1448
  597TMC3     H 8905   2.683   1.173  16.802  0.5488  0.8462  0.3694
  597TMC3    H1 8906   2.349   1.052  17.031 -1.7658 -0.0142 -3.8879
  597TMC3    H2 8907   2.469   1.473  16.995 -0.4231  0.2967 -0.6662
  597TMC3    C7 8908   2.263   1.310  17.082  0.2803  0.1755  0.2294
  597TMC3    C8 8909   2.602   1.428  16.781  0.4260  0.2943  0.9356
  597TMC3    O1 8910   2.213   1.223  17.155 -0.9147 -0.5273  0.0909
  597TMC3    O2 8911   2.528   1.527  16.770  0.4834  0.6729 -0.4307
  598TMC3    C1 8912   1.126   2.363  15.849  0.4833 -0.0606 -0.2194
  598TMC3    C2 8913   1.018   2.316  15.786 -0.6315  0.2543  0.0880
  598TMC3    C3 8914   0.970   2.381  15.676 -0.6448 -0.5651 -0.3927
  598TMC3    C4 8915   1.190   2.479  15.803  0.1740  0.0149 -0.5554
  598TMC3    C5 8916   1.135   2.548  15.699 -0.0800  0.0400 -0.2712
  598TMC3    C6 8917   1.027   2.497  15.629  0.1699  0.7324  0.3788
  598TMC3     C 8918   1.167   2.318  15.980 -1.1101 -0.6836  0.2197
  598TMC3     O 8919   1.280   2.350  16.011 -0.0800 -0.4054  0.7055
  598TMC3     H 8920   0.953   2.236  15.821 -0.8319 -0.7535 -2.6059
  598TMC3    H1 8921   1.278   2.518  15.854  1.0293 -3.2022  0.4099
  598TMC3    H2 8922   0.995   2.544  15.537  1.8313 -0.6116 -0.8857
  598TMC3    C7 8923   1.204   2.664  15.648 -0.1693  0.2313  0.2504
  598TMC3    C8 8924   0.848   2.320  15.613 -0.3671 -0.5017  0.0224
  598TMC3    O1 8925   1.321   2.679  15.680  0.4032 -0.0485 -0.0392
  598TMC3    O2 8926   0.798   2.232  15.682  0.3270  0.0406  0.2728
  599MPD2     C 8927   0.420   4.707  15.835 -0.7791 -0.4881  0.0245
  599MPD2    C1 8928   0.421   4.582  15.892  0.4258 -0.8598  0.0671
  599MPD2    C2 8929   0.337   4.559  16.001  0.3643  0.0661  0.0060
  599MPD2    C3 8930   0.273   4.660  16.072 -0.5994 -0.6157 -0.3683
  599MPD2    C4 8931   0.290   0.049  16.024 -0.0575  0.1945  0.2586
  599MPD2    C5 8932   0.372   0.067  15.912 -0.7196  0.8475  0.1212
  599MPD2     H 8933   0.328   4.459  16.042 -2.5790  0.7138  0.9316
  599MPD2    H1 8934   0.245   0.137  16.069 -1.8651 -0.3127 -0.5483
  599MPD2    H2 8935   0.475   4.732  15.746  1.3454 -1.1757  1.1489
  599MPD2    H3 8936   0.375   0.168  15.873 -0.4293 -0.3448 -2.9351
  599MPD2     N 8937   0.200   4.647  16.190 -0.3774 -0.5458  0.0117
  599MPD2    H5 8938   0.166   4.724  16.245 -0.4363 -0.3518 -0.2934
  599MPD2    N1 8939   0.500   4.486  15.828 -0.1659  0.5522  0.7579
  599MPD2    H7 8940   0.581   4.516  15.773 -0.8600  0.7826 -0.1443
  600TMC3    C1 8941   0.093   4.536  16.367 -0.1397  0.5720  0.4191
  600TMC3    C2 8942   0.004   4.440  16.401 -0.5162 -0.1263  0.5476
  600TMC3    C3 8943   4.689   4.456  16.527  0.7404 -0.2066  0.6530
  600TMC3    C4 8944   0.118   4.647  16.443 -0.0626 -0.0124 -0.2229
  600TMC3    C5 8945   0.065   4.650  16.565 -0.0110  0.0792 -0.8549
  600TMC3    C6 8946   4.720   4.558  16.617  0.0741  0.3297  0.5076
  600TMC3     C 8947   0.155   4.525  16.238  0.0967 -0.1542  0.1051
  600TMC3     O 8948   0.169   4.414  16.192  0.0862 -0.6994  0.3394
  600TMC3     H 8949   4.725   4.357  16.334  0.0865  0.4684 -0.3681
  600TMC3    H1 8950   0.199   4.716  16.420 -0.5919  0.4183 -0.8093
  600TMC3    H2 8951   4.670   4.565  16.713  1.4231 -0.0847  1.2325
  600TMC3    C7 8952   0.046   0.044  16.615 -0.7667  0.3857  0.0931
  600TMC3    C8 8953   4.586   4.368  16.567  0.2744 -0.4673 -0.0650
  600TMC3    O1 8954   0.061   0.136  16.535  0.2877  0.1319 -0.2325
  600TMC3    O2 8955   4.571   4.355  16.688 -0.0105  0.1839  0.4050
  601MPD2     C 8956   2.392   3.281   0.564  1.2502  0.0617  0.1134
  601MPD2    C1 8957   2.388   3.208   0.448  0.9987  0.2651  0.3105
  601MPD2    C2 8958   2.421   3.076   0.453 -0.8577  0.2653  0.9495
  601MPD2    C3 8959   2.444   3.014   0.574 -0.0755  0.6240  0.6276
  601MPD2    C4 8960   2.422   3.087   0.690 -0.1784 -0.2766  0.0946
  601MPD2    C5 8961   2.414   3.225   0.689  0.1448 -0.3269  0.0129
  601MPD2     H 8962   2.432   3.017   0.363 -1.4814  1.2505  0.2266
  601MPD2    H1 8963   2.430   3.036   0.786  1.3487 -1.3548 -0.6072
  601MPD2    H2 8964   2.379   3.388   0.558 -1.4951 -0.2310  0.6495
  601MPD2    H3 8965   2.420   3.284   0.779  0.0619 -0.4102  0.0735
  601MPD2     N 8966   2.463   2.876   0.591  0.2509  0.4436 -0.0219
  601MPD2    H5 8967   2.463   2.847   0.688 -0.4751  0.4811 -0.0172
  601MPD2    N1 8968   2.371   3.253   0.320 -0.0426 -0.6042  0.7032
  601MPD2    H7 8969   2.391   3.179   0.252  0.2336 -0.2388  0.3886
  602TMC3    C1 8970   2.325   3.400   0.143 -0.0605  0.2780 -0.4312
  602TMC3    C2 8971   2.361   3.518   0.083 -0.1959  0.3840 -0.5342
  602TMC3    C3 8972   2.312   3.538  17.716  0.0703  0.1528 -0.0757
  602TMC3    C4 8973   2.239   3.310   0.083  0.1562 -0.5386  0.1059
  602TMC3    C5 8974   2.204   3.341  17.712  0.5215 -0.1788  0.2764
  602TMC3    C6 8975   2.238   3.452  17.650  0.4097  0.4570  0.6620
  602TMC3     C 8976   2.342   3.385   0.288 -0.8668  0.2115  0.6561
  602TMC3     O 8977   2.344   3.485   0.356  0.3117 -0.2541  0.5777
  602TMC3     H 8978   2.414   3.605   0.121 -1.6846  0.5648  1.1408
  602TMC3    H1 8979   2.226   3.207   0.117 -3.3802  0.4521  1.7585
  602TMC3    H2 8980   2.191   3.480  17.556  1.9206  2.2560  0.4509
  602TMC3    C7 8981   2.126   3.242  17.641  0.4464 -0.8759 -0.6713
  602TMC3    C8 8982   2.355   3.657  17.646 -0.2624  0.1239  0.5726
  602TMC3    O1 8983   2.074   3.149  17.700 -0.2056 -0.5430  0.2930
  602TMC3    O2 8984   2.409   3.751  17.705 -0.3383  0.7378 -0.3235
  603TMC3    C1 8985   0.888   3.014  10.638 -0.2130  0.2413 -0.1786
  603TMC3    C2 8986   0.902   3.056  10.765  0.8484  0.6540  0.4749
  603TMC3    C3 8987   0.855   3.177  10.806  0.0561  0.2850  0.0029
  603TMC3    C4 8988   0.815   3.087  10.547 -0.1468  0.0331  0.7183
  603TMC3    C5 8989   0.773   3.211  10.590 -0.1779 -0.3329  0.0853
  603TMC3    C6 8990   0.797   3.258  10.715  0.0049  0.4961  0.4288
  603TMC3     C 8991   0.940   2.888  10.610  0.2062  0.3112  0.8296
  603TMC3     O 8992   0.939   2.804  10.701 -0.1756 -0.9813  0.1612
  603TMC3     H 8993   0.971   3.001  10.829 -1.0252 -2.4303 -0.1625
  603TMC3    H1 8994   0.809   3.063  10.442  1.8243 -0.0972  0.6313
  603TMC3    H2 8995   0.759   3.350  10.758 -1.3825  0.0162  0.2200
  603TMC3    C7 8996   0.697   3.302  10.502 -0.2905  0.6094  0.0903
  603TMC3    C8 8997   0.884   3.210  10.940  0.4330  0.0396 -1.0871
  603TMC3    O1 8998   0.705   3.422  10.525  0.3255 -0.1453  0.0229
  603TMC3    O2 8999   0.900   3.113  11.008  0.3142  0.4788 -0.1263
  604MPD2     C 9000   2.003   2.386  16.239  0.5793  0.1662  0.1897
  604MPD2    C1 9001   1.883   2.320  16.236  0.1887  0.3739 -0.0760
  604MPD2    C2 9002   1.849   2.243  16.124  0.1017 -0.0050  0.2685
  604MPD2    C3 9003   1.936   2.238  16.020  0.3360  0.0530  0.7410
  604MPD2    C4 9004   2.048   2.313  16.026  0.5491  0.1066 -0.2466
  604MPD2    C5 9005   2.085   2.383  16.134  0.3239 -0.4763 -0.8150
  604MPD2     H 9006   1.765   2.175  16.125  1.0936 -1.2281  1.0549
  604MPD2    H1 9007   2.118   2.312  15.944  1.8946  0.8417  0.8906
  604MPD2    H2 9008   2.035   2.453  16.318  2.2579 -1.3076  0.7604
  604MPD2    H3 9009   2.179   2.437  16.138  0.4165 -0.6408 -0.7667
  604MPD2     N 9010   1.908   2.154  15.912  0.2267 -0.5796  0.3134
  604MPD2    H5 9011   1.811   2.145  15.887  0.1706  0.5484  0.1226
  604MPD2    N1 9012   1.797   2.333  16.346  0.1761  0.4021 -0.1395
  604MPD2    H7 9013   1.834   2.378  16.429  0.1910 -1.0570  0.6256
  605TMC3    C1 9014   1.624   2.298  16.487 -1.2924 -0.4538  0.1543
  605TMC3    C2 9015   1.715   2.325  16.586  0.1283  0.2437 -0.5818
  605TMC3    C3 9016   1.664   2.380  16.703 -0.2800 -0.3232  0.2310
  605TMC3    C4 9017   1.493   2.304  16.511  0.1527  0.0828  0.4261
  605TMC3    C5 9018   1.446   2.367  16.625  0.5409 -0.2721 -0.9790
  605TMC3    C6 9019   1.534   2.396  16.725 -0.0537  0.6748 -0.0339
  605TMC3     C 9020   1.671   2.286  16.354 -0.3548  0.3856  0.1304
  605TMC3     O 9021   1.598   2.243  16.267 -0.1446 -0.1768 -0.5819
  605TMC3     H 9022   1.821   2.304  16.578  0.1603  0.6076 -1.0748
  605TMC3    H1 9023   1.433   2.301  16.421 -1.9287  0.9328  1.7615
  605TMC3    H2 9024   1.497   2.439  16.817 -1.2437 -0.0037 -0.1887
  605TMC3    C7 9025   1.307   2.375  16.651 -0.1318  0.3511  0.0181
  605TMC3    C8 9026   1.769   2.413  16.802 -0.3601 -1.1492  0.8513
  605TMC3    O1 9027   1.257   2.481  16.697 -0.4291 -0.3458 -0.6247
  605TMC3    O2 9028   1.875   2.360  16.794 -0.3016  0.0260  0.5159
  606TMC3    C1 9029   2.229   1.122  17.660 -0.0095  0.1725  0.5115
  606TMC3    C2 9030   2.267   1.051   0.014  0.5740 -0.1984 -0.3409
  606TMC3    C3 9031   2.252   0.915   0.005 -0.5823 -0.2826  0.3070
  606TMC3    C4 9032   2.195   1.065  17.541 -0.4998  0.0952 -0.2773
  606TMC3    C5 9033   2.184   0.925  17.540  0.6352 -0.9619  0.2750
  606TMC3    C6 9034   2.216   0.850  17.647  1.0478  0.0218 -0.1103
  606TMC3     C 9035   2.228   1.274  17.675 -0.3243 -0.7270 -0.2597
  606TMC3     O 9036   2.291   1.313   0.012 -0.4293  0.2503  0.6806
  606TMC3     H 9037   2.284   1.098   0.110  0.3405  0.1821 -0.4861
  606TMC3    H1 9038   2.175   1.131  17.458  1.8395  1.6972  0.4464
  606TMC3    H2 9039   2.207   0.743  17.653 -0.2848  0.0268 -1.9272
  606TMC3    C7 9040   2.206   0.862  17.409  0.7759  0.8233  0.4295
  606TMC3    C8 9041   2.329   0.838   0.110  0.2863 -0.0587 -0.1385
  606TMC3    O1 9042   2.272   0.924  17.327 -0.1950 -0.1927 -0.0486
  606TMC3    O2 9043   2.425   0.893   0.159 -0.3076 -0.4899  0.3449
  607MPD2     C 9044   0.336   3.423  11.534  0.2237 -0.8567  0.3960
  607MPD2    C1 9045   0.392   3.509  11.622  0.7467  0.4706 -0.2065
  607MPD2    C2 9046   0.331   3.532  11.743 -0.3217 -0.1554 -0.1637
  607MPD2    C3 9047   0.208   3.471  11.775  0.1034  0.0334  0.1861
  607MPD2    C4 9048   0.152   3.378  11.683 -0.1600 -0.6425  0.4071
  607MPD2    C5 9049   0.221   3.348  11.568  0.2182  0.2118  0.4017
  607MPD2     H 9050   0.365   3.612  11.809 -0.3889  0.0581 -0.3870
  607MPD2    H1 9051   0.073   3.314  11.719 -0.0650 -0.2125  1.3800
  607MPD2    H2 9052   0.377   3.400  11.437 -0.5181  0.9621 -0.3465
  607MPD2    H3 9053   0.189   3.267  11.505  0.4719 -0.9220  1.7271
  607MPD2     N 9054   0.157   3.502  11.900  0.0645  0.0096  0.1327
  607MPD2    H5 9055   0.198   3.583  11.945 -0.6339  0.2080  0.4012
  607MPD2    N1 9056   0.515   3.579  11.600 -0.4523 -0.2999 -0.3894
  607MPD2    H7 9057   0.547   3.640  11.674  0.2810 -1.1067 -0.0352
  608TMC3    C1 9058   0.685   3.695  11.504  0.1056 -0.2140  0.1814
  608TMC3    C2 9059   0.693   3.753  11.631  0.4091  0.4669 -0.9105
  608TMC3    C3 9060   0.772   3.867  11.647 -0.6060  0.2599 -0.0200
  608TMC3    C4 9061   0.760   3.746  11.407 -1.1046 -0.5427 -0.4214
  608TMC3    C5 9062   0.842   3.852  11.428  0.0792  0.5265 -0.3885
  608TMC3    C6 9063   0.851   3.916  11.548  0.1876  1.5177  0.4539
  608TMC3     C 9064   0.593   3.584  11.489 -0.1187  0.5126  0.3485
  608TMC3     O 9065   0.573   3.545  11.375 -0.0913  0.1987  0.0169
  608TMC3     H 9066   0.662   3.702  11.722  3.4823 -0.7714 -0.5754
  608TMC3    H1 9067   0.755   3.711  11.304  2.8315  1.2822 -1.2362
  608TMC3    H2 9068   0.919   3.997  11.569  0.8060  1.1898 -0.2548
  608TMC3    C7 9069   0.882   3.915  11.304  0.0082 -0.5362 -0.2110
  608TMC3    C8 9070   0.744   3.945  11.763 -0.2929  0.9438 -0.4185
  608TMC3    O1 9071   0.804   3.903  11.211  0.1062  0.5116  0.3798
  608TMC3    O2 9072   0.819   4.038  11.790  0.2881 -0.6307 -0.1351
  609TMC3    C1 9073   2.896   2.462   9.595 -0.5783 -0.1365  0.1673
  609TMC3    C2 9074   2.769   2.446   9.552 -0.3568 -0.5461  1.2555
  609TMC3    C3 9075   2.741   2.375   9.440 -0.0209 -0.5674 -0.0856
  609TMC3    C4 9076   2.996   2.419   9.518  0.1505 -0.3772  0.5572
  609TMC3    C5 9077   2.967   2.362   9.397 -0.1114  0.3076 -0.8285
  609TMC3    C6 9078   2.835   2.344   9.354  0.2189 -0.0014  0.3922
  609TMC3     C 9079   2.916   2.520   9.731 -0.8167  0.4735 -0.4042
  609TMC3     O 9080   2.813   2.553   9.794  0.2958  0.3835  0.2858
  609TMC3     H 9081   2.684   2.480   9.611  1.2939  1.2727  2.5784
  609TMC3    H1 9082   3.101   2.414   9.543  0.6315 -1.0201 -1.5813
  609TMC3    H2 9083   2.815   2.303   9.256  2.2405 -0.1837  0.0624
  609TMC3    C7 9084   3.073   2.299   9.327 -0.5618  0.2427  0.0208
  609TMC3    C8 9085   2.604   2.352   9.393  0.6524 -0.4371 -0.2911
  609TMC3    O1 9086   3.180   2.358   9.341 -0.3354 -0.1992  0.0743
  609TMC3    O2 9087   2.519   2.425   9.443 -0.2515  0.5940 -0.7727
  610TMC3    C1 9088   0.614   3.806  12.398 -0.0382 -0.3419  0.7243
  610TMC3    C2 9089   0.679   3.832  12.284  0.2986 -0.3763 -0.0922
  610TMC3    C3 9090   0.754   3.729  12.232  0.2610  0.2397 -0.0672
  610TMC3    C4 9091   0.608   3.682  12.451  0.1289 -0.5347  0.8349
  610TMC3    C5 9092   0.686   3.586  12.392 -0.1419  0.4424  0.1828
  610TMC3    C6 9093   0.763   3.607  12.274 -0.8101 -0.4403 -0.3135
  610TMC3     C 9094   0.557   3.917  12.468  0.1519  0.4615 -0.1198
  610TMC3     O 9095   0.582   4.029  12.423  0.4283  0.0182 -0.3582
  610TMC3     H 9096   0.683   3.935  12.251  2.4981 -0.0201  1.2642
  610TMC3    H1 9097   0.576   3.666  12.553 -1.9402 -0.3125  0.2147
  610TMC3    H2 9098   0.824   3.527  12.234  1.6168  0.8264  0.8554
  610TMC3    C7 9099   0.723   3.471  12.476 -0.3664 -0.5423 -0.1916
  610TMC3    C8 9100   0.867   3.782  12.156  0.1100  0.1974  0.1793
  610TMC3    O1 9101   0.840   3.430  12.483  0.0950 -0.5785 -0.0950
  610TMC3    O2 9102   0.899   3.899  12.169 -0.8842  0.3772  0.8667
  611MPD2     C 9103   4.145   3.340  10.084 -0.5017  0.5619 -0.4408
  611MPD2    C1 9104   4.178   3.213  10.132 -0.3155  0.0073  0.2421
  611MPD2    C2 9105   4.280   3.144  10.067  0.1508  0.1741 -0.2714
  611MPD2    C3 9106   4.340   3.197   9.957 -0.2243 -0.3213 -0.1224
  611MPD2    C4 9107   4.300   3.323   9.908  0.5383 -0.7608  0.2324
  611MPD2    C5 9108   4.198   3.387   9.968 -0.0485 -0.2246 -0.3502
  611MPD2     H 9109   4.313   3.048  10.103 -2.3485  0.2644  2.2370
  611MPD2    H1 9110   4.356   3.383   9.837 -0.4267 -1.7724 -1.3844
  611MPD2    H2 9111   4.064   3.398  10.128  0.4669  1.3659  0.2886
  611MPD2    H3 9112   4.166   3.481   9.925  0.0349 -1.3178 -2.7899
  611MPD2     N 9113   4.455   3.139   9.895  0.2678  0.4015 -0.0550
  611MPD2    H5 9114   4.511   3.212   9.852  0.8942 -0.2563 -0.3437
  611MPD2    N1 9115   4.113   3.174  10.255  0.2859 -0.4366  0.2683
  611MPD2    H7 9116   4.064   3.246  10.307  0.4729 -0.5178  0.5513
  612TMC3    C1 9117   4.641   3.011   9.875 -0.2365  0.0750 -0.6957
  612TMC3    C2 9118   4.724   3.119   9.905 -0.0234 -0.6126  1.0079
  612TMC3    C3 9119   0.114   3.100   9.928 -0.6598 -0.0268  0.1072
  612TMC3    C4 9120   4.701   2.885   9.879 -0.1574  0.2486 -0.4730
  612TMC3    C5 9121   0.096   2.865   9.893  0.1616  0.1579  0.0443
  612TMC3    C6 9122   0.175   2.972   9.927  0.1104 -0.7055  0.8511
  612TMC3     C 9123   4.497   3.013   9.910 -0.7241  0.4368 -0.3269
  612TMC3     O 9124   4.433   2.911   9.938 -0.1520 -0.4801 -0.4306
  612TMC3     H 9125   4.683   3.219   9.895  3.0613  0.6327  0.9517
  612TMC3    H1 9126   4.640   2.799   9.854 -1.2636  0.3512  1.8725
  612TMC3    H2 9127   0.279   2.953   9.953  0.4555  0.1277  0.0718
  612TMC3    C7 9128   0.155   2.725   9.902  0.9589 -0.4383 -0.2136
  612TMC3    C8 9129   0.193   3.214   9.967 -0.4152  0.4518 -0.3405
  612TMC3    O1 9130   0.074   2.634   9.902  0.1566  0.4922  0.0049
  612TMC3    O2 9131   0.159   3.325   9.920 -0.2668 -0.5533 -0.0668
  613MPD2     C 9132   4.092   1.069  16.979 -0.2149  0.4641  0.5275
  613MPD2    C1 9133   3.994   1.103  16.880  0.2337  0.1934  0.5881
  613MPD2    C2 9134   3.887   1.012  16.862  0.2265  0.0952  0.0985
  613MPD2    C3 9135   3.880   0.896  16.937  0.0306  0.0560  0.3653
  613MPD2    C4 9136   3.976   0.863  17.034 -0.3000 -0.0824 -1.0983
  613MPD2    C5 9137   4.080   0.952  17.059  0.0955  0.3391 -0.1521
  613MPD2     H 9138   3.819   1.027  16.778  1.2540  0.2233 -0.7064
  613MPD2    H1 9139   3.966   0.771  17.090  1.0406 -0.2858 -1.1907
  613MPD2    H2 9140   4.182   1.129  16.974 -1.1884  1.9592  1.0538
  613MPD2    H3 9141   4.153   0.923  17.134  0.3017  1.4237  0.0740
  613MPD2     N 9142   3.778   0.798  16.913  0.2146  0.2816 -0.0254
  613MPD2    H5 9143   3.795   0.704  16.948  0.0056  0.0491 -0.5405
  613MPD2    N1 9144   4.018   1.228  16.815 -0.3076 -0.1443  0.1108
  613MPD2    H7 9145   4.095   1.288  16.843  0.1773 -1.0590  0.7319
  614TMC3    C1 9146   3.894   1.209  16.596  0.5951  0.5445 -0.0480
  614TMC3    C2 9147   3.949   1.099  16.565  0.2660 -0.0767  0.3786
  614TMC3    C3 9148   3.893   1.021  16.467  0.0805  0.0379 -0.6450
  614TMC3    C4 9149   3.794   1.270  16.525  0.1556  0.6716 -0.3823
  614TMC3    C5 9150   3.742   1.191  16.430 -0.2880  0.5775  0.3202
  614TMC3    C6 9151   3.779   1.063  16.410 -0.5373  0.1082  0.9380
  614TMC3     C 9152   3.947   1.286  16.711 -0.3655 -0.0521 -0.1654
  614TMC3     O 9153   3.928   1.407  16.690  0.2334 -0.0869 -0.1415
  614TMC3     H 9154   4.037   1.063  16.615  0.6600  1.4378  0.7563
  614TMC3    H1 9155   3.757   1.367  16.554  2.2524  1.5752 -0.7027
  614TMC3    H2 9156   3.732   0.997  16.338  1.7103  0.8629 -1.2588
  614TMC3    C7 9157   3.674   1.262  16.329  0.3896 -0.0358 -0.4248
  614TMC3    C8 9158   3.907   0.876  16.476  0.3466 -0.1241 -0.2552
  614TMC3    O1 9159   3.638   1.374  16.360  0.2816  0.3362 -0.7655
  614TMC3    O2 9160   3.937   0.825  16.586 -0.2219 -0.3051  0.0573
  615MPD2     C 9161   3.278   2.061  15.840  0.4944  0.2401  0.1676
  615MPD2    C1 9162   3.205   2.166  15.904  0.2755 -0.3519 -0.0635
  615MPD2    C2 9163   3.114   2.239  15.831 -0.4431 -0.2467  0.1626
  615MPD2    C3 9164   3.104   2.224  15.692 -0.1752  0.1849  0.3382
  615MPD2    C4 9165   3.187   2.124  15.636 -0.2861 -0.9015  0.3984
  615MPD2    C5 9166   3.276   2.044  15.707  0.4095  0.2226 -0.1997
  615MPD2     H 9167   3.059   2.315  15.885  1.4156 -0.2252  2.0729
  615MPD2    H1 9168   3.174   2.114  15.528 -0.3122  0.0117  0.3243
  615MPD2    H2 9169   3.347   2.001  15.898  0.5613 -1.0142 -1.2148
  615MPD2    H3 9170   3.339   1.972  15.656  1.2347  1.4857 -0.9584
  615MPD2     N 9171   3.027   2.307  15.614  0.5188 -0.1104 -1.0059
  615MPD2    H5 9172   3.050   2.300  15.515 -1.0091  0.2239 -1.3785
  615MPD2    N1 9173   3.223   2.201  16.043 -0.5615 -0.3152  0.8647
  615MPD2    H7 9174   3.159   2.270  16.082 -1.8663 -0.5782 -0.8580
  616TMC3    C1 9175   3.311   2.200  16.261  0.9033  0.5139  0.6807
  616TMC3    C2 9176   3.424   2.192  16.338  0.0104 -0.0182 -0.0806
  616TMC3    C3 9177   3.414   2.231  16.469 -0.5160  0.3911 -0.5868
  616TMC3    C4 9178   3.192   2.243  16.309 -0.2991  0.4643 -0.6804
  616TMC3    C5 9179   3.192   2.273  16.439  0.1245 -0.1818 -0.3808
  616TMC3    C6 9180   3.300   2.273  16.523  1.2892  0.7724  0.1728
  616TMC3     C 9181   3.317   2.151  16.123 -0.0442 -0.2916 -0.1215
  616TMC3     O 9182   3.407   2.075  16.095 -0.3301 -0.2827 -0.1521
  616TMC3     H 9183   3.501   2.126  16.302  0.6215  0.9860 -0.6273
  616TMC3    H1 9184   3.098   2.238  16.256 -1.2464  1.4466  0.9278
  616TMC3    H2 9185   3.283   2.294  16.628 -0.8839 -0.3076  0.0460
  616TMC3    C7 9186   3.067   2.305  16.507 -0.6295  0.1714  0.0628
  616TMC3    C8 9187   3.520   2.208  16.558  0.6490  0.4858  0.7592
  616TMC3    O1 9188   3.059   2.269  16.620 -0.0075 -0.5303 -0.0946
  616TMC3    O2 9189   3.492   2.135  16.653 -0.2415 -0.5382  0.7304
  617MPD2     C 9190   1.728   0.692  14.213  0.2161  0.2151  1.2640
  617MPD2    C1 9191   1.751   0.586  14.294  0.2859 -0.8636 -0.0403
  617MPD2    C2 9192   1.656   0.512  14.346  0.0882 -0.5292  0.0249
  617MPD2    C3 9193   1.524   0.551  14.320  0.2734 -0.0225 -0.9315
  617MPD2    C4 9194   1.501   0.661  14.247  0.9338 -0.1306 -0.1980
  617MPD2    C5 9195   1.598   0.723  14.182 -0.2694 -0.8039 -0.0918
  617MPD2     H 9196   1.675   0.443  14.427 -1.7699  0.5149  1.3585
  617MPD2    H1 9197   1.402   0.705  14.233  0.1567 -0.6705  3.7472
  617MPD2    H2 9198   1.809   0.754  14.178 -0.2911 -0.1877 -0.6510
  617MPD2    H3 9199   1.578   0.805  14.113 -1.1437  0.7335  1.9585
  617MPD2     N 9200   1.408   0.494  14.373 -0.0234  0.1788 -0.0137
  617MPD2    H5 9201   1.323   0.546  14.355 -0.0440  0.6356  1.3544
  617MPD2    N1 9202   1.886   0.571  14.333 -0.0074  0.3615 -0.5727
  617MPD2    H7 9203   1.959   0.623  14.285 -0.4833 -0.3891 -2.0911
  618TMC3    C1 9204   2.058   0.563  14.482 -0.3040  0.6150 -0.1678
  618TMC3    C2 9205   2.161   0.504  14.421 -0.1464  1.2781 -0.3915
  618TMC3    C3 9206   2.269   0.582  14.394 -0.2590 -0.1326 -0.6963
  618TMC3    C4 9207   2.064   0.695  14.509  0.0534 -0.0701  0.4148
  618TMC3    C5 9208   2.166   0.772  14.461  0.4674 -0.6196  0.3985
  618TMC3    C6 9209   2.275   0.716  14.396  0.0931 -0.3716  0.2242
  618TMC3     C 9210   1.919   0.522  14.455  0.4755 -0.2677 -0.1165
  618TMC3     O 9211   1.851   0.500  14.552 -0.1522 -0.0002  0.1867
  618TMC3     H 9212   2.156   0.399  14.396 -0.6610  1.1682  0.1842
  618TMC3    H1 9213   1.978   0.755  14.535  0.0988 -0.1853  0.8316
  618TMC3    H2 9214   2.369   0.769  14.386 -0.6746  0.9010 -0.1202
  618TMC3    C7 9215   2.163   0.911  14.501  0.1176  0.3256  0.1280
  618TMC3    C8 9216   2.351   0.509  14.315 -0.8124 -0.3462  0.1231
  618TMC3    O1 9217   2.134   0.925  14.616  0.4321 -0.2805 -0.6805
  618TMC3    O2 9218   2.370   0.391  14.344 -0.3305  0.0108 -0.1251
  619MPD2     C 9219   2.967   1.517  13.848  0.4814  0.1922 -0.4257
  619MPD2    C1 9220   2.884   1.598  13.773  0.8238  0.1396  0.1038
  619MPD2    C2 9221   2.751   1.574  13.769  0.7686 -0.0080 -0.1573
  619MPD2    C3 9222   2.701   1.462  13.845  0.6930  0.4520 -0.3817
  619MPD2    C4 9223   2.781   1.401  13.934 -0.5975  0.2914  0.0005
  619MPD2    C5 9224   2.915   1.424  13.929  0.1243 -1.0348  0.2082
  619MPD2     H 9225   2.685   1.624  13.699  1.3459 -0.2649 -0.8834
  619MPD2    H1 9226   2.744   1.320  13.995  0.9742  0.7882  1.6006
  619MPD2    H2 9227   3.074   1.535  13.852  0.3434  0.1827  3.9331
  619MPD2    H3 9228   2.983   1.373  13.996 -1.3705 -2.1926  0.8269
  619MPD2     N 9229   2.568   1.410  13.843  0.6518  0.0263 -0.8305
  619MPD2    H5 9230   2.549   1.332  13.905 -0.6688 -0.3210 -1.6746
  619MPD2    N1 9231   2.926   1.698  13.687 -0.2663  0.4600 -0.4661
  619MPD2    H7 9232   2.858   1.742  13.625 -1.6725  0.9988  1.4452
  620TMC3    C1 9233   3.049   1.859  13.583 -0.1272 -0.1583  0.3378
  620TMC3    C2 9234   2.937   1.878  13.498  0.8396  0.1263  0.1684
  620TMC3    C3 9235   2.899   2.013  13.471  0.1819 -0.3411 -0.3169
  620TMC3    C4 9236   3.115   1.972  13.635 -0.4940  0.4769  0.2621
  620TMC3    C5 9237   3.073   2.098  13.600 -0.0435 -0.1836  0.0522
  620TMC3    C6 9238   2.972   2.124  13.515  0.2229 -0.8490  0.3034
  620TMC3     C 9239   3.052   1.753  13.683  0.1559 -0.0545  0.2473
  620TMC3     O 9240   3.157   1.722  13.739 -0.0950  0.0103  0.2894
  620TMC3     H 9241   2.885   1.788  13.466 -0.5594  0.5084  1.3442
  620TMC3    H1 9242   3.188   1.955  13.713  0.7746 -1.0939 -1.2683
  620TMC3    H2 9243   2.940   2.226  13.502  0.6691 -0.5576  1.4751
  620TMC3    C7 9244   3.077   2.181  13.721  0.6259 -1.4593 -0.5667
  620TMC3    C8 9245   2.756   2.037  13.503 -0.6724  0.1485 -0.4278
  620TMC3    O1 9246   3.168   2.170  13.796 -0.3848  0.0039  0.2650
  620TMC3    O2 9247   2.740   2.132  13.572 -0.2568 -0.1336  0.1082
  621MPD2     C 9248   2.870   1.604  10.606  0.4429  0.0823  0.3368
  621MPD2    C1 9249   2.755   1.662  10.562  1.1717 -0.9361  0.2693
  621MPD2    C2 9250   2.756   1.790  10.517 -0.0544  0.2571 -0.4463
  621MPD2    C3 9251   2.872   1.866  10.513 -0.9926 -0.6645  0.0331
  621MPD2    C4 9252   2.983   1.812  10.566 -0.9896 -0.2853  0.4623
  621MPD2    C5 9253   2.986   1.679  10.612  0.4338  0.3373  0.4005
  621MPD2     H 9254   2.657   1.828  10.495  0.2252  2.2891  1.8492
  621MPD2    H1 9255   3.081   1.858  10.576 -1.3809  0.1774  2.2430
  621MPD2    H2 9256   2.873   1.506  10.652  3.4244 -0.6589 -1.4608
  621MPD2    H3 9257   3.070   1.629  10.659 -0.9920 -1.6617  0.8455
  621MPD2     N 9258   2.887   1.993  10.445 -0.3596 -0.8452 -0.4103
  621MPD2    H5 9259   2.976   2.041  10.448 -1.6680  1.3550  3.1844
  621MPD2    N1 9260   2.631   1.590  10.566  0.3266  0.8722 -0.6398
  621MPD2    H7 9261   2.548   1.645  10.551  0.8900  1.3622 -1.9851
  622TMC3    C1 9262   2.488   1.404  10.555  0.0182 -0.1108 -0.3359
  622TMC3    C2 9263   2.389   1.458  10.628  0.4580  0.5992 -0.1098
  622TMC3    C3 9264   2.275   1.380  10.639  0.3811  0.8579 -0.3434
  622TMC3    C4 9265   2.470   1.306  10.468 -0.2536  1.2138 -1.1159
  622TMC3    C5 9266   2.354   1.236  10.476  0.3498  0.9775 -0.1861
  622TMC3    C6 9267   2.259   1.267  10.570  0.3373  0.2594 -0.2151
  622TMC3     C 9268   2.621   1.454  10.557 -0.6067 -0.0226  0.6694
  622TMC3     O 9269   2.712   1.367  10.547  0.1216  0.5923  0.3931
  622TMC3     H 9270   2.417   1.535  10.699  2.3542 -0.1406 -0.0647
  622TMC3    H1 9271   2.553   1.271  10.408 -0.4412  0.1225 -0.7373
  622TMC3    H2 9272   2.178   1.195  10.582  1.2017 -0.4386  1.4068
  622TMC3    C7 9273   2.323   1.139  10.366  0.1148 -0.6178  0.1770
  622TMC3    C8 9274   2.172   1.422  10.728  0.5314  0.7759  0.4299
  622TMC3    O1 9275   2.210   1.090  10.376 -0.7789 -0.3749 -0.1422
  622TMC3    O2 9276   2.104   1.332  10.771 -0.1003  0.2112 -0.0801
  623MPD2     C 9277   2.130   2.842  16.246 -0.2264 -0.2509 -0.3970
  623MPD2    C1 9278   2.069   2.765  16.341 -0.5982  0.4899  0.3254
  623MPD2    C2 9279   2.150   2.723  16.445 -0.3403 -0.6771  0.5791
  623MPD2    C3 9280   2.277   2.778  16.462 -0.1919 -0.6042  0.2866
  623MPD2    C4 9281   2.339   2.857  16.367 -0.5160  1.0555 -0.0010
  623MPD2    C5 9282   2.262   2.888  16.256 -0.0250 -0.5268 -0.3164
  623MPD2     H 9283   2.111   2.663  16.526 -2.5998 -1.2571 -0.9348
  623MPD2    H1 9284   2.440   2.891  16.383  0.8600 -2.7348 -0.8051
  623MPD2    H2 9285   2.082   2.880  16.157  1.4970 -1.9616 -2.0666
  623MPD2    H3 9286   2.309   2.940  16.174 -0.2820 -1.3758 -0.9998
  623MPD2     N 9287   2.331   2.762  16.592 -0.0516  0.1822 -0.4811
  623MPD2    H5 9288   2.275   2.700  16.650  0.2706 -0.7849 -1.2098
  623MPD2    N1 9289   1.927   2.745  16.328 -0.9618  0.1228 -0.1627
  623MPD2    H7 9290   1.872   2.805  16.268 -0.6868  1.0983  0.5663
  624TMC3    C1 9291   2.590   2.625  16.915 -0.7483 -0.2852  0.0346
  624TMC3    C2 9292   2.478   2.597  16.985  0.1632  0.1950 -0.1478
  624TMC3    C3 9293   2.363   2.661  16.954  0.0478 -0.7852  1.5148
  624TMC3    C4 9294   2.589   2.721  16.815 -0.8210  0.3383 -0.2028
  624TMC3    C5 9295   2.466   2.774  16.781 -0.3662  1.1157  0.8528
  624TMC3    C6 9296   2.353   2.744  16.848  0.5457  0.0891 -0.0417
  624TMC3     C 9297   2.714   2.549  16.932  0.4382  0.4743  0.0410
  624TMC3     O 9298   2.707   2.483  17.030  0.1228  0.1065 -0.4345
  624TMC3     H 9299   2.481   2.526  17.067  1.6822  0.4057 -0.0287
  624TMC3    H1 9300   2.678   2.743  16.757 -0.7294  0.9239  0.1622
  624TMC3    H2 9301   2.260   2.792  16.819 -0.1442 -0.3995  1.3578
  624TMC3    C7 9302   2.454   2.797  16.643  0.2464 -0.3144  0.0731
  624TMC3    C8 9303   2.235   2.606  16.994  0.0347 -0.1447 -0.2346
  624TMC3    O1 9304   2.556   2.842  16.586 -0.0679 -0.0368 -0.9122
  624TMC3    O2 9305   2.220   2.485  16.995  0.2974 -0.0185 -0.7255
  625MPD2     C 9306   2.302   3.799   1.003  0.9083 -0.2807 -0.4936
  625MPD2    C1 9307   2.346   3.926   0.972  0.0472 -0.1589 -0.8044
  625MPD2    C2 9308   2.473   3.958   1.007 -0.4618  0.9717  0.3235
  625MPD2    C3 9309   2.560   3.884   1.073 -0.0358 -0.0550  0.1070
  625MPD2    C4 9310   2.517   3.761   1.106  0.2772  0.2610 -0.6760
  625MPD2    C5 9311   2.389   3.727   1.084  0.3514 -0.8496 -0.8980
  625MPD2     H 9312   2.503   4.054   0.966  1.0053 -0.1123 -1.1729
  625MPD2    H1 9313   2.584   3.692   1.156 -1.2581 -0.7440 -0.0028
  625MPD2    H2 9314   2.202   3.770   0.976  0.7927  1.7873 -2.2668
  625MPD2    H3 9315   2.351   3.633   1.123 -0.6756 -1.4605 -3.4063
  625MPD2     N 9316   2.696   3.934   1.092  0.0322 -0.0474  0.0961
  625MPD2    H5 9317   2.725   4.020   1.046  2.3436 -0.3234  0.9878
  625MPD2    N1 9318   2.272   4.021   0.908  1.5461 -0.1363 -0.9049
  625MPD2    H7 9319   2.319   4.112   0.908 -1.3114  1.3373 -1.8940
  626TMC3    C1 9320   2.095   4.133   0.797  0.5552  0.0366  0.5279
  626TMC3    C2 9321   2.014   4.129   0.690  0.0119 -0.1136  0.6893
  626TMC3    C3 9322   1.999   4.246   0.617  0.1757 -0.2169  1.1576
  626TMC3    C4 9323   2.164   4.243   0.840 -0.5364  0.0838  0.2684
  626TMC3    C5 9324   2.152   4.350   0.760 -0.0224 -0.6806 -0.8169
  626TMC3    C6 9325   2.069   4.357   0.656 -0.0070  0.8008 -0.0432
  626TMC3     C 9326   2.145   4.006   0.847 -0.0797  0.3655  0.4049
  626TMC3     O 9327   2.089   3.905   0.803 -0.1248 -0.0929 -0.0998
  626TMC3     H 9328   1.945   4.047   0.676 -1.9953  1.7977 -0.6600
  626TMC3    H1 9329   2.213   4.254   0.936 -1.0099  2.2505  0.2550
  626TMC3    H2 9330   2.050   4.453   0.609 -1.1876  0.8691  0.5781
  626TMC3    C7 9331   2.231   4.460   0.806 -0.6981 -0.3809 -0.4806
  626TMC3    C8 9332   1.948   4.246   0.474 -0.3248 -0.0719  0.0037
  626TMC3    O1 9333   2.335   4.426   0.860  0.2369  0.2757  0.3245
  626TMC3    O2 9334   1.942   4.356   0.425 -0.0001 -0.0100 -0.4234
  627MPD2     C 9335   0.834   4.082  14.437 -0.4382 -0.1020 -0.6005
  627MPD2    C1 9336   0.770   4.022  14.539  0.0489  0.4398  0.3257
  627MPD2    C2 9337   0.662   3.941  14.507 -0.2253  0.2899  0.3237
  627MPD2    C3 9338   0.619   3.922  14.373 -0.1242  0.6983  0.5327
  627MPD2    C4 9339   0.691   3.982  14.272 -0.9232 -0.0571 -0.4141
  627MPD2    C5 9340   0.796   4.062  14.303 -0.1479  0.7357 -0.4018
  627MPD2     H 9341   0.616   3.888  14.589 -0.9069 -1.5346 -1.2328
  627MPD2    H1 9342   0.662   3.974  14.168 -2.7697  1.2700  0.0127
  627MPD2    H2 9343   0.921   4.145  14.453 -2.1039  1.7926  0.9616
  627MPD2    H3 9344   0.848   4.114  14.223 -0.1838  1.5431  0.1062
  627MPD2     N 9345   0.510   3.834  14.345  0.6977  0.4146  0.7195
  627MPD2    H5 9346   0.461   3.809  14.430  2.1692 -0.4661  1.3201
  627MPD2    N1 9347   0.813   4.031  14.673 -0.2183 -0.1750  0.5322
  627MPD2    H7 9348   0.763   3.973  14.739  1.4043 -0.6787  1.3285
  628TMC3    C1 9349   0.936   4.126  14.854  0.3791  0.7017  0.2059
  628TMC3    C2 9350   0.981   4.008  14.899  0.0908 -0.6170 -0.1037
  628TMC3    C3 9351   1.039   4.005  15.025 -0.3877  0.2914 -0.5533
  628TMC3    C4 9352   0.958   4.247  14.914  0.2407 -0.1572  0.4062
  628TMC3    C5 9353   1.027   4.245  15.036 -0.1849  0.5438 -0.0034
  628TMC3    C6 9354   1.050   4.127  15.091 -0.5204  0.0179 -0.4272
  628TMC3     C 9355   0.889   4.142  14.721  0.3215  0.2135  0.0105
  628TMC3     O 9356   0.915   4.246  14.662 -0.5838 -0.2421  0.2739
  628TMC3     H 9357   0.985   3.922  14.832  0.3976  1.2949 -2.5536
  628TMC3    H1 9358   0.915   4.338  14.872 -0.3608  0.5665  2.5873
  628TMC3    H2 9359   1.111   4.132  15.180  1.6473 -0.3063 -1.9114
  628TMC3    C7 9360   1.105   4.362  15.083 -0.4984  0.4557  0.0589
  628TMC3    C8 9361   1.107   3.894  15.079 -0.9327  0.3135  0.3874
  628TMC3    O1 9362   1.167   4.336  15.183  0.4693  0.0811  0.3643
  628TMC3    O2 9363   1.108   3.895  15.200  0.2599 -0.1071  0.1082
  629MPD2     C 9364   4.019   2.161  16.677 -0.4645  0.3539  0.6943
  629MPD2    C1 9365   4.006   2.256  16.580 -0.2602  0.1368  0.0221
  629MPD2    C2 9366   3.883   2.277  16.524  0.1580 -0.5622 -0.0432
  629MPD2    C3 9367   3.771   2.209  16.565  0.0799 -0.3096  0.5054
  629MPD2    C4 9368   3.785   2.107  16.660 -0.3063  0.5498  0.2540
  629MPD2    C5 9369   3.910   2.081  16.709 -0.0863  0.9443 -1.2159
  629MPD2     H 9370   3.871   2.362  16.459 -0.4742 -0.5930  0.0277
  629MPD2    H1 9371   3.707   2.035  16.679 -0.7750  1.0876  0.3587
  629MPD2    H2 9372   4.119   2.144  16.714 -0.5541 -1.8456 -0.0896
  629MPD2    H3 9373   3.933   1.994  16.770 -1.1937  0.4652 -1.4792
  629MPD2     N 9374   3.642   2.244  16.504 -0.1637  0.1872 -0.2051
  629MPD2    H5 9375   3.633   2.304  16.423  1.2378  0.3661 -0.2334
  629MPD2    N1 9376   4.115   2.334  16.552  0.0413  0.0737  0.3340
  629MPD2    H7 9377   4.199   2.311  16.604 -1.0173 -1.6580  1.2995
  630TMC3    C1 9378   4.243   2.505  16.468 -0.7678  0.4473  0.2103
  630TMC3    C2 9379   4.282   2.583  16.363 -0.7351 -0.4366  1.0631
  630TMC3    C3 9380   4.380   2.672  16.387 -0.7640  0.1813  0.7371
  630TMC3    C4 9381   4.289   2.528  16.601 -1.3110 -0.1126 -0.2654
  630TMC3    C5 9382   4.397   2.606  16.611 -0.2100 -0.0712 -0.1317
  630TMC3    C6 9383   4.439   2.686  16.509 -1.1884 -0.2399 -0.3521
  630TMC3     C 9384   4.122   2.426  16.446 -0.3220  0.4825  0.1758
  630TMC3     O 9385   4.059   2.436  16.343  0.5171 -0.2009  0.0262
  630TMC3     H 9386   4.229   2.582  16.269  0.0020  0.0883  0.6378
  630TMC3    H1 9387   4.261   2.455  16.676  1.3702  0.9723  1.8225
  630TMC3    H2 9388   4.503   2.773  16.515  1.0330 -2.0321  1.9249
  630TMC3    C7 9389   4.473   2.592  16.727 -0.1421 -0.1945 -0.6392
  630TMC3    C8 9390   4.421   2.770  16.286 -1.1463 -0.2462  0.3771
  630TMC3    O1 9391   4.430   2.519  16.813  0.5252  0.2022 -0.2689
  630TMC3    O2 9392   4.453   2.884  16.330  0.1843  0.4877 -0.0734
  631MPD2     C 9393   2.146   2.161  15.154 -0.1496  0.9371  0.0375
  631MPD2    C1 9394   2.135   2.271  15.237 -0.2970  0.0272  0.2064
  631MPD2    C2 9395   2.258   2.318  15.291 -0.0668  0.8829 -0.1753
  631MPD2    C3 9396   2.378   2.249  15.273 -0.2852 -0.3234  0.3632
  631MPD2    C4 9397   2.378   2.133  15.200  0.6587 -0.7626  0.0013
  631MPD2    C5 9398   2.267   2.097  15.135  0.0903  0.5869  0.6594
  631MPD2     H 9399   2.263   2.420  15.330 -0.6551  1.6201 -2.0103
  631MPD2    H1 9400   2.468   2.078  15.176  1.5484  0.6234  0.1347
  631MPD2    H2 9401   2.061   2.132  15.093  0.6566 -0.0404 -0.6168
  631MPD2    H3 9402   2.277   2.020  15.059 -0.7600  1.3340 -0.2096
  631MPD2     N 9403   2.503   2.284  15.322  0.6978  0.8000 -0.2565
  631MPD2    H5 9404   2.579   2.228  15.285 -0.8725  0.1773 -2.5311
  631MPD2    N1 9405   2.018   2.347  15.240 -0.0240  0.8317  0.3274
  631MPD2    H7 9406   1.943   2.321  15.176  0.9979  0.7326 -0.8315
  632TMC3    C1 9407   1.883   2.535  15.266  0.3238 -0.3308 -0.2219
  632TMC3    C2 9408   1.837   2.629  15.355 -0.6767 -0.2527 -0.2167
  632TMC3    C3 9409   1.818   2.756  15.317  0.8831  0.0885 -0.7660
  632TMC3    C4 9410   1.900   2.579  15.139  0.6329 -0.6425 -0.3949
  632TMC3    C5 9411   1.889   2.715  15.105 -0.6055 -0.0534  0.3083
  632TMC3    C6 9412   1.836   2.804  15.190 -0.4362 -0.0698  0.4662
  632TMC3     C 9413   1.998   2.461  15.318 -0.1608 -0.4232  1.4386
  632TMC3     O 9414   2.068   2.516  15.402  0.0173 -0.0947 -0.3901
  632TMC3     H 9415   1.827   2.598  15.458  3.0788 -1.9204 -0.3495
  632TMC3    H1 9416   1.929   2.506  15.064 -1.8662 -1.7116 -0.3201
  632TMC3    H2 9417   1.828   2.910  15.168  2.6439  0.1150  0.3234
  632TMC3    C7 9418   1.977   2.750  14.997 -0.4461  0.0319  0.3009
  632TMC3    C8 9419   1.798   2.850  15.426  0.0491 -0.0358 -0.7375
  632TMC3    O1 9420   1.968   2.689  14.893 -0.5195  0.3979  0.0246
  632TMC3    O2 9421   1.744   2.816  15.529 -0.4877  0.3336 -0.1812
  633MPD2     C 9422   1.788   0.843  17.311 -0.4021  0.0859 -0.3070
  633MPD2    C1 9423   1.833   0.776  17.196 -0.3481 -0.7976  0.1763
  633MPD2    C2 9424   1.805   0.642  17.182  0.8774 -0.3539  0.7635
  633MPD2    C3 9425   1.735   0.572  17.278 -0.5571  0.3523  0.1957
  633MPD2    C4 9426   1.694   0.633  17.387 -0.3718  0.1634 -0.3686
  633MPD2    C5 9427   1.725   0.767  17.406 -0.3927 -0.2117 -0.3891
  633MPD2     H 9428   1.840   0.592  17.092 -0.5314  1.2851 -0.6719
  633MPD2    H1 9429   1.638   0.573  17.457 -0.1543 -0.2748 -0.5751
  633MPD2    H2 9430   1.806   0.948  17.333  1.1132 -0.5701  1.6208
  633MPD2    H3 9431   1.694   0.822  17.494  1.2216  0.9782 -0.5612
  633MPD2     N 9432   1.694   0.432  17.258  0.0813 -0.2688 -0.0244
  633MPD2    H5 9433   1.646   0.385  17.335  0.0786 -0.9510 -0.4356
  633MPD2    N1 9434   1.921   0.829  17.104  0.1683  0.0631  0.4024
  633MPD2    H7 9435   1.948   0.772  17.024  1.5089  1.2912 -0.0265
  634TMC3    C1 9436   2.030   1.000  16.979  0.7808  0.4589  0.7275
  634TMC3    C2 9437   2.122   0.917  16.923  0.5223  0.0208  0.4757
  634TMC3    C3 9438   2.171   0.957  16.799  0.4342  0.1840  0.1520
  634TMC3    C4 9439   1.999   1.127  16.931  0.2313 -0.0678 -0.6458
  634TMC3    C5 9440   2.062   1.170  16.818 -0.5568 -0.4319 -0.3298
  634TMC3    C6 9441   2.150   1.089  16.760 -0.1046 -0.3579  0.5488
  634TMC3     C 9442   1.960   0.964  17.102 -0.1677  0.5861  0.7204
  634TMC3     O 9443   1.936   1.055  17.183  0.0064  0.4325 -0.1624
  634TMC3     H 9444   2.158   0.823  16.965 -0.4795 -0.1043  1.0544
  634TMC3    H1 9445   1.933   1.187  16.993  0.3507 -1.2366  0.6162
  634TMC3    H2 9446   2.213   1.139  16.686 -0.5797 -1.0605 -0.3293
  634TMC3    C7 9447   2.002   1.273  16.735  0.3416  0.0429  0.1576
  634TMC3    C8 9448   2.204   0.860  16.698 -0.3398  0.8420 -0.1379
  634TMC3    O1 9449   2.056   1.280  16.625  0.3510 -0.3702 -0.0467
  634TMC3    O2 9450   2.184   0.739  16.710 -0.1491  0.4466 -0.0234
  635TMC3    C1 9451   2.145   1.894   0.037  0.1632  0.0157 -0.2923
  635TMC3    C2 9452   2.127   1.763   0.079 -0.6197  0.1850 -0.5530
  635TMC3    C3 9453   2.014   1.702   0.050 -0.4809 -0.2701  0.8453
  635TMC3    C4 9454   2.058   1.958  17.711  1.2949  0.4011 -0.3087
  635TMC3    C5 9455   1.950   1.887  17.672  0.3179 -0.7935  0.3136
  635TMC3    C6 9456   1.919   1.758  17.722  0.3346  0.1727 -0.1545
  635TMC3     C 9457   2.268   1.961   0.069  0.1265 -0.5485 -0.7813
  635TMC3     O 9458   2.265   2.082   0.055 -0.7605  0.9549  0.1555
  635TMC3     H 9459   2.189   1.715   0.153 -0.6859 -1.9141 -1.8736
  635TMC3    H1 9460   2.063   2.063  17.682  1.6795  0.0063 -1.6774
  635TMC3    H2 9461   1.830   1.705  17.691  0.6683 -0.3922 -0.1458
  635TMC3    C7 9462   1.864   1.954  17.578  0.4441 -0.0424 -0.5125
  635TMC3    C8 9463   1.962   1.599   0.133  0.2585 -0.3126  0.5543
  635TMC3    O1 9464   1.921   2.039  17.514  0.1144 -0.4399  0.3113
  635TMC3    O2 9465   1.872   1.536   0.086  0.1770  0.0636  0.5223
  636MPD2     C 9466   3.258   1.094  16.251 -0.3726  0.5039 -0.2939
  636MPD2    C1 9467   3.316   1.128  16.372  0.8416 -0.3328 -0.2855
  636MPD2    C2 9468   3.363   1.032  16.450 -0.0690 -0.5191  0.0620
  636MPD2    C3 9469   3.357   0.900  16.413 -0.7222 -0.0750 -0.9802
  636MPD2    C4 9470   3.291   0.864  16.298 -0.2651  0.0480 -0.1817
  636MPD2    C5 9471   3.244   0.961  16.213  0.8561  0.8645  0.5133
  636MPD2     H 9472   3.396   1.059  16.550 -1.2778 -0.7177  0.5214
  636MPD2    H1 9473   3.290   0.766  16.253  1.0246 -0.2252  0.3690
  636MPD2    H2 9474   3.241   1.168  16.175  1.3214 -0.7896 -1.9286
  636MPD2    H3 9475   3.225   0.929  16.111 -0.6488  2.4011  0.3179
  636MPD2     N 9476   3.412   0.812  16.506  0.0640  0.0568  0.2554
  636MPD2    H5 9477   3.462   0.857  16.581  0.1317 -2.0227  1.4567
  636MPD2    N1 9478   3.338   1.255  16.432 -0.3217  0.4800  0.2183
  636MPD2    H7 9479   3.408   1.262  16.505 -0.2317  2.1463 -0.0223
  637TMC3    C1 9480   3.504   0.625  16.609 -0.7995 -1.6292  0.2981
  637TMC3    C2 9481   3.513   0.709  16.713  0.2906  0.2450  0.4974
  637TMC3    C3 9482   3.605   0.691  16.805  0.2668  0.2068  0.2363
  637TMC3    C4 9483   3.587   0.515  16.594  0.1881  0.0707 -0.3065
  637TMC3    C5 9484   3.688   0.501  16.681  0.1803 -0.7542  0.0556
  637TMC3    C6 9485   3.695   0.579  16.791  0.3053 -0.0735 -0.0415
  637TMC3     C 9486   3.435   0.677  16.495  0.0107  0.5389  0.1467
  637TMC3     O 9487   3.412   0.598  16.401  0.0892 -0.0952  0.1170
  637TMC3     H 9488   3.441   0.786  16.740  0.7187  1.3502 -1.5352
  637TMC3    H1 9489   3.574   0.440  16.516  0.2821 -1.8939  1.5645
  637TMC3    H2 9490   3.780   0.557  16.855 -0.7549  0.6651  1.5938
  637TMC3    C7 9491   3.787   0.391  16.664  0.5747 -0.5515  0.1364
  637TMC3    C8 9492   3.661   0.814  16.847 -0.1393 -0.7294 -0.5442
  637TMC3    O1 9493   3.819   0.328  16.763 -0.2340  0.0950  0.3039
  637TMC3    O2 9494   3.626   0.910  16.783  0.0288  0.2410 -0.3468
  638MPD2     C 9495   3.104   4.460  14.729 -0.1413  0.0745 -0.2607
  638MPD2    C1 9496   3.107   4.337  14.664 -0.6903  0.0530 -0.8102
  638MPD2    C2 9497   3.071   4.227  14.742 -0.3773 -0.0916 -0.0953
  638MPD2    C3 9498   3.054   4.238  14.880 -1.0805  0.3883 -0.4427
  638MPD2    C4 9499   3.043   4.361  14.942 -0.2859 -0.0215  0.1947
  638MPD2    C5 9500   3.075   4.472  14.864 -0.2737  0.2938  0.5694
  638MPD2     H 9501   3.061   4.129  14.698  0.0167 -0.4762  0.6596
  638MPD2    H1 9502   3.023   4.376  15.048  1.4343  0.6693  0.4332
  638MPD2    H2 9503   3.125   4.548  14.668  3.3025  0.4733  1.5229
  638MPD2    H3 9504   3.086   4.567  14.914 -0.4999 -0.1454  1.4550
  638MPD2     N 9505   3.018   4.120  14.953 -0.1736  0.3232  0.1966
  638MPD2    H5 9506   3.024   4.035  14.898  0.2116  1.7267 -1.9328
  638MPD2    N1 9507   3.146   4.320  14.526  0.1577 -0.4755 -0.4954
  638MPD2    H7 9508   3.105   4.241  14.477 -2.2218  2.0212 -2.4942
  639TMC3    C1 9509   2.998   3.978  15.143  0.0630  0.6047 -0.5171
  639TMC3    C2 9510   2.910   3.890  15.086 -0.3208  0.1076  0.2796
  639TMC3    C3 9511   2.940   3.760  15.096  0.1184 -0.8980 -0.0100
  639TMC3    C4 9512   3.107   3.944  15.216  1.0044 -0.0558 -0.8895
  639TMC3    C5 9513   3.123   3.810  15.242 -0.5349  0.1808  0.7453
  639TMC3    C6 9514   3.050   3.719  15.171 -0.6251 -0.1598  0.5522
  639TMC3     C 9515   3.013   4.106  15.091 -0.4846  0.6163 -0.6698
  639TMC3     O 9516   3.048   4.189  15.173 -0.7336  0.6317  0.0160
  639TMC3     H 9517   2.821   3.923  15.034  0.8390  3.0129  0.1509
  639TMC3    H1 9518   3.176   4.021  15.248  2.7418 -2.3495  0.8070
  639TMC3    H2 9519   3.069   3.612  15.168 -1.7553 -0.2442 -3.5052
  639TMC3    C7 9520   3.258   3.759  15.264 -0.4319  0.5586 -0.2260
  639TMC3    C8 9521   2.860   3.660  15.034 -0.7771  0.0386  0.6124
  639TMC3    O1 9522   3.270   3.644  15.299  0.9027  0.7924 -0.4320
  639TMC3    O2 9523   2.923   3.576  14.967 -0.0059 -0.1806  0.3442
  640MPD2     C 9524   3.386   3.349  10.299  0.4478  0.2630  0.1100
  640MPD2    C1 9525   3.418   3.370  10.169 -0.6477  0.3521  0.2907
  640MPD2    C2 9526   3.493   3.486  10.144  0.0166 -0.2543  0.4358
  640MPD2    C3 9527   3.514   3.579  10.247  0.5611  0.3184  0.3025
  640MPD2    C4 9528   3.471   3.555  10.370  0.3857 -0.1170  0.1042
  640MPD2    C5 9529   3.407   3.439  10.403 -0.3565 -0.0931  0.4743
  640MPD2     H 9530   3.539   3.498  10.046  0.8833 -1.9353  0.6384
  640MPD2    H1 9531   3.474   3.624  10.454  2.1301 -1.7656  1.3716
  640MPD2    H2 9532   3.352   3.252  10.333  0.0084  0.2090 -0.4909
  640MPD2    H3 9533   3.382   3.410  10.504 -0.4948  0.7858  0.6848
  640MPD2     N 9534   3.590   3.696  10.234 -0.4838  0.2067  0.0583
  640MPD2    H5 9535   3.609   3.746  10.320  2.3570  0.3665 -0.6742
  640MPD2    N1 9536   3.404   3.260  10.083  0.1942 -0.1285  0.0804
  640MPD2    H7 9537   3.361   3.173  10.113  1.3703  0.0670  2.2775
  641TMC3    C1 9538   3.395   3.138   9.897 -0.1530 -0.7454  0.8277
  641TMC3    C2 9539   3.477   3.056   9.824 -0.2535 -0.5047  0.4888
  641TMC3    C3 9540   3.421   2.952   9.760  0.0627 -0.4328  0.8045
  641TMC3    C4 9541   3.262   3.124   9.888  0.2342  0.3630 -0.1700
  641TMC3    C5 9542   3.209   3.033   9.797  0.1899  0.1156  0.0566
  641TMC3    C6 9543   3.290   2.939   9.735 -0.6349 -0.2178 -0.1210
  641TMC3     C 9544   3.448   3.253   9.954 -0.3925 -0.2353 -0.1548
  641TMC3     O 9545   3.498   3.337   9.880 -0.0085 -0.3316  0.1319
  641TMC3     H 9546   3.584   3.067   9.837 -0.1598 -1.3720  0.4441
  641TMC3    H1 9547   3.198   3.183   9.953  0.5507 -0.3055  0.7630
  641TMC3    H2 9548   3.251   2.855   9.680  0.5508 -1.7609  1.4039
  641TMC3    C7 9549   3.068   3.028   9.779 -0.3580  0.0231  0.7102
  641TMC3    C8 9550   3.498   2.829   9.735 -0.7882  0.1326  0.2076
  641TMC3    O1 9551   2.997   3.095   9.850  0.2552  0.1320  0.1280
  641TMC3    O2 9552   3.474   2.758   9.636  0.0182 -0.0135  0.1942
  642TMC3    C1 9553   4.527   0.014  12.161  0.1134 -0.1832  0.6930
  642TMC3    C2 9554   4.662   0.021  12.194 -0.5634  0.0762 -0.1008
  642TMC3    C3 9555   4.704   4.659  12.271  0.0706  1.0973  0.1022
  642TMC3    C4 9556   4.439   4.653  12.196  0.6353 -0.0922  0.1752
  642TMC3    C5 9557   4.492   4.558  12.273  0.6207  0.2474  0.0015
  642TMC3    C6 9558   4.619   4.557  12.307  0.7156 -0.4660 -0.9510
  642TMC3     C 9559   4.472   0.137  12.096  0.7303 -0.8889 -0.3589
  642TMC3     O 9560   4.548   0.231  12.083 -0.4340  0.2536 -0.1269
  642TMC3     H 9561   4.729   0.092  12.147  0.1749 -1.3854 -1.2365
  642TMC3    H1 9562   4.339   4.646  12.156  0.5569  2.0302 -0.0400
  642TMC3    H2 9563   4.661   4.483  12.375 -0.4324  0.3332  0.6421
  642TMC3    C7 9564   4.411   4.441  12.293  0.0083  0.0101  0.2400
  642TMC3    C8 9565   0.100   4.653  12.322  0.6731  0.2774 -0.3003
  642TMC3    O1 9566   4.476   4.337  12.305 -0.4363 -0.2121 -0.2060
  642TMC3    O2 9567   0.136   4.547  12.376 -0.2123  0.0620 -0.3972
  643TMC3    C1 9568   3.830   3.267   0.156 -0.6196  0.2769 -0.3421
  643TMC3    C2 9569   3.713   3.296   0.097  0.7419 -0.3536  0.5938
  643TMC3    C3 9570   3.679   3.247  17.726  0.4569 -0.4687  0.1780
  643TMC3    C4 9571   3.923   3.182   0.094  0.7393 -0.8373 -0.8341
  643TMC3    C5 9572   3.891   3.132  17.730  0.3020 -0.0636 -0.0590
  643TMC3    C6 9573   3.764   3.149  17.678  0.3262 -0.4054 -1.0177
  643TMC3     C 9574   3.865   3.354   0.261 -0.1389  0.1743  0.1504
  643TMC3     O 9575   3.801   3.460   0.269 -0.0228  0.4811 -0.4296
  643TMC3     H 9576   3.646   3.355   0.159 -1.6546 -1.2391 -1.1747
  643TMC3    H1 9577   4.025   3.174   0.129 -0.0190 -1.7342  1.1108
  643TMC3    H2 9578   3.745   3.110  17.578 -1.4354  1.4750 -1.4283
  643TMC3    C7 9579   3.988   3.183  17.632 -0.2916  0.0015  0.1331
  643TMC3    C8 9580   3.657   3.339  17.621  0.1004  0.4091 -0.3795
  643TMC3    O1 9581   4.049   3.281  17.673 -0.1618  0.0637 -0.2184
  643TMC3    O2 9582   3.615   3.292  17.517  0.2226  0.1282 -0.4559
  644MPD2     C 9583   4.300   4.254   9.424  0.3100 -0.1082  0.4991
  644MPD2    C1 9584   4.190   4.186   9.475  0.3229 -0.2859  0.1342
  644MPD2    C2 9585   4.132   4.231   9.588  0.9557 -0.2670  0.5610
  644MPD2    C3 9586   4.187   4.339   9.661  0.2088 -0.0805 -0.0783
  644MPD2    C4 9587   4.292   4.409   9.600  0.0598  0.5004 -0.3927
  644MPD2    C5 9588   4.349   4.365   9.486 -0.2841 -0.3962 -1.0502
  644MPD2     H 9589   4.034   4.192   9.616  0.9250 -1.0842 -0.7076
  644MPD2    H1 9590   4.323   4.505   9.639  1.6873 -0.2157  0.0493
  644MPD2    H2 9591   4.341   4.235   9.326  0.1975  1.6463  0.1164
  644MPD2    H3 9592   4.433   4.414   9.440 -0.7575  0.2019 -1.2798
  644MPD2     N 9593   4.117   4.380   9.780 -0.1060 -0.5906 -0.0343
  644MPD2    H5 9594   4.054   4.311   9.819 -0.7112 -0.6522 -1.1263
  644MPD2    N1 9595   4.154   4.067   9.407 -0.0481 -0.1878  0.6419
  644MPD2    H7 9596   4.218   4.040   9.334 -0.3978  1.5193 -0.2868
  645TMC3    C1 9597   4.088   4.478   9.989 -0.5068 -0.5048 -1.1273
  645TMC3    C2 9598   3.948   4.450   9.986 -0.6539 -0.1398  0.6411
  645TMC3    C3 9599   3.881   4.497  10.093 -0.4281  0.4795  0.6334
  645TMC3    C4 9600   4.141   4.561  10.082  0.0217  0.7637 -0.1401
  645TMC3    C5 9601   4.069   4.612  10.185 -0.4458  1.0826  0.9666
  645TMC3    C6 9602   3.936   4.576  10.195  0.3411  0.2326 -0.0547
  645TMC3     C 9603   4.154   4.486   9.855 -0.3767  0.2183  0.1627
  645TMC3     O 9604   4.249   4.564   9.836 -0.0638  0.5008  0.4332
  645TMC3     H 9605   3.902   4.405   9.899  1.1906  0.0488 -0.4385
  645TMC3    H1 9606   4.247   4.583  10.077  0.5168 -1.3385  0.8808
  645TMC3    H2 9607   3.884   4.583  10.290  1.7659 -2.6349  0.9393
  645TMC3    C7 9608   4.134   4.691  10.286  0.4275  0.5749 -0.3439
  645TMC3    C8 9609   3.746   4.455  10.128 -0.4509 -0.6297 -0.0442
  645TMC3    O1 9610   4.252   4.704  10.283 -0.1618  0.5605  0.1015
  645TMC3    O2 9611   3.667   4.521  10.202  0.8747 -0.0527 -0.7365
  646MPD2     C 9612   3.225   2.978  14.381  0.5277  0.8311  0.5459
  646MPD2    C1 9613   3.163   3.002  14.501 -0.0839 -0.0124  0.6627
  646MPD2    C2 9614   3.033   3.064  14.504  0.2905 -0.1356  1.0066
  646MPD2    C3 9615   2.974   3.111  14.385  0.1620  0.3669  0.9506
  646MPD2    C4 9616   3.037   3.082  14.266  0.6279 -0.3125 -0.0367
  646MPD2    C5 9617   3.159   3.010  14.266 -0.3473  0.4052  0.4530
  646MPD2     H 9618   2.992   3.092  14.600 -0.5110 -0.7005  0.8285
  646MPD2    H1 9619   2.999   3.113  14.169  0.6807  0.8596  0.3228
  646MPD2    H2 9620   3.323   2.933  14.366  0.6723  1.5062 -0.5341
  646MPD2    H3 9621   3.211   2.993  14.172  1.5829  2.9861  1.0556
  646MPD2     N 9622   2.843   3.166  14.407 -0.2182  0.2527 -0.1855
  646MPD2    H5 9623   2.796   3.161  14.496 -0.0581  0.9764 -0.0638
  646MPD2    N1 9624   3.222   2.966  14.629 -0.0793  0.1368  0.0458
  646MPD2    H7 9625   3.172   2.976  14.717 -1.9875 -0.0972 -0.9982
  647TMC3    C1 9626   3.385   2.890  14.783 -0.4558 -0.1910 -0.3157
  647TMC3    C2 9627   3.293   2.899  14.885 -0.4384 -0.2817  0.4865
  647TMC3    C3 9628   3.337   2.866  15.006  0.7530 -0.2771 -0.2062
  647TMC3    C4 9629   3.517   2.873  14.802  0.3406  0.5901 -0.2904
  647TMC3    C5 9630   3.557   2.861  14.932  0.4592 -0.1374  0.2257
  647TMC3    C6 9631   3.472   2.839  15.037  0.0798 -0.2822 -0.0661
  647TMC3     C 9632   3.344   2.904  14.648  0.3138 -1.0448 -0.5717
  647TMC3     O 9633   3.425   2.880  14.565 -0.0214  0.7245  0.5184
  647TMC3     H 9634   3.185   2.908  14.880 -0.3667  0.3252  0.0810
  647TMC3    H1 9635   3.592   2.876  14.724  0.6778  3.0152  0.1287
  647TMC3    H2 9636   3.511   2.841  15.138  0.5621  1.0998 -0.2775
  647TMC3    C7 9637   3.698   2.836  14.957 -0.6557 -0.2955 -0.6053
  647TMC3    C8 9638   3.233   2.846  15.106  0.2926 -0.2508 -0.2551
  647TMC3    O1 9639   3.738   2.757  15.048 -1.0309 -0.2369 -0.2548
  647TMC3    O2 9640   3.122   2.900  15.094 -0.1561 -0.0124 -0.6167
  648TMC3    C1 9641   2.627   0.832  16.068 -0.6150  0.0518 -0.0033
  648TMC3    C2 9642   2.630   0.705  16.017  0.2742  0.4249  0.3209
  648TMC3    C3 9643   2.606   0.689  15.883  0.0390  0.2001  0.2940
  648TMC3    C4 9644   2.580   0.936  15.989  0.7253  0.1337  0.3104
  648TMC3    C5 9645   2.548   0.918  15.858  0.2320  0.1022 -0.0737
  648TMC3    C6 9646   2.566   0.793  15.799  0.1723 -0.2799  0.4034
  648TMC3     C 9647   2.643   0.852  16.209 -0.2244 -0.5921  0.5965
  648TMC3     O 9648   2.632   0.971  16.251  0.4849  0.0153 -0.3683
  648TMC3     H 9649   2.659   0.621  16.079 -0.2684  0.4046  0.5471
  648TMC3    H1 9650   2.547   1.027  16.038  0.4151  0.1880  0.0023
  648TMC3    H2 9651   2.565   0.776  15.692  1.2944 -2.2155  0.6969
  648TMC3    C7 9652   2.496   1.020  15.767 -0.2658 -0.0541 -0.0394
  648TMC3    C8 9653   2.646   0.572  15.815  0.5710 -0.6310 -0.0154
  648TMC3    O1 9654   2.518   1.012  15.644  0.0411 -0.1781  0.2201
  648TMC3    O2 9655   2.708   0.573  15.707 -0.6388  0.0555 -0.0778
  649TMC3    C1 9656   1.906   1.738  12.845  0.7995  0.0133  0.7652
  649TMC3    C2 9657   2.035   1.694  12.813  0.9109  0.2193  0.5107
  649TMC3    C3 9658   2.086   1.596  12.892 -0.5857  0.6416  0.4847
  649TMC3    C4 9659   1.826   1.666  12.931 -0.0838 -0.2241  0.0034
  649TMC3    C5 9660   1.886   1.582  13.018  0.0063  0.1879 -0.1120
  649TMC3    C6 9661   2.015   1.540  12.995 -0.3240  0.8714  0.3693
  649TMC3     C 9662   1.853   1.868  12.796  0.2944 -0.5350 -0.4545
  649TMC3     O 9663   1.737   1.894  12.817  0.4139 -0.1477  0.5334
  649TMC3     H 9664   2.080   1.717  12.717 -0.5691 -4.2676 -1.2622
  649TMC3    H1 9665   1.718   1.661  12.936 -0.1379  0.7360 -0.0990
  649TMC3    H2 9666   2.061   1.464  13.057 -0.9079 -1.1824 -1.6920
  649TMC3    C7 9667   1.806   1.512  13.118 -0.3344 -0.2780  0.1919
  649TMC3    C8 9668   2.225   1.549  12.871  0.0259  0.2676  0.2430
  649TMC3    O1 9669   1.687   1.548  13.125  0.5038  0.7105  0.3277
  649TMC3    O2 9670   2.255   1.459  12.949 -0.1535  0.1826  0.2975
  650TMC3    C1 9671   3.776   3.933  12.717  0.1021  0.3924  0.2675
  650TMC3    C2 9672   3.734   4.066  12.691  0.2241  0.2387  0.2364
  650TMC3    C3 9673   3.648   4.090  12.587 -0.3491  0.6905 -0.2086
  650TMC3    C4 9674   3.723   3.830  12.637 -0.3683  0.0724 -0.0599
  650TMC3    C5 9675   3.650   3.858  12.525  0.8012 -0.0533 -0.3715
  650TMC3    C6 9676   3.612   3.987  12.504 -0.0502  0.4483 -0.1521
  650TMC3     C 9677   3.833   3.892  12.845  0.6189  0.5935  0.2496
  650TMC3     O 9678   3.834   3.975  12.933  0.6585 -0.2747  0.4276
  650TMC3     H 9679   3.763   4.138  12.767 -0.3248  1.4826 -0.7326
  650TMC3    H1 9680   3.736   3.724  12.657 -2.0587  0.1576  1.4972
  650TMC3    H2 9681   3.552   4.013  12.417  2.1163 -0.1293 -1.8342
  650TMC3    C7 9682   3.595   3.762  12.438 -0.2021  0.2070  0.0855
  650TMC3    C8 9683   3.616   4.229  12.561 -0.7085  0.4383  0.0439
  650TMC3    O1 9684   3.550   3.663  12.488 -0.4581  0.3365 -0.0155
  650TMC3    O2 9685   3.677   4.309  12.623 -0.2139 -0.4040  0.4179
  651MPD2     C 9686   2.926   0.517  10.503 -0.1730  0.4204  0.0014
  651MPD2    C1 9687   2.952   0.605  10.599  0.0557  0.1483  0.2842
  651MPD2    C2 9688   3.077   0.670  10.599  0.0559 -0.3954 -0.3471
  651MPD2    C3 9689   3.169   0.651  10.498 -0.3326 -0.8192 -0.5737
  651MPD2    C4 9690   3.140   0.563  10.400  0.3588  0.0790  0.1135
  651MPD2    C5 9691   3.020   0.502  10.406 -0.0192  0.1117  0.0004
  651MPD2     H 9692   3.090   0.748  10.673  3.8937 -0.5845 -0.8639
  651MPD2    H1 9693   3.212   0.535  10.324 -0.6636  2.3370 -1.6605
  651MPD2    H2 9694   2.834   0.463  10.486 -0.5590  0.9804  0.3212
  651MPD2    H3 9695   2.995   0.428  10.331  2.6491 -1.0664  0.2789
  651MPD2     N 9696   3.277   0.743  10.501  0.4788 -0.2096  0.0964
  651MPD2    H5 9697   3.286   0.790  10.591 -1.4163 -1.1560  0.7823
  651MPD2    N1 9698   2.861   0.628  10.702 -0.0888  0.1060  0.2546
  651MPD2    H7 9699   2.885   0.701  10.769 -1.5124 -0.0649  0.9577
  652TMC3    C1 9700   3.692   0.937  10.415 -0.0271 -1.2399  0.1936
  652TMC3    C2 9701   3.605   0.839  10.388 -0.1632 -0.4301 -0.1492
  652TMC3    C3 9702   3.474   0.851  10.433  0.9315 -0.2010  0.1784
  652TMC3    C4 9703   3.668   1.024  10.517 -0.0367  0.3418 -0.7343
  652TMC3    C5 9704   3.545   1.024  10.573  0.6708  0.2475 -0.1490
  652TMC3    C6 9705   3.444   0.945  10.528 -0.3545 -0.0532 -0.3848
  652TMC3     C 9706   3.820   0.866  10.424 -0.3734  0.4055  0.5647
  652TMC3     O 9707   3.868   0.867  10.534  0.1819 -0.1552  0.3311
  652TMC3     H 9708   3.626   0.745  10.338 -0.5487  0.3401 -1.7790
  652TMC3    H1 9709   3.749   1.082  10.560 -0.8204  0.1328  0.9963
  652TMC3    H2 9710   3.341   0.965  10.556 -0.1143  0.3066  0.2508
  652TMC3    C7 9711   3.526   1.094  10.695 -0.0504  1.4124 -0.1938
  652TMC3    C8 9712   3.374   0.752  10.406  0.6304  0.1402 -0.2614
  652TMC3    O1 9713   3.491   1.024  10.788  0.5576  0.0569  0.0776
  652TMC3    O2 9714   3.382   0.688  10.301 -0.4179  0.1776 -0.2485
  653MPD2     C 9715   1.461   0.867  17.584 -0.5942 -0.5709 -0.5595
  653MPD2    C1 9716   1.451   0.951  17.473 -0.1708  0.9786 -0.3921
  653MPD2    C2 9717   1.400   0.903  17.353  0.1961 -0.2173  0.2263
  653MPD2    C3 9718   1.357   0.770  17.342 -0.4104  0.3909  0.3647
  653MPD2    C4 9719   1.375   0.688  17.456  0.3316  0.0814 -0.0154
  653MPD2    C5 9720   1.436   0.733  17.568 -0.1599 -0.0427  0.0464
  653MPD2     H 9721   1.388   0.971  17.270 -0.5003  0.9254  1.2682
  653MPD2    H1 9722   1.348   0.583  17.458  0.4617  0.0524  0.2216
  653MPD2    H2 9723   1.493   0.900  17.683  1.5100 -0.5776 -1.2344
  653MPD2    H3 9724   1.450   0.669  17.654  0.5629  0.1867  0.0916
  653MPD2     N 9725   1.308   0.717  17.219 -0.1361 -0.4284  0.4483
  653MPD2    H5 9726   1.313   0.776  17.137  2.3998  0.1854  1.0564
  653MPD2    N1 9727   1.492   1.086  17.477 -0.1631  0.4478 -0.2005
  653MPD2    H7 9728   1.485   1.136  17.389  1.4241 -1.9761 -1.6887
  654TMC3    C1 9729   1.244   0.537  17.062 -0.3267  0.3206  0.6903
  654TMC3    C2 9730   1.149   0.606  16.995  0.6553  0.3184 -0.1089
  654TMC3    C3 9731   1.078   0.543  16.893  0.0332 -0.3286  0.3789
  654TMC3    C4 9732   1.266   0.408  17.046  0.9707  0.1126 -0.0043
  654TMC3    C5 9733   1.187   0.342  16.955  0.0216  0.3428 -0.1353
  654TMC3    C6 9734   1.096   0.412  16.878 -0.4908  0.3371 -0.0449
  654TMC3     C 9735   1.282   0.580  17.199  0.4032  0.1077  1.4558
  654TMC3     O 9736   1.298   0.488  17.280  0.0899 -0.4034  0.2076
  654TMC3     H 9737   1.131   0.712  17.008 -2.3490 -0.2289  0.2888
  654TMC3    H1 9738   1.351   0.359  17.093  0.4507 -0.8026 -0.0066
  654TMC3    H2 9739   1.023   0.360  16.817  0.4649 -2.1874  0.9517
  654TMC3    C7 9740   1.233   0.215  16.903  0.3854 -1.0476  0.7906
  654TMC3    C8 9741   0.945   0.595  16.859 -0.2547  0.0565  0.4429
  654TMC3    O1 9742   1.250   0.211  16.779 -0.8240 -0.8321 -0.3181
  654TMC3    O2 9743   0.898   0.693  16.918 -0.1217  0.1205  0.1563
  655MPD2     C 9744   3.193   1.020  15.874  0.0861  0.4549 -0.1745
  655MPD2    C1 9745   3.079   0.996  15.805  0.3938  0.1149  1.0549
  655MPD2    C2 9746   3.074   0.896  15.706  0.5509  0.0581 -0.2933
  655MPD2    C3 9747   3.174   0.800  15.699 -0.8577 -0.5014  0.4175
  655MPD2    C4 9748   3.283   0.813  15.784 -0.7024  0.0759  0.5176
  655MPD2    C5 9749   3.293   0.927  15.864  0.0266  0.1751  0.0040
  655MPD2     H 9750   2.987   0.901  15.641  0.7806  1.5023 -0.4865
  655MPD2    H1 9751   3.369   0.748  15.781 -0.4702  0.2729  2.7170
  655MPD2    H2 9752   3.206   1.102  15.943  0.0987  1.5477 -1.4781
  655MPD2    H3 9753   3.375   0.947  15.933  0.3881 -1.0836 -0.0605
  655MPD2     N 9754   3.176   0.694  15.604 -0.6881  0.0520  0.1261
  655MPD2    H5 9755   3.265   0.650  15.585 -0.8073  0.4237 -1.2538
  655MPD2    N1 9756   2.967   1.081  15.822 -0.2328 -0.3933  0.6797
  655MPD2    H7 9757   2.905   1.096  15.743  0.5710 -1.2846 -0.1341
  656TMC3    C1 9758   2.852   1.256  15.918 -0.0876 -0.3731  0.1477
  656TMC3    C2 9759   2.757   1.274  16.018 -0.2065  0.9637  0.5191
  656TMC3    C3 9760   2.690   1.394  16.024 -0.7151  0.0513  0.0431
  656TMC3    C4 9761   2.866   1.344  15.816 -0.7670 -0.0430  0.2998
  656TMC3    C5 9762   2.798   1.459  15.824  0.1910  0.6566  0.0249
  656TMC3    C6 9763   2.712   1.487  15.928 -0.3361  0.4432  0.2383
  656TMC3     C 9764   2.944   1.154  15.940  0.1818 -1.2780 -0.0175
  656TMC3     O 9765   2.986   1.142  16.056 -0.3842  0.4105  0.2075
  656TMC3     H 9766   2.741   1.195  16.091 -0.6157 -1.7506 -2.4933
  656TMC3    H1 9767   2.937   1.329  15.735 -0.6192 -1.1644  0.6317
  656TMC3    H2 9768   2.647   1.573  15.941  0.4384  0.9247  0.9199
  656TMC3    C7 9769   2.780   1.531  15.701  0.3025  0.1183  0.0245
  656TMC3    C8 9770   2.563   1.388  16.076  0.2393  0.0958 -0.2046
  656TMC3    O1 9771   2.874   1.543  15.622  0.6567 -0.5589  0.0641
  656TMC3    O2 9772   2.510   1.280  16.068  0.2567 -0.2194  0.2686
  657TMC3    C1 9773   1.988   0.386  14.916 -0.6047 -0.1397  0.2309
  657TMC3    C2 9774   2.020   0.396  15.051 -0.7814 -0.0316 -0.3375
  657TMC3    C3 9775   2.008   0.512  15.119 -0.1823  0.1189  0.1415
  657TMC3    C4 9776   1.949   0.499  14.852 -0.1790  0.0469 -0.2537
  657TMC3    C5 9777   1.930   0.614  14.927 -0.0412 -0.2061 -0.3666
  657TMC3    C6 9778   1.950   0.621  15.063  0.3768 -1.2204 -0.3884
  657TMC3     C 9779   2.063   0.293  14.830 -1.0187 -0.8392  0.7654
  657TMC3     O 9780   2.089   0.330  14.720 -0.6048 -0.1463  0.6883
  657TMC3     H 9781   2.078   0.316  15.095  0.6317  0.9483 -0.4186
  657TMC3    H1 9782   1.951   0.503  14.744 -0.7560  1.6841 -0.1927
  657TMC3    H2 9783   1.912   0.695  15.133  2.0041 -1.5353  0.8075
  657TMC3    C7 9784   1.865   0.729  14.877  0.0964 -0.1095  1.2031
  657TMC3    C8 9785   2.011   0.502  15.261 -0.1868  0.1296 -0.0312
  657TMC3    O1 9786   1.863   0.823  14.959  0.2077 -0.1637  0.4225
  657TMC3    O2 9787   2.021   0.606  15.328  0.4819 -0.2857 -0.5750
  658MPD2     C 9788   3.576   0.558  15.037  0.2641  0.9194  0.5243
  658MPD2    C1 9789   3.466   0.642  15.049  0.9473 -0.1421 -0.4951
  658MPD2    C2 9790   3.446   0.755  14.972  0.0783  0.1271 -0.5475
  658MPD2    C3 9791   3.534   0.777  14.864 -0.4557 -0.1393  0.8920
  658MPD2    C4 9792   3.643   0.693  14.846  0.3642  0.4509 -0.6801
  658MPD2    C5 9793   3.672   0.593  14.937 -0.7658 -0.6164 -0.6681
  658MPD2     H 9794   3.353   0.807  14.989  0.4420 -0.1687  2.3385
  658MPD2    H1 9795   3.722   0.711  14.774  1.0352 -1.6905 -0.4964
  658MPD2    H2 9796   3.585   0.471  15.101  2.3958  1.2083  0.5911
  658MPD2    H3 9797   3.768   0.543  14.926  1.7014  3.3497  2.9755
  658MPD2     N 9798   3.496   0.877  14.776  0.4596 -0.3662 -0.0337
  658MPD2    H5 9799   3.412   0.931  14.795  1.1435  1.2061 -1.4750
  658MPD2    N1 9800   3.364   0.611  15.146 -0.3134  0.1345  0.4217
  658MPD2    H7 9801   3.300   0.688  15.160  1.0982  0.6835  3.8622
  659TMC3    C1 9802   3.215   0.477  15.266  0.0084  0.4257 -1.0651
  659TMC3    C2 9803   3.209   0.567  15.367  0.2168  0.2498  0.2496
  659TMC3    C3 9804   3.096   0.566  15.434 -1.6004 -0.1693  1.3154
  659TMC3    C4 9805   3.127   0.375  15.249 -0.3040  0.8366  0.2726
  659TMC3    C5 9806   3.014   0.376  15.325  0.1841  0.1113 -0.3522
  659TMC3    C6 9807   3.007   0.475  15.413 -0.1153 -1.0457 -0.5907
  659TMC3     C 9808   3.329   0.483  15.173  0.1347  0.5939 -0.0668
  659TMC3     O 9809   3.374   0.376  15.141 -0.2443  0.3911  0.3321
  659TMC3     H 9810   3.286   0.643  15.371 -0.5946  1.2141 -2.3001
  659TMC3    H1 9811   3.152   0.293  15.183  1.2615  0.8554  0.8430
  659TMC3    H2 9812   2.919   0.472  15.477  0.7653 -2.1452  0.5585
  659TMC3    C7 9813   2.896   0.302  15.287  0.1039 -0.0915 -0.0843
  659TMC3    C8 9814   3.063   0.660  15.536  0.6704 -0.3927  0.1639
  659TMC3    O1 9815   2.813   0.287  15.379 -0.2865  0.5529 -0.0936
  659TMC3    O2 9816   2.947   0.694  15.558 -0.9736 -0.3411  0.1434
  660MPD2     C 9817   1.149   4.483  12.496 -0.8533 -0.6740  0.0646
  660MPD2    C1 9818   1.044   4.568  12.529 -0.8633  0.0309 -0.4534
  660MPD2    C2 9819   0.993   4.556  12.655 -0.3921 -0.0896 -0.0292
  660MPD2    C3 9820   1.044   4.454  12.745 -0.2203 -0.4615  0.8406
  660MPD2    C4 9821   1.148   4.370  12.708  0.4475  0.0665  0.9239
  660MPD2    C5 9822   1.207   4.396  12.586  0.2210  0.0363  0.5012
  660MPD2     H 9823   0.903   4.600  12.695 -2.1470 -1.6678 -2.2948
  660MPD2    H1 9824   1.186   4.300  12.781  1.3253  0.6700  1.0516
  660MPD2    H2 9825   1.196   4.500  12.400 -1.4326  2.4085  0.3256
  660MPD2    H3 9826   1.298   4.342  12.561 -1.1719 -1.5462 -1.1446
  660MPD2     N 9827   0.993   4.437  12.874  0.2486  0.6738  0.9847
  660MPD2    H5 9828   1.030   4.366  12.936  0.6462  0.3542  0.3806
  660MPD2    N1 9829   0.991   4.643  12.424  0.0911 -0.4505 -0.0149
  660MPD2    H7 9830   1.039   4.625  12.336  0.3696  1.0009 -0.1625
  661TMC3    C1 9831   0.869   0.069  12.309  0.3216  0.3684  0.6031
  661TMC3    C2 9832   0.981   0.090  12.227 -0.2738  0.1086  0.6927
  661TMC3    C3 9833   0.954   0.182  12.126 -0.8166  0.3094 -0.1275
  661TMC3    C4 9834   0.744   0.120  12.289  0.5854  0.5082 -0.2185
  661TMC3    C5 9835   0.736   0.217  12.193  0.3283 -0.4190  0.0263
  661TMC3    C6 9836   0.838   0.245  12.106 -0.2709  0.7570 -1.1338
  661TMC3     C 9837   0.896   4.740  12.439 -0.1897 -0.4654  0.1169
  661TMC3     O 9838   0.829   0.030  12.538  0.1055 -0.1228 -0.2440
  661TMC3     H 9839   1.073   0.033  12.222 -1.6317 -2.1373  1.6268
  661TMC3    H1 9840   0.671   0.103  12.367  0.5254 -2.5124 -0.9254
  661TMC3    H2 9841   0.824   0.309  12.019 -0.7203  2.9664  0.5604
  661TMC3    C7 9842   0.601   0.254  12.154  0.0748  0.0582  0.3561
  661TMC3    C8 9843   1.047   0.191  12.014  0.2771 -0.3455 -0.1092
  661TMC3    O1 9844   0.594   0.350  12.074  0.3971  0.2393  0.4769
  661TMC3    O2 9845   1.085   0.297  11.961  0.1412  0.5739  0.5495
  662MPD2     C 9846   0.790   4.102  17.171  0.1756  0.2425 -0.0844
  662MPD2    C1 9847   0.899   4.043  17.228  0.3334  0.6619  0.2707
  662MPD2    C2 9848   0.949   4.104  17.339 -0.3019  0.2604  0.3129
  662MPD2    C3 9849   0.891   4.213  17.399  0.4122  1.0161  0.5659
  662MPD2    C4 9850   0.794   4.276  17.333 -0.9359  0.0250 -0.2018
  662MPD2    C5 9851   0.747   4.220  17.216 -0.2994 -0.4032 -0.1204
  662MPD2     H 9852   1.033   4.053  17.385 -1.1672 -1.1442  0.3505
  662MPD2    H1 9853   0.738   4.359  17.375  0.9149  1.1807 -0.0408
  662MPD2    H2 9854   0.743   4.055  17.085 -0.2115 -0.2869  0.4179
  662MPD2    H3 9855   0.665   4.266  17.162 -0.1362  0.3721  0.2854
  662MPD2     N 9856   0.918   4.253  17.528  0.3048 -0.1500  0.1654
  662MPD2    H5 9857   0.878   4.342  17.558 -1.0993 -0.6791 -0.1166
  662MPD2    N1 9858   0.968   3.928  17.188 -0.1095 -0.2240  0.3339
  662MPD2    H7 9859   1.049   3.901  17.242 -0.0871 -0.6648  0.0789
  663TMC3    C1 9860   1.030   3.746  17.061 -0.1039 -0.0019 -0.3662
  663TMC3    C2 9861   1.152   3.750  17.122 -0.0355 -0.1940 -0.2504
  663TMC3    C3 9862   1.239   3.646  17.100  0.5641  0.2157  0.0418
  663TMC3    C4 9863   0.994   3.642  16.974 -0.0020 -0.2140  0.0868
  663TMC3    C5 9864   1.079   3.537  16.977  0.1676 -0.4194  0.2450
  663TMC3    C6 9865   1.194   3.532  17.047 -0.8348 -0.0873  0.3505
  663TMC3     C 9866   0.929   3.849  17.086  0.4262  0.0812  0.2829
  663TMC3     O 9867   0.824   3.849  17.019  0.0887 -0.0147  0.4112
  663TMC3     H 9868   1.196   3.840  17.163  0.6437 -0.6329 -0.0148
  663TMC3    H1 9869   0.902   3.647  16.917  0.8089  1.2080 -1.0921
  663TMC3    H2 9870   1.267   3.453  17.031 -0.1185  0.5438  0.5216
  663TMC3    C7 9871   1.056   3.420  16.891 -0.5101 -0.4275  0.1019
  663TMC3    C8 9872   1.336   3.632  17.215  0.1222 -0.1366 -0.0127
  663TMC3    O1 9873   0.988   3.434  16.791  0.7861  0.4799  0.3492
  663TMC3    O2 9874   1.440   3.576  17.202 -0.5595  0.2770  0.2020
  664MPD2     C 9875   4.220   2.151  17.755  0.0789 -0.6353 -0.8713
  664MPD2    C1 9876   4.261   2.275   0.050 -0.3302 -0.6313 -0.2497
  664MPD2    C2 9877   4.226   2.299   0.185  0.1289 -0.7641  0.2833
  664MPD2    C3 9878   4.151   2.213   0.257  0.6231 -0.3330 -0.5141
  664MPD2    C4 9879   4.109   2.095   0.192 -0.1818  0.1159  0.6129
  664MPD2    C5 9880   4.151   2.055   0.069 -0.2704 -0.0814 -0.1188
  664MPD2     H 9881   4.266   2.383   0.242  0.7713 -0.6206 -0.3795
  664MPD2    H1 9882   4.049   2.026   0.251 -2.0526  3.0659  2.1536
  664MPD2    H2 9883   4.253   2.110  17.660  0.1482 -0.4682 -0.9195
  664MPD2    H3 9884   4.127   1.957   0.031  0.5900 -0.9678  1.6344
  664MPD2     N 9885   4.132   2.227   0.398 -0.0613 -0.2959 -0.2023
  664MPD2    H5 9886   4.169   2.318   0.426 -1.7946  0.2490  0.3396
  664MPD2    N1 9887   4.342   2.368  17.732 -0.1458  0.0486 -0.1629
  664MPD2    H7 9888   4.385   2.442   0.029  1.7983 -2.2872  1.4291
  665TMC3    C1 9889   4.047   2.185   0.616  0.2288  0.8117  0.0038
  665TMC3    C2 9890   3.925   2.195   0.683 -0.2694 -0.6442  0.8162
  665TMC3    C3 9891   3.932   2.245   0.810 -0.1533 -0.1913 -0.8734
  665TMC3    C4 9892   4.162   2.231   0.665 -0.2524 -0.2496  0.2143
  665TMC3    C5 9893   4.155   2.272   0.794 -0.2277  1.0630  0.1002
  665TMC3    C6 9894   4.050   2.271   0.875  0.3198  0.1073  0.3040
  665TMC3     C 9895   4.047   2.153   0.475 -0.2660  1.2723 -0.0969
  665TMC3     O 9896   3.959   2.077   0.448 -0.0846 -0.3417 -0.0337
  665TMC3     H 9897   3.835   2.190   0.623  0.1316  1.0527  0.0918
  665TMC3    H1 9898   4.259   2.236   0.616 -0.9855 -1.6745 -1.3751
  665TMC3    H2 9899   4.049   2.316   0.974 -0.7783 -2.3798  1.4486
  665TMC3    C7 9900   4.262   2.360   0.836  0.3987 -0.2031  0.2312
  665TMC3    C8 9901   3.804   2.261   0.884  0.0651 -0.0679  0.1249
  665TMC3    O1 9902   4.375   2.332   0.789 -0.1847  0.3748  0.1871
  665TMC3    O2 9903   3.709   2.279   0.807  0.0847  0.5013 -0.4079
  666TMC3    C1 9904   2.846   2.168  10.307 -0.2364 -0.7619 -0.4404
  666TMC3    C2 9905   2.877   2.155  10.178 -0.7810 -0.0758 -0.0176
  666TMC3    C3 9906   2.963   2.250  10.128 -0.5944  0.1003 -0.0675
  666TMC3    C4 9907   2.908   2.253  10.390  0.4988  0.6362  0.7276
  666TMC3    C5 9908   2.981   2.356  10.338 -0.4703 -0.0167  0.1940
  666TMC3    C6 9909   3.007   2.357  10.204  0.5984  0.5476  0.1417
  666TMC3     C 9910   2.787   2.057  10.372  0.1830  0.1982  0.1372
  666TMC3     O 9911   2.680   2.009  10.337  0.1679 -0.2907 -0.3874
  666TMC3     H 9912   2.846   2.068  10.123  2.4375 -1.2899  0.1026
  666TMC3    H1 9913   2.874   2.266  10.492 -1.1319 -0.5540  0.3251
  666TMC3    H2 9914   3.060   2.437  10.152  1.2091  1.3161  1.9538
  666TMC3    C7 9915   3.072   2.430  10.428 -0.5497 -0.4524 -0.3620
  666TMC3    C8 9916   3.025   2.242   9.999  0.4110  0.6773  0.2569
  666TMC3    O1 9917   3.046   2.408  10.547 -1.0497 -0.0857  0.3950
  666TMC3    O2 9918   2.954   2.200   9.906 -0.1560  0.7472 -0.0016
  667MPD2     C 9919   0.631   2.340  14.790  0.1820  0.1851  0.0574
  667MPD2    C1 9920   0.535   2.402  14.871  0.6427  0.0415  0.0756
  667MPD2    C2 9921   0.416   2.334  14.897  0.1395 -0.2660  0.2531
  667MPD2    C3 9922   0.394   2.198  14.869  0.3623 -0.1948 -0.7798
  667MPD2    C4 9923   0.500   2.138  14.807 -0.1655  0.5324 -0.4609
  667MPD2    C5 9924   0.613   2.208  14.764 -0.4010 -0.1802 -0.3552
  667MPD2     H 9925   0.334   2.390  14.941 -0.6017 -0.4816 -0.8622
  667MPD2    H1 9926   0.492   2.043  14.755 -0.0119  1.0302 -1.3856
  667MPD2    H2 9927   0.720   2.393  14.761 -1.1920  2.5437  0.1903
  667MPD2    H3 9928   0.683   2.158  14.699 -0.5337 -0.3467 -0.3696
  667MPD2     N 9929   0.276   2.120  14.888 -0.2809  0.4246  0.2051
  667MPD2    H5 9930   0.280   2.022  14.865  1.7689  0.1186  1.8785
  667MPD2    N1 9931   0.549   2.535  14.907  0.0316 -0.6683 -0.5678
  667MPD2    H7 9932   0.474   2.557  14.971  1.6029 -1.9738  1.7156
  668TMC3    C1 9933   0.663   2.720  14.987  0.0707 -0.1107 -0.6517
  668TMC3    C2 9934   0.691   2.847  14.944  0.6695 -0.5039  0.1011
  668TMC3    C3 9935   0.658   2.945  15.040  0.5058  0.6289  0.5794
  668TMC3    C4 9936   0.633   2.685  15.116  0.1321  0.1994 -0.5690
  668TMC3    C5 9937   0.603   2.788  15.203 -0.2913  0.1108  0.4817
  668TMC3    C6 9938   0.620   2.914  15.169  0.5157  0.0979 -0.3492
  668TMC3     C 9939   0.661   2.613  14.892  0.3917  1.5156 -0.0739
  668TMC3     O 9940   0.747   2.607  14.801  0.6157  0.3769 -0.1825
  668TMC3     H 9941   0.730   2.868  14.845  1.7782 -1.2138  0.3813
  668TMC3    H1 9942   0.629   2.579  15.138  0.1435 -0.1680 -2.3228
  668TMC3    H2 9943   0.613   2.985  15.250  2.2117 -1.1043  0.8391
  668TMC3    C7 9944   0.599   2.761  15.343 -0.1550  0.4313  0.1382
  668TMC3    C8 9945   0.677   3.093  15.020 -0.4081  0.6044 -0.2723
  668TMC3    O1 9946   0.668   2.828  15.416  0.0053 -0.2906  0.7826
  668TMC3    O2 9947   0.623   3.159  15.107 -0.8512 -0.1817  0.4954
  669TMC3    C1 9948   2.964   2.337  14.820 -0.4369 -0.2974 -0.2224
  669TMC3    C2 9949   2.842   2.339  14.752 -0.4635 -0.3304 -0.1177
  669TMC3    C3 9950   2.851   2.392  14.626 -0.0955 -0.4252 -0.0290
  669TMC3    C4 9951   3.086   2.364  14.758  0.7806  1.1619  0.4201
  669TMC3    C5 9952   3.084   2.409  14.629 -0.3559  0.0891 -0.0752
  669TMC3    C6 9953   2.968   2.434  14.564 -0.2565 -0.4360 -0.5106
  669TMC3     C 9954   2.965   2.255  14.940 -0.0385 -0.5215 -1.0438
  669TMC3     O 9955   2.857   2.244  14.993  0.2294  0.5635 -0.1404
  669TMC3     H 9956   2.744   2.310  14.790 -0.6150  1.6980  1.0960
  669TMC3    H1 9957   3.177   2.345  14.813  1.6311  0.3761 -1.2885
  669TMC3    H2 9958   2.969   2.473  14.464  1.2940  0.3232 -0.2094
  669TMC3    C7 9959   3.193   2.484  14.569 -0.2952  0.5675 -0.1242
  669TMC3    C8 9960   2.728   2.395  14.544  0.4077 -0.0488  0.3438
  669TMC3    O1 9961   3.189   2.505  14.446  0.4305  0.3799 -0.4159
  669TMC3    O2 9962   2.743   2.393  14.426  0.3758 -0.1319  0.4387
  670MPD2     C 9963   1.818   0.060  13.926  0.2646 -0.7063  0.8884
  670MPD2    C1 9964   1.744   0.172  13.954  0.0605  0.6512  0.5770
  670MPD2    C2 9965   1.658   0.173  14.063 -0.5826  0.3975  0.2788
  670MPD2    C3 9966   1.652   0.056  14.138 -0.6703 -0.3163 -0.5988
  670MPD2    C4 9967   1.725   4.684  14.110  0.0273  0.6869  0.0007
  670MPD2    C5 9968   1.798   4.686  13.996 -0.5819  0.0668 -0.1689
  670MPD2     H 9969   1.603   0.265  14.082  1.5059  1.6435  0.1949
  670MPD2    H1 9970   1.712   4.589  14.161  1.2024 -0.1505 -1.2815
  670MPD2    H2 9971   1.881   0.047  13.839 -0.5720  0.4792  0.1026
  670MPD2    H3 9972   1.850   4.600  13.954 -1.1667  0.4372 -1.6675
  670MPD2     N 9973   1.575   0.067  14.263 -0.0318 -0.9429  0.0306
  670MPD2    H5 9974   1.526   0.152  14.289 -1.4439 -1.6585 -0.2690
  670MPD2    N1 9975   1.769   0.294  13.891 -0.1136 -0.0142  0.0440
  670MPD2    H7 9976   1.739   0.383  13.928  1.6542  0.2777  0.7777
  671TMC3    C1 9977   1.460   4.734  14.454  0.3377  0.7758  0.4255
  671TMC3    C2 9978   1.466   4.671  14.578 -0.6543  0.4550 -0.4012
  671TMC3    C3 9979   1.350   4.653  14.651 -0.1141  0.7928 -0.1493
  671TMC3    C4 9980   1.340   0.039  14.404  0.7180 -0.4797 -1.2400
  671TMC3    C5 9981   1.234   0.002  14.476 -0.3488  0.5646 -0.8294
  671TMC3    C6 9982   1.228   4.680  14.602  0.0348 -0.6434 -0.6421
  671TMC3     C 9983   1.563   4.704  14.355  0.4503 -0.0925 -0.0781
  671TMC3     O 9984   1.633   4.608  14.383 -0.3233 -0.0008 -0.1324
  671TMC3     H 9985   1.539   4.590  14.586  1.0027  2.0077  0.1176
  671TMC3    H1 9986   1.324   0.042  14.297  0.0930  0.6043 -1.1093
  671TMC3    H2 9987   1.133   4.644  14.641 -0.8884 -0.8599 -3.1192
  671TMC3    C7 9988   1.106   4.728  14.398 -0.1440 -0.3872  0.3824
  671TMC3    C8 9989   1.362   4.531  14.720  0.1469 -0.4553 -0.1153
  671TMC3    O1 9990   1.109   4.698  14.282  0.8186 -0.4167 -0.2124
  671TMC3    O2 9991   1.429   4.523  14.818 -0.0661  0.4429  0.1458
  672MPD2     C 9992   1.792   0.843   0.392 -0.6321  0.1404  0.5345
  672MPD2    C1 9993   1.888   0.768   0.455 -0.1471 -0.3143 -0.1312
  672MPD2    C2 9994   2.022   0.813   0.455  0.5308  0.4756 -0.1522
  672MPD2    C3 9995   2.047   0.944   0.409  0.0078 -0.1584 -0.3517
  672MPD2    C4 9996   1.945   1.014   0.357 -0.2690 -0.0210 -0.2335
  672MPD2    C5 9997   1.821   0.962   0.340  0.7243  0.2955 -0.8673
  672MPD2     H 9998   2.099   0.752   0.499 -0.3324  0.6379  1.5626
  672MPD2    H1 9999   1.960   1.115   0.319  0.2984 -0.3190 -0.7976
  672MPD2    H210000   1.687   0.818   0.399 -0.6512 -0.4035 -1.6412
  672MPD2    H310001   1.746   1.026   0.295 -1.4389 -1.4420  0.2643
  672MPD2     N10002   2.175   1.011   0.411 -0.7619  0.0797 -0.4512
  672MPD2    H510003   2.186   1.104   0.373  0.9459  0.4474  0.9492
  672MPD2    N110004   1.853   0.653   0.532  0.0311  0.6672 -0.0350
  672MPD2    H710005   1.932   0.599   0.563 -1.1793 -0.9175  0.3093
  673TMC3    C110006   1.714   0.468   0.620  0.1047  0.1908  0.2838
  673TMC3    C210007   1.801   0.371   0.576 -0.8628  0.5711  0.1644
  673TMC3    C310008   1.768   0.242   0.603 -0.3472 -0.7351 -0.2234
  673TMC3    C410009   1.594   0.444   0.677 -0.5068 -0.5000  0.4897
  673TMC3    C510010   1.559   0.313   0.689  0.4631 -0.3839 -0.1555
  673TMC3    C610011   1.645   0.212   0.641  0.3944  0.4916 -0.4009
  673TMC3     C10012   1.727   0.603   0.559 -0.5547  0.1587  0.5108
  673TMC3     O10013   1.616   0.652   0.533  0.9775 -0.8792  0.0416
  673TMC3     H10014   1.886   0.390   0.512 -0.3080 -0.2393  0.6656
  673TMC3    H110015   1.528   0.517   0.722  0.1147  1.3411 -1.6195
  673TMC3    H210016   1.607   0.111   0.641 -2.9005  1.7181  0.9668
  673TMC3    C710017   1.417   0.282   0.688 -0.4511 -0.1567  0.2661
  673TMC3    C810018   1.849   0.120   0.551  0.0027  0.2944 -0.1517
  673TMC3    O110019   1.379   0.164   0.700  0.1439 -0.4746 -0.6474
  673TMC3    O210020   1.801   0.009   0.555 -0.0026  0.1555  0.2695
  674MPD2     C10021   1.372   4.391  17.552  0.1662  0.0506 -0.2785
  674MPD2    C110022   1.394   4.387  17.681 -1.0535  0.2913  0.5435
  674MPD2    C210023   1.384   4.507  17.750 -1.0174  0.3964 -0.6098
  674MPD2    C310024   1.364   4.627  17.683 -0.0475 -0.0703 -0.0322
  674MPD2    C410025   1.347   4.626  17.553 -0.7622 -0.5560 -0.2365
  674MPD2    C510026   1.345   4.505  17.486 -0.1526  0.6501  0.0446
  674MPD2     H10027   1.397   4.508   0.100 -1.8377  2.1374 -0.5195
  674MPD2    H110028   1.336   4.717  17.495  0.6002 -0.4762 -0.3757
  674MPD2    H210029   1.388   4.303  17.491  2.2907  0.3084 -0.1056
  674MPD2    H310030   1.328   4.501  17.379  1.0085 -0.8064 -0.0782
  674MPD2     N10031   1.369   0.002   0.007 -0.7137 -0.5866 -0.1160
  674MPD2    H510032   1.381   4.732   0.107  0.4055 -2.0878 -0.4059
  674MPD2    N110033   1.417   4.258  17.741 -0.0454  0.0892  0.1759
  674MPD2    H710034   1.393   4.183  17.676  0.0661  0.3603 -0.1779
  675TMC3    C110035   1.517   4.314   0.197 -0.5167 -0.0522 -0.1952
  675TMC3    C210036   1.496   4.293   0.324  0.0898  0.1265  0.1662
  675TMC3    C310037   1.548   4.377   0.418  0.2219 -0.1788  0.6140
  675TMC3    C410038   1.618   4.393   0.154  0.7927 -0.8052  0.4885
  675TMC3    C510039   1.677   4.473   0.249  0.6090  0.1343 -0.6332
  675TMC3    C610040   1.636   4.472   0.381  0.1094  0.2598  0.3580
  675TMC3     C10041   1.458   4.220   0.107 -0.2181  0.0839  0.8083
  675TMC3     O10042   1.448   4.103   0.147  0.2314  0.4273 -0.2629
  675TMC3     H10043   1.412   4.229   0.347 -1.2562  0.6549 -3.2227
  675TMC3    H110044   1.639   4.407   0.048  0.1506 -0.4105  0.4114
  675TMC3    H210045   1.691   4.525   0.458  0.4214  0.4698 -0.0105
  675TMC3    C710046   1.756   4.581   0.201 -0.5483  1.0200  0.2533
  675TMC3    C810047   1.505   4.357   0.556 -0.2693  0.0093 -0.1210
  675TMC3    O110048   1.810   4.552   0.095  0.0919 -0.3516 -0.1987
  675TMC3    O210049   1.449   4.251   0.591  0.0530 -0.0265 -0.0917
  676MPD2     C10050   4.139   2.971  11.279 -0.1268  0.0411 -0.7781
  676MPD2    C110051   4.027   2.996  11.364  0.3885  0.1791  0.4249
  676MPD2    C210052   3.937   2.888  11.391  0.1296  0.2098 -0.7792
  676MPD2    C310053   3.957   2.763  11.333 -0.2829 -0.0702 -0.9352
  676MPD2    C410054   4.081   2.732  11.278 -0.3214  0.2781 -0.0937
  676MPD2    C510055   4.165   2.840  11.251 -0.1212  0.7083  0.6976
  676MPD2     H10056   3.845   2.906  11.445  0.6511 -0.7521  0.4237
  676MPD2    H110057   4.096   2.634  11.235  1.6185  0.0170  1.1742
  676MPD2    H210058   4.220   3.042  11.272 -0.2391  0.2565  0.0425
  676MPD2    H310059   4.258   2.822  11.198  0.6887  0.1859  2.3062
  676MPD2     N10060   3.860   2.663  11.345  0.4312  0.3313 -0.5672
  676MPD2    H510061   3.889   2.570  11.314 -0.1656 -0.2418  0.5927
  676MPD2    N110062   4.001   3.124  11.416  0.2393  0.2732 -0.1478
  676MPD2    H710063   3.921   3.134  11.476  1.1061 -0.4344  1.1236
  677TMC3    C110064   3.995   3.357  11.441  0.2005  0.4806 -0.0889
  677TMC3    C210065   3.882   3.336  11.512  0.6518  0.1520  0.0110
  677TMC3    C310066   3.851   3.430  11.603 -1.1424  0.8232  0.3701
  677TMC3    C410067   4.069   3.476  11.453  0.0510  0.6548 -0.4321
  677TMC3    C510068   4.041   3.556  11.559  0.1296 -0.0241  0.1798
  677TMC3    C610069   3.927   3.536  11.635 -0.2787 -0.0070 -0.2603
  677TMC3     C10070   4.060   3.240  11.381 -0.2274 -0.3044 -0.3340
  677TMC3     O10071   4.172   3.266  11.335  0.8705  0.0756 -0.0451
  677TMC3     H10072   3.809   3.257  11.499 -2.0650  2.9720 -1.6955
  677TMC3    H110073   4.161   3.488  11.396  0.4204  0.2741  0.0842
  677TMC3    H210074   3.906   3.612  11.709  0.7690 -1.3171  1.3900
  677TMC3    C710075   4.119   3.675  11.585 -0.1593 -0.4264 -0.3960
  677TMC3    C810076   3.751   3.388  11.700 -0.0532  0.2805  0.2589
  677TMC3    O110077   4.068   3.765  11.651  0.3710 -0.0127 -0.0832
  677TMC3    O210078   3.650   3.329  11.665 -0.0251  0.2111  0.2692
  678MPD2     C10079   0.932   3.425   1.497  0.0379 -0.1624  0.3119
  678MPD2    C110080   0.897   3.356   1.382 -0.3132  0.7815  0.2202
  678MPD2    C210081   0.763   3.353   1.356 -0.5337  0.0689  0.7614
  678MPD2    C310082   0.653   3.413   1.423 -0.5887  0.3919  0.1315
  678MPD2    C410083   0.691   3.489   1.530  0.5981  0.9409  0.1877
  678MPD2    C510084   0.829   3.499   1.559 -0.2753  0.6453 -0.0313
  678MPD2     H10085   0.733   3.290   1.273  2.2635  1.7835 -1.5535
  678MPD2    H110086   0.624   3.535   1.601 -2.0989 -1.7566 -0.6014
  678MPD2    H210087   1.031   3.433   1.540 -1.4359 -0.2920  3.6540
  678MPD2    H310088   0.848   3.553   1.652 -0.4414  0.4094  0.1402
  678MPD2     N10089   0.516   3.400   1.374 -0.1027  0.5603 -0.2843
  678MPD2    H510090   0.508   3.338   1.294 -0.3292  0.1412  0.0612
  678MPD2    N110091   0.996   3.291   1.305  0.2232  0.2573 -0.3163
  678MPD2    H710092   0.973   3.253   1.214  4.5433 -0.1679 -1.2164
  679TMC3    C110093   1.429   3.095   1.249 -0.4475 -0.1994  0.9885
  679TMC3    C210094   1.304   3.116   1.314  0.4433  0.0273 -0.2190
  679TMC3    C310095   1.222   3.223   1.266  0.5108  0.3801  1.1301
  679TMC3    C410096   1.444   3.159   1.130 -0.4987  0.8134  0.6811
  679TMC3    C510097   1.352   3.253   1.092 -0.1526 -0.5471  0.2165
  679TMC3    C610098   1.235   3.290   1.155  0.5406  0.0067 -0.0529
  679TMC3     C10099   1.468   2.954   1.243 -0.1306  0.1017  0.4568
  679TMC3     O10100   1.590   2.929   1.220  0.1436  0.5913  0.0135
  679TMC3     H10101   1.268   3.059   1.399 -0.2431  1.5112  0.4713
  679TMC3    H110102   1.535   3.134   1.077 -0.3564  1.2367  0.7217
  679TMC3    H210103   1.164   3.365   1.119  0.7330  0.5173  0.6398
  679TMC3    C710104   1.392   3.323   0.975 -0.5404  0.0020 -0.3261
  679TMC3    C810105   1.122   3.268   1.357  0.1996 -0.3717  0.8452
  679TMC3    O110106   1.353   3.437   0.966 -0.1019  0.6191  0.0235
  679TMC3    O210107   1.155   3.243   1.473 -0.1264  0.4610 -0.1582
  680MPD2     C10108   0.821   1.516  13.589  0.1631 -0.1974  0.6903
  680MPD2    C110109   0.955   1.532  13.570  0.5031 -0.4169  0.0280
  680MPD2    C210110   1.011   1.641  13.627 -0.1709 -0.1091  0.1165
  680MPD2    C310111   0.938   1.743  13.680 -0.1111  0.5760  0.8092
  680MPD2    C410112   0.807   1.728  13.691 -0.8933  0.2895 -0.5617
  680MPD2    C510113   0.748   1.614  13.647  0.3439  0.7311  0.2224
  680MPD2     H10114   1.119   1.640  13.614 -0.2738  0.0149 -0.7527
  680MPD2    H110115   0.750   1.803  13.745 -0.9656 -1.4967  1.8595
  680MPD2    H210116   0.766   1.429  13.556 -0.8760  1.1943 -1.2824
  680MPD2    H310117   0.643   1.590  13.658  0.5937 -0.3735  0.1359
  680MPD2     N10118   0.994   1.867  13.723 -0.2743 -0.0600  0.1621
  680MPD2    H510119   0.927   1.941  13.741  0.2262  0.8618 -1.8445
  680MPD2    N110120   1.040   1.438  13.501 -0.3220  0.9710 -0.6242
  680MPD2    H710121   1.139   1.450  13.516  0.1784 -2.0109 -1.6962
  681TMC3    C110122   1.068   1.216  13.449 -0.5830 -0.7022  0.8495
  681TMC3    C210123   1.006   1.136  13.541  0.4293 -0.6170 -0.1603
  681TMC3    C310124   1.082   1.092  13.645 -0.1220 -0.1407 -0.4146
  681TMC3    C410125   1.205   1.233  13.445 -0.4250  0.1849  0.3745
  681TMC3    C510126   1.273   1.185  13.546  0.3025  0.2232  0.5902
  681TMC3    C610127   1.218   1.116  13.646 -0.0167  0.0472  0.2932
  681TMC3     C10128   0.989   1.333  13.429  0.1712 -0.8160  0.0412
  681TMC3     O10129   0.877   1.314  13.392 -0.4209  0.4599  0.3396
  681TMC3     H10130   0.899   1.133  13.557  0.8179  1.0715  2.7841
  681TMC3    H110131   1.256   1.286  13.366 -0.0429 -0.0603  0.4611
  681TMC3    H210132   1.280   1.090  13.730  0.6913 -0.5747 -0.4250
  681TMC3    C710133   1.415   1.156  13.528 -0.3390 -0.4303 -0.2345
  681TMC3    C810134   1.002   1.127  13.763  0.1394  0.3537  0.3669
  681TMC3    O110135   1.464   1.080  13.611  0.6694  0.5718  0.5527
  681TMC3    O210136   0.910   1.057  13.803  0.0875 -0.3126  0.1691
  682MPD2     C10137   3.269   3.364  11.260 -0.5600  0.5400  0.2181
  682MPD2    C110138   3.227   3.244  11.313 -0.0440 -0.4211 -0.8099
  682MPD2    C210139   3.132   3.250  11.407  0.2260 -0.5548  0.6289
  682MPD2    C310140   3.069   3.369  11.426  0.8647 -0.2133 -0.1847
  682MPD2    C410141   3.098   3.485  11.365  0.4694 -0.5137  0.1813
  682MPD2    C510142   3.208   3.483  11.286  0.3451 -0.0951 -0.1151
  682MPD2     H10143   3.104   3.162  11.465  0.4250  0.0208  1.5980
  682MPD2    H110144   3.059   3.584  11.385 -1.1185 -1.5178  2.0704
  682MPD2    H210145   3.353   3.365  11.191 -0.5225  1.2879  0.2780
  682MPD2    H310146   3.243   3.576  11.244  0.2909  0.7694  1.7754
  682MPD2     N10147   2.955   3.375  11.498  0.6181 -0.1346 -0.0248
  682MPD2    H510148   2.913   3.463  11.527  0.7453 -0.1641  0.2475
  682MPD2    N110149   3.280   3.113  11.285  0.2673 -0.2082  0.1283
  682MPD2    H710150   3.236   3.039  11.338  0.5481  0.1949  0.9278
  683TMC3    C110151   2.780   3.342  11.870 -0.4810 -0.2410  0.7873
  683TMC3    C210152   2.684   3.244  11.881 -0.5958 -0.1334 -0.1361
  683TMC3    C310153   2.648   3.163  11.779 -0.0356  0.5819 -0.1466
  683TMC3    C410154   2.828   3.371  11.743  0.0193 -0.5067  0.5317
  683TMC3    C510155   2.793   3.287  11.640  0.0011  0.2874 -0.2278
  683TMC3    C610156   2.708   3.178  11.654  0.1852 -0.1331 -0.1249
  683TMC3     C10157   2.795   3.440  11.974  0.2052  0.2424 -0.3046
  683TMC3     O10158   2.798   3.560  11.948  0.3982 -0.5350 -0.5770
  683TMC3     H10159   2.644   3.201  11.972 -2.3176  2.4152  0.3301
  683TMC3    H110160   2.879   3.466  11.732 -1.4397  0.4454  1.8592
  683TMC3    H210161   2.687   3.106  11.575 -0.1623 -0.4987  0.2997
  683TMC3    C710162   2.884   3.267  11.530  1.1496 -0.1638  0.7123
  683TMC3    C810163   2.604   3.021  11.799  0.5387  0.4525  0.1210
  683TMC3    O110164   2.890   3.152  11.483  0.5543  0.6694  0.1679
  683TMC3    O210165   2.550   2.979  11.699 -0.1927  0.2727 -0.1230
  684MPD2     C10166   1.440   3.024  16.829  0.3991  0.6751 -0.7458
  684MPD2    C110167   1.385   3.005  16.700  1.2578  0.6329  0.3554
  684MPD2    C210168   1.331   3.110  16.635 -0.5945  0.6941  0.3823
  684MPD2    C310169   1.351   3.241  16.683  0.6123  0.0919 -0.3057
  684MPD2    C410170   1.404   3.256  16.803 -0.3649  0.6734  1.2148
  684MPD2    C510171   1.434   3.148  16.879  0.5368  0.3955  0.0379
  684MPD2     H10172   1.304   3.092  16.532  1.6834  0.6591 -0.2011
  684MPD2    H110173   1.402   3.351  16.856 -1.8489  2.9195 -2.9409
  684MPD2    H210174   1.489   2.947  16.887 -3.4086 -0.4075  1.0114
  684MPD2    H310175   1.474   3.163  16.979  2.7740  1.0658 -0.9704
  684MPD2     N10176   1.323   3.362  16.607 -0.3147 -0.2033  0.0581
  684MPD2    H510177   1.341   3.452  16.650 -0.3377 -0.5257  0.7398
  684MPD2    N110178   1.395   2.880  16.635  0.5536  0.6876  0.4421
  684MPD2    H710179   1.359   2.884  16.540  0.6285 -0.7815  0.3555
  685TMC3    C110180   1.517   2.696  16.548  0.0744  0.0500  0.2248
  685TMC3    C210181   1.443   2.720  16.429  0.5430  0.4746  0.3639
  685TMC3    C310182   1.513   2.736  16.314  0.1283  0.3036  0.7511
  685TMC3    C410183   1.654   2.685  16.543  0.1883  0.5196 -0.9368
  685TMC3    C510184   1.713   2.701  16.420 -0.3585 -0.2100 -0.3156
  685TMC3    C610185   1.647   2.725  16.308  0.2612  0.2438  0.3334
  685TMC3     C10186   1.472   2.775  16.668  0.7868  0.2818  0.2431
  685TMC3     O10187   1.510   2.726  16.773  0.2499 -1.3723 -0.3085
  685TMC3     H10188   1.335   2.721  16.430  0.5594  2.3442  1.1336
  685TMC3    H110189   1.705   2.675  16.639  0.9581  3.5376 -1.0253
  685TMC3    H210190   1.690   2.716  16.209 -1.6653  2.4979 -0.6940
  685TMC3    C710191   1.851   2.670  16.417  0.4781  0.2071  0.4996
  685TMC3    C810192   1.439   2.753  16.187  0.0630 -0.0079  0.0134
  685TMC3    O110193   1.885   2.578  16.494  0.2204  0.2602 -0.4433
  685TMC3    O210194   1.499   2.803  16.096  0.0510 -0.2297  0.1635
  686MPD2     C10195   2.573   2.867  15.176  0.2262 -0.4128 -0.2651
  686MPD2    C110196   2.633   2.808  15.283 -0.0864 -0.4148  0.3047
  686MPD2    C210197   2.737   2.729  15.261 -0.4258  0.2293  0.5889
  686MPD2    C310198   2.782   2.693  15.131  0.0456  0.0685  0.0165
  686MPD2    C410199   2.726   2.760  15.023  0.1064 -0.4449  1.0375
  686MPD2    C510200   2.627   2.852  15.050 -0.0541  0.7960  0.4126
  686MPD2     H10201   2.784   2.678  15.344 -0.4183 -0.3570  0.2311
  686MPD2    H110202   2.754   2.731  14.923 -1.5930 -0.6659  0.6144
  686MPD2    H210203   2.483   2.928  15.177 -1.2261 -2.5650  2.5388
  686MPD2    H310204   2.576   2.901  14.968  2.0525  2.7103  0.2428
  686MPD2     N10205   2.883   2.604  15.104  0.2957 -0.5972  0.0369
  686MPD2    H510206   2.918   2.593  15.009 -2.9964 -2.8342 -0.9158
  686MPD2    N110207   2.578   2.829  15.407  0.3248  0.6530 -0.0641
  686MPD2    H710208   2.488   2.874  15.421  0.5363  0.6539  1.2973
  687TMC3    C110209   2.865   2.454  15.306 -0.2702 -0.2494 -0.1536
  687TMC3    C210210   2.732   2.433  15.295  0.1529 -0.3042  0.1491
  687TMC3    C310211   2.670   2.422  15.422 -0.3565 -0.2947  0.5329
  687TMC3    C410212   2.938   2.463  15.424  0.4537 -0.4357  0.0037
  687TMC3    C510213   2.861   2.453  15.540 -0.0172 -0.0240 -0.8356
  687TMC3    C610214   2.728   2.447  15.541 -0.3816  0.2478  0.1251
  687TMC3     C10215   2.940   2.511  15.196 -0.5281 -0.6524  0.6342
  687TMC3     O10216   3.052   2.465  15.181  0.0941 -0.0713 -0.3076
  687TMC3     H10217   2.680   2.420  15.201 -3.2508  1.3717  1.8233
  687TMC3    H110218   3.040   2.501  15.427 -0.1049  1.0885 -0.3856
  687TMC3    H210219   2.678   2.426  15.635 -2.1134  0.3179 -0.7754
  687TMC3    C710220   2.922   2.388  15.653  0.6737 -0.3096  0.6293
  687TMC3    C810221   2.531   2.389  15.411  0.1581  0.2248 -0.1656
  687TMC3    O110222   2.863   2.391  15.761  0.5028 -0.1883  0.2774
  687TMC3    O210223   2.453   2.461  15.475 -0.2729 -0.0785  0.2490
  688MPD2     C10224   1.855   1.630  17.090 -0.5676  0.6764 -0.0449
  688MPD2    C110225   1.871   1.510  17.160  0.1670 -0.0151 -0.2718
  688MPD2    C210226   1.984   1.432  17.127 -0.6002  0.0122 -0.2207
  688MPD2    C310227   2.082   1.481  17.045  0.8198 -0.9950 -0.2215
  688MPD2    C410228   2.071   1.606  16.985  0.8602 -0.6613  0.0528
  688MPD2    C510229   1.956   1.675  17.010  0.5920  0.3752  0.8596
  688MPD2     H10230   1.998   1.331  17.164 -0.8281 -0.5229 -1.6175
  688MPD2    H110231   2.147   1.651  16.922  1.6368 -1.3758  0.4723
  688MPD2    H210232   1.756   1.672  17.086 -0.7301  0.5792  2.9077
  688MPD2    H310233   1.947   1.774  16.966 -0.5983 -0.3882 -0.6080
  688MPD2     N10234   2.215   1.421  17.025 -0.3379 -0.4455 -0.2998
  688MPD2    H510235   2.271   1.484  16.969  0.5345  1.4504  2.6906
  688MPD2    N110236   1.782   1.465  17.261 -0.2010  0.1107 -0.1547
  688MPD2    H710237   1.802   1.379  17.312  1.7761  0.2187 -0.7362
  689TMC3    C110238   1.630   1.488  17.434 -0.1870 -0.8017  0.3451
  689TMC3    C210239   1.605   1.570  17.544 -0.5086 -0.2057  0.2001
  689TMC3    C310240   1.551   1.508  17.655 -0.0896 -0.4060  0.1605
  689TMC3    C410241   1.613   1.348  17.434 -0.0327  0.5400  0.2370
  689TMC3    C510242   1.559   1.296  17.551 -0.0530  0.0632 -0.6261
  689TMC3    C610243   1.534   1.372  17.666 -0.3482  0.2345  0.1904
  689TMC3     C10244   1.696   1.545  17.327  0.3231  0.4260 -0.2948
  689TMC3     O10245   1.671   1.665  17.300 -0.3599  0.4202 -0.1442
  689TMC3     H10246   1.633   1.674  17.527 -0.6426 -0.4609 -1.5600
  689TMC3    H110247   1.631   1.285  17.348  0.2344 -1.3382  1.6883
  689TMC3    H210248   1.487   1.319  17.748  0.6070 -0.1627  0.4845
  689TMC3    C710249   1.553   1.153  17.575 -0.0758 -0.1645 -0.0996
  689TMC3    C810250   1.547   1.597   0.011  0.3279  0.4509  0.3875
  689TMC3    O110251   1.586   1.111  17.685 -1.0720  0.0248 -0.1918
  689TMC3    O210252   1.582   1.709  17.748 -0.4027 -0.1621  0.2013
  690MPD2     C10253   4.637   3.357  15.919  0.8597 -0.1135  0.2600
  690MPD2    C110254   4.514   3.401  15.874  0.7661 -0.0271 -0.4006
  690MPD2    C210255   4.510   3.483  15.767 -0.3712  0.0153 -0.8026
  690MPD2    C310256   4.628   3.518  15.701 -0.4090  0.0180  0.2345
  690MPD2    C410257   0.012   3.490  15.759 -0.3612  0.2031 -0.2185
  690MPD2    C510258   0.012   3.408  15.868  0.2895  0.3209 -1.2449
  690MPD2     H10259   4.415   3.507  15.719 -0.6981 -0.3996 -0.3613
  690MPD2    H110260   0.105   3.525  15.717  0.0031 -0.1923  0.2569
  690MPD2    H210261   4.646   3.285  15.999 -0.4182 -1.0978 -0.4697
  690MPD2    H310262   0.108   3.370  15.902 -1.3904 -0.1405  2.9075
  690MPD2     N10263   4.621   3.588  15.579  0.2108  0.2818  0.5183
  690MPD2    H510264   4.530   3.623  15.551  0.4511 -0.1323 -0.7442
  690MPD2    N110265   4.385   3.357  15.922 -0.3880 -0.0409 -0.4165
  690MPD2    H710266   4.304   3.370  15.861  0.3482  0.9539 -1.1763
  691TMC3    C110267   4.232   3.244  16.066 -0.0543 -0.6852  0.5069
  691TMC3    C210268   4.142   3.350  16.054  0.3782 -0.0470 -0.2989
  691TMC3    C310269   4.035   3.341  16.133  0.4357 -0.4521 -0.7194
  691TMC3    C410270   4.221   3.143  16.162 -0.0311 -0.1483  0.1299
  691TMC3    C510271   4.098   3.135  16.224  0.9075 -0.3037 -0.7328
  691TMC3    C610272   4.003   3.232  16.216  0.2827 -0.0037  0.1340
  691TMC3     C10273   4.369   3.271  16.033 -0.1995  0.2231 -0.4347
  691TMC3     O10274   4.455   3.219  16.101 -0.4476 -0.0264 -0.9519
  691TMC3     H10275   4.165   3.440  15.997 -0.1751  0.8307  0.8589
  691TMC3    H110276   4.284   3.056  16.170  0.0991 -0.0376  0.2946
  691TMC3    H210277   3.912   3.226  16.275 -0.2284  2.1069 -0.4550
  691TMC3    C710278   4.059   3.023  16.299  0.0964 -0.5101  0.1061
  691TMC3    C810279   3.926   3.412  16.084 -0.6066  0.1550  0.4419
  691TMC3    O110280   4.138   2.976  16.381  0.5725 -0.0331  0.1404
  691TMC3    O210281   3.927   3.425  15.963  0.6585 -0.2334  0.1034
  692TMC3    C110282   0.615   4.272  15.820  0.7785  0.7788  0.0433
  692TMC3    C210283   0.735   4.333  15.812 -0.0280  0.3982  0.3922
  692TMC3    C310284   0.855   4.262  15.808  0.2804  0.7575 -0.2913
  692TMC3    C410285   0.602   4.134  15.822  0.1641  0.3923  0.3001
  692TMC3    C510286   0.721   4.066  15.818 -0.1037  0.1556  0.3722
  692TMC3    C610287   0.845   4.122  15.817  0.3023  0.5382 -0.2582
  692TMC3     C10288   0.493   4.350  15.850 -0.1613  0.3761  0.0827
  692TMC3     O10289   0.403   4.288  15.892 -0.1110  0.2947  0.3031
  692TMC3     H10290   0.731   4.441  15.827 -0.5109  0.5594 -0.9308
  692TMC3    H110291   0.511   4.085  15.852 -0.5335  3.2096  2.8075
  692TMC3    H210292   0.932   4.067  15.783  0.6133  1.8458 -1.6007
  692TMC3    C710293   0.707   3.918  15.812  0.0530 -0.4138 -0.2329
  692TMC3    C810294   0.973   4.301  15.890  0.1497 -0.9602 -0.8078
  692TMC3    O110295   0.600   3.867  15.782  0.1087 -0.1038  0.4368
  692TMC3    O210296   1.056   4.213  15.916 -0.2999  0.1790 -0.5544
  693MPD2     C10297   0.174   2.170  10.926 -0.7143  0.6408  0.6386
  693MPD2    C110298   0.208   2.107  11.040  0.3016 -0.5339  0.7534
  693MPD2    C210299   0.336   2.055  11.053 -0.1082  0.0057 -1.0289
  693MPD2    C310300   0.424   2.068  10.947  0.1281 -0.3901  0.2906
  693MPD2    C410301   0.378   2.118  10.825  0.1135  0.4160 -0.1477
  693MPD2    C510302   0.260   2.179  10.823 -0.2982 -0.3547 -0.3943
  693MPD2     H10303   0.376   2.005  11.140 -0.4284  0.3595 -0.6792
  693MPD2    H110304   0.438   2.132  10.735  1.1667 -0.6017  0.3905
  693MPD2    H210305   0.079   2.219  10.906 -0.6154 -0.0862 -1.6098
  693MPD2    H310306   0.217   2.238  10.743  0.9647 -1.0593 -1.5805
  693MPD2     N10307   0.558   2.027  10.956  0.4130 -0.1775 -0.3013
  693MPD2    H510308   0.618   2.043  10.876 -0.7215  2.5023 -0.6161
  693MPD2    N110309   0.111   2.096  11.137  0.4553  1.0064 -0.0049
  693MPD2    H710310   0.015   2.117  11.111 -0.0909 -1.3293  0.0931
  694TMC3    C110311   4.729   2.034  11.323  0.8563 -0.7314 -0.4699
  694TMC3    C210312   4.614   2.053  11.254 -0.1769 -0.6963 -0.0245
  694TMC3    C310313   4.498   1.996  11.303 -0.5183  0.2099  0.4297
  694TMC3    C410314   4.729   1.984  11.452 -0.2655  0.6923 -0.3239
  694TMC3    C510315   4.617   1.926  11.497  0.1740  0.1632 -0.6085
  694TMC3    C610316   4.505   1.930  11.421  0.0247 -0.5384 -0.0370
  694TMC3     C10317   0.124   2.036  11.257 -0.1650  0.2121 -0.0657
  694TMC3     O10318   0.219   1.987  11.322  0.3348 -0.2084 -0.3601
  694TMC3     H10319   4.619   2.090  11.152  0.6960 -0.0830  0.2457
  694TMC3    H110320   0.078   1.964  11.510 -1.3063 -0.6860  0.7987
  694TMC3    H210321   4.417   1.879  11.459 -1.3259  1.7413 -0.1733
  694TMC3    C710322   4.635   1.804  11.574  0.1468 -0.1281  0.0344
  694TMC3    C810323   4.377   1.972  11.219  0.2905 -0.6248  0.5259
  694TMC3    O110324   0.003   1.766  11.603  0.1441 -0.3639  0.0047
  694TMC3    O210325   4.303   1.878  11.248 -0.1444  0.4391  0.6050
  695MPD2     C10326   1.362   4.162  13.750  0.1572 -1.3759  0.1356
  695MPD2    C110327   1.290   4.137  13.867  0.1363 -0.3355  0.2128
  695MPD2    C210328   1.171   4.213  13.878 -0.1857 -0.2484  0.5035
  695MPD2    C310329   1.126   4.295  13.779 -0.2013 -0.2603  0.4434
  695MPD2    C410330   1.206   4.314  13.671 -0.0416  0.0663  0.6601
  695MPD2    C510331   1.323   4.247  13.650 -0.0953  0.0780 -0.4291
  695MPD2     H10332   1.106   4.201  13.964 -1.5936 -0.7079 -0.6147
  695MPD2    H110333   1.186   4.378  13.585 -1.4325 -1.4529 -0.1426
  695MPD2    H210334   1.448   4.102  13.723  1.5088  0.2318  0.8799
  695MPD2    H310335   1.382   4.252  13.559  0.3000 -1.9195 -0.2765
  695MPD2     N10336   1.015   4.370  13.805 -0.4189  0.0892 -0.1699
  695MPD2    H510337   0.962   4.348  13.889 -1.0454  1.0775 -0.3165
  695MPD2    N110338   1.326   4.041  13.975  0.3267  0.2801  0.5419
  695MPD2    H710339   1.259   4.033  14.051  0.6379 -1.8761  0.5677
  696TMC3    C110340   0.846   4.509  13.787  0.1220  1.4262 -0.1292
  696TMC3    C210341   0.772   4.448  13.882 -0.1495 -0.6892 -0.2027
  696TMC3    C310342   0.679   4.524  13.944 -0.4645 -1.1709  0.1323
  696TMC3    C410343   0.833   4.642  13.753  0.4559 -0.1462 -0.7657
  696TMC3    C510344   0.730   4.706  13.812  0.8793  0.2789 -0.1292
  696TMC3    C610345   0.637   4.649  13.897 -0.2191 -0.0780 -0.3827
  696TMC3     C10346   0.957   4.454  13.719  0.2074  0.0842 -0.4390
  696TMC3     O10347   1.006   4.511  13.625 -0.0428 -0.1799 -0.0517
  696TMC3     H10348   0.789   4.347  13.918  1.3521  0.9388  3.6366
  696TMC3    H110349   0.910   4.696  13.699  0.8210 -0.4797 -0.5879
  696TMC3    H210350   0.567   4.708  13.954 -0.9088  0.2348 -1.5482
  696TMC3    C710351   0.796   0.074  13.884 -0.7881  0.9451  0.0639
  696TMC3    C810352   0.725   4.535  14.082 -1.1324  0.1871  0.5677
  696TMC3    O110353   0.908   0.055  13.921 -0.5703 -0.0406 -0.0628
  696TMC3    O210354   0.833   4.483  14.106  0.0824 -0.2266 -0.3895
  697MPD2     C10355   0.426   1.479  15.669  0.8990  0.3649  0.5619
  697MPD2    C110356   0.495   1.408  15.562 -0.2012  0.0258  0.2550
  697MPD2    C210357   0.592   1.477  15.488  0.6473 -0.4174 -0.8283
  697MPD2    C310358   0.620   1.609  15.515 -0.3037 -0.2189 -0.1202
  697MPD2    C410359   0.556   1.672  15.618  0.8559 -0.3182  0.0222
  697MPD2    C510360   0.457   1.604  15.688  0.0949 -0.5773 -0.4525
  697MPD2     H10361   0.635   1.424  15.404  1.7100  0.6707 -0.9711
  697MPD2    H110362   0.573   1.778  15.634 -2.3723 -0.1094  2.0335
  697MPD2    H210363   0.356   1.421  15.727  1.9353 -0.0939  1.3546
  697MPD2    H310364   0.413   1.655  15.773  1.9414  2.1813 -1.1714
  697MPD2     N10365   0.721   1.672  15.440 -0.4110  0.2617 -0.0204
  697MPD2    H510366   0.756   1.624  15.358 -0.5577  0.3564 -0.1376
  697MPD2    N110367   0.476   1.271  15.524  0.1036  0.3119 -0.2134
  697MPD2    H710368   0.526   1.239  15.441 -1.5455 -2.0377 -0.2853
  698TMC3    C110369   0.847   1.854  15.349  0.1041  0.3098 -0.5355
  698TMC3    C210370   0.930   1.960  15.370 -0.0303  0.2266 -0.2016
  698TMC3    C310371   0.971   2.047  15.273  0.1258  0.0943 -0.2812
  698TMC3    C410372   0.795   1.846  15.229  0.2993  0.0588 -0.1519
  698TMC3    C510373   0.840   1.928  15.125 -0.3551 -0.5837  0.5728
  698TMC3    C610374   0.931   2.026  15.147 -0.6460  0.6634  0.1719
  698TMC3     C10375   0.768   1.803  15.462  0.2172 -0.2133 -0.2975
  698TMC3     O10376   0.773   1.865  15.571  0.6828 -0.4379 -0.6852
  698TMC3     H10377   0.965   1.985  15.470  1.6772 -1.8532 -0.2749
  698TMC3    H110378   0.729   1.764  15.203  0.3907  0.2667 -1.0736
  698TMC3    H210379   0.954   2.098  15.069  4.0547  1.5297  2.3666
  698TMC3    C710380   0.820   1.881  14.987  0.6801 -0.3604 -0.4588
  698TMC3    C810381   1.068   2.149  15.304 -0.5616 -0.7046  0.3088
  698TMC3    O110382   0.719   1.816  14.970 -0.4739 -0.0021 -0.5033
  698TMC3    O210383   1.104   2.156  15.422  0.3754  0.2000 -0.6323
  699TMC3    C110384   0.889   4.476  13.085  0.2078  0.3923  0.5370
  699TMC3    C210385   0.924   4.353  13.130 -0.0272 -0.6813  0.3821
  699TMC3    C310386   0.904   4.327  13.266 -0.3935  0.2643 -0.2410
  699TMC3    C410387   0.816   4.566  13.170  0.6810 -0.6562  0.6168
  699TMC3    C510388   0.778   4.521  13.298 -0.8468  0.3881  0.0965
  699TMC3    C610389   0.839   4.416  13.348 -0.3933  0.4746  0.2650
  699TMC3     C10390   0.882   4.503  12.939  0.4520  0.0063 -0.2572
  699TMC3     O10391   0.816   4.596  12.899  0.0078 -0.3211 -0.1971
  699TMC3     H10392   0.951   4.279  13.055  1.1605  2.1420 -1.9892
  699TMC3    H110393   0.753   4.638  13.119  1.3235  0.2612  1.1207
  699TMC3    H210394   0.823   4.374  13.446  3.1591 -0.7723  0.3152
  699TMC3    C710395   0.655   4.558  13.371 -1.0119 -0.0091 -0.0798
  699TMC3    C810396   0.880   4.196  13.308  1.1388  0.1169 -0.2222
  699TMC3    O110397   0.583   4.470  13.413 -0.0061  0.3294  0.0367
  699TMC3    O210398   0.775   4.172  13.364 -0.4074  0.0479 -0.4700
  700TMC3    C110399   4.423   1.628  17.563  0.2877 -0.5630  0.3615
  700TMC3    C210400   4.505   1.515  17.551 -0.1801  0.5978 -0.8074
  700TMC3    C310401   4.630   1.501  17.604 -0.1604  0.2346 -0.0590
  700TMC3    C410402   4.488   1.733  17.629  0.0737 -0.2823 -0.4314
  700TMC3    C510403   4.615   1.716  17.677 -0.2674 -0.3977  0.7533
  700TMC3    C610404   4.700   1.607  17.658  0.0991 -0.5286 -0.6262
  700TMC3     C10405   4.352   1.656  17.440  0.3360  0.2289  0.0361
  700TMC3     O10406   4.271   1.573  17.401 -0.2562 -0.2103  0.0182
  700TMC3     H10407   4.459   1.446  17.482  0.0493  0.3998 -0.7619
  700TMC3    H110408   4.433   1.825  17.644  0.9926 -0.2425  2.5400
  700TMC3    H210409   0.056   1.612  17.707 -1.0705 -3.6539  2.0327
  700TMC3    C710410   4.675   1.827  17.749  0.7377 -0.0863 -0.9509
  700TMC3    C810411   4.715   1.387  17.549 -0.1395  0.0735 -0.8086
  700TMC3    O110412   0.056   1.845  17.744 -0.1766 -0.6641 -0.2880
  700TMC3    O210413   4.638   1.296  17.509 -0.3488 -0.1923 -0.0584
  701TMC3    C110414   4.511   0.539  15.410  0.1583  0.1153  0.6278
  701TMC3    C210415   4.610   0.460  15.343  0.2085  0.5225 -0.3567
  701TMC3    C310416   4.708   0.526  15.275 -0.0981  0.1171 -0.5801
  701TMC3    C410417   4.524   0.675  15.426  0.7849 -0.2245 -0.3845
  701TMC3    C510418   4.625   0.733  15.351 -0.3568  0.0039 -0.7698
  701TMC3    C610419   4.715   0.659  15.267  0.4636 -0.2261 -0.3431
  701TMC3     C10420   4.384   0.488  15.452 -0.4891 -0.3397 -0.1521
  701TMC3     O10421   4.306   0.570  15.493 -0.2741  0.0877 -0.2978
  701TMC3     H10422   4.617   0.352  15.354  2.5383  0.7292  0.0813
  701TMC3    H110423   4.449   0.736  15.474  0.4310 -0.9227 -0.0554
  701TMC3    H210424   0.056   0.710  15.218 -0.7626  1.1349 -0.9516
  701TMC3    C710425   4.647   0.874  15.355  0.2031  0.4247 -0.5802
  701TMC3    C810426   0.036   0.448  15.175 -0.2383  0.6034  0.0116
  701TMC3    O110427   0.009   0.912  15.301  0.0919  0.4003  0.0427
  701TMC3    O210428   0.142   0.498  15.143 -0.0201 -0.4186  0.3990
  702MPD2     C10429   3.678   2.380  10.717  0.3988 -0.1932 -0.0238
  702MPD2    C110430   3.708   2.477  10.811  0.4528  1.1336  0.6793
  702MPD2    C210431   3.772   2.592  10.766  0.9286  0.2042  0.1498
  702MPD2    C310432   3.816   2.608  10.635  0.6533  0.2460 -0.0665
  702MPD2    C410433   3.777   2.516  10.538 -1.0908 -0.4451 -0.0265
  702MPD2    C510434   3.712   2.405  10.585 -0.1564 -0.4086 -0.3772
  702MPD2     H10435   3.779   2.667  10.844  0.6956 -0.1390  0.5058
  702MPD2    H110436   3.802   2.525  10.433  0.0993  0.1322  0.3130
  702MPD2    H210437   3.617   2.295  10.746  1.4110 -0.7541  0.4271
  702MPD2    H310438   3.673   2.337  10.510  1.3932  0.5746 -2.0725
  702MPD2     N10439   3.894   2.718  10.595 -0.3812  0.7958 -0.7055
  702MPD2    H510440   3.895   2.741  10.496 -0.0650 -1.6876 -1.2819
  702MPD2    N110441   3.662   2.479  10.948 -0.9201 -0.1068 -0.4153
  702MPD2    H710442   3.680   2.563  11.001 -0.6501 -0.7330  0.4908
  703TMC3    C110443   4.010   2.924  10.629  0.6655  0.8848 -0.0813
  703TMC3    C210444   4.003   3.025  10.713 -0.6208 -0.1387 -0.0027
  703TMC3    C310445   4.037   3.146  10.668  0.6181 -0.3370  0.0118
  703TMC3    C410446   4.038   2.929  10.494  0.0191  0.1799  0.5162
  703TMC3    C510447   4.093   3.046  10.455  0.3736  0.7126 -0.2061
  703TMC3    C610448   4.087   3.158  10.536 -1.0123 -0.0296 -0.1322
  703TMC3     C10449   3.958   2.796  10.686  0.0627  0.4383 -0.1210
  703TMC3     O10450   3.963   2.788  10.805 -0.5631  0.2744  0.4754
  703TMC3     H10451   3.968   3.008  10.814 -2.2422  1.1038 -0.3512
  703TMC3    H110452   4.046   2.842  10.431 -2.1271  1.0011 -0.8761
  703TMC3    H210453   4.146   3.241  10.500  1.5575 -0.8711  2.1015
  703TMC3    C710454   4.142   3.056  10.321  0.5321  1.1980  0.0011
  703TMC3    C810455   4.051   3.259  10.757  0.5324  0.4172  0.2310
  703TMC3    O110456   4.202   2.960  10.274 -0.3212  0.1040 -0.2608
  703TMC3    O210457   4.148   3.329  10.721 -0.6223 -0.0678 -0.2772
  704TMC3    C110458   1.617   1.192  11.916  0.0169 -1.4162  0.4734
  704TMC3    C210459   1.731   1.171  11.836  0.2130 -0.2238 -0.1936
  704TMC3    C310460   1.819   1.077  11.890  0.4404  0.3934  0.2320
  704TMC3    C410461   1.602   1.147  12.046 -0.4525  0.7051 -0.1463
  704TMC3    C510462   1.696   1.059  12.090 -0.3679  0.5775  1.0776
  704TMC3    C610463   1.815   1.035  12.019 -0.7488  0.1761 -0.6690
  704TMC3     C10464   1.532   1.305  11.868 -0.6261 -0.7028  0.2708
  704TMC3     O10465   1.415   1.294  11.914 -0.3231  0.0025 -0.2216
  704TMC3     H10466   1.724   1.198  11.732 -2.5915  0.9175  0.2864
  704TMC3    H110467   1.506   1.145  12.096  0.9293 -0.9959  2.4360
  704TMC3    H210468   1.890   0.961  12.047 -0.2722  2.0503  2.9765
  704TMC3    C710469   1.651   0.935  12.146 -0.0875  0.3123  0.5848
  704TMC3    C810470   1.926   1.031  11.809 -0.0806 -0.3132  0.6844
  704TMC3    O110471   1.696   0.836  12.089  0.0858  0.6379 -0.5243
  704TMC3    O210472   1.998   0.943  11.855 -0.2744 -0.5900 -0.1968
  705MPD2     C10473   1.073   3.933  16.367 -0.3206  0.1736  0.3321
  705MPD2    C110474   1.105   4.061  16.400 -0.4124  0.1984 -0.9395
  705MPD2    C210475   1.010   4.138  16.468  0.4066 -0.6290 -0.4188
  705MPD2    C310476   0.884   4.080  16.493  0.0389 -0.0372 -0.0029
  705MPD2    C410477   0.852   3.950  16.456 -0.6591  0.1523 -0.2649
  705MPD2    C510478   0.956   3.874  16.397  0.3999 -0.4892 -0.3214
  705MPD2     H10479   1.035   4.235  16.508 -0.6959 -0.7753  0.6207
  705MPD2    H110480   0.754   3.907  16.467 -0.9596  1.0178  0.4141
  705MPD2    H210481   1.147   3.868  16.321 -0.6419  0.2321 -0.2684
  705MPD2    H310482   0.940   3.774  16.358 -0.5167  0.1672 -1.6277
  705MPD2     N10483   0.784   4.161  16.555 -0.0359  0.6536  0.4851
  705MPD2    H510484   0.702   4.104  16.572  1.0910 -1.1240  0.0184
  705MPD2    N110485   1.230   4.114  16.375  0.1940  0.5021 -0.3159
  705MPD2    H710486   1.257   4.198  16.426 -1.0007  0.7528 -0.1027
  706TMC3    C110487   1.653   4.115  16.161 -0.2628 -1.0007  0.0895
  706TMC3    C210488   1.663   4.249  16.165 -0.2757 -0.2389  0.7756
  706TMC3    C310489   1.571   4.323  16.237  0.4772  0.7966 -0.1500
  706TMC3    C410490   1.555   4.052  16.235 -0.6723 -0.9149 -0.2500
  706TMC3    C510491   1.465   4.122  16.308 -0.6618  0.0522  0.3962
  706TMC3    C610492   1.476   4.264  16.312 -1.0780 -0.0321 -0.0364
  706TMC3     C10493   1.758   4.036  16.095  0.3466 -0.2430  0.0254
  706TMC3     O10494   1.860   4.099  16.073  0.4650  0.5260  0.3567
  706TMC3     H10495   1.758   4.297  16.143 -0.0101 -0.4205  1.5378
  706TMC3    H110496   1.556   3.944  16.246 -0.2283 -1.0559 -1.6790
  706TMC3    H210497   1.425   4.328  16.382  0.5349  1.5801 -0.3438
  706TMC3    C710498   1.337   4.052  16.309  0.0054  0.0748  0.2988
  706TMC3    C810499   1.534   4.449  16.179  0.1727  0.6084  0.0542
  706TMC3    O110500   1.339   3.950  16.238 -0.4454  0.2785  0.2638
  706TMC3    O210501   1.532   4.453  16.058  0.0111  0.2395 -0.1332
  707TMC3    C110502   2.727   3.354   0.300 -0.3023 -0.7604 -1.2369
  707TMC3    C210503   2.742   3.220   0.322 -0.2343  0.2081  0.3744
  707TMC3    C310504   2.768   3.133   0.212  0.3831 -0.7533 -0.1916
  707TMC3    C410505   2.722   3.402   0.169 -0.5099  0.0521  0.3996
  707TMC3    C510506   2.738   3.315   0.064 -0.0186  0.1825  0.2063
  707TMC3    C610507   2.769   3.185   0.087 -0.1704  0.2541 -0.0904
  707TMC3     C10508   2.736   3.450   0.404  0.0967  0.4453  0.9795
  707TMC3     O10509   2.725   3.571   0.368  0.1792 -1.1979 -0.3518
  707TMC3     H10510   2.716   3.171   0.415 -0.6573  1.2901  0.8142
  707TMC3    H110511   2.703   3.507   0.148  1.3174  0.3801  0.3740
  707TMC3    H210512   2.787   3.122   0.000  0.5762 -1.8815  1.6177
  707TMC3    C710513   2.752   3.385  17.694  0.3874  0.1109 -0.4391
  707TMC3    C810514   2.793   2.991   0.239 -0.5644  0.3027 -0.1603
  707TMC3    O110515   2.762   3.504  17.698 -0.2947 -0.0429  1.1667
  707TMC3    O210516   2.797   2.911   0.147 -0.0684 -0.8028 -0.0895
  708MPD2     C10517   0.109   2.302  13.914  0.3983  0.3548  0.0100
  708MPD2    C110518   0.038   2.383  14.003  0.5762 -0.1771 -0.2551
  708MPD2    C210519   0.033   2.339  14.134  0.1574 -0.4167 -0.4617
  708MPD2    C310520   0.086   2.228  14.176  0.7860 -0.1548  0.3024
  708MPD2    C410521   0.168   2.156  14.094  0.4289 -0.6819 -0.1527
  708MPD2    C510522   0.176   2.192  13.961 -0.2362  0.3240 -0.0419
  708MPD2     H10523   4.719   2.400  14.206  0.9657 -0.1028 -0.1173
  708MPD2    H110524   0.214   2.064  14.128  1.3101 -0.3777 -0.5277
  708MPD2    H210525   0.114   2.328  13.809  0.5357  0.1704 -0.0316
  708MPD2    H310526   0.233   2.129  13.894  1.8565  0.5335  1.5138
  708MPD2     N10527   0.064   2.186  14.306  0.2210 -0.2338  0.5773
  708MPD2    H510528   4.728   2.236  14.351 -0.7632  0.1229 -1.4963
  708MPD2    N110529   4.705   2.492  13.967 -0.5792  0.6475 -0.0952
  708MPD2    H710530   4.646   2.535  14.037 -0.0441 -0.5836  1.1194
  709TMC3    C110531   4.613   2.680  13.861  0.1660  0.1676  0.0510
  709TMC3    C210532   4.500   2.662  13.788  0.7382 -0.9515  0.7762
  709TMC3    C310533   4.383   2.712  13.829 -0.9153 -0.5664 -0.0671
  709TMC3    C410534   4.592   2.713  13.996  0.4706  0.7572  0.4235
  709TMC3    C510535   4.473   2.740  14.047  0.3192 -0.1295  0.0561
  709TMC3    C610536   4.363   2.740  13.963 -0.0940 -0.0165 -0.5657
  709TMC3     C10537   4.697   2.556  13.847  0.0463 -0.1483 -0.1153
  709TMC3     O10538   0.004   2.528  13.736 -0.2032 -0.3394  0.0955
  709TMC3     H10539   4.516   2.628  13.686 -1.0093 -0.9108  0.4875
  709TMC3    H110540   4.674   2.722  14.067  0.1200 -1.4300  1.0966
  709TMC3    H210541   4.275   2.795  13.994  0.3158  0.3104  0.0178
  709TMC3    C710542   4.461   2.664  14.163 -0.4546 -0.8638 -0.0485
  709TMC3    C810543   4.271   2.718  13.745  0.0399 -0.3089 -0.1228
  709TMC3    O110544   4.547   2.580  14.177  0.3553 -0.3661  0.2600
  709TMC3    O210545   4.159   2.708  13.794 -0.0771 -0.6439 -0.2568
  710TMC3    C110546   1.063   3.854   0.401  0.5077 -0.7430 -1.1841
  710TMC3    C210547   1.090   3.845   0.268 -0.3095  0.0447  0.7291
  710TMC3    C310548   1.191   3.768   0.219 -0.0877 -0.2739  0.0980
  710TMC3    C410549   1.141   3.778   0.487  0.0627 -0.0864  0.4650
  710TMC3    C510550   1.240   3.691   0.447  0.2965  0.2726  0.0593
  710TMC3    C610551   1.268   3.684   0.308 -0.5410  0.5502 -0.4032
  710TMC3     C10552   0.947   3.919   0.445  0.1620  0.4399  0.1703
  710TMC3     O10553   0.847   3.926   0.374 -0.4295 -1.0860 -0.6446
  710TMC3     H10554   1.029   3.900   0.197  0.6145 -0.2947 -0.3242
  710TMC3    H110555   1.103   3.772   0.589 -1.5256  0.4094 -0.1019
  710TMC3    H210556   1.340   3.614   0.267  0.6840  1.3021  0.4561
  710TMC3    C710557   1.305   3.606   0.542  0.3761  0.4008 -0.1261
  710TMC3    C810558   1.205   3.759   0.077  0.7340 -0.0601  0.0879
  710TMC3    O110559   1.293   3.640   0.659 -0.1072 -0.2489 -0.7837
  710TMC3    O210560   1.116   3.802   0.010  0.4448  0.5562  0.5043
  711TMC3    C110561   0.347   4.617  14.781  0.7771 -0.1244  0.0623
  711TMC3    C210562   0.272   4.639  14.894  0.2040  0.2440 -0.0464
  711TMC3    C310563   0.337   4.715  14.994 -0.6299  0.3317  0.1793
  711TMC3    C410564   0.466   4.685  14.752 -0.0774  0.1452  0.2374
  711TMC3    C510565   0.506   0.039  14.843 -0.2956 -0.2484 -0.5564
  711TMC3    C610566   0.440   0.063  14.963 -0.6360  0.0610 -0.2101
  711TMC3     C10567   0.280   4.533  14.683  0.1363 -0.4084  0.4930
  711TMC3     O10568   0.159   4.516  14.685 -0.4212  0.5702 -0.5009
  711TMC3     H10569   0.187   4.577  14.918 -0.4270  1.0136 -0.3072
  711TMC3    H110570   0.522   4.666  14.661 -1.8434 -0.6205 -0.7120
  711TMC3    H210571   0.479   0.132  15.038 -0.8723  1.1727 -1.1136
  711TMC3    C710572   0.643   0.059  14.835 -0.7892  0.1706 -0.0246
  711TMC3    C810573   0.352   4.643  15.120 -0.0530  0.3187 -0.3070
  711TMC3    O110574   0.714   4.700  14.809  0.1302 -0.3538  0.1623
  711TMC3    O210575   0.303   4.534  15.133 -0.1063 -0.3502 -0.0783
  712MPD2     C10576   1.937   0.749  13.514 -1.3759  0.8406  0.4845
  712MPD2    C110577   1.878   0.818  13.621 -0.4429 -0.0487 -0.3983
  712MPD2    C210578   1.942   0.926  13.672  0.6931  0.3570 -0.0989
  712MPD2    C310579   2.055   0.980  13.610  0.0548  0.9910 -0.1260
  712MPD2    C410580   2.107   0.918  13.499 -0.1384  0.1411 -0.3398
  712MPD2    C510581   2.050   0.798  13.455  0.1393 -0.5075 -0.0159
  712MPD2     H10582   1.917   0.974  13.766 -1.4224  1.7896 -1.3919
  712MPD2    H110583   2.196   0.959  13.454 -1.0347  0.9885 -1.3284
  712MPD2    H210584   1.892   0.663  13.465 -1.3049  0.8858  0.3418
  712MPD2    H310585   2.083   0.741  13.369 -1.1394  0.6154 -1.2433
  712MPD2     N10586   2.125   1.095  13.657 -0.2241 -0.4268 -0.7562
  712MPD2    H510587   2.211   1.123  13.610  0.9046 -1.6940  0.5524
  712MPD2    N110588   1.754   0.783  13.679  0.2831  0.2947 -0.1705
  712MPD2    H710589   1.721   0.842  13.754 -2.1028 -0.5849 -0.5164
  713TMC3    C110590   2.146   1.310  13.756  0.0253 -0.4605 -0.2500
  713TMC3    C210591   2.281   1.306  13.763  0.3954 -0.4306 -0.4607
  713TMC3    C310592   2.341   1.414  13.816 -0.2012 -0.2601 -0.1612
  713TMC3    C410593   2.073   1.422  13.790  0.5438 -0.0598  0.3057
  713TMC3    C510594   2.141   1.537  13.831 -0.2416 -0.2187  0.3581
  713TMC3    C610595   2.272   1.526  13.857 -0.3682 -0.4004 -0.2691
  713TMC3     C10596   2.066   1.187  13.744 -0.3564  0.5577  0.7163
  713TMC3     O10597   1.954   1.189  13.793  0.1850 -0.3406  0.1139
  713TMC3     H10598   2.344   1.225  13.729  2.0582  0.0349  1.5773
  713TMC3    H110599   1.965   1.421  13.783  0.6268 -0.9912 -0.8641
  713TMC3    H210600   2.334   1.609  13.889 -1.2132 -0.1365  0.6934
  713TMC3    C710601   2.078   1.667  13.852  0.3014 -0.5847 -0.0236
  713TMC3    C810602   2.467   1.457  13.766 -0.2165  0.1688 -0.2607
  713TMC3    O110603   2.146   1.745  13.922 -0.0025  0.2485 -0.0032
  713TMC3    O210604   2.469   1.557  13.698  0.1141 -0.5100 -0.0790
  714MPD2     C10605   4.228   4.600   0.611 -0.3240  0.4308  0.1418
  714MPD2    C110606   4.192   4.493   0.688  0.5775  0.2382 -0.2377
  714MPD2    C210607   4.081   4.487   0.772  0.4852  0.3007 -0.4669
  714MPD2    C310608   3.997   4.595   0.773 -1.0002 -0.3878 -0.6765
  714MPD2    C410609   4.029   4.700   0.690  0.0004 -0.7077 -0.4507
  714MPD2    C510610   4.146   4.707   0.619  0.1134 -0.5944  0.9470
  714MPD2     H10611   4.055   4.397   0.828 -0.4032  0.3101 -0.8697
  714MPD2    H110612   3.961   0.044   0.681  3.5310  2.3017  1.0152
  714MPD2    H210613   4.317   4.613   0.551  0.4886 -2.4337  0.7369
  714MPD2    H310614   4.180   0.056   0.569  1.7240 -1.1562  1.0345
  714MPD2     N10615   3.880   4.583   0.853  0.0465  0.4109  0.7000
  714MPD2    H510616   3.876   4.496   0.906  2.5431  1.0012  1.8543
  714MPD2    N110617   4.282   4.388   0.683  0.5149 -0.5701  0.1808
  714MPD2    H710618   4.362   4.399   0.621  0.5264  0.1934  0.3312
  715TMC3    C110619   4.425   4.230   0.790 -0.2544  0.8591  0.2668
  715TMC3    C210620   4.440   4.102   0.829  0.2352 -0.2426 -0.3090
  715TMC3    C310621   4.553   4.063   0.894  0.5679  0.4162  0.6071
  715TMC3    C410622   4.524   4.317   0.805 -0.1933  0.0226 -0.3247
  715TMC3    C510623   4.647   4.281   0.858 -0.6066  0.1319 -0.0074
  715TMC3    C610624   4.658   4.150   0.907 -0.2081 -0.3908  0.3469
  715TMC3     C10625   4.293   4.280   0.767  0.5025 -0.0607 -0.0518
  715TMC3     O10626   4.217   4.236   0.853 -0.2017 -0.0622 -0.3409
  715TMC3     H10627   4.354   4.036   0.826  0.4601 -0.5285 -0.5388
  715TMC3    H110628   4.521   4.418   0.766  1.2290  0.6035  1.1036
  715TMC3    H210629   0.004   4.130   0.970  0.4039  0.4393 -0.2338
  715TMC3    C710630   4.728   4.379   0.911  0.0513  0.4609  0.5931
  715TMC3    C810631   4.594   3.923   0.886  0.2601 -0.0002 -0.1110
  715TMC3    O110632   4.668   4.483   0.933 -0.3937  0.0598  0.0758
  715TMC3    O210633   4.505   3.842   0.897 -0.5494  0.2811  0.1083
  716MPD2     C10634   3.712   2.669   9.989  0.4875  0.2286  0.1267
  716MPD2    C110635   3.654   2.684   9.864  0.4750 -0.4355  0.0774
  716MPD2    C210636   3.681   2.584   9.770  0.8403 -0.0984 -0.3313
  716MPD2    C310637   3.783   2.490   9.790  0.6435 -0.1688 -0.4406
  716MPD2    C410638   3.840   2.482   9.913  0.2456  0.0158  0.5008
  716MPD2    C510639   3.799   2.570  10.013 -0.0773 -0.2151  0.5611
  716MPD2     H10640   3.629   2.579   9.675 -1.8769 -2.1955  1.2705
  716MPD2    H110641   3.928   2.421   9.930 -0.8635 -1.6936  0.1106
  716MPD2    H210642   3.688   2.735  10.072  2.2640  1.2429 -0.1554
  716MPD2    H310643   3.841   2.561  10.113  1.3969 -1.5505 -0.1783
  716MPD2     N10644   3.811   2.401   9.684  0.0594 -0.5703  0.1180
  716MPD2    H510645   3.772   2.428   9.594  0.8586  0.7586  0.1718
  716MPD2    N110646   3.568   2.803   9.851  0.5849  0.0898  0.3633
  716MPD2    H710647   3.565   2.874   9.923 -0.0183  0.6072 -0.1691
  717TMC3    C110648   3.860   2.186   9.593  0.7356  0.0083 -0.8255
  717TMC3    C210649   3.748   2.208   9.502 -0.5041  0.0244 -0.3473
  717TMC3    C310650   3.679   2.100   9.459 -0.3199  0.0205  0.1799
  717TMC3    C410651   3.900   2.061   9.621 -0.4817  0.6311 -0.0765
  717TMC3    C510652   3.828   1.957   9.578 -0.1842 -0.1254  0.5274
  717TMC3    C610653   3.723   1.974   9.491 -0.0848 -0.0767  0.2861
  717TMC3     C10654   3.876   2.277   9.706 -0.2445 -1.1180 -0.4698
  717TMC3     O10655   3.933   2.235   9.807 -0.2126  0.1358  0.6285
  717TMC3     H10656   3.710   2.308   9.486 -3.4606 -0.6799  2.2177
  717TMC3    H110657   3.986   2.047   9.686 -2.1837  0.1103  2.0653
  717TMC3    H210658   3.666   1.889   9.455 -0.6958  0.1799  0.6405
  717TMC3    C710659   3.881   1.820   9.574  0.0119 -0.6957  0.6128
  717TMC3    C810660   3.552   2.124   9.403  0.2288  0.4981 -0.8022
  717TMC3    O110661   3.835   1.742   9.488  0.5822 -0.2412 -0.0848
  717TMC3    O210662   3.502   2.232   9.416  0.2532 -0.3900 -0.1321
  718MPD2     C10663   3.581   1.271  13.203  0.4116 -0.2003 -0.5401
  718MPD2    C110664   3.501   1.356  13.127 -0.3765  0.1926  0.2550
  718MPD2    C210665   3.385   1.315  13.075  0.5658  0.1947 -0.6401
  718MPD2    C310666   3.343   1.181  13.091 -0.4953  0.1686  0.6196
  718MPD2    C410667   3.418   1.094  13.164  0.3744 -0.7333 -0.3324
  718MPD2    C510668   3.533   1.143  13.220  0.5384 -0.5022  0.2635
  718MPD2     H10669   3.315   1.387  13.035  1.3248  1.6475  0.6196
  718MPD2    H110670   3.378   0.993  13.160 -0.8825 -0.2147 -1.1346
  718MPD2    H210671   3.675   1.302  13.248  1.5380 -2.1122 -1.5831
  718MPD2    H310672   3.590   1.070  13.275 -0.1670 -1.4703 -0.2837
  718MPD2     N10673   3.220   1.143  13.031 -0.5074  0.1357  0.0288
  718MPD2    H510674   3.194   1.208  12.958  0.7840  0.7752  0.1406
  718MPD2    N110675   3.531   1.495  13.114 -0.5530 -0.4019 -0.0398
  718MPD2    H710676   3.464   1.550  13.062  1.2554  0.4782 -1.4110
  719TMC3    C110677   3.623   1.702  13.115 -0.2594 -0.0154  0.2314
  719TMC3    C210678   3.500   1.732  13.056 -0.4568  0.5049  0.3235
  719TMC3    C310679   3.491   1.789  12.930  0.3946  0.3111 -0.0742
  719TMC3    C410680   3.737   1.734  13.050 -0.3008  0.0380  0.2739
  719TMC3    C510681   3.732   1.800  12.924 -0.7964 -0.0386 -0.6023
  719TMC3    C610682   3.606   1.815  12.860  0.0325 -0.0236 -0.4678
  719TMC3     C10683   3.638   1.567  13.159  0.1826  0.8007 -0.1649
  719TMC3     O10684   3.738   1.527  13.217  0.0084  0.5590  0.3841
  719TMC3     H10685   3.409   1.706  13.108 -1.4634 -0.4713 -1.9436
  719TMC3    H110686   3.832   1.698  13.087  0.8500 -1.2481 -3.9606
  719TMC3    H210687   3.597   1.866  12.765 -0.6954 -0.7174 -0.7714
  719TMC3    C710688   3.850   1.794  12.836  0.3065 -0.1397  0.3111
  719TMC3    C810689   3.408   1.696  12.857  0.5319 -0.1668 -0.0507
  719TMC3    O110690   3.828   1.764  12.721 -0.2995 -0.8214  0.1593
  719TMC3    O210691   3.395   1.588  12.914  0.0533 -0.5729  0.4686
  720MPD2     C10692   1.749   2.838  13.763 -0.4777  0.3969  0.1256
  720MPD2    C110693   1.848   2.933  13.725  0.1465  0.2508 -0.2093
  720MPD2    C210694   1.960   2.947  13.804  0.2568  0.5163  0.2942
  720MPD2    C310695   1.973   2.877  13.926 -0.0826  0.0545  0.6681
  720MPD2    C410696   1.887   2.777  13.950  0.1409 -0.1049  0.6711
  720MPD2    C510697   1.767   2.765  13.873 -0.6981  0.2448 -0.6873
  720MPD2     H10698   2.037   3.014  13.768  0.2060  0.7002  0.5217
  720MPD2    H110699   1.900   2.711  14.035  2.0560 -1.0634 -0.3727
  720MPD2    H210700   1.661   2.821  13.701 -1.5263 -0.5280  1.8488
  720MPD2    H310701   1.701   2.682  13.898  1.5344 -1.6728 -1.0987
  720MPD2     N10702   2.096   2.901  14.007 -0.0943  0.0355 -0.2449
  720MPD2    H510703   2.168   2.966  13.977 -0.2295 -0.7543 -2.2688
  720MPD2    N110704   1.824   3.023  13.617  0.2988  0.3076  0.7406
  720MPD2    H710705   1.896   3.090  13.592 -1.0875  1.0899 -1.1189
  721TMC3    C110706   2.254   2.892  14.192  0.4132  0.0472 -0.5601
  721TMC3    C210707   2.267   2.885  14.327  0.5555  0.0547 -0.5216
  721TMC3    C310708   2.390   2.924  14.372 -0.1509 -0.0918 -0.2306
  721TMC3    C410709   2.360   2.923  14.111 -0.5023 -1.1139 -0.5902
  721TMC3    C510710   2.481   2.944  14.167  0.0476  0.3777 -0.4335
  721TMC3    C610711   2.501   2.940  14.305 -0.1470  0.0691 -0.0123
  721TMC3     C10712   2.125   2.856  14.135  0.6183 -0.5707  0.0979
  721TMC3     O10713   2.038   2.806  14.211 -0.7743 -0.3340 -0.0792
  721TMC3     H10714   2.175   2.872  14.382  0.8423  0.8973  0.1546
  721TMC3    H110715   2.341   2.933  14.005  0.2771  0.1666 -0.6136
  721TMC3    H210716   2.599   2.949  14.351  0.9993 -2.6001 -1.9187
  721TMC3    C710717   2.598   2.947  14.084 -0.5337  0.2298  0.0342
  721TMC3    C810718   2.401   2.953  14.511  0.3506  0.8961  0.4264
  721TMC3    O110719   2.575   2.985  13.970  0.6266 -0.1340 -0.1035
  721TMC3    O210720   2.511   2.999  14.541  0.5364  0.1676 -0.2687
  722MPD2     C10721   1.043   1.610  13.199  0.1518 -0.7975  0.1912
  722MPD2    C110722   1.001   1.739  13.217 -0.3572  0.6749  0.3029
  722MPD2    C210723   0.884   1.779  13.167 -0.8159  0.4468  1.1011
  722MPD2    C310724   0.801   1.685  13.112  0.4491 -0.5693  0.3750
  722MPD2    C410725   0.845   1.555  13.089  0.6548 -0.1213 -0.7496
  722MPD2    C510726   0.963   1.525  13.140 -0.4504 -0.2080 -0.1301
  722MPD2     H10727   0.848   1.881  13.164 -2.6101 -0.2430 -0.7142
  722MPD2    H110728   0.790   1.478  13.037  0.1974 -0.3236  0.0302
  722MPD2    H210729   1.132   1.571  13.247  0.4556  0.8839  0.9890
  722MPD2    H310730   1.004   1.427  13.117 -1.9557 -0.9033  0.1640
  722MPD2     N10731   0.673   1.730  13.077  0.1288  0.0969  0.4131
  722MPD2    H510732   0.660   1.827  13.102  2.7257  0.0756  1.8595
  722MPD2    N110733   1.076   1.832  13.292  0.8163  0.7284 -0.0685
  722MPD2    H710734   1.040   1.926  13.296 -1.8652 -0.2572 -0.8914
  723TMC3    C110735   0.452   1.726  12.995  0.2908  1.0371  1.1858
  723TMC3    C210736   0.328   1.663  13.002 -0.7845 -0.0847  0.1270
  723TMC3    C310737   0.217   1.730  12.963 -0.3902  0.1451 -0.6172
  723TMC3    C410738   0.468   1.849  12.937 -0.1195  0.0827  0.4026
  723TMC3    C510739   0.353   1.923  12.918 -0.0710  0.9021  0.0536
  723TMC3    C610740   0.227   1.863  12.928  0.1703 -0.1526 -0.6325
  723TMC3     C10741   0.573   1.647  13.023  0.5457  0.0183 -0.2242
  723TMC3     O10742   0.568   1.528  12.995  0.3745  0.2846 -0.2196
  723TMC3     H10743   0.327   1.571  13.058  1.2968  0.6585  1.3895
  723TMC3    H110744   0.564   1.897  12.922  0.1818 -1.0116 -1.2183
  723TMC3    H210745   0.139   1.913  12.888  0.6753  1.0106 -0.2696
  723TMC3    C710746   0.355   2.043  12.833 -0.4677 -0.4049 -0.5890
  723TMC3    C810747   0.105   1.656  12.903 -0.5013 -0.1881  0.3314
  723TMC3    O110748   0.445   2.052  12.749  0.4144  0.1332 -0.1663
  723TMC3    O210749   0.006   1.727  12.873  0.5636  0.0514 -0.0219
  724TMC3    C110750   1.341   4.571  10.670  0.1178  0.2521 -0.0731
  724TMC3    C210751   1.387   4.587  10.545 -0.1378  0.0683  0.5723
  724TMC3    C310752   1.471   4.694  10.532 -0.0183 -0.0578 -0.6529
  724TMC3    C410753   1.364   4.656  10.777  0.1340  0.1103  0.5479
  724TMC3    C510754   1.467   0.008  10.762  0.2985 -0.2166 -0.2809
  724TMC3    C610755   1.530   0.019  10.640 -0.1756  0.3964  0.1922
  724TMC3     C10756   1.256   4.454  10.699  0.0001  0.5659  0.1487
  724TMC3     O10757   1.185   4.450  10.797  0.2276 -0.0602 -0.2136
  724TMC3     H10758   1.339   4.550  10.456 -0.8843  3.3461 -0.3786
  724TMC3    H110759   1.315   4.636  10.872  2.7823 -0.2400  1.8495
  724TMC3    H210760   1.619   0.081  10.634 -0.6280  1.0294  0.0091
  724TMC3    C710761   1.488   0.123  10.854 -0.1022 -0.5527 -0.1861
  724TMC3    C810762   1.501   4.733  10.390 -0.3007  0.0530 -0.8183
  724TMC3    O110763   1.548   0.218  10.804  0.2337  0.2972 -0.0484
  724TMC3    O210764   1.482   4.664  10.294  0.7550  0.2083 -0.2443
  725TMC3    C110765   2.147   4.024  13.183  0.1061 -0.6743 -0.3498
  725TMC3    C210766   2.146   3.946  13.072 -0.5395 -0.3802  0.0351
  725TMC3    C310767   2.105   3.819  13.078 -0.0305 -0.1027 -0.3639
  725TMC3    C410768   2.098   3.970  13.298  0.1227  0.3790  0.2492
  725TMC3    C510769   2.079   3.833  13.312  0.3019 -0.2202  0.1568
  725TMC3    C610770   2.073   3.754  13.196 -0.5876 -0.6556 -0.0563
  725TMC3     C10771   2.282   4.079  13.205  0.2027  0.2587 -0.2917
  725TMC3     O10772   2.325   4.149  13.115 -0.8824  0.1547 -0.2716
  725TMC3     H10773   2.181   3.988  12.978  2.3397  0.2963  1.3935
  725TMC3    H110774   2.080   4.041  13.378  0.5792 -0.9692  1.5455
  725TMC3    H210775   2.051   3.648  13.199 -0.0204 -0.7559  0.5212
  725TMC3    C710776   2.150   3.776  13.422  0.1615 -0.2286  0.8794
  725TMC3    C810777   2.061   3.742  12.956  0.0235  0.5832  0.6363
  725TMC3    O110778   2.221   3.858  13.481 -0.1861  0.3668 -0.5792
  725TMC3    O210779   2.033   3.627  12.978  0.1744  0.0224 -0.1466
  726MPD2     C10780   0.881   0.467  10.386  0.0448 -0.1736  0.6437
  726MPD2    C110781   0.790   0.419  10.296  0.4135 -0.3964 -0.2986
  726MPD2    C210782   0.766   0.286  10.295 -0.0479  0.0457  0.1036
  726MPD2    C310783   0.816   0.211  10.395  0.0055 -0.2537 -0.6944
  726MPD2    C410784   0.896   0.263  10.497 -0.3065 -0.1593 -0.1232
  726MPD2    C510785   0.934   0.393  10.490 -0.0791 -0.4512  0.3883
  726MPD2     H10786   0.693   0.237  10.232 -0.3879 -2.7636  2.6547
  726MPD2    H110787   0.933   0.197  10.576  0.8798  1.2801  0.5263
  726MPD2    H210788   0.903   0.573  10.378  1.9330 -0.5600  0.7760
  726MPD2    H310789   0.995   0.440  10.566 -0.7540 -0.6803  1.0682
  726MPD2     N10790   0.776   0.077  10.417 -0.2772  0.9550  0.1195
  726MPD2    H510791   0.796   0.038  10.508 -0.7927 -0.8605 -0.5302
  726MPD2    N110792   0.728   0.507  10.203 -0.1144  1.0885 -0.0959
  726MPD2    H710793   0.751   0.606  10.210 -0.1216  1.1230 -0.5444
  727TMC3    C110794   0.571   0.595  10.059 -0.5365  0.2341 -0.6296
  727TMC3    C210795   0.631   0.715  10.085 -0.4229 -0.0218  0.0908
  727TMC3    C310796   0.572   0.823  10.033  0.8439  0.5701  0.6887
  727TMC3    C410797   0.457   0.582   9.985 -0.0796 -0.2675  0.5609
  727TMC3    C510798   0.398   0.698   9.943  0.1235  0.0451 -0.2902
  727TMC3    C610799   0.455   0.822   9.957  0.0669 -0.4110 -0.5150
  727TMC3     C10800   0.638   0.476  10.103  0.7986 -0.0961 -0.2962
  727TMC3     O10801   0.575   0.374  10.073 -0.0856  0.3598 -0.2632
  727TMC3     H10802   0.729   0.729  10.127 -0.0850  0.6703 -0.9560
  727TMC3    H110803   0.422   0.484   9.956 -0.3630 -0.2838  0.9603
  727TMC3    H210804   0.451   0.905   9.889  4.7800  0.6724  0.5319
  727TMC3    C710805   0.292   0.678   9.849  0.2298 -0.4643  0.5154
  727TMC3    C810806   0.624   0.949  10.071  0.0306  0.5846 -0.7307
  727TMC3    O110807   0.284   0.568   9.788 -0.8505  0.0000 -0.1246
  727TMC3    O210808   0.747   0.945  10.089 -0.4008 -0.4516 -0.2245
  728TMC3    C110809   4.696   3.721  15.400  0.0854  0.3401 -0.1449
  728TMC3    C210810   0.055   3.812  15.360 -0.0050 -0.3363 -0.0272
  728TMC3    C310811   0.016   3.897  15.263 -0.3701 -0.3282 -0.1737
  728TMC3    C410812   4.575   3.716  15.341  0.2194  0.1744 -0.7357
  728TMC3    C510813   4.551   3.798  15.236 -0.5492 -0.6685  0.4428
  728TMC3    C610814   4.633   3.894  15.202 -0.2305 -0.5078  0.0418
  728TMC3     C10815   4.731   3.629  15.505  0.4144  0.1480 -0.3192
  728TMC3     O10816   0.109   3.619  15.524  0.2350 -0.1075 -0.5085
  728TMC3     H10817   0.143   3.834  15.418 -0.6761 -1.8394  1.5528
  728TMC3    H110818   4.512   3.628  15.354  1.1126 -0.2137  1.0096
  728TMC3    H210819   4.616   3.955  15.114 -1.3638  0.1559  0.7092
  728TMC3    C710820   4.422   3.783  15.166  0.0091  0.3992 -0.3936
  728TMC3    C810821   0.105   4.001  15.213 -0.4758  0.9873  0.0448
  728TMC3    O110822   4.329   3.728  15.227  0.3973  0.7902  0.4280
  728TMC3    O210823   0.068   4.101  15.149  0.1180 -0.4180  0.3717
  729MPD2     C10824   1.756   0.193  16.328 -0.2846 -0.1178  0.0560
  729MPD2    C110825   1.864   0.173  16.404  0.1484 -0.0441  0.3489
  729MPD2    C210826   1.851   0.160  16.543 -0.0590  0.5283  0.3156
  729MPD2    C310827   1.734   0.158  16.609  0.0474 -0.1230 -0.4006
  729MPD2    C410828   1.624   0.187  16.526  0.2982  0.1948  0.0194
  729MPD2    C510829   1.633   0.203  16.390 -0.1786 -0.1932 -0.4757
  729MPD2     H10830   1.950   0.144  16.586  0.3439 -0.4232 -0.9690
  729MPD2    H110831   1.522   0.179  16.563  0.9360  0.7990  1.8929
  729MPD2    H210832   1.779   0.193  16.222 -0.8021  1.5251 -0.0489
  729MPD2    H310833   1.548   0.216  16.324 -2.2485 -1.2347  1.9465
  729MPD2     N10834   1.718   0.124  16.743 -0.0006 -0.7704 -0.1595
  729MPD2    H510835   1.624   0.113  16.780 -0.2205 -3.1149 -1.4489
  729MPD2    N110836   1.993   0.178  16.341  0.0966 -0.3812 -0.4828
  729MPD2    H710837   1.999   0.216  16.247 -3.9283 -1.4827 -1.1808
  730TMC3    C110838   1.781   0.102  16.966 -0.1522  0.2749 -0.0539
  730TMC3    C210839   1.889   0.058  17.041  0.5356  1.1474  0.0905
  730TMC3    C310840   1.908   0.111  17.166 -0.4717  0.5355 -0.6989
  730TMC3    C410841   1.689   0.190  17.010 -0.3683 -0.5122  0.1185
  730TMC3    C510842   1.701   0.238  17.137 -0.1386  0.5763 -0.4060
  730TMC3    C610843   1.811   0.200  17.211  0.2212 -0.6008 -0.8659
  730TMC3     C10844   1.818   0.114  16.827 -0.0130  0.7680 -0.3677
  730TMC3     O10845   1.942   0.130  16.809 -0.4810 -0.6062 -0.3890
  730TMC3     H10846   1.965   4.732  17.003  0.7885  1.4674  0.0361
  730TMC3    H110847   1.618   0.240  16.945  0.7736  0.4583 -0.3864
  730TMC3    H210848   1.819   0.235  17.313  0.2181 -0.4774 -0.9081
  730TMC3    C710849   1.688   0.377  17.131  0.1070  0.1708 -1.0371
  730TMC3    C810850   2.041   0.170  17.175  0.5594 -0.4430 -0.5113
  730TMC3    O110851   1.695   0.440  17.028 -0.8067 -0.2069 -0.3490
  730TMC3    O210852   2.131   0.142  17.094  0.4626 -0.3910  0.2001
  731MPD2     C10853   2.417   2.437  12.309 -0.0423 -0.2694  0.5757
  731MPD2    C110854   2.387   2.528  12.405  0.0179  0.1342 -0.2390
  731MPD2    C210855   2.369   2.479  12.536 -0.2632  0.1104 -0.3657
  731MPD2    C310856   2.364   2.346  12.564  0.5932  0.1410  0.1780
  731MPD2    C410857   2.389   2.252  12.464  0.0182  0.2287 -0.1063
  731MPD2    C510858   2.421   2.301  12.338  0.5740  0.6071 -0.6716
  731MPD2     H10859   2.363   2.550  12.618  0.0292 -0.1777 -0.0929
  731MPD2    H110860   2.387   2.146  12.486 -0.7219  0.4923  1.1018
  731MPD2    H210861   2.418   2.464  12.203 -1.2304 -0.2931  0.5661
  731MPD2    H310862   2.433   2.236  12.252 -0.4517  0.4723 -0.7105
  731MPD2     N10863   2.357   2.310  12.697  0.5460 -0.1244 -0.4040
  731MPD2    H510864   2.341   2.383  12.765  1.1332 -0.3394 -0.0356
  731MPD2    N110865   2.381   2.670  12.373  0.0972 -0.7506 -0.1156
  731MPD2    H710866   2.370   2.692  12.275 -1.8616  1.1621  0.5295
  732TMC3    C110867   2.386   2.903  12.392 -0.0594 -1.0201  0.5343
  732TMC3    C210868   2.394   2.910  12.254 -0.2114  0.6380  0.0370
  732TMC3    C310869   2.392   3.030  12.195  0.1667 -0.8842 -0.3734
  732TMC3    C410870   2.352   3.018  12.465 -0.1722  0.2585  0.6768
  732TMC3    C510871   2.343   3.134  12.394  0.1641  0.0183 -0.3605
  732TMC3    C610872   2.361   3.143  12.259 -0.2527  0.4374 -0.0648
  732TMC3     C10873   2.387   2.775  12.465  0.6706 -0.1967  0.0107
  732TMC3     O10874   2.402   2.769  12.589 -0.3550 -1.0128  0.0972
  732TMC3     H10875   2.432   2.830  12.191  0.2881 -0.2059  1.3910
  732TMC3    H110876   2.346   3.006  12.572  0.8720  0.9629  0.8040
  732TMC3    H210877   2.364   3.238  12.206  1.4279  1.2103  1.4136
  732TMC3    C710878   2.323   3.263  12.465  0.3901  0.7433  0.0935
  732TMC3    C810879   2.350   3.034  12.065 -0.1684  0.3811 -0.6394
  732TMC3    O110880   2.264   3.355  12.408  0.0198 -0.2479 -0.4487
  732TMC3    O210881   2.383   3.133  12.001 -0.3066 -0.4294 -0.4109
  733TMC3    C110882   2.834   0.992  12.865 -0.6258  0.3208 -0.0287
  733TMC3    C210883   2.940   0.971  12.952  0.9656  0.6667  0.4349
  733TMC3    C310884   3.059   1.027  12.924  0.8397  0.1322  0.1158
  733TMC3    C410885   2.841   1.088  12.766 -0.1670 -0.4988  0.4027
  733TMC3    C510886   2.960   1.143  12.735  0.0636  0.3108 -0.0664
  733TMC3    C610887   3.076   1.104  12.811  0.4391  0.3380  0.3218
  733TMC3     C10888   2.702   0.966  12.916 -0.2210 -0.0286 -0.1982
  733TMC3     O10889   2.624   1.061  12.909  0.1702 -0.0256  0.2230
  733TMC3     H10890   2.934   0.918  13.047 -0.1008  0.9769  0.5370
  733TMC3    H110891   2.762   1.109  12.695 -0.7859 -1.5628  0.7716
  733TMC3    H210892   3.167   1.149  12.773  1.6749 -1.3569  1.2799
  733TMC3    C710893   2.967   1.258  12.647  0.5563 -0.1888 -0.7652
  733TMC3    C810894   3.159   1.021  13.032  0.2594 -0.0710  0.3999
  733TMC3    O110895   2.872   1.272  12.571 -0.1809 -0.4281  0.3320
  733TMC3    O210896   3.149   0.935  13.120 -0.2253  0.1169  0.2317
  734MPD2     C10897   0.409   4.107  12.114 -0.0912  0.4240 -0.8485
  734MPD2    C110898   0.352   4.004  12.046  0.3868  0.5118 -0.3794
  734MPD2    C210899   0.429   3.949  11.946  0.2022  0.2339  0.2092
  734MPD2    C310900   0.554   3.990  11.915 -1.0131  0.2635  0.1755
  734MPD2    C410901   0.602   4.102  11.978  0.5377 -0.0896 -0.1655
  734MPD2    C510902   0.526   4.164  12.074  0.8285 -0.3030  0.1296
  734MPD2     H10903   0.388   3.877  11.876 -1.8843  0.8455  0.8037
  734MPD2    H110904   0.699   4.146  11.960  0.8285 -0.9474 -0.7132
  734MPD2    H210905   0.365   4.148  12.204 -0.3598 -0.6226 -0.5104
  734MPD2    H310906   0.551   4.253  12.132  1.5466 -0.2139 -0.3091
  734MPD2     N10907   0.620   3.913  11.811 -0.2494 -0.1212 -0.5546
  734MPD2    H510908   0.560   3.841  11.771 -1.1622  0.6418 -0.5474
  734MPD2    N110909   0.246   3.931  12.095 -0.2942 -0.5895  0.4707
  734MPD2    H710910   0.229   3.960  12.190 -3.3193 -0.9328  0.0467
  735TMC3    C110911   0.116   3.733  12.117 -0.2532  0.1290 -0.0275
  735TMC3    C210912   0.034   3.643  12.050  0.3462 -0.0535 -0.2411
  735TMC3    C310913   0.033   3.513  12.084  0.1805  0.0800 -0.1578
  735TMC3    C410914   0.212   3.693  12.208 -0.2528  0.6154  0.4845
  735TMC3    C510915   0.215   3.556  12.233  0.2748 -0.3110  0.5701
  735TMC3    C610916   0.120   3.469  12.181 -0.9691  0.2547  0.3819
  735TMC3     C10917   0.176   3.828  12.023 -1.4867 -0.6603 -0.0602
  735TMC3     O10918   0.189   3.782  11.911  0.6437 -0.0847 -0.1159
  735TMC3     H10919   4.711   3.677  11.969 -2.6705  1.4839  2.7169
  735TMC3    H110920   0.272   3.768  12.260 -1.1871 -0.5077  3.1880
  735TMC3    H210921   0.133   3.361  12.184 -1.8987  0.1168 -1.2179
  735TMC3    C710922   0.346   3.496  12.238  0.6595  0.1696  0.7119
  735TMC3    C810923   0.062   3.430  11.970 -0.0162 -0.1055 -0.4286
  735TMC3    O110924   0.421   3.544  12.150  0.5826 -0.4092  0.5162
  735TMC3    O210925   0.021   3.313  11.964 -0.3024  0.2379 -0.8749
  736MPD2     C10926   0.419   3.157  12.351 -0.0251  0.9139  0.0908
  736MPD2    C110927   0.441   3.276  12.292  0.0790 -0.4398  0.2968
  736MPD2    C210928   0.549   3.285  12.213 -0.1203  0.3030  0.7430
  736MPD2    C310929   0.631   3.174  12.181  0.6404 -0.5514 -0.1318
  736MPD2    C410930   0.591   3.051  12.238 -0.6894  0.0854  0.0020
  736MPD2    C510931   0.493   3.043  12.331 -0.0055 -0.1735  0.1249
  736MPD2     H10932   0.583   3.375  12.162 -0.2396  0.6964  1.3653
  736MPD2    H110933   0.647   2.958  12.232  0.2849  0.6335  0.5835
  736MPD2    H210934   0.333   3.157  12.417  0.9250 -2.0027  1.3145
  736MPD2    H310935   0.491   2.960  12.401 -0.4098  0.4089  0.8146
  736MPD2     N10936   0.733   3.183  12.082  0.0298 -0.5327  0.0764
  736MPD2    H510937   0.773   3.093  12.054  1.5924  0.4693 -0.9386
  736MPD2    N110938   0.343   3.376  12.308  0.8265  0.1721 -0.0971
  736MPD2    H710939   0.262   3.365  12.369 -0.0747 -1.1175 -1.5122
  737TMC3    C110940   0.875   3.277  11.917 -0.7606  0.6999 -0.1662
  737TMC3    C210941   0.864   3.354  11.805 -0.4100  0.9759 -0.7305
  737TMC3    C310942   0.908   3.305  11.682  0.4021 -0.7690 -0.0993
  737TMC3    C410943   0.933   3.146  11.903 -0.0272 -0.3377  0.7209
  737TMC3    C510944   0.990   3.111  11.788 -0.9776  0.1548  0.4527
  737TMC3    C610945   0.973   3.184  11.676 -0.2115 -0.2040  0.4739
  737TMC3     C10946   0.785   3.298  12.025  0.0871 -0.3650 -0.1350
  737TMC3     O10947   0.752   3.418  12.035 -0.6271  0.3147  0.3376
  737TMC3     H10948   0.803   3.444  11.806 -1.6990  0.1049 -1.5196
  737TMC3    H110949   0.932   3.079  11.989  1.5817  1.5570  2.2133
  737TMC3    H210950   1.015   3.150  11.582  1.5791  0.1896  1.1148
  737TMC3    C710951   1.065   2.987  11.796 -0.2504  0.8820  1.0583
  737TMC3    C810952   0.915   3.391  11.569  0.2790 -0.4850 -0.1161
  737TMC3    O110953   1.016   2.901  11.873 -0.1553  0.0661  0.0562
  737TMC3    O210954   0.913   3.509  11.594 -0.0900  0.5456 -0.0216
  738MPD2     C10955   1.279   2.360  15.321  0.1660  0.2973  0.0465
  738MPD2    C110956   1.233   2.304  15.201  0.4963 -0.3704  0.4741
  738MPD2    C210957   1.293   2.347  15.082  0.4070  1.1384  0.4076
  738MPD2    C310958   1.384   2.456  15.081 -0.6693  0.1580 -0.3765
  738MPD2    C410959   1.418   2.513  15.204 -0.1430  0.4367 -0.2802
  738MPD2    C510960   1.369   2.464  15.320  0.3015 -0.1811 -0.2699
  738MPD2     H10961   1.250   2.305  14.992  2.0831  1.5047 -0.5689
  738MPD2    H110962   1.485   2.597  15.216  1.4980 -0.6850 -1.7678
  738MPD2    H210963   1.249   2.325  15.419 -1.5533 -1.3781 -1.0746
  738MPD2    H310964   1.401   2.517  15.409  1.5668 -3.0356  1.0091
  738MPD2     N10965   1.431   2.520  14.960 -1.0390 -0.5728  0.0207
  738MPD2    H510966   1.476   2.610  14.976  0.3652 -1.6524  2.1835
  738MPD2    N110967   1.125   2.210  15.196  0.4046 -0.5492  0.1746
  738MPD2    H710968   1.083   2.190  15.105  0.9043  3.2091 -0.8927
  739TMC3    C110969   1.519   2.520  14.740  0.7251 -0.1846  0.0841
  739TMC3    C210970   1.522   2.476  14.611  0.4949  0.0415  0.7059
  739TMC3    C310971   1.572   2.552  14.511 -0.6500  0.2981 -0.2018
  739TMC3    C410972   1.581   2.638  14.769 -0.6250 -0.0530  0.5632
  739TMC3    C510973   1.643   2.709  14.668  0.1751 -0.2724  0.2605
  739TMC3    C610974   1.640   2.659  14.536  0.8338 -0.3718  0.5475
  739TMC3     C10975   1.436   2.459  14.834  0.7959 -0.0386  0.0455
  739TMC3     O10976   1.386   2.354  14.793 -0.3146  0.5914  0.3766
  739TMC3     H10977   1.469   2.386  14.582  1.4354  0.1523 -1.3051
  739TMC3    H110978   1.589   2.679  14.870  0.0751  0.3595  0.3355
  739TMC3    H210979   1.649   2.724  14.450 -0.1544  0.5035  1.1032
  739TMC3    C710980   1.720   2.829  14.695 -0.3093 -0.0285  0.1158
  739TMC3    C810981   1.523   2.525  14.377  0.1584  0.1678  0.5309
  739TMC3    O110982   1.705   2.874  14.810  0.3913  0.3504  0.6918
  739TMC3    O210983   1.414   2.473  14.363 -0.2217  0.1555 -0.0868
  740TMC3    C110984   1.433   3.349  14.305  0.4148  0.0689  0.1316
  740TMC3    C210985   1.426   3.251  14.406 -0.3494 -0.6750  0.6021
  740TMC3    C310986   1.529   3.156  14.386 -0.4308  0.0496 -0.5611
  740TMC3    C410987   1.515   3.356  14.195 -0.2717 -0.2706 -0.1712
  740TMC3    C510988   1.608   3.260  14.187  0.5570  0.2995 -0.2058
  740TMC3    C610989   1.624   3.163  14.282  0.2703  0.3792  0.1174
  740TMC3     C10990   1.344   3.462  14.317  0.5036 -0.2274 -0.2827
  740TMC3     O10991   1.323   3.535  14.222  0.5470 -0.6174  0.1747
  740TMC3     H10992   1.335   3.232  14.463 -0.7074 -1.0904 -0.1103
  740TMC3    H110993   1.520   3.442  14.130  0.3456 -0.7601 -0.7654
  740TMC3    H210994   1.688   3.076  14.271 -2.4551 -1.5654 -0.4701
  740TMC3    C710995   1.700   3.249  14.070 -0.1664 -1.2960 -0.1433
  740TMC3    C810996   1.497   3.024  14.430 -0.2287 -0.9330  0.2015
  740TMC3    O110997   1.779   3.156  14.073 -0.1778  0.6613 -0.1454
  740TMC3    O210998   1.526   2.927  14.366 -0.3985 -0.1734  0.2442
  741TMC3    C110999   1.239   3.288  13.208 -0.3418  0.0540  0.7804
  741TMC3    C211000   1.196   3.229  13.326  1.1236 -0.5677 -0.5906
  741TMC3    C311001   1.256   3.112  13.365 -0.0624  0.5376  0.0892
  741TMC3    C411002   1.346   3.249  13.143 -0.1413 -0.1411 -0.6667
  741TMC3    C511003   1.412   3.139  13.199  0.5454 -0.2903  0.3002
  741TMC3    C611004   1.367   3.062  13.305 -1.1065 -0.6323  0.5349
  741TMC3     C11005   1.145   3.371  13.127  0.5655  0.9303 -0.0174
  741TMC3     O11006   1.184   3.454  13.048  0.6935 -0.1659  0.1191
  741TMC3     H11007   1.110   3.264  13.382  1.0314  1.5341 -2.0638
  741TMC3    H111008   1.382   3.298  13.053  1.2945  0.9956  0.5278
  741TMC3    H211009   1.421   2.974  13.337  0.2310  0.0983  0.2901
  741TMC3    C711010   1.542   3.096  13.136  0.4689 -0.5154  1.2112
  741TMC3    C811011   1.195   3.036  13.471 -0.0191  0.0945  0.0393
  741TMC3    O111012   1.602   3.007  13.195 -0.1218  0.0625  0.2845
  741TMC3    O211013   1.080   3.071  13.504  0.3040 -0.0497  0.4221
  742TMC3    C111014   1.883   1.323  15.730 -0.5311 -0.7706 -0.6615
  742TMC3    C211015   1.842   1.358  15.608  0.5411 -0.5400 -0.3579
  742TMC3    C311016   1.875   1.282  15.506 -0.3758 -0.6551  0.1374
  742TMC3    C411017   1.965   1.219  15.760  0.0613 -0.0288  0.2070
  742TMC3    C511018   2.009   1.152  15.645  0.2531  0.1006 -0.0955
  742TMC3    C611019   1.962   1.183  15.523  0.3899  0.0400  0.5801
  742TMC3     C11020   1.835   1.407  15.840 -0.3329  0.4383  0.3175
  742TMC3     O11021   1.826   1.361  15.955 -0.2167  0.5784  0.7622
  742TMC3     H11022   1.748   1.411  15.604 -0.3960 -2.3988 -2.7204
  742TMC3    H111023   2.004   1.207  15.860  0.5875 -0.7743 -0.0852
  742TMC3    H211024   1.994   1.134  15.431 -3.2763 -0.4822 -0.4444
  742TMC3    C711025   2.094   1.035  15.654 -0.0922 -0.3503 -0.1255
  742TMC3    C811026   1.787   1.277  15.386 -0.0280  0.0687  0.5426
  742TMC3    O111027   2.130   0.988  15.547  0.4988 -0.7406 -0.1617
  742TMC3    O211028   1.790   1.167  15.327  0.0811  0.2253  0.2274
  743MPD2     C11029   2.838   3.000   1.463  0.4956 -0.1110  0.4677
  743MPD2    C111030   2.958   2.945   1.423 -0.3611  0.8059  0.1001
  743MPD2    C211031   3.072   2.998   1.477  0.1139  0.5701  0.3484
  743MPD2    C311032   3.073   3.110   1.563  0.4309  0.2027  0.0615
  743MPD2    C411033   2.948   3.155   1.605  0.1456  0.1161  0.2011
  743MPD2    C511034   2.832   3.101   1.558  0.0707 -0.1986  0.1075
  743MPD2     H11035   3.168   2.957   1.449  0.8747  1.2345  1.9661
  743MPD2    H111036   2.945   3.232   1.682 -0.0273 -0.0253  0.3379
  743MPD2    H211037   2.748   2.966   1.412  0.2099  0.5403  0.5347
  743MPD2    H311038   2.739   3.148   1.588  0.6113  2.8391 -3.0550
  743MPD2     N11039   3.201   3.154   1.606 -0.4867 -0.6531 -0.2242
  743MPD2    H511040   3.278   3.104   1.563  0.6668  1.1986 -0.3252
  743MPD2    N111041   2.971   2.858   1.315  0.4111 -0.0215 -0.4211
  743MPD2    H711042   2.886   2.856   1.260  1.1733 -0.0763 -1.6043
  744TMC3    C111043   3.062   2.688   1.180  0.2779 -0.4881  0.2756
  744TMC3    C211044   3.006   2.738   1.066  0.9526  0.2147 -0.3600
  744TMC3    C311045   3.045   2.692   0.952  0.1790 -0.1735 -0.0520
  744TMC3    C411046   3.147   2.581   1.170  0.1481 -0.0196  0.5989
  744TMC3    C511047   3.188   2.534   1.037  0.3658  0.0446 -0.0678
  744TMC3    C611048   3.136   2.593   0.929  0.2643  0.0732  0.0523
  744TMC3     C11049   3.069   2.765   1.300  0.9612 -0.3604  0.8701
  744TMC3     O11050   3.154   2.734   1.382  0.4970  0.9479 -0.4950
  744TMC3     H11051   2.923   2.807   1.073  1.3667  0.7520 -0.6844
  744TMC3    H111052   3.179   2.545   1.267 -1.9155  0.4689  1.4574
  744TMC3    H211053   3.185   2.576   0.834 -0.5487  1.7632 -0.6698
  744TMC3    C711054   3.309   2.460   1.033 -0.0924 -0.0439 -0.1588
  744TMC3    C811055   2.969   2.751   0.842  0.1897  0.6171 -0.2886
  744TMC3    O111056   3.360   2.444   0.921  0.5483 -0.2647 -0.0851
  744TMC3    O211057   2.911   2.855   0.858  0.4652  0.1254 -0.0641
  745TMC3    C111058   1.538   0.690  13.701 -0.4185  0.0937  0.5340
  745TMC3    C211059   1.512   0.769  13.807  0.3573  0.3829 -0.3615
  745TMC3    C311060   1.379   0.792  13.823 -0.1502 -0.2535  0.6141
  745TMC3    C411061   1.441   0.650  13.619  0.3717  0.1755  0.5455
  745TMC3    C511062   1.312   0.677  13.642 -0.2038 -0.7065 -0.3733
  745TMC3    C611063   1.273   0.740  13.753  0.1855  0.0138 -0.2453
  745TMC3     C11064   1.666   0.688  13.636  0.0823 -0.3446  0.0880
  745TMC3     O11065   1.670   0.617  13.538  0.4679 -0.0405 -0.2328
  745TMC3     H11066   1.596   0.804  13.866  1.6857 -2.0184 -0.8083
  745TMC3    H111067   1.462   0.574  13.544 -1.7870  0.3484 -0.2210
  745TMC3    H211068   1.171   0.769  13.776 -0.4422 -1.9900 -0.5671
  745TMC3    C711069   1.256   0.750  13.529 -0.8959  0.6795  0.4109
  745TMC3    C811070   1.339   0.879  13.926 -0.3047 -0.1682  0.4314
  745TMC3    O111071   1.135   0.779  13.526  0.4791  0.0819 -0.2066
  745TMC3    O211072   1.227   0.867  13.970 -0.7617 -0.0237  0.0992
  746TMC3    C111073   3.667   2.553  11.343  0.8174  0.4024 -0.4825
  746TMC3    C211074   3.687   2.501  11.213 -0.1613  0.1125 -0.5495
  746TMC3    C311075   3.580   2.428  11.157  0.5635  0.5282  0.2899
  746TMC3    C411076   3.544   2.524  11.398 -0.4838 -0.1532  0.6036
  746TMC3    C511077   3.444   2.456  11.334 -0.1799 -0.3981 -0.0079
  746TMC3    C611078   3.460   2.415  11.212 -0.2224  0.1193  0.0564
  746TMC3     C11079   3.733   2.673  11.381  0.0640  0.0964  0.6934
  746TMC3     O11080   3.664   2.754  11.438  0.0864 -0.6099  0.0023
  746TMC3     H11081   3.773   2.527  11.153  0.0567  1.4429  0.3457
  746TMC3    H111082   3.523   2.562  11.498  1.0018 -0.6115  1.0908
  746TMC3    H211083   3.390   2.343  11.172 -0.5181 -0.1115  0.9744
  746TMC3    C711084   3.333   2.404  11.419  0.6050 -0.2183 -0.4608
  746TMC3    C811085   3.606   2.378  11.018  0.2143 -0.3954 -0.1076
  746TMC3    O111086   3.235   2.372  11.354 -0.1461 -0.2856 -0.2989
  746TMC3    O211087   3.578   2.266  10.985  0.4539  0.0179 -0.1623
  747TMC3    C111088   1.766   2.681  11.091  0.6950  0.5106  0.5706
  747TMC3    C211089   1.694   2.626  11.185  0.3238  0.3286 -0.3901
  747TMC3    C311090   1.672   2.708  11.294 -0.3488 -0.0725 -0.2891
  747TMC3    C411091   1.839   2.797  11.108 -0.1190  0.2712  0.2458
  747TMC3    C511092   1.829   2.869  11.221  0.2296 -0.4737 -0.1995
  747TMC3    C611093   1.740   2.820  11.322  0.1565  0.1212  0.2451
  747TMC3     C11094   1.740   2.637  10.950  0.1491  0.6779  0.1327
  747TMC3     O11095   1.677   2.532  10.937  0.2913 -0.1281  0.3953
  747TMC3     H11096   1.628   2.542  11.166  0.8504 -0.6666  2.1306
  747TMC3    H111097   1.921   2.811  11.039 -0.7268 -0.1719 -0.5599
  747TMC3    H211098   1.735   2.871  11.417 -0.1677  1.7240 -0.6253
  747TMC3    C711099   1.944   2.943  11.270  0.2232  0.0710  0.0640
  747TMC3    C811100   1.577   2.656  11.388  0.0073 -0.1676 -0.3792
  747TMC3    O111101   1.942   2.951  11.390  0.2065 -0.7820 -0.5202
  747TMC3    O211102   1.564   2.538  11.384  0.4099 -0.1981  0.2267
  748MPD2     C11103   2.634   3.952   1.583  0.1884 -0.0232 -0.1714
  748MPD2    C111104   2.682   4.061   1.515 -0.2062  0.0041  0.5818
  748MPD2    C211105   2.813   4.062   1.472 -0.5289  0.1084  0.1450
  748MPD2    C311106   2.900   3.952   1.488 -0.1528 -0.6139  0.4400
  748MPD2    C411107   2.843   3.841   1.546 -0.0832  0.1867  0.2003
  748MPD2    C511108   2.716   3.845   1.605 -0.6545 -0.6079  0.4436
  748MPD2     H11109   2.847   4.150   1.419 -1.0252  0.1039 -0.1795
  748MPD2    H111110   2.905   3.755   1.569 -1.5733 -1.3063 -1.3833
  748MPD2    H211111   2.528   3.942   1.604  0.5588 -1.3225  1.1021
  748MPD2    H311112   2.674   3.763   1.663 -0.5680 -1.6929 -1.0178
  748MPD2     N11113   3.024   3.937   1.426  0.1474  0.5670 -0.5352
  748MPD2    H511114   3.063   3.843   1.423 -0.2495  0.3110  2.0842
  748MPD2    N111115   2.593   4.160   1.483 -0.2374  0.3374  0.3470
  748MPD2    H711116   2.497   4.130   1.500  0.0205 -0.6915  0.0035
  749TMC3    C111117   3.214   3.996   1.298 -0.0269 -0.3518 -0.1424
  749TMC3    C211118   3.219   3.860   1.256  0.6094  0.3776 -0.1146
  749TMC3    C311119   3.327   3.828   1.185 -0.0484 -0.0258 -0.0209
  749TMC3    C411120   3.299   4.096   1.239 -0.6971 -0.1516 -0.5439
  749TMC3    C511121   3.406   4.054   1.164 -0.0674 -0.5683 -0.3779
  749TMC3    C611122   3.422   3.918   1.145  0.1378 -0.0782 -0.4743
  749TMC3     C11123   3.096   4.042   1.371 -0.1517  0.7501  0.0561
  749TMC3     O11124   3.073   4.163   1.362  0.3671  0.1286  0.7059
  749TMC3     H11125   3.157   3.775   1.282  0.0763  0.8576  0.1882
  749TMC3    H111126   3.275   4.201   1.254 -0.2731  0.1068 -1.6525
  749TMC3    H211127   3.515   3.890   1.097  0.9088 -0.3237  1.1796
  749TMC3    C711128   3.458   4.147   1.063  0.2963  0.4272  0.3200
  749TMC3    C811129   3.330   3.700   1.126 -0.0226  0.1091  0.4010
  749TMC3    O111130   3.386   4.249   1.047 -0.0565  0.2266 -0.1868
  749TMC3    O211131   3.223   3.655   1.084 -0.5382  0.2148 -0.1580
  750MPD2     C11132   4.432   0.267  11.318 -0.3117 -0.2678  0.3029
  750MPD2    C111133   4.329   0.191  11.366  0.0540  0.3599  0.1778
  750MPD2    C211134   4.272   0.097  11.284  0.6358  0.1814 -0.0390
  750MPD2    C311135   4.311   0.074  11.160 -0.5753  0.3398  0.5303
  750MPD2    C411136   4.428   0.137  11.113  0.2524 -0.1331  0.1456
  750MPD2    C511137   4.480   0.238  11.191  0.2683 -0.2926 -0.4100
  750MPD2     H11138   4.185   0.052  11.331  1.7834 -2.5420 -0.5598
  750MPD2    H111139   4.471   0.117  11.015  0.0436  1.7950 -0.3538
  750MPD2    H211140   4.486   0.343  11.374 -1.1782 -0.4164  1.3239
  750MPD2    H311141   4.559   0.296  11.146  0.2269 -0.6902 -0.9937
  750MPD2     N11142   4.249   4.712  11.078 -0.2070  0.0619  0.0842
  750MPD2    H511143   4.306   4.671  11.005 -0.4927  1.0634 -0.6907
  750MPD2    N111144   4.282   0.226  11.497 -0.2111  0.6498  0.5598
  750MPD2    H711145   4.324   0.311  11.534  0.8707  0.6759 -0.7540
  751TMC3    C111146   4.097   4.541  11.044 -0.1771  0.0819 -0.5786
  751TMC3    C211147   3.991   4.477  11.104  0.0082 -0.0979  0.1296
  751TMC3    C311148   3.979   4.344  11.087 -0.3565 -0.3597 -0.1287
  751TMC3    C411149   4.185   4.470  10.962  0.3004 -0.4907 -0.1244
  751TMC3    C511150   4.162   4.340  10.942 -0.1050 -0.2575  0.1409
  751TMC3    C611151   4.066   4.272  11.007 -0.2237  0.0628  0.1039
  751TMC3     C11152   4.122   4.668  11.090  0.6024  0.2433 -0.5849
  751TMC3     O11153   4.033   4.726  11.152  0.0592 -0.2831  0.2744
  751TMC3     H11154   3.924   4.537  11.164  0.9921 -1.0343  2.1758
  751TMC3    H111155   4.254   4.528  10.901 -0.0368 -0.1230 -0.1585
  751TMC3    H211156   4.051   4.164  11.001  1.4945 -0.2754  1.9614
  751TMC3    C711157   4.222   4.276  10.828 -0.5737  0.2285 -0.0920
  751TMC3    C811158   3.859   4.282  11.130 -0.4910  0.4096 -0.1006
  751TMC3    O111159   4.319   4.330  10.783 -0.0897 -0.0634  0.2480
  751TMC3    O211160   3.840   4.173  11.070  0.5270 -0.1336  0.1472
  752TMC3    C111161   2.477   0.159  17.275  0.4094 -0.2573  0.5596
  752TMC3    C211162   2.509   0.025  17.296 -0.0634 -0.3175 -0.7771
  752TMC3    C311163   2.445   4.700  17.395  0.0532 -0.1422 -0.9437
  752TMC3    C411164   2.393   0.232  17.355  1.5505  0.0397 -0.1230
  752TMC3    C511165   2.332   0.164  17.459 -0.2277  0.4280 -0.1476
  752TMC3    C611166   2.358   0.031  17.473 -0.2813 -0.2467 -0.0151
  752TMC3     C11167   2.550   0.229  17.172  0.0024 -0.4927  0.7668
  752TMC3     O11168   2.619   0.317  17.212 -0.1181  0.3005  0.1063
  752TMC3     H11169   2.576   4.720  17.224  0.9446 -0.9275  0.5476
  752TMC3    H111170   2.379   0.339  17.351  0.9434  0.0835  2.9931
  752TMC3    H211171   2.328   4.721  17.565  0.1661 -2.9046 -1.3197
  752TMC3    C711172   2.215   0.231  17.517 -0.4217 -0.2919 -0.1656
  752TMC3    C811173   2.480   4.567  17.431 -0.1626 -0.1505 -0.2775
  752TMC3    O111174   2.225   0.353  17.531 -0.2347  0.6186 -0.1400
  752TMC3    O211175   2.423   4.513  17.526  0.3025  0.0054  0.5249
  753TMC3    C111176   0.333   1.021  13.447  0.3920 -0.4602 -0.4644
  753TMC3    C211177   0.388   0.996  13.573 -0.0628  0.2467 -0.8189
  753TMC3    C311178   0.364   0.876  13.625  0.3845 -0.7098 -0.0936
  753TMC3    C411179   0.243   0.932  13.385  0.1394  0.2919 -0.4963
  753TMC3    C511180   0.228   0.815  13.446 -0.2516  0.4264 -0.1301
  753TMC3    C611181   0.293   0.774  13.557  0.0431 -0.0265 -0.3330
  753TMC3     C11182   0.324   1.159  13.395 -0.2015 -0.4148 -0.1414
  753TMC3     O11183   0.214   1.188  13.352  0.2411  0.6704 -0.2880
  753TMC3     H11184   0.447   1.073  13.621 -1.8428  1.3347 -0.3887
  753TMC3    H111185   0.190   0.964  13.296  0.6371  0.4025 -0.7552
  753TMC3    H211186   0.265   0.682  13.605 -2.5012  0.3441 -1.1184
  753TMC3    C711187   0.159   0.707  13.368  0.3101 -0.6633  0.3269
  753TMC3    C811188   0.429   0.835  13.753  0.6040 -0.3095 -0.3268
  753TMC3    O111189   0.089   0.745  13.273  0.0667  0.4124 -0.4331
  753TMC3    O211190   0.441   0.716  13.770  0.9260 -0.0349 -0.0778
  754MPD2     C11191   3.547   4.221  13.193 -0.4670  0.7328 -0.1044
  754MPD2    C111192   3.522   4.281  13.313  0.1921 -0.1511 -0.6461
  754MPD2    C211193   3.417   4.366  13.325  0.1875 -0.0624  0.1304
  754MPD2    C311194   3.328   4.387  13.221 -0.2869  0.0423 -0.3433
  754MPD2    C411195   3.364   4.335  13.100 -0.1934  0.0184 -0.2929
  754MPD2    C511196   3.469   4.251  13.090 -1.0756 -0.2238  0.6027
  754MPD2     H11197   3.397   4.417  13.418  1.5547 -0.8364  0.8443
  754MPD2    H111198   3.300   4.358  13.015 -0.5001 -1.5498 -0.4806
  754MPD2    H211199   3.625   4.146  13.178  0.5522  1.1642  3.0266
  754MPD2    H311200   3.499   4.210  12.994 -1.2940  0.1372  0.3801
  754MPD2     N11201   3.213   4.469  13.233 -0.4802  0.1127 -0.3876
  754MPD2    H511202   3.148   4.470  13.156  1.2027  2.0384 -1.7774
  754MPD2    N111203   3.605   4.248  13.424  0.2330  0.2215  0.3883
  754MPD2    H711204   3.629   4.322  13.489 -0.8139  1.4567 -0.6223
  755MPD2     C11205   2.995   0.644  13.226 -0.5924 -0.7181  0.3871
  755MPD2    C111206   2.878   0.593  13.285  0.1289  0.1392 -0.3821
  755MPD2    C211207   2.861   0.457  13.291 -0.5450 -0.6893 -0.6508
  755MPD2    C311208   2.949   0.369  13.233  0.5798 -0.2980  0.1807
  755MPD2    C411209   3.063   0.419  13.171 -0.1619 -0.0671 -0.1611
  755MPD2    C511210   3.081   0.555  13.162 -0.5948  0.4268 -0.0466
  755MPD2     H11211   2.765   0.428  13.333 -0.3508 -0.1277  0.1742
  755MPD2    H111212   3.142   0.354  13.134  0.6072  1.9398 -2.0344
  755MPD2    H211213   3.013   0.751  13.232  0.8462 -0.8887 -0.9061
  755MPD2    H311214   3.175   0.598  13.130 -0.5042 -0.6383 -1.1844
  755MPD2     N11215   2.940   0.230  13.249  0.1686  0.2594 -0.4867
  755MPD2    H511216   3.018   0.171  13.222  1.4909  0.7292  2.2959
  755MPD2    N111217   2.773   0.676  13.334 -0.0728  0.2852  0.4259
  755MPD2    H711218   2.687   0.633  13.364 -0.1832  0.2852  0.1099
  756MPD2     C11219   3.973   0.015   9.742 -0.3994 -0.0425 -0.1333
  756MPD2    C111220   3.886   0.058   9.837  0.0211  0.0258 -0.1127
  756MPD2    C211221   3.765   4.731   9.856  0.3184 -0.3431  0.1902
  756MPD2    C311222   3.725   4.626   9.771 -0.5219 -1.3959 -0.4492
  756MPD2    C411223   3.813   4.588   9.666  0.0240  0.2361 -0.5781
  756MPD2    C511224   3.933   4.658   9.653  0.0200  0.0654 -0.6018
  756MPD2     H11225   3.704   0.027   9.938  0.9001 -1.2482  1.0312
  756MPD2    H111226   3.790   4.506   9.599 -0.5211  1.3706 -1.7899
  756MPD2    H211227   4.077   0.044   9.735 -1.1518  2.8187  0.6983
  756MPD2    H311228   3.996   4.628   9.570 -0.7084 -1.5698 -0.5727
  756MPD2     N11229   3.596   4.567   9.796  0.5508  0.4294 -0.8338
  756MPD2    H511230   3.532   4.607   9.864 -0.4945  0.3664 -1.7820
  756MPD2    N111231   3.917   0.145   9.943  0.2356  0.1312 -0.3000
  756MPD2    H711232   3.847   0.159  10.016  0.3603  2.2746 -0.6095
  757MPD2     C11233   2.929   0.289  10.070 -0.3196 -0.2216 -0.3482
  757MPD2    C111234   2.854   0.183  10.015 -0.9607  0.7639 -0.3298
  757MPD2    C211235   2.924   0.076   9.959  0.7607 -0.0407 -0.6115
  757MPD2    C311236   3.063   0.074   9.963  0.0088 -0.3635  0.3275
  757MPD2    C411237   3.137   0.179  10.020  0.2795 -0.2731  0.4754
  757MPD2    C511238   3.067   0.288  10.063 -0.5650  0.3065  0.1469
  757MPD2     H11239   2.866   4.732   9.923 -0.7372  0.5890  0.3100
  757MPD2    H111240   3.245   0.185  10.022  0.2471  1.3781 -2.0502
  757MPD2    H211241   2.880   0.373  10.118 -3.0042 -1.6273 -0.6388
  757MPD2    H311242   3.117   0.373  10.108  0.7692 -1.0406  1.2205
  757MPD2     N11243   3.145   4.703   9.923  0.1272  0.4985 -0.1621
  757MPD2    H511244   3.245   4.718   9.928  0.5089 -2.2254  0.7106
  757MPD2    N111245   2.716   0.180  10.034  0.0857 -0.5282  0.0316
  757MPD2    H711246   2.675   0.266  10.071  1.8574  0.7913 -1.0429
  758MPD2     C11247   3.559   4.159  15.832  0.5318 -0.1031  0.5345
  758MPD2    C111248   3.632   4.119  15.938 -0.3270  0.1414 -0.7542
  758MPD2    C211249   3.594   4.159  16.067 -0.3776 -0.3038 -0.6083
  758MPD2    C311250   3.498   4.253  16.090 -0.6279 -1.3290 -0.6095
  758MPD2    C411251   3.425   4.302  15.978  0.5751  0.8983 -0.9498
  758MPD2    C511252   3.463   4.255  15.851 -0.1108  0.3431 -0.0362
  758MPD2     H11253   3.644   4.111  16.151  0.6549 -0.0336 -1.0696
  758MPD2    H111254   3.344   4.374  15.980 -1.3307 -1.3203  2.0271
  758MPD2    H211255   3.583   4.130  15.731  0.1152 -0.3970  0.5230
  758MPD2    H311256   3.407   4.295  15.767  0.3349  1.9207  0.4130
  758MPD2     N11257   3.466   4.291  16.224  0.0099 -0.7846  0.0593
  758MPD2    H511258   3.431   4.386  16.230 -0.3353 -0.9781  1.0397
  758MPD2    N111259   3.734   4.032  15.917 -0.3085 -0.3883  0.5180
  758MPD2    H711260   3.740   3.994  15.823  0.5929  1.9699 -0.3770
  759MPD2     C11261   2.428   2.209  10.683 -0.0395  0.2223  0.2246
  759MPD2    C111262   2.404   2.322  10.756 -0.2561 -0.3980  0.1044
  759MPD2    C211263   2.478   2.437  10.729  0.6302 -0.5197  0.1419
  759MPD2    C311264   2.560   2.443  10.620  0.2250  0.5148  0.3564
  759MPD2    C411265   2.575   2.330  10.541 -0.1337 -0.0443 -0.4852
  759MPD2    C511266   2.510   2.216  10.570 -0.4604 -0.0179 -0.4539
  759MPD2     H11267   2.474   2.525  10.792  0.8151 -1.6031  1.6745
  759MPD2    H111268   2.643   2.330  10.456 -1.8985  0.2928 -1.9158
  759MPD2    H211269   2.378   2.114  10.696 -2.2593  1.1659 -1.3969
  759MPD2    H311270   2.533   2.130  10.510  1.2942 -0.6230  1.0842
  759MPD2     N11271   2.632   2.560  10.602  0.5147  0.2145 -0.6568
  759MPD2    H511272   2.617   2.632  10.671  0.1587 -0.3804 -0.1204
  759MPD2    N111273   2.310   2.316  10.861 -0.5065 -0.3618 -0.6029
  759MPD2    H711274   2.264   2.225  10.868  2.4634 -1.9018 -1.0328
  760MPD2     C11275   2.135   4.625  12.277  0.0647  0.1353  0.1224
  760MPD2    C111276   2.237   4.593  12.187 -0.2563 -0.0887  0.4413
  760MPD2    C211277   2.266   4.463  12.154 -0.0141  0.2074  1.1598
  760MPD2    C311278   2.184   4.358  12.200  0.8512 -0.2333 -0.0032
  760MPD2    C411279   2.079   4.391  12.287 -0.2012  0.0998 -0.2604
  760MPD2    C511280   2.059   4.521  12.320 -0.7469 -0.1398 -0.0540
  760MPD2     H11281   2.349   4.432  12.091  2.2293  3.1815  2.6779
  760MPD2    H111282   2.021   4.312  12.334 -1.4666  1.6397  0.7514
  760MPD2    H211283   2.105   4.722  12.314  2.0992  0.3664  1.1556
  760MPD2    H311284   1.981   4.547  12.392 -2.0493  0.6738 -1.7404
  760MPD2     N11285   2.210   4.222  12.173 -0.4575  0.1568 -0.1785
  760MPD2    H511286   2.152   4.150  12.215  1.6269 -1.9393 -0.8842
  760MPD2    N111287   2.314   4.703  12.133  0.0454  0.2596 -0.1641
  760MPD2    H711288   2.376   4.676  12.057  0.9138  1.7708  0.0154
  761MPD2     C11289   3.462   4.206  11.450 -0.1108 -0.1587  0.6865
  761MPD2    C111290   3.528   4.124  11.359 -0.5997 -0.6155 -0.2694
  761MPD2    C211291   3.631   4.169  11.279 -0.1530  0.3208 -0.5864
  761MPD2    C311292   3.679   4.296  11.298 -0.5982  0.2153  0.7196
  761MPD2    C411293   3.617   4.378  11.386 -0.2620 -0.0517 -0.3358
  761MPD2    C511294   3.508   4.328  11.457 -0.0959  0.3208 -0.1006
  761MPD2     H11295   3.679   4.101  11.209  1.0854  1.1535 -0.5598
  761MPD2    H111296   3.650   4.481  11.376 -2.4053  1.0651  4.2130
  761MPD2    H211297   3.369   4.185  11.502 -1.0004  2.2678  0.0880
  761MPD2    H311298   3.448   4.390  11.522 -0.4749 -0.1628  0.0169
  761MPD2     N11299   3.792   4.347  11.229 -0.0365  0.2115  0.2864
  761MPD2    H511300   3.828   4.430  11.276  1.2233 -1.1377  1.6937
  761MPD2    N111301   3.486   3.988  11.365  0.3423  0.9026 -0.3943
  761MPD2    H711302   3.425   3.965  11.443 -0.0385  2.0086 -0.3518
  762MPD2     C11303   3.998   3.562  11.150  0.5790 -0.1661  0.1889
  762MPD2    C111304   3.893   3.480  11.148  0.4590 -0.0061 -0.0957
  762MPD2    C211305   3.898   3.373  11.062  0.4325 -0.1893 -0.2293
  762MPD2    C311306   4.000   3.365  10.972  1.2177 -0.0230  0.5271
  762MPD2    C411307   4.102   3.454  10.972 -0.0972  0.4687 -0.1140
  762MPD2    C511308   4.101   3.554  11.063  0.1299  0.0999  0.6587
  762MPD2     H11309   3.813   3.306  11.052 -0.0216  0.3766 -0.1965
  762MPD2    H111310   4.190   3.447  10.909 -0.2783 -0.4382 -0.2694
  762MPD2    H211311   3.998   3.648  11.216  3.6891 -0.7496  0.9654
  762MPD2    H311312   4.191   3.613  11.075 -0.5074  1.0577  0.7013
  762MPD2     N11313   3.989   3.258  10.880 -0.3179 -0.5618  0.3261
  762MPD2    H511314   3.911   3.196  10.899 -0.2899  0.0897  2.5427
  762MPD2    N111315   3.784   3.524  11.220 -0.3585  0.8937 -0.1283
  762MPD2    H711316   3.797   3.618  11.257  0.7361  0.0394  1.6237
  763MPD2     C11317   0.663   4.136  16.193  0.4246 -0.1183 -0.0103
  763MPD2    C111318   0.535   4.183  16.197 -0.4091 -0.4662  0.1673
  763MPD2    C211319   0.513   4.318  16.237 -0.1075  0.4550 -0.2162
  763MPD2    C311320   0.617   4.404  16.265 -0.5210  0.1199  0.1343
  763MPD2    C411321   0.742   4.356  16.231  0.1628  0.2108  0.0522
  763MPD2    C511322   0.767   4.223  16.195  0.2955 -0.4881 -0.2641
  763MPD2     H11323   0.410   4.350  16.243 -0.5893 -1.1568  0.0592
  763MPD2    H111324   0.830   4.417  16.243  0.7956 -1.0455  1.8907
  763MPD2    H211325   0.690   4.032  16.180  3.5557  0.1595  4.3119
  763MPD2    H311326   0.870   4.192  16.188  0.2225 -1.3652  2.3130
  763MPD2     N11327   0.604   4.542  16.297 -0.0619 -0.3419 -0.5409
  763MPD2    H511328   0.693   4.592  16.292 -0.1103 -0.2210 -0.1953
  763MPD2    N111329   0.431   4.105  16.140  0.5751  0.3715  0.0253
  763MPD2    H711330   0.339   4.144  16.127  0.3762 -0.1177 -0.0246
  764MPD2     C11331   3.235   1.128  17.749 -0.4671 -0.7423 -0.2459
  764MPD2    C111332   3.160   1.038  17.679 -0.0340  0.0813  0.0258
  764MPD2    C211333   3.118   0.924  17.749 -0.0181  0.0309  0.2130
  764MPD2    C311334   3.162   0.903   0.122  0.1250 -0.7778 -0.2534
  764MPD2    C411335   3.227   1.005   0.192 -0.0022  0.2657 -0.1316
  764MPD2    C511336   3.267   1.114   0.122 -0.4715 -0.1346 -0.1617
  764MPD2     H11337   3.072   0.841  17.696  0.8582  0.1530 -0.7381
  764MPD2    H111338   3.248   1.003   0.298  0.2874  1.8795 -0.1518
  764MPD2    H211339   3.287   1.207  17.696 -1.0633  0.2756  0.6554
  764MPD2    H311340   3.312   1.195   0.179 -0.1385  0.9377 -1.9490
  764MPD2     N11341   3.115   0.788   0.190  0.5963  0.0035  0.0212
  764MPD2    H511342   3.052   0.733   0.133  1.8202 -0.9956 -0.3833
  764MPD2    N111343   3.127   1.053  17.537  0.0302 -0.1089 -0.3523
  764MPD2    H711344   3.057   0.986  17.506 -0.9677  1.1168 -0.7514
  765MPD2     C11345   3.588   3.795  16.120  0.6759 -0.8721  0.5182
  765MPD2    C111346   3.599   3.704  16.020  0.1261 -0.3951  0.7082
  765MPD2    C211347   3.679   3.590  16.042 -0.1556 -0.0842  0.0389
  765MPD2    C311348   3.754   3.579  16.158  0.4422 -0.1294 -0.2449
  765MPD2    C411349   3.731   3.670  16.263 -0.3945 -0.3045 -0.5665
  765MPD2    C511350   3.642   3.775  16.245 -0.6078 -0.0426  0.2346
  765MPD2     H11351   3.696   3.513  15.968 -2.2368 -1.8220  1.3517
  765MPD2    H111352   3.790   3.661  16.354 -1.9346  0.4251  0.5074
  765MPD2    H211353   3.523   3.881  16.117  0.1244 -1.2638  1.4471
  765MPD2    H311354   3.613   3.844  16.324  1.2580  0.8566  0.1348
  765MPD2     N11355   3.848   3.472  16.183 -0.6798  0.3313  0.0557
  765MPD2    H511356   3.886   3.461  16.276 -2.0539  0.8124  0.6764
  765MPD2    N111357   3.512   3.720  15.912 -0.0039 -0.2790  0.4396
  765MPD2    H711358   3.457   3.805  15.919  0.1448 -0.1296 -0.2211
  766MPD2     C11359   2.783   3.450  15.419  0.9093 -0.0726  0.6536
  766MPD2    C111360   2.915   3.417  15.417  0.2436  0.4736 -0.6473
  766MPD2    C211361   2.969   3.354  15.304  0.0196  0.5768  0.2251
  766MPD2    C311362   2.886   3.330  15.199  0.0169  1.0452 -0.1853
  766MPD2    C411363   2.749   3.354  15.208 -1.3093 -0.0481  0.3336
  766MPD2    C511364   2.701   3.425  15.320 -0.0987 -0.1580  0.0839
  766MPD2     H11365   3.073   3.327  15.292  0.4646  1.4912  1.9686
  766MPD2    H111366   2.695   3.340  15.115 -2.4245 -0.0153  0.9787
  766MPD2    H211367   2.753   3.498  15.512  0.0412 -0.1663  0.4206
  766MPD2    H311368   2.595   3.446  15.327  0.0114 -0.6693  3.6333
  766MPD2     N11369   2.928   3.285  15.070 -0.4147  0.7434 -0.6048
  766MPD2    H511370   2.863   3.265  14.994  0.0731  0.4226 -0.9394
  766MPD2    N111371   2.993   3.474  15.518 -0.3121  0.5282 -0.9560
  766MPD2    H711372   2.956   3.556  15.565  1.5518  0.2964  0.9366
  767MPD2     C11373   2.508   3.556  15.096  0.6240 -0.2220 -0.0953
  767MPD2    C111374   2.622   3.580  15.012 -0.5133 -0.0252 -0.1218
  767MPD2    C211375   2.637   3.500  14.898  0.0104 -0.0066 -0.2394
  767MPD2    C311376   2.530   3.421  14.851 -0.4110 -0.4566 -0.4850
  767MPD2    C411377   2.412   3.416  14.920 -0.5556  0.0469  0.3352
  767MPD2    C511378   2.409   3.472  15.044 -0.3751  0.6778  0.0228
  767MPD2     H11379   2.721   3.519  14.832  1.1824  0.9310  1.5148
  767MPD2    H111380   2.324   3.361  14.888  0.5350 -0.3093 -1.9984
  767MPD2    H211381   2.492   3.602  15.193 -0.6539 -0.7492 -0.0535
  767MPD2    H311382   2.317   3.471  15.101  0.2963  1.8440  1.1289
  767MPD2     N11383   2.545   3.373  14.719  0.4010  0.5678  0.3921
  767MPD2    H511384   2.641   3.367  14.685  0.8482 -0.8433  1.9000
  767MPD2    N111385   2.724   3.671  15.057  0.2711  0.3483  0.0068
  767MPD2    H711386   2.696   3.730  15.135  1.2940 -0.9819  1.3697
  768MPD2     C11387   3.258   1.774  11.287  0.4423 -0.2360  0.1933
  768MPD2    C111388   3.176   1.770  11.402 -0.1105 -0.5641  0.5790
  768MPD2    C211389   3.230   1.729  11.520  0.1587  0.5659  0.7841
  768MPD2    C311390   3.361   1.703  11.532  1.3243 -0.3041  0.3407
  768MPD2    C411391   3.438   1.699  11.415  0.0116  0.3976 -0.3687
  768MPD2    C511392   3.387   1.729  11.295 -0.1367 -0.3888  0.4301
  768MPD2     H11393   3.168   1.729  11.609 -3.1583 -0.9622 -1.5183
  768MPD2    H111394   3.540   1.661  11.414 -0.7398 -1.5952  0.1424
  768MPD2    H211395   3.223   1.809  11.190  1.2557 -1.5589 -0.5775
  768MPD2    H311396   3.450   1.729  11.206 -1.5502 -0.8307 -0.5664
  768MPD2     N11397   3.428   1.696  11.651 -0.5026 -0.1749 -0.5570
  768MPD2    H511398   3.528   1.708  11.635 -0.4697 -0.4520 -0.5510
  768MPD2    N111399   3.047   1.809  11.401 -0.1186  0.3600  0.1653
  768MPD2    H711400   3.003   1.806  11.493 -0.3344  1.6254  0.0982
  769MPD2     C11401   0.040   0.108  14.800 -0.2638 -0.2613  0.4720
  769MPD2    C111402   4.658   0.107  14.864  0.3537  0.1391  0.8934
  769MPD2    C211403   4.647   0.173  14.979 -0.0973  0.2897 -0.3944
  769MPD2    C311404   0.003   0.256  15.021  0.6351  0.0009  0.2561
  769MPD2    C411405   0.124   0.271  14.952 -0.0161 -0.0172 -1.0215
  769MPD2    C511406   0.138   0.194  14.839  0.2264 -0.3722  0.1179
  769MPD2     H11407   4.553   0.169  15.032  0.2472 -2.9083 -0.0034
  769MPD2    H111408   0.203   0.331  14.995 -0.4452 -0.7113  0.7101
  769MPD2    H211409   0.063   0.048  14.712  1.6827  0.3512  0.5544
  769MPD2    H311410   0.231   0.205  14.785 -0.4145  1.2080 -0.6931
  769MPD2     N11411   4.714   0.329  15.139 -0.1420  0.0860 -0.3580
  769MPD2    H511412   4.624   0.303  15.179  1.3159 -2.5663  1.1709
  769MPD2    N111413   4.545   0.045  14.806  0.1838  0.3307 -0.0831
  769MPD2    H711414   4.566   4.736  14.720 -3.7370 -0.2448 -0.7380
  770MPD2     C11415   3.688   4.475  14.763 -0.8163 -0.4943  0.1858
  770MPD2    C111416   3.800   4.509  14.823 -0.8568  0.2821 -0.1592
  770MPD2    C211417   3.863   4.626  14.782 -0.4318 -0.0764  0.2768
  770MPD2    C311418   3.812   4.693  14.675 -0.9212  1.1306  0.5328
  770MPD2    C411419   3.689   4.658  14.622 -0.8040 -0.3654  0.6741
  770MPD2    C511420   3.633   4.542  14.660  0.2768 -0.3730  0.9177
  770MPD2     H11421   3.958   4.664  14.817 -0.4298  1.1911 -1.1062
  770MPD2    H111422   3.654   4.721  14.541  0.8772  1.8528  1.6655
  770MPD2    H211423   3.632   4.398  14.817  0.2272 -2.4354 -1.4890
  770MPD2    H311424   3.547   4.493  14.616  0.2273 -0.3378  0.9747
  770MPD2     N11425   3.871   0.064  14.617 -0.0144 -0.1814  0.0865
  770MPD2    H511426   3.806   0.116  14.558 -0.4680  0.0285  0.7803
  770MPD2    N111427   3.847   4.427  14.922  0.6145  0.4035  0.1466
  770MPD2    H711428   3.803   4.337  14.939 -1.4291  1.4535  0.3878
  771MPD2     C11429   0.433   2.973  13.610 -0.2439 -0.1680 -0.7091
  771MPD2    C111430   0.369   3.085  13.558  0.0300  0.2343 -0.0014
  771MPD2    C211431   0.259   3.079  13.477  0.0776 -0.0981  0.4463
  771MPD2    C311432   0.222   2.955  13.437  0.5853 -0.0016 -1.0325
  771MPD2    C411433   0.287   2.842  13.487  0.4463  0.2610 -0.5131
  771MPD2    C511434   0.400   2.847  13.564 -0.7775 -0.6991  0.1941
  771MPD2     H11435   0.223   3.171  13.432 -0.0905  0.7744  2.3670
  771MPD2    H111436   0.252   2.746  13.452 -0.3138 -0.0525  1.0950
  771MPD2    H211437   0.527   2.978  13.664 -0.3140 -0.4922 -0.5537
  771MPD2    H311438   0.459   2.759  13.585  2.6816  1.9470  1.6851
  771MPD2     N11439   0.121   2.941  13.337  0.2610  0.0440  0.8294
  771MPD2    H511440   0.084   3.024  13.292  0.0223  0.6833  2.2110
  771MPD2    N111441   0.425   3.211  13.579 -0.1149  0.3606  0.2415
  771MPD2    H711442   0.383   3.293  13.537  0.9242  0.5940 -0.3369
  772MPD2     C11443   0.103   3.809  13.633  0.3803 -0.3662  0.2659
  772MPD2    C111444   0.108   3.676  13.668  0.5534 -0.7247  0.0605
  772MPD2    C211445   4.729   3.605  13.666  0.2921 -0.6061 -0.3623
  772MPD2    C311446   4.609   3.672  13.666 -0.5342 -0.0749  0.3230
  772MPD2    C411447   4.607   3.803  13.644 -0.5162  0.0037  1.0240
  772MPD2    C511448   4.725   3.873  13.633  0.0421  0.1405  0.3348
  772MPD2     H11449   4.736   3.498  13.678 -0.4117 -0.5702  0.3519
  772MPD2    H111450   4.514   3.858  13.652 -1.4413 -1.4955  0.5792
  772MPD2    H211451   0.185   3.878  13.612 -1.0669  1.8370  1.9769
  772MPD2    H311452   4.728   3.978  13.606  2.6342 -0.0663 -0.1239
  772MPD2     N11453   4.481   3.615  13.689 -0.0938  0.6818  0.1229
  772MPD2    H511454   4.399   3.668  13.661 -0.2340  0.1377 -0.4982
  772MPD2    N111455   0.226   3.614  13.689  0.4269 -0.1162  0.8523
  772MPD2    H711456   0.219   3.513  13.686  1.0477 -0.1565  0.7049
  773MPD2     C11457   4.143   4.064   0.412  0.0883 -0.0366  0.0400
  773MPD2    C111458   4.173   4.009   0.287  0.0719  0.1830  0.3697
  773MPD2    C211459   4.236   3.895   0.286 -0.2874  0.0974  0.3959
  773MPD2    C311460   4.287   3.831   0.400 -0.6911 -0.0028  0.3871
  773MPD2    C411461   4.264   3.895   0.523 -0.8807  0.2580  0.0922
  773MPD2    C511462   4.191   4.007   0.524 -0.1302  0.2150  0.0663
  773MPD2     H11463   4.250   3.842   0.193  0.3424  1.0432 -0.0417
  773MPD2    H111464   4.311   3.857   0.612 -0.1144 -0.0114 -0.4264
  773MPD2    H211465   4.083   4.154   0.421  0.4463  0.2473 -0.4107
  773MPD2    H311466   4.166   4.048   0.621  3.8450 -0.0474  1.2168
  773MPD2     N11467   4.369   3.712   0.377 -0.3966 -0.0103  0.2073
  773MPD2    H511468   4.365   3.677   0.282  0.2051  1.9524 -0.5394
  773MPD2    N111469   4.132   4.072   0.164 -0.0811 -0.2442 -0.2978
  773MPD2    H711470   4.162   4.031   0.076  0.1872  0.3215 -0.4702
  774MPD2     C11471   3.526   3.459  13.990 -0.2424 -0.2518 -0.3184
  774MPD2    C111472   3.445   3.535  13.910 -0.3054 -0.3807  0.5064
  774MPD2    C211473   3.498   3.644  13.852 -0.3960 -0.4150 -0.5006
  774MPD2    C311474   3.627   3.692  13.874 -0.1263 -0.5065  0.2396
  774MPD2    C411475   3.710   3.618  13.954  0.3899 -0.0359  1.2228
  774MPD2    C511476   3.648   3.510  14.018 -0.2872  0.1005 -0.0833
  774MPD2     H11477   3.434   3.708  13.792 -0.5451  0.6599  0.8145
  774MPD2    H111478   3.811   3.646  13.983 -0.4243  0.6093  3.4370
  774MPD2    H211479   3.508   3.360  14.028  0.6632 -0.7547 -1.1892
  774MPD2    H311480   3.720   3.455  14.078  1.9237  1.0530 -1.8685
  774MPD2     N11481   3.674   3.812  13.807  0.2044 -0.0010 -0.2259
  774MPD2    H511482   3.613   3.847  13.734 -1.0443  0.1618  0.9099
  774MPD2    N111483   3.315   3.482  13.888 -0.0810 -0.2297  0.1219
  774MPD2    H711484   3.294   3.389  13.925  0.6316 -0.5290 -0.2383
  775MPD2     C11485   0.100   0.250  15.592  0.3065  0.0077 -0.0861
  775MPD2    C111486   0.024   0.353  15.644  0.0546 -0.4522  0.1161
  775MPD2    C211487   0.065   0.485  15.615  0.0024  0.3353 -0.6040
  775MPD2    C311488   0.174   0.503  15.528  0.0007  0.0255  0.1438
  775MPD2    C411489   0.246   0.395  15.471 -0.0140 -0.0845  0.6686
  775MPD2    C511490   0.207   0.273  15.515  0.2654 -0.3312 -0.5171
  775MPD2     H11491   0.004   0.570  15.644 -1.7380 -2.4320  3.7641
  775MPD2    H111492   0.337   0.413  15.415  0.1352 -0.6122  0.7475
  775MPD2    H211493   0.078   0.145  15.610 -1.7152  0.6074  0.9359
  775MPD2    H311494   0.262   0.190  15.471 -0.0049  0.0004 -1.4751
  775MPD2     N11495   0.230   0.633  15.491  0.1491 -0.3103 -0.0763
  775MPD2    H511496   0.302   0.628  15.420  1.2444 -2.3956  1.1733
  775MPD2    N111497   4.652   0.327  15.726  0.6566 -0.0105  0.1055
  775MPD2    H711498   4.636   0.227  15.725  2.8503 -0.3518 -2.8768
  776MPD2     C11499   3.781   0.830  11.698 -0.4133 -0.7784 -0.5640
  776MPD2    C111500   3.892   0.763  11.665 -0.3180 -0.0143  0.0628
  776MPD2    C211501   3.980   0.834  11.586 -0.1812  0.5752  0.3203
  776MPD2    C311502   3.969   0.966  11.554  0.2921 -0.0164 -0.0690
  776MPD2    C411503   3.849   1.031  11.579  0.2716  0.0265  0.4458
  776MPD2    C511504   3.752   0.957  11.645  0.1026 -0.5234  0.2998
  776MPD2     H11505   4.072   0.783  11.563  0.2457 -0.1413  3.6097
  776MPD2    H111506   3.834   1.134  11.548 -0.7848  0.0045  0.8863
  776MPD2    H211507   3.702   0.784  11.756 -0.6729 -1.0888 -1.1693
  776MPD2    H311508   3.655   0.997  11.673 -0.3173 -0.1011 -1.8126
  776MPD2     N11509   4.067   1.041  11.479  0.3434  0.0676 -0.3139
  776MPD2    H511510   4.023   1.127  11.447 -1.4121 -1.2679 -1.4949
  776MPD2    N111511   3.909   0.634  11.703 -0.0080  0.5292  0.0438
  776MPD2    H711512   3.821   0.592  11.731 -1.1621  1.5706 -2.0166
  777MPD2     C11513   4.473   2.756   1.068  0.0194 -0.6381  0.7555
  777MPD2    C111514   4.342   2.793   1.032 -0.5878  0.1664 -0.5853
  777MPD2    C211515   4.265   2.690   0.987 -0.1041  0.3917  0.0817
  777MPD2    C311516   4.309   2.563   0.965  0.7053  0.4083 -0.3594
  777MPD2    C411517   4.442   2.530   0.996  0.2432  0.4635 -0.1928
  777MPD2    C511518   4.518   2.627   1.049 -0.0789 -0.9111  0.3521
  777MPD2     H11519   4.164   2.712   0.954 -0.3932  1.0847  1.4148
  777MPD2    H111520   4.482   2.430   0.980  0.8294  0.4908  1.1947
  777MPD2    H211521   4.531   2.833   1.117  1.3958 -0.1711 -1.5808
  777MPD2    H311522   4.622   2.607   1.070 -0.4968 -1.1709  2.1819
  777MPD2     N11523   4.219   2.472   0.900 -0.2845 -0.1183  0.1444
  777MPD2    H511524   4.121   2.498   0.895 -0.4684 -1.1103 -1.2803
  777MPD2    N111525   4.297   2.927   1.067 -0.4861 -0.5961 -0.5622
  777MPD2    H711526   4.358   2.996   1.109 -1.0957 -1.0625  1.0668
  778MPD2     C11527   0.634   3.356  14.889  0.0535  0.0683  0.1522
  778MPD2    C111528   0.713   3.255  14.840  0.9929 -0.8554 -0.0438
  778MPD2    C211529   0.767   3.275  14.717  0.8507  0.2484 -0.6983
  778MPD2    C311530   0.740   3.381  14.644  0.3538  0.3477  0.4888
  778MPD2    C411531   0.670   3.489  14.700  0.3391  0.6328  0.6073
  778MPD2    C511532   0.617   3.473  14.822 -0.4026 -0.1245  0.0068
  778MPD2     H11533   0.818   3.193  14.668 -0.8952 -1.3523  0.1719
  778MPD2    H111534   0.664   3.586  14.652 -1.7551 -0.1210 -0.6670
  778MPD2    H211535   0.587   3.360  14.986 -0.0999  2.2781  0.0030
  778MPD2    H311536   0.545   3.542  14.865  1.1632  0.0756  2.3203
  778MPD2     N11537   0.796   3.388  14.515 -0.3249 -0.1826 -0.6751
  778MPD2    H511538   0.866   3.319  14.491  2.2265  2.3354 -0.4470
  778MPD2    N111539   0.716   3.126  14.894 -0.4218 -0.3291  0.2137
  778MPD2    H711540   0.757   3.054  14.835 -1.1518 -1.1797  0.7572
  779MPD2     C11541   0.444   1.828  13.938 -0.5223  0.3605 -0.1851
  779MPD2    C111542   0.433   1.894  14.057 -0.8917 -0.8245 -0.4554
  779MPD2    C211543   0.469   2.028  14.061 -0.4536 -0.1706 -0.7338
  779MPD2    C311544   0.508   2.105  13.951 -0.6382  0.7171 -0.5834
  779MPD2    C411545   0.518   2.032  13.833  0.0625 -0.5342  0.4827
  779MPD2    C511546   0.483   1.899  13.828  0.0904  0.4828 -0.5245
  779MPD2     H11547   0.447   2.081  14.153 -0.0661 -1.6285  0.2091
  779MPD2    H111548   0.558   2.076  13.742 -2.2339  0.6098  0.0338
  779MPD2    H211549   0.424   1.722  13.927 -0.2812  0.5254 -2.1583
  779MPD2    H311550   0.495   1.841  13.737 -1.3390  1.4426 -1.3214
  779MPD2     N11551   0.535   2.242  13.961 -0.2805  0.2288 -0.4463
  779MPD2    H511552   0.501   2.285  14.046 -2.3931 -0.6502 -0.8404
  779MPD2    N111553   0.396   1.828  14.173 -0.3065 -0.0517  0.1276
  779MPD2    H711554   0.397   1.873  14.264 -1.8317 -2.9059  1.5501
  780MPD2     C11555   4.719   1.924   1.187  1.0513 -0.6024 -0.8218
  780MPD2    C111556   4.680   1.863   1.068 -0.3492  0.4191  0.1409
  780MPD2    C211557   0.023   1.859   0.961  0.1674 -0.1855 -0.4518
  780MPD2    C311558   0.136   1.935   0.959 -0.1938 -0.8038 -0.1360
  780MPD2    C411559   0.168   2.013   1.065 -0.0837 -0.5235 -0.0696
  780MPD2    C511560   0.087   2.004   1.184  0.1138  0.0684  0.9119
  780MPD2     H11561   4.736   1.798   0.876  1.5969 -1.3158 -0.0768
  780MPD2    H111562   0.242   2.092   1.058 -0.1106 -0.7348 -2.7929
  780MPD2    H211563   4.671   1.916   1.283  0.2877 -0.4025 -1.1800
  780MPD2    H311564   0.107   2.055   1.278 -1.5418  1.3980  0.5353
  780MPD2     N11565   0.200   1.935   0.839  0.4549 -0.0119 -0.2206
  780MPD2    H511566   0.144   1.902   0.761  0.3974  1.7722 -0.9464
  780MPD2    N111567   4.564   1.782   1.061 -0.0784 -0.0818 -0.1010
  780MPD2    H711568   4.537   1.736   0.974  0.7724 -2.1074  0.7203
  781MPD2     C11569   1.734   3.306  12.065 -0.8408 -0.6438  0.4865
  781MPD2    C111570   1.800   3.429  12.081 -0.5438 -0.0757 -0.3035
  781MPD2    C211571   1.925   3.440  12.031  0.0586 -0.0582  0.0086
  781MPD2    C311572   1.988   3.344  11.958  0.3682 -0.3455  0.0343
  781MPD2    C411573   1.923   3.228  11.933 -0.2510 -0.5858  0.0396
  781MPD2    C511574   1.793   3.212  11.990  0.3105  0.0636 -0.1272
  781MPD2     H11575   1.973   3.536  12.046  2.2594 -1.3396  1.1464
  781MPD2    H111576   1.953   3.156  11.857 -0.5240 -1.2005  0.5098
  781MPD2    H211577   1.635   3.292  12.105 -0.7745  0.7571  1.1404
  781MPD2    H311578   1.739   3.119  11.978  2.4510 -1.1385 -0.4931
  781MPD2     N11579   2.124   3.356  11.911  0.3461  0.0133 -0.3752
  781MPD2    H511580   2.146   3.280  11.847  2.4200  0.6800 -0.4391
  781MPD2    N111581   1.742   3.541  12.144 -0.5920 -0.3354  0.4537
  781MPD2    H711582   1.811   3.612  12.167  1.2277 -3.0427  3.4424
  782MPD2     C11583   0.253   4.013   9.941  0.3389 -0.3981 -0.0422
  782MPD2    C111584   0.230   3.989  10.076  0.1908  0.0042  0.5727
  782MPD2    C211585   0.304   4.046  10.173 -0.5561 -0.4307  0.2831
  782MPD2    C311586   0.419   4.120  10.134 -0.1224  0.2700  0.4002
  782MPD2    C411587   0.443   4.129   9.993  0.6606 -0.1928 -0.0646
  782MPD2    C511588   0.358   4.081   9.899 -0.1628  0.6867 -0.4368
  782MPD2     H11589   0.273   4.044  10.277  0.4131  1.1272  0.6004
  782MPD2    H111590   0.520   4.181   9.938 -1.2680  1.7135 -0.9645
  782MPD2    H211591   0.174   3.990   9.871 -0.3311 -0.4262  0.7302
  782MPD2    H311592   0.359   4.108   9.794 -1.8805  1.6985 -0.1946
  782MPD2     N11593   0.489   4.192  10.235  0.4926  0.3875  0.0379
  782MPD2    H511594   0.452   4.174  10.328 -2.5744 -0.1184 -1.2722
  782MPD2    N111595   0.123   3.918  10.131 -0.0280  0.7139  0.0139
  782MPD2    H711596   0.124   3.899  10.231 -1.2877  1.7296  0.2239
  783MPD2     C11597   4.045   4.031  10.630 -0.0795  0.6942 -0.1381
  783MPD2    C111598   4.159   4.098  10.660 -0.8234 -0.1094  0.2624
  783MPD2    C211599   4.277   4.075  10.590 -0.7110  0.7903 -0.8669
  783MPD2    C311600   4.277   3.986  10.481 -0.7259  0.2267 -0.1721
  783MPD2    C411601   4.162   3.914  10.457 -0.8844 -0.4275  0.3312
  783MPD2    C511602   4.045   3.931  10.534 -0.0058  0.5153  0.5107
  783MPD2     H11603   4.362   4.135  10.621  1.2315 -1.6407 -1.5076
  783MPD2    H111604   4.152   3.844  10.374 -1.5498 -1.1862  1.0558
  783MPD2    H211605   3.950   4.043  10.681 -0.9563 -1.9547 -1.1470
  783MPD2    H311606   3.953   3.875  10.520  0.8445 -0.9479  0.8012
  783MPD2     N11607   4.395   3.954  10.420 -0.3941  0.4282 -0.5350
  783MPD2    H511608   4.478   4.000  10.456 -1.2849  0.1256  1.8911
  783MPD2    N111609   4.139   4.186  10.772 -0.1748 -0.7097  0.0479
  783MPD2    H711610   4.056   4.164  10.826 -0.1703 -1.2659 -0.1775
  784MPD2     C11611   2.315   4.634   0.499 -0.0952  0.1483  0.4906
  784MPD2    C111612   2.328   0.016   0.563 -0.9054 -0.1089 -0.0654
  784MPD2    C211613   2.217   0.100   0.580  0.7299 -0.3395 -0.1700
  784MPD2    C311614   2.095   0.067   0.533  0.8064 -0.0850 -0.2451
  784MPD2    C411615   2.084   4.686   0.467  0.0031  0.7389  0.0602
  784MPD2    C511616   2.195   4.610   0.437 -0.2642  0.3333 -0.8583
  784MPD2     H11617   2.224   0.198   0.625  3.8104 -0.4922 -0.3263
  784MPD2    H111618   1.993   4.651   0.420  1.2086 -1.5700 -0.5094
  784MPD2    H211619   2.404   4.577   0.474 -1.3139 -0.4573 -2.4023
  784MPD2    H311620   2.184   4.526   0.371  1.5287 -0.3441 -0.2982
  784MPD2     N11621   1.984   0.153   0.559  0.1466 -0.5086 -0.3158
  784MPD2    H511622   2.002   0.243   0.602  2.0023 -1.4704  0.8940
  784MPD2    N111623   2.453   0.056   0.623  0.4396  0.1057 -0.4515
  784MPD2    H711624   2.440   0.147   0.666  2.5775 -0.0628  0.5292
  785MPD2     C11625   2.418   3.283   9.857  0.1034 -0.0841  1.1203
  785MPD2    C111626   2.498   3.238   9.957 -0.5649  0.0028  0.3705
  785MPD2    C211627   2.460   3.137  10.043  0.0293 -0.4983  0.3578
  785MPD2    C311628   2.321   3.112  10.039  0.4845  0.0460  0.1191
  785MPD2    C411629   2.231   3.163   9.947  1.2278 -0.2091 -0.1007
  785MPD2    C511630   2.287   3.248   9.849 -1.0878  0.1687  0.5169
  785MPD2     H11631   2.523   3.091  10.118  1.9608 -1.7085 -2.0203
  785MPD2    H111632   2.130   3.125   9.935  1.1344 -0.5986  1.9490
  785MPD2    H211633   2.462   3.344   9.779 -2.9137  0.2124 -0.3473
  785MPD2    H311634   2.237   3.278   9.758  1.2153  1.0003 -0.4914
  785MPD2     N11635   2.285   3.016  10.136 -0.1205  0.1226 -0.4022
  785MPD2    H511636   2.357   2.997  10.205  0.7166 -0.7123 -1.5026
  785MPD2    N111637   2.630   3.289   9.969 -0.3396 -0.4065  0.8478
  785MPD2    H711638   2.657   3.357   9.899 -0.8988  0.5909  1.6014
  786MPD2     C11639   1.404   1.403  15.078 -0.0538 -0.0138  0.8420
  786MPD2    C111640   1.483   1.295  15.080  0.0188  0.6743 -0.0405
  786MPD2    C211641   1.577   1.282  15.179  0.0700 -0.3320 -0.3305
  786MPD2    C311642   1.591   1.380  15.277 -0.7180  0.1834  0.2747
  786MPD2    C411643   1.512   1.492  15.279 -0.4225 -0.4765  0.0899
  786MPD2    C511644   1.412   1.491  15.182  0.2539  0.6790 -0.0415
  786MPD2     H11645   1.640   1.194  15.179 -0.3784 -0.6589  2.9763
  786MPD2    H111646   1.503   1.575  15.348  0.5107 -1.1458  1.0212
  786MPD2    H211647   1.327   1.426  15.005 -1.4654 -1.9304  1.7298
  786MPD2    H311648   1.344   1.573  15.205 -1.4135 -0.5703 -0.5370
  786MPD2     N11649   1.691   1.378  15.379  0.0775 -0.3395  0.4077
  786MPD2    H511650   1.692   1.462  15.436 -0.1934  1.2396 -1.9186
  786MPD2    N111651   1.467   1.192  14.979 -0.1810  0.3624 -0.6372
  786MPD2    H711652   1.527   1.110  14.981  0.2700  0.6837 -1.0599
  787MPD2     C11653   1.595   0.613  15.143  0.3207  0.1205 -0.1144
  787MPD2    C111654   1.563   0.597  15.013 -0.1983 -0.6654 -0.2905
  787MPD2    C211655   1.594   0.476  14.946 -0.2233  0.2645  0.4723
  787MPD2    C311656   1.642   0.372  15.018 -0.1561 -0.3006  0.0290
  787MPD2    C411657   1.652   0.384  15.158  0.4838  0.0800  0.3834
  787MPD2    C511658   1.639   0.508  15.213  0.0075 -0.5799 -1.0886
  787MPD2     H11659   1.570   0.459  14.842 -1.7340 -0.4423  0.9454
  787MPD2    H111660   1.682   0.301  15.220 -0.1127  0.5157  1.2570
  787MPD2    H211661   1.582   0.705  15.198  2.0864 -0.1658  0.8164
  787MPD2    H311662   1.654   0.518  15.320 -1.0866 -1.3210 -0.8594
  787MPD2     N11663   1.658   0.248  14.960  0.5192 -0.1202  0.3261
  787MPD2    H511664   1.666   0.248  14.859  0.3202  0.9009  0.3142
  787MPD2    N111665   1.502   0.711  14.951  0.1660 -0.4131  0.5188
  787MPD2    H711666   1.492   0.792  15.011  2.1456 -0.6849  1.2121
  788MPD2     C11667   3.021   4.595   1.024 -0.1091  0.3339 -0.0040
  788MPD2    C111668   3.040   4.501   0.923 -0.2558  0.1754 -0.4645
  788MPD2    C211669   3.061   4.556   0.795  0.1152 -0.1485  0.2652
  788MPD2    C311670   3.071   4.691   0.778  0.6306  0.2477 -0.5687
  788MPD2    C411671   3.075   0.037   0.884  0.1747  0.3312  0.0948
  788MPD2    C511672   3.041   4.730   1.005  0.0892  1.2045  0.2393
  788MPD2     H11673   3.053   4.487   0.711 -0.4927 -2.1610  1.9776
  788MPD2    H111674   3.064   0.143   0.861 -1.0670 -0.4364 -2.7754
  788MPD2    H211675   2.988   4.575   1.125  3.1230  0.5978  1.1068
  788MPD2    H311676   3.021   0.058   1.086 -0.2289  0.6915  0.5908
  788MPD2     N11677   3.057   0.013   0.648  0.0961 -0.3376 -0.0070
  788MPD2    H511678   3.035   0.112   0.636 -0.5162 -0.4798 -0.0415
  788MPD2    N111679   3.036   4.359   0.937 -0.6629  0.6262 -0.1260
  788MPD2    H711680   3.037   4.306   0.851  0.6991 -2.5236  1.8668
  789MPD2     C11681   3.108   4.289  16.229 -0.0724 -0.0131 -0.4213
  789MPD2    C111682   3.102   4.235  16.360  0.1630 -0.3060  0.3685
  789MPD2    C211683   3.061   4.314  16.463 -0.4503 -0.4279 -0.1145
  789MPD2    C311684   3.023   4.446  16.448  1.0200 -0.5790  1.0229
  789MPD2    C411685   3.028   4.492  16.318  0.9385 -0.3084 -1.2720
  789MPD2    C511686   3.070   4.420  16.213  0.0814 -0.9500 -0.2958
  789MPD2     H11687   3.057   4.271  16.563  2.4519 -2.2236 -0.7744
  789MPD2    H111688   3.007   4.596  16.296 -0.7660 -0.4082 -0.1770
  789MPD2    H211689   3.155   4.245  16.143  2.6018 -2.8929  2.5077
  789MPD2    H311690   3.088   4.470  16.119 -0.1730 -0.8372 -0.2843
  789MPD2     N11691   2.966   4.524  16.551 -0.2223  0.1246 -0.1722
  789MPD2    H511692   2.946   4.621  16.526  0.5989  0.0503 -1.1398
  789MPD2    N111693   3.159   4.113  16.387  0.9976 -0.3049  0.1039
  789MPD2    H711694   3.174   4.103  16.487  1.1643 -0.1859  0.0918
  790MPD2     C11695   4.256   1.378  12.971  0.1854  0.6346  0.8653
  790MPD2    C111696   4.251   1.271  13.052 -0.2250 -0.6889  0.8990
  790MPD2    C211697   4.177   1.163  13.012  0.0650 -0.0786  0.2808
  790MPD2    C311698   4.117   1.166  12.884  0.7226 -0.6218  0.5095
  790MPD2    C411699   4.145   1.266  12.793  1.0289  0.2981 -0.0739
  790MPD2    C511700   4.201   1.378  12.849  0.2871 -0.4012  0.2318
  790MPD2     H11701   4.167   1.070  13.067  0.3649 -0.8065 -0.8983
  790MPD2    H111702   4.107   1.267  12.692 -0.2043  1.8793  0.4075
  790MPD2    H211703   4.323   1.459  12.998 -0.3122  0.6561  2.0138
  790MPD2    H311704   4.213   1.468  12.790  0.3446 -1.5361 -1.4853
  790MPD2     N11705   4.047   1.049  12.847 -0.6641 -0.0642  0.8620
  790MPD2    H511706   4.038   0.975  12.916 -0.3830  0.6158  1.6334
  790MPD2    N111707   4.322   1.276  13.176  0.1534 -0.3140  1.0885
  790MPD2    H711708   4.354   1.368  13.204  0.0067 -0.0959  0.5537
  791MPD2     C11709   3.509   0.406  12.941 -0.3778 -0.1008  0.2638
  791MPD2    C111710   3.529   0.475  12.826  0.3955 -0.0718  0.2769
  791MPD2    C211711   3.428   0.487  12.737  0.8644 -0.0285  0.1319
  791MPD2    C311712   3.310   0.421  12.762  0.2797 -1.0040  0.1031
  791MPD2    C411713   3.299   0.342  12.873  0.0363 -0.4203 -0.1627
  791MPD2    C511714   3.400   0.332  12.964 -0.7026  0.2672 -0.1204
  791MPD2     H11715   3.440   0.545  12.647 -3.3944  1.7444  0.6899
  791MPD2    H111716   3.207   0.289  12.897 -0.4752  1.5545  2.3175
  791MPD2    H211717   3.589   0.402  13.015  0.4644  0.1009 -0.6332
  791MPD2    H311718   3.388   0.274  13.054  0.6377  0.9530  0.4921
  791MPD2     N11719   3.214   0.435  12.659 -0.3017  0.3993  0.0128
  791MPD2    H511720   3.231   0.500  12.583 -0.3258 -0.1093 -0.4273
  791MPD2    N111721   3.660   0.536  12.808 -0.6372 -0.0241 -0.0871
  791MPD2    H711722   3.734   0.518  12.875  0.7794  1.0043 -1.3515
  792MPD2     C11723   4.437   0.623  11.251  0.6591  0.3081 -0.0269
  792MPD2    C111724   4.356   0.642  11.137 -0.4259  0.0792  0.2328
  792MPD2    C211725   4.217   0.660  11.155 -0.3493  0.9476 -0.6501
  792MPD2    C311726   4.161   0.642  11.283  0.2378  0.0691  0.4899
  792MPD2    C411727   4.238   0.610  11.394 -0.2165  0.4718 -0.0245
  792MPD2    C511728   4.373   0.608  11.373  0.2373 -0.1488  0.3393
  792MPD2     H11729   4.158   0.678  11.066 -0.8257 -2.0944 -0.9758
  792MPD2    H111730   4.190   0.604  11.490 -0.0658  0.1517  0.0319
  792MPD2    H211731   4.545   0.617  11.254  0.4998 -1.4707  1.6335
  792MPD2    H311732   4.431   0.597  11.463  2.1689  0.9399 -0.7761
  792MPD2     N11733   4.024   0.663  11.305  0.8366 -0.3558  0.4276
  792MPD2    H511734   3.985   0.587  11.360  1.4594 -0.2120  1.0644
  792MPD2    N111735   4.426   0.654  11.010 -0.1312 -0.0438  0.2013
  792MPD2    H711736   4.525   0.633  10.999  0.2912  1.5689  1.0161
  793MPD2     C11737   3.573   0.449  10.509  0.4527  0.7942  0.8098
  793MPD2    C111738   3.702   0.495  10.539 -0.0925 -0.7186  0.3810
  793MPD2    C211739   3.719   0.552  10.662  0.4399 -0.1516 -0.3629
  793MPD2    C311740   3.615   0.579  10.746  0.6019 -0.3746  0.3818
  793MPD2    C411741   3.483   0.542  10.711  0.4490 -0.8745 -0.6671
  793MPD2    C511742   3.466   0.471  10.597  1.1068  0.5657  0.0868
  793MPD2     H11743   3.815   0.591  10.693 -0.4631  1.2780  0.6256
  793MPD2    H111744   3.397   0.550  10.776  1.7878  0.8145  0.9029
  793MPD2    H211745   3.558   0.388  10.421 -1.6993  0.8021  1.1575
  793MPD2    H311746   3.369   0.430  10.571  0.4637  1.4431  1.0971
  793MPD2     N11747   3.645   0.639  10.873  0.1174  0.0817  0.2763
  793MPD2    H511748   3.743   0.653  10.895 -0.3192  0.4735  1.9702
  793MPD2    N111749   3.816   0.467  10.464  0.1356 -0.1270  0.3588
  793MPD2    H711750   3.911   0.488  10.494 -0.2192  2.0459 -0.0518
  794MPD2     C11751   3.623   4.713  17.603 -0.8712 -0.6488 -0.0468
  794MPD2    C111752   3.691   4.650  17.498 -0.6909 -0.1588  0.3600
  794MPD2    C211753   3.652   4.702  17.376  0.4157  0.2722  0.4026
  794MPD2    C311754   3.577   0.074  17.357 -0.3068  0.3394 -0.2896
  794MPD2    C411755   3.534   0.144  17.466  0.1834 -0.0465 -0.0042
  794MPD2    C511756   3.542   0.085  17.588  0.6664  0.7207  0.6714
  794MPD2     H11757   3.670   4.640  17.289  1.2449  3.7987 -1.9677
  794MPD2    H111758   3.450   0.212  17.457  0.0661 -0.2282 -0.2927
  794MPD2    H211759   3.635   4.676  17.704  1.6924 -0.2950 -0.2193
  794MPD2    H311760   3.486   0.133  17.667  1.8096  1.3236  1.1223
  794MPD2     N11761   3.537   0.135  17.238  0.2808 -0.0110  0.0033
  794MPD2    H511762   3.465   0.207  17.236 -0.1357 -0.4491 -1.0147
  794MPD2    N111763   3.767   4.539  17.522 -0.8637  0.2438 -0.4317
  794MPD2    H711764   3.798   4.492  17.437 -2.0052 -0.4546 -0.4677
  795MPD2     C11765   1.699   2.012  13.828  0.2150 -0.3616 -0.2344
  795MPD2    C111766   1.682   1.921  13.728  0.0827 -0.2242 -0.2276
  795MPD2    C211767   1.774   1.809  13.716  0.5422  0.8034 -0.2407
  795MPD2    C311768   1.874   1.795  13.806 -0.1041  0.0414 -0.1503
  795MPD2    C411769   1.901   1.893  13.896  0.4747  0.2246 -0.3266
  795MPD2    C511770   1.816   2.007  13.906  0.2369 -0.7607 -0.2365
  795MPD2     H11771   1.765   1.734  13.638  0.4114 -2.5670  3.0224
  795MPD2    H111772   1.986   1.892  13.963 -0.0739  0.1171  0.3602
  795MPD2    H211773   1.636   2.099  13.841  0.1648 -0.0001 -2.9796
  795MPD2    H311774   1.834   2.079  13.985  1.1596  0.6509 -1.7571
  795MPD2     N11775   1.956   1.681  13.789 -0.6518 -0.4732  0.5009
  795MPD2    H511776   1.926   1.601  13.734 -0.5909 -1.0173  1.2597
  795MPD2    N111777   1.576   1.932  13.639 -0.2423 -0.4784  0.0295
  795MPD2    H711778   1.568   1.852  13.577 -1.1070 -0.6383  0.3639
  796MPD2     C11779   0.893   3.455  15.893  0.0264 -0.3754 -0.3870
  796MPD2    C111780   0.973   3.544  15.959  0.5210  0.3720 -0.3701
  796MPD2    C211781   0.941   3.671  15.944 -0.1829 -0.4046 -0.3765
  796MPD2    C311782   0.836   3.714  15.866  0.3379 -0.2773 -0.2654
  796MPD2    C411783   0.759   3.620  15.800  0.2010  0.5165  0.8307
  796MPD2    C511784   0.790   3.485  15.813  0.0222  0.2437  0.1342
  796MPD2     H11785   0.997   3.746  15.998 -2.0862  0.6051  0.2008
  796MPD2    H111786   0.671   3.649  15.746 -2.0287 -1.1701  3.5391
  796MPD2    H211787   0.920   3.350  15.898  1.1587 -0.0509  0.2616
  796MPD2    H311788   0.728   3.406  15.771 -3.1118  2.3503  0.7506
  796MPD2     N11789   0.819   3.853  15.855  0.1449 -0.4341  0.1990
  796MPD2    H511790   0.888   3.908  15.906 -0.9793  0.9638  0.2170
  796MPD2    N111791   1.085   3.504  16.036  0.5174  0.0937 -0.0888
  796MPD2    H711792   1.105   3.405  16.049  2.5199  0.0989 -3.2190
  797MPD2     C11793   1.930   3.137  17.427 -0.6324  0.7183  0.6618
  797MPD2    C111794   2.031   3.230  17.416 -0.3660  0.7970 -1.0024
  797MPD2    C211795   2.052   3.297  17.298  0.1041  0.2163 -0.0926
  797MPD2    C311796   1.984   3.262  17.184  0.4606 -0.0361  0.0967
  797MPD2    C411797   1.890   3.161  17.194  0.3282 -1.2852 -0.4446
  797MPD2    C511798   1.856   3.109  17.312 -0.9356  0.4259  0.0359
  797MPD2     H11799   2.131   3.371  17.296 -1.9314  2.3296 -1.3381
  797MPD2    H111800   1.856   3.123  17.098 -0.9778 -2.7466  0.6058
  797MPD2    H211801   1.909   3.075  17.514 -2.3399  0.0724 -0.2041
  797MPD2    H311802   1.786   3.026  17.316  0.0096 -0.4142 -0.6962
  797MPD2     N11803   2.011   3.333  17.064  0.8407  0.0674  1.1781
  797MPD2    H511804   2.085   3.401  17.072  0.4883  0.5233  0.5358
  797MPD2    N111805   2.128   3.269  17.512 -0.4633 -0.2530  0.1172
  797MPD2    H711806   2.204   3.324  17.473 -1.6213  1.8450  0.7883
  798MPD2     C11807   2.411   3.876  17.193 -0.4880 -0.3566  0.6201
  798MPD2    C111808   2.345   3.757  17.177  0.0833 -0.1874 -0.3472
  798MPD2    C211809   2.341   3.666  17.283 -0.1649 -0.3733  0.3684
  798MPD2    C311810   2.389   3.708  17.405 -0.3250 -0.3012 -0.0779
  798MPD2    C411811   2.435   3.836  17.423 -0.2575  0.1766  0.3987
  798MPD2    C511812   2.451   3.921  17.317 -0.2563 -0.0149  0.0599
  798MPD2     H11813   2.314   3.561  17.273  0.4497 -0.3690 -1.3678
  798MPD2    H111814   2.467   3.874  17.520 -2.3391  2.4969  0.1518
  798MPD2    H211815   2.427   3.944  17.110  0.5791  1.6000  2.4298
  798MPD2    H311816   2.500   4.016  17.332 -0.8450 -0.0288  2.0725
  798MPD2     N11817   2.362   3.626  17.514  0.2073 -0.7014  0.0722
  798MPD2    H511818   2.361   3.530  17.479  2.1992 -0.9854  0.8112
  798MPD2    N111819   2.286   3.730  17.049  0.5882  0.3420  0.0839
  798MPD2    H711820   2.302   3.799  16.977  1.8224 -1.4558 -1.3456
  799MPD2     C11821   1.279   4.605  15.107 -0.2113 -0.7981 -0.1590
  799MPD2    C111822   1.168   4.587  15.022  0.2993  0.0563  1.0200
  799MPD2    C211823   1.137   4.696  14.942 -0.4885  0.8382  0.1290
  799MPD2    C311824   1.206   0.077  14.957  0.6215  0.4783  0.3831
  799MPD2    C411825   1.306   0.098  15.054 -0.2101  0.4674  0.5762
  799MPD2    C511826   1.339   4.727  15.122 -0.6902 -0.2398  0.8396
  799MPD2     H11827   1.055   4.686  14.871  0.8519  0.4217 -1.3674
  799MPD2    H111828   1.349   0.196  15.073  0.6530  0.2870 -0.5049
  799MPD2    H211829   1.323   4.523  15.162 -0.5194 -0.7852  0.1037
  799MPD2    H311830   1.420   4.732  15.194  0.9577 -0.3281 -1.0064
  799MPD2     N11831   1.193   0.194  14.874  0.2003  0.7339 -0.1091
  799MPD2    H511832   1.251   0.274  14.897 -0.7850  2.1694 -2.6444
  799MPD2    N111833   1.098   4.466  14.997 -0.2695  0.3188 -0.2992
  799MPD2    H711834   1.026   4.470  14.925  0.6591  1.4774 -1.1491
  800MPD2     C11835   1.435   1.264  14.244 -0.1338  0.0256 -1.2017
  800MPD2    C111836   1.549   1.226  14.187  0.2720 -0.7652 -0.8423
  800MPD2    C211837   1.541   1.142  14.072 -0.0281  0.3434 -0.7875
  800MPD2    C311838   1.423   1.081  14.043 -0.0714  0.1969 -0.1171
  800MPD2    C411839   1.310   1.117  14.111 -0.5307  0.0514  0.2694
  800MPD2    C511840   1.315   1.218  14.204  0.0498 -0.0890  0.3778
  800MPD2     H11841   1.630   1.101  14.026  0.4962 -0.9054  1.3607
  800MPD2    H111842   1.215   1.073  14.085  1.3994 -2.8076 -2.0205
  800MPD2    H211843   1.421   1.338  14.322  1.6588 -2.4000  1.4289
  800MPD2    H311844   1.223   1.242  14.254  0.8609  2.6206  0.5524
  800MPD2     N11845   1.438   0.971  13.956  0.0083 -0.3912 -0.3000
  800MPD2    H511846   1.526   0.969  13.905 -1.0958  0.6060 -2.2253
  800MPD2    N111847   1.668   1.284  14.235  0.5062 -0.1956 -0.9026
  800MPD2    H711848   1.663   1.370  14.290 -0.0882 -1.0628  0.4091
  801MPD2     C11849   1.782   1.979  14.234  1.0911 -0.0605 -0.5970
  801MPD2    C111850   1.714   1.875  14.172  0.2331  0.5241  0.3501
  801MPD2    C211851   1.574   1.881  14.150 -0.0988 -0.8164 -1.3555
  801MPD2    C311852   1.508   2.004  14.178 -0.8537 -0.4520 -0.6221
  801MPD2    C411853   1.579   2.106  14.235  0.2716  0.1111 -1.0687
  801MPD2    C511854   1.715   2.094  14.269  0.0367 -0.6959  0.3554
  801MPD2     H11855   1.520   1.794  14.116 -2.7942  0.8049 -1.2226
  801MPD2    H111856   1.534   2.195  14.276  1.4474  1.2031 -2.1900
  801MPD2    H211857   1.879   1.978  14.281  1.5060 -0.5230 -1.4605
  801MPD2    H311858   1.753   2.169  14.338 -0.8040 -0.6674  0.7907
  801MPD2     N11859   1.368   2.027  14.174 -0.4974 -0.7003  0.1369
  801MPD2    H511860   1.329   2.114  14.208 -1.7974 -1.5355  0.7563
  801MPD2    N111861   1.775   1.743  14.145 -0.4326  0.4214  0.3945
  801MPD2    H711862   1.715   1.671  14.106  1.1638 -0.7662  0.1397
  802MPD2     C11863   1.431   2.785   0.675  0.5070 -0.0415  0.2386
  802MPD2    C111864   1.316   2.718   0.711  0.4255  0.5836 -0.2036
  802MPD2    C211865   1.272   2.614   0.635  0.3115  0.6314  0.6884
  802MPD2    C311866   1.343   2.576   0.521  0.4154 -0.1012  1.0945
  802MPD2    C411867   1.445   2.650   0.471  0.2520 -1.0227 -0.0887
  802MPD2    C511868   1.491   2.757   0.556 -0.2659  0.5304  0.0190
  802MPD2     H11869   1.181   2.560   0.657  0.0117  0.4930 -0.9017
  802MPD2    H111870   1.498   2.634   0.377  0.0746 -0.4483 -0.2903
  802MPD2    H211871   1.480   2.857   0.740  2.7802 -0.5254 -0.9334
  802MPD2    H311872   1.576   2.816   0.525 -1.1226  1.1954 -1.0865
  802MPD2     N11873   1.277   2.476   0.445 -0.4330  0.9879 -0.5049
  802MPD2    H511874   1.185   2.446   0.476 -0.3721 -1.2735 -2.4251
  802MPD2    N111875   1.232   2.742   0.824 -0.0247 -0.1179  0.0541
  802MPD2    H711876   1.146   2.689   0.830  0.7430 -1.3492  0.1207
  803MPD2     C11877   2.207   0.098  11.733  0.7492 -0.4854 -0.2040
  803MPD2    C111878   2.229   0.227  11.766  0.2269 -0.1035  0.8004
  803MPD2    C211879   2.152   0.275  11.867  0.4836 -0.4602 -0.7181
  803MPD2    C311880   2.053   0.211  11.928  0.1767  0.3825  0.3690
  803MPD2    C411881   2.018   0.088  11.884  0.2589  0.8586 -0.1499
  803MPD2    C511882   2.099   0.032  11.786  0.1689  0.6088  0.4503
  803MPD2     H11883   2.167   0.379  11.892 -0.6507 -0.4343 -0.1478
  803MPD2    H111884   1.944   0.027  11.934  0.0453 -0.3275 -1.9022
  803MPD2    H211885   2.270   0.050  11.659  0.0466 -0.5191 -0.7870
  803MPD2    H311886   2.083   4.669  11.756  1.4318 -0.4064  3.2776
  803MPD2     N11887   1.985   0.272  12.037  0.7408 -0.5511 -0.4662
  803MPD2    H511888   2.023   0.359  12.073 -0.4073 -0.2031 -0.1253
  803MPD2    N111889   2.335   0.292  11.694  0.4252 -0.3688 -0.0838
  803MPD2    H711890   2.371   0.237  11.617  0.4898  0.7028 -0.8115
  804MPD2     C11891   1.654   1.981  16.970  0.7869 -0.3299 -1.0312
  804MPD2    C111892   1.656   1.932  17.101  0.1144 -0.4475 -0.4589
  804MPD2    C211893   1.754   1.977  17.190 -1.1255 -0.2859 -0.5525
  804MPD2    C311894   1.861   2.055  17.149  0.4892 -0.8465  1.1104
  804MPD2    C411895   1.853   2.118  17.024 -0.9384  0.3034  0.2948
  804MPD2    C511896   1.756   2.068  16.936  0.1174 -0.0253  0.3399
  804MPD2     H11897   1.762   1.933  17.289  0.6453  0.9097 -0.1664
  804MPD2    H111898   1.925   2.192  16.990 -0.6682  0.0863  0.3865
  804MPD2    H211899   1.582   1.964  16.891 -0.2237 -1.9289  0.2151
  804MPD2    H311900   1.768   2.115  16.839 -0.2441  4.4978  2.4680
  804MPD2     N11901   1.955   2.090  17.248  0.2842 -0.0925  0.0589
  804MPD2    H511902   1.937   2.061  17.344  0.9135 -1.3737 -0.1971
  804MPD2    N111903   1.560   1.828  17.135 -0.1364 -0.4994  0.1024
  804MPD2    H711904   1.577   1.792  17.229 -1.2027 -3.4116 -0.8190
  805MPD2     C11905   0.469   4.528  15.379  0.7042 -0.0185  0.1930
  805MPD2    C111906   0.501   4.650  15.323 -0.5407  0.0187 -0.1192
  805MPD2    C211907   0.594   4.733  15.388 -0.2444  0.1530  0.3723
  805MPD2    C311908   0.659   4.683  15.501  0.0955 -0.4223 -0.1479
  805MPD2    C411909   0.622   4.554  15.546  0.7068  0.0751 -0.0014
  805MPD2    C511910   0.528   4.477  15.487  0.2253 -0.0913 -0.4138
  805MPD2     H11911   0.617   0.090  15.347  3.9689 -0.9546  0.1617
  805MPD2    H111912   0.675   4.503  15.625  0.4910  0.6563  0.5108
  805MPD2    H211913   0.386   4.471  15.339 -0.1236  1.2321  0.1382
  805MPD2    H311914   0.502   4.380  15.525  1.0998  0.5492  1.8128
  805MPD2     N11915   0.764   0.021  15.555 -0.0634  0.1985 -0.2634
  805MPD2    H511916   0.768   0.120  15.533  3.4076  0.1796  0.2598
  805MPD2    N111917   0.442   4.704  15.201  0.3713  0.3702  0.4176
  805MPD2    H711918   0.472   0.056  15.170  2.6090 -0.8054 -0.9180
  806MPD2     C11919   1.414   4.542   1.031  0.2072 -0.2052  0.0144
  806MPD2    C111920   1.499   4.630   0.961 -0.4258 -0.0409 -0.2314
  806MPD2    C211921   1.529   4.602   0.832  0.0758 -0.4333  0.6129
  806MPD2    C311922   1.482   4.491   0.766 -0.1917  1.1149 -0.0828
  806MPD2    C411923   1.408   4.401   0.837  0.6363  0.2686  0.1322
  806MPD2    C511924   1.379   4.427   0.970 -0.1186  0.2984 -0.4191
  806MPD2     H11925   1.581   4.672   0.767  3.7159 -2.6452  1.1514
  806MPD2    H111926   1.362   4.309   0.802 -1.2869  0.7802  1.2979
  806MPD2    H211927   1.405   4.546   1.139  0.6800  0.6141  0.0256
  806MPD2    H311928   1.321   4.350   1.019  1.6904 -1.5735 -1.2534
  806MPD2     N11929   1.519   4.475   0.628 -0.2857 -0.4449  0.2029
  806MPD2    H511930   1.552   4.554   0.574 -2.1280  1.9758  2.5997
  806MPD2    N111931   1.547   0.001   1.025 -0.7125  1.1937 -0.4518
  806MPD2    H711932   1.511   0.009   1.119  0.7807 -0.3087  0.2349
  807MPD2     C11933   1.537   0.278   1.676  0.1434 -0.1504  0.3342
  807MPD2    C111934   1.478   0.236   1.558 -0.0889  0.1712 -0.0085
  807MPD2    C211935   1.351   0.181   1.557 -0.3599 -0.3073  0.2578
  807MPD2    C311936   1.274   0.169   1.670  0.2055 -1.0970 -0.6860
  807MPD2    C411937   1.333   0.218   1.792 -0.3790 -0.3144 -0.0935
  807MPD2    C511938   1.459   0.274   1.788  0.0441  0.5500  0.0761
  807MPD2     H11939   1.312   0.155   1.459 -1.1109  1.5128  0.0576
  807MPD2    H111940   1.277   0.216   1.885  0.5739  2.0622  0.5222
  807MPD2    H211941   1.640   0.304   1.697  0.3391 -0.8464  0.2435
  807MPD2    H311942   1.504   0.307   1.881 -0.6876 -1.4090  1.1107
  807MPD2     N11943   1.149   0.103   1.664  0.4802 -0.1278  0.2789
  807MPD2    H511944   1.112   0.067   1.576  0.8609 -1.4267  0.6414
  807MPD2    N111945   1.544   0.237   1.438  0.7303  0.5127  0.4053
  807MPD2    H711946   1.505   0.175   1.367 -1.6633  0.9320  1.3570
  808MPD2     C11947   1.903   1.159   9.878  0.2540  0.9341 -0.2270
  808MPD2    C111948   1.886   1.207  10.002  0.0444 -0.5525 -0.0687
  808MPD2    C211949   1.935   1.329  10.038 -0.5456 -0.2041  0.3295
  808MPD2    C311950   1.991   1.410   9.946  0.2061  0.1396  0.6686
  808MPD2    C411951   2.011   1.354   9.817  0.5450  0.2745  0.5459
  808MPD2    C511952   1.967   1.230   9.786 -0.1357  0.5791 -0.0969
  808MPD2     H11953   1.929   1.354  10.143  2.0532 -2.2002  0.9512
  808MPD2    H111954   2.051   1.408   9.732  0.2081  0.3059  0.4052
  808MPD2    H211955   1.878   1.055   9.860  1.7945  0.0415  2.7612
  808MPD2    H311956   1.997   1.194   9.689 -0.1481 -0.0716  0.1377
  808MPD2     N11957   2.035   1.544   9.961 -0.1749 -0.5638  0.6925
  808MPD2    H511958   2.089   1.587   9.887 -2.1279 -0.6639 -0.7886
  808MPD2    N111959   1.816   1.142  10.106  0.2587  0.5734  0.0395
  808MPD2    H711960   1.830   1.186  10.196  4.1752  0.1491 -0.3508
  809MPD2     C11961   2.854   1.774   9.850  0.1547  0.2148  0.1198
  809MPD2    C111962   2.743   1.697   9.807 -0.0619 -0.6689  0.1509
  809MPD2    C211963   2.619   1.740   9.842 -0.8937 -0.0691  0.4424
  809MPD2    C311964   2.591   1.854   9.912 -0.0208 -0.2354 -0.8424
  809MPD2    C411965   2.702   1.921   9.957  1.5832 -0.0103  0.2997
  809MPD2    C511966   2.830   1.887   9.923  1.0402 -0.0778 -0.5365
  809MPD2     H11967   2.544   1.672   9.803  2.4997 -1.6442 -3.4191
  809MPD2    H111968   2.681   2.011  10.014  1.1448 -0.2022  0.4464
  809MPD2    H211969   2.954   1.756   9.813  0.6417  1.1521  0.9918
  809MPD2    H311970   2.911   1.950   9.959  1.7900 -2.6061  2.2164
  809MPD2     N11971   2.471   1.912   9.946 -0.1023 -0.2444  0.0655
  809MPD2    H511972   2.471   1.976  10.024  1.4566 -2.3725  1.8155
  809MPD2    N111973   2.756   1.575   9.742  0.3857 -0.0068  0.5580
  809MPD2    H711974   2.673   1.528   9.709 -0.0944  0.0770  1.6324
  810MPD2     C11975   1.256   0.633  10.778 -0.0168  0.4827 -0.4774
  810MPD2    C111976   1.235   0.681  10.647 -0.3270 -0.0502  0.1272
  810MPD2    C211977   1.212   0.815  10.625  0.6133 -0.4922  0.1684
  810MPD2    C311978   1.213   0.903  10.733  0.2810  0.2339  1.3447
  810MPD2    C411979   1.227   0.854  10.864  0.5042 -0.1615 -0.5443
  810MPD2    C511980   1.250   0.724  10.881 -0.0953  0.2999 -0.2573
  810MPD2     H11981   1.191   0.852  10.526 -2.0604  0.1252  0.9593
  810MPD2    H111982   1.223   0.918  10.951  1.9179 -1.7509  0.7068
  810MPD2    H211983   1.286   0.534  10.810 -4.3631 -0.4320  0.7356
  810MPD2    H311984   1.265   0.689  10.983 -4.0738  0.6046  0.4396
  810MPD2     N11985   1.201   1.040  10.721 -0.2336 -0.1410  0.0802
  810MPD2    H511986   1.170   1.091  10.803  3.6614  2.6055 -0.1303
  810MPD2    N111987   1.262   0.587  10.544 -0.2478  0.2279 -0.4788
  810MPD2    H711988   1.294   0.494  10.570  3.0199  0.8685 -2.1582
  811MPD2     C11989   0.827   0.381   9.777  0.0179 -0.2008 -0.3049
  811MPD2    C111990   0.897   0.466   9.857 -0.2058 -0.1173  1.1847
  811MPD2    C211991   0.892   0.603   9.843 -0.5586 -0.1568  0.2600
  811MPD2    C311992   0.796   0.660   9.763 -0.9905 -0.1965 -0.3260
  811MPD2    C411993   0.709   0.574   9.688  0.2954  0.2745 -0.5899
  811MPD2    C511994   0.729   0.432   9.695  0.1866  0.0076 -0.1435
  811MPD2     H11995   0.951   0.670   9.903 -0.2708 -0.1089 -0.0753
  811MPD2    H111996   0.635   0.610   9.617 -1.1532  0.7665  1.1527
  811MPD2    H211997   0.824   0.274   9.789  0.6530 -0.2890 -0.9365
  811MPD2    H311998   0.666   0.362   9.641  1.1933 -2.6802  2.2047
  811MPD2     N11999   0.792   0.799   9.750  0.1329  0.8490  0.7442
  811MPD2    H512000   0.866   0.851   9.796  2.2304 -1.0760 -0.4470
  811MPD2    N112001   0.982   0.408   9.963 -0.2492 -0.1535 -0.2312
  811MPD2    H712002   1.008   0.312   9.942 -0.2552  0.0074 -0.9723
  812MPD2     C12003   4.478   0.149  12.479  0.4496 -0.2194  0.3821
  812MPD2    C112004   4.570   0.255  12.473  0.4080 -0.4880  0.0719
  812MPD2    C212005   4.678   0.255  12.554  0.5553 -0.5137 -0.0933
  812MPD2    C312006   4.699   0.154  12.642 -0.4200  0.1339  0.4488
  812MPD2    C412007   4.619   0.046  12.649 -0.0056 -0.1671  0.0468
  812MPD2    C512008   4.504   0.046  12.570 -0.8365 -0.2967 -0.0867
  812MPD2     H12009   0.001   0.343  12.560 -0.5550  0.2402  0.5853
  812MPD2    H112010   4.627   4.698  12.712  2.9431 -0.4977 -0.8126
  812MPD2    H212011   4.384   0.138  12.427  1.2903 -2.3862 -0.6684
  812MPD2    H312012   4.435   4.703  12.580  1.1521 -1.8188  1.0435
  812MPD2     N12013   0.076   0.173  12.724 -0.2642  0.9718  0.0576
  812MPD2    H512014   0.118   0.266  12.726 -0.5193  1.1046 -1.0827
  812MPD2    N112015   4.545   0.351  12.381  0.5690 -0.1262  0.1150
  812MPD2    H712016   4.463   0.363  12.322  0.0039  0.4135  1.0067
  813MPD2     C12017   3.836   2.575  12.920  0.1828 -0.7502  0.0889
  813MPD2    C112018   3.824   2.708  12.958  0.1947 -0.1721  0.1045
  813MPD2    C212019   3.745   2.746  13.063  0.5511 -0.4274  0.1987
  813MPD2    C312020   3.685   2.651  13.144 -0.6449 -0.3861  0.5102
  813MPD2    C412021   3.693   2.516  13.109  0.4660 -0.0987  0.1587
  813MPD2    C512022   3.773   2.483  13.000  0.2871 -0.5979  0.7298
  813MPD2     H12023   3.735   2.849  13.094 -2.8921 -0.5926 -0.2884
  813MPD2    H112024   3.647   2.443  13.175  0.6636  0.5392  1.0084
  813MPD2    H212025   3.887   2.541  12.831  0.1737 -0.2878 -0.0935
  813MPD2    H312026   3.793   2.378  12.981  0.1491 -0.4623 -0.1669
  813MPD2     N12027   3.617   2.697  13.259 -0.4100 -0.1589  0.6500
  813MPD2    H512028   3.619   2.798  13.265 -2.1106 -0.1001  0.3137
  813MPD2    N112029   3.899   2.809  12.898  0.1918 -0.3109  0.1616
  813MPD2    H712030   3.898   2.903  12.937 -0.4941  0.7202 -2.3396
  814MPD2     C12031   3.968   4.204  12.370 -0.3447  0.4392 -0.0098
  814MPD2    C112032   4.080   4.149  12.313 -0.5691 -0.4478  1.0442
  814MPD2    C212033   4.184   4.234  12.302  0.8082 -0.4563  0.0737
  814MPD2    C312034   4.173   4.373  12.329  0.9777 -0.1584 -0.2793
  814MPD2    C412035   4.054   4.427  12.384  0.1300  0.1387 -0.5015
  814MPD2    C512036   3.959   4.331  12.418 -0.7584  0.7642 -0.2465
  814MPD2     H12037   4.277   4.192  12.264  1.4384 -1.1540  2.4207
  814MPD2    H112038   4.027   4.531  12.399 -0.0449 -0.4871  3.4562
  814MPD2    H212039   3.877   4.145  12.373  0.4395 -0.8008 -0.4995
  814MPD2    H312040   3.869   4.375  12.460 -1.0214  0.3391 -0.3664
  814MPD2     N12041   4.279   4.463  12.307  0.6606  0.5810 -0.7283
  814MPD2    H512042   4.251   4.556  12.336  0.1675  0.5391 -1.0792
  814MPD2    N112043   4.091   4.014  12.264  0.1480  0.2865  0.5446
  814MPD2    H712044   4.183   3.985  12.233 -0.0807 -0.2800  0.3987
  815MPD2     C12045   0.079   0.894  12.129 -0.0132  0.4214  0.5173
  815MPD2    C112046   0.016   0.991  12.055 -0.0734 -0.1531  0.5039
  815MPD2    C212047   4.659   1.070  12.116 -0.0013  0.8235 -0.2193
  815MPD2    C312048   4.626   1.056  12.250 -0.7455 -0.2289 -0.2071
  815MPD2    C412049   4.682   0.948  12.322 -0.3539 -0.3650  0.3499
  815MPD2    C512050   0.029   0.865  12.256  0.5436 -0.5463  0.6327
  815MPD2     H12051   4.607   1.152  12.068  0.8605  1.5867  0.1417
  815MPD2    H112052   4.661   0.913  12.422 -0.2231  0.5533  0.6949
  815MPD2    H212053   0.145   0.820  12.085  3.2021  3.6604 -0.2003
  815MPD2    H312054   0.066   0.777  12.307  2.0965 -0.3364 -0.1318
  815MPD2     N12055   4.541   1.143  12.316  0.1808 -0.5368  0.4675
  815MPD2    H512056   4.523   1.232  12.271 -0.1470  0.7455  3.1312
  815MPD2    N112057   0.044   1.006  11.915  0.1866  0.0322 -0.6051
  815MPD2    H712058   0.128   0.960  11.881  0.3389 -0.3914  0.3400
  816MPD2     C12059   0.322   1.325  17.515  0.8392  0.6194 -0.0742
  816MPD2    C112060   0.193   1.324  17.475 -0.2778  0.0174 -0.2368
  816MPD2    C212061   0.156   1.250  17.370 -0.5471 -0.2415 -0.4977
  816MPD2    C312062   0.241   1.178  17.296  0.1618 -1.3880  0.5371
  816MPD2    C412063   0.377   1.177  17.338 -0.6235  0.2028  0.1963
  816MPD2    C512064   0.413   1.246  17.446  0.6636  0.0080 -0.2378
  816MPD2     H12065   0.051   1.247  17.343 -1.2582  3.9864  1.7977
  816MPD2    H112066   0.452   1.130  17.276 -1.4561 -1.7725  0.7087
  816MPD2    H212067   0.353   1.392  17.595 -0.9193 -1.4766  2.3832
  816MPD2    H312068   0.515   1.258  17.481  0.4785  1.0037 -0.0241
  816MPD2     N12069   0.196   1.109  17.180  0.1511 -0.1390  0.2967
  816MPD2    H512070   0.102   1.133  17.149 -0.0072 -0.6904  0.3489
  816MPD2    N112071   0.107   1.408  17.542  0.1817 -0.4445  0.0431
  816MPD2    H712072   0.145   1.491  17.588  1.7452 -1.3373  0.3547
  817MPD2     C12073   3.837   3.196   9.972  0.1899  0.1062 -1.0922
  817MPD2    C112074   3.912   3.148   9.866 -0.2910  0.6159  0.5187
  817MPD2    C212075   3.950   3.237   9.764 -0.3434  1.3752 -0.0828
  817MPD2    C312076   3.922   3.369   9.758 -0.0139  0.1158  0.1174
  817MPD2    C412077   3.845   3.413   9.866 -0.2430 -0.4713  1.1838
  817MPD2    C512078   3.814   3.334   9.971 -0.0750 -0.1955  0.1877
  817MPD2     H12079   4.016   3.208   9.683  0.4291 -3.0369  2.1590
  817MPD2    H112080   3.812   3.516   9.870  3.0240  0.5802  1.1431
  817MPD2    H212081   3.803   3.140  10.059  1.2926  2.2468  0.7060
  817MPD2    H312082   3.754   3.384  10.046 -0.1963  0.3741 -0.2825
  817MPD2     N12083   3.972   3.448   9.650 -0.5504 -0.4369 -0.0413
  817MPD2    H512084   4.045   3.404   9.596  0.0563 -1.0564  1.2912
  817MPD2    N112085   3.953   3.016   9.857  0.2882 -0.2413  0.7460
  817MPD2    H712086   4.018   3.000   9.781 -0.9624  3.0552 -1.0652
  818MPD2     C12087   3.488   2.697  10.562 -0.6121 -0.3133 -0.7465
  818MPD2    C112088   3.390   2.645  10.642 -1.0558 -0.7615  0.2629
  818MPD2    C212089   3.292   2.572  10.579 -0.2590  0.4281  0.4450
  818MPD2    C312090   3.292   2.551  10.442 -0.6005 -0.4430  0.0427
  818MPD2    C412091   3.399   2.603  10.365  0.1325 -0.5677  0.5010
  818MPD2    C512092   3.496   2.678  10.426 -0.1411  0.2654  0.2005
  818MPD2     H12093   3.211   2.534  10.639  0.0084  0.6722  0.9596
  818MPD2    H112094   3.394   2.602  10.257  1.0251  1.1828  0.4444
  818MPD2    H212095   3.578   2.738  10.607 -0.9316 -0.1497 -0.2622
  818MPD2    H312096   3.571   2.726  10.364  0.2456 -0.5593  0.0390
  818MPD2     N12097   3.178   2.491  10.374  0.0795  0.3378 -0.1330
  818MPD2    H512098   3.178   2.504  10.274 -0.5639  1.4418  0.0074
  818MPD2    N112099   3.378   2.674  10.778  0.8271 -0.4083 -0.1267
  818MPD2    H712100   3.313   2.623  10.837  1.8641 -0.7019  0.7436
  819MPD2     C12101   1.350   0.121  15.719  0.5990  0.2908 -0.1735
  819MPD2    C112102   1.342   4.726  15.708 -0.0513 -0.3235 -0.3020
  819MPD2    C212103   1.437   4.652  15.777  0.1268  0.9092 -0.6319
  819MPD2    C312104   1.546   4.722  15.835  0.2110  0.0486 -0.1190
  819MPD2    C412105   1.548   0.118  15.850 -0.2692 -0.2931 -0.4232
  819MPD2    C512106   1.443   0.186  15.794 -0.3283  0.1098 -0.0427
  819MPD2     H12107   1.440   4.544  15.768 -0.5401  0.8107  0.3258
  819MPD2    H112108   1.623   0.172  15.907 -0.0486  1.2142 -2.1547
  819MPD2    H212109   1.278   0.179  15.663 -0.3745  0.6535  1.4540
  819MPD2    H312110   1.432   0.293  15.812 -0.2968 -0.0025  0.6503
  819MPD2     N12111   1.648   4.636  15.879 -0.1264 -0.3819  0.0567
  819MPD2    H512112   1.623   4.538  15.874 -0.7993 -0.2857  1.4929
  819MPD2    N112113   1.239   4.665  15.633 -0.1741 -0.0983 -0.1001
  819MPD2    H712114   1.183   4.725  15.573  3.6791  3.7598  0.0534
  820MPD2     C12115   0.837   0.341  14.976  0.1708  0.4463  0.2732
  820MPD2    C112116   0.787   0.212  14.964 -0.9792 -0.1578  0.5977
  820MPD2    C212117   0.835   0.110  15.046  0.2030 -0.5211  0.1717
  820MPD2    C312118   0.925   0.145  15.144 -0.5549  0.8111 -0.0144
  820MPD2    C412119   0.966   0.273  15.166  0.1361  0.7208 -0.1572
  820MPD2    C512120   0.920   0.371  15.087  0.1771 -0.1938 -0.1114
  820MPD2     H12121   0.793   0.010  15.049  0.5435 -0.6944 -0.9329
  820MPD2    H112122   1.025   0.291  15.256  0.3203 -0.4572 -0.0457
  820MPD2    H212123   0.806   0.427  14.918  0.6427 -0.6081 -1.5628
  820MPD2    H312124   0.957   0.471  15.106 -0.6836  0.2686 -0.8750
  820MPD2     N12125   0.970   0.043  15.235  0.0269  0.0577  0.0211
  820MPD2    H512126   1.037   0.075  15.304 -0.3287 -1.3974  1.0323
  820MPD2    N112127   0.676   0.188  14.877 -0.2637 -0.3236 -0.6252
  820MPD2    H712128   0.621   0.270  14.856  0.5917  0.2616 -0.6148
  821MPD2     C12129   1.221   0.939  13.288  0.2821 -0.6005 -0.4727
  821MPD2    C112130   1.336   0.874  13.328  0.5746 -0.0150 -0.1186
  821MPD2    C212131   1.456   0.889  13.262 -0.3207  0.2632  0.3571
  821MPD2    C312132   1.472   0.992  13.165 -0.2681  0.1999  0.4434
  821MPD2    C412133   1.363   1.068  13.128  0.3951  0.3504 -0.4789
  821MPD2    C512134   1.240   1.036  13.187  0.4288  0.3064  0.4461
  821MPD2     H12135   1.542   0.826  13.284  1.0384  1.6055 -1.1415
  821MPD2    H112136   1.375   1.146  13.054 -0.7632  0.9466 -0.0380
  821MPD2    H212137   1.125   0.917  13.333  0.2433  0.2487 -0.1384
  821MPD2    H312138   1.153   1.091  13.153 -1.1458 -2.3475  0.2266
  821MPD2     N12139   1.592   1.029  13.105  0.4414  0.5682 -0.0957
  821MPD2    H512140   1.591   1.122  13.063 -2.0866  0.5007 -0.1618
  821MPD2    N112141   1.353   0.792  13.440  0.1233 -0.1476  0.0320
  821MPD2    H712142   1.449   0.767  13.462  0.6429 -1.0816 -3.2451
  822MPD2     C12143   2.363   1.262  15.650 -0.1569 -0.6432 -0.2835
  822MPD2    C112144   2.364   1.228  15.785 -0.1702  0.6852  0.3475
  822MPD2    C212145   2.288   1.308  15.866 -0.6456  0.6422 -0.3137
  822MPD2    C312146   2.231   1.426  15.821  0.1647 -0.0951 -0.4188
  822MPD2    C412147   2.243   1.466  15.690  0.5131 -0.5391  0.4092
  822MPD2    C512148   2.312   1.384  15.602  0.4033  0.1887 -0.2252
  822MPD2     H12149   2.283   1.284  15.972  0.1129 -0.9643 -0.6525
  822MPD2    H112150   2.199   1.560  15.659  3.5055  0.4325 -0.8299
  822MPD2    H212151   2.410   1.201  15.573 -0.1825  0.0627 -0.8584
  822MPD2    H312152   2.324   1.419  15.500  0.9422  0.4598 -0.0696
  822MPD2     N12153   2.173   1.504  15.923 -0.6486 -0.0912  0.4593
  822MPD2    H512154   2.162   1.462  16.015 -0.0127 -1.3267 -0.0292
  822MPD2    N112155   2.422   1.114  15.836  0.5737 -0.1162  0.3234
  822MPD2    H712156   2.405   1.094  15.934  0.0799 -0.4538  0.1689
  823MPD2     C12157   1.791   1.718  16.656  0.9346 -0.5054 -0.7935
  823MPD2    C112158   1.846   1.627  16.564 -0.3628  0.6386  0.6620
  823MPD2    C212159   1.876   1.499  16.606  0.2264 -0.7060 -0.0768
  823MPD2    C312160   1.847   1.454  16.732  0.7073  0.2081  0.6181
  823MPD2    C412161   1.764   1.534  16.812  0.0292 -0.2152  0.3127
  823MPD2    C512162   1.737   1.664  16.773  0.5235  0.6332 -0.0686
  823MPD2     H12163   1.942   1.445  16.540 -0.3407 -2.2612  0.6282
  823MPD2    H112164   1.726   1.495  16.906  1.8879 -2.5161  0.1098
  823MPD2    H212165   1.770   1.823  16.642  1.2238 -0.3656 -0.1673
  823MPD2    H312166   1.687   1.734  16.839  0.0689 -0.6913  0.9867
  823MPD2     N12167   1.903   1.341  16.796 -0.5346 -0.4538 -0.8846
  823MPD2    H512168   1.882   1.311  16.890 -0.2689 -0.6371 -0.8856
  823MPD2    N112169   1.899   1.690  16.445 -0.3490 -0.2670 -0.4003
  823MPD2    H712170   1.896   1.791  16.436 -0.4909 -0.1838  0.6211
  824MPD2     C12171   2.578   0.242  15.935  0.2512 -0.0429 -0.0153
  824MPD2    C112172   2.648   0.334  15.864  0.2905 -0.5883 -0.2125
  824MPD2    C212173   2.746   0.301  15.771 -0.1947  1.1609  0.0249
  824MPD2    C312174   2.768   0.166  15.751 -0.3771 -0.3414 -0.6888
  824MPD2    C412175   2.709   0.073  15.831 -0.8001 -0.1977  0.6436
  824MPD2    C512176   2.612   0.111  15.920 -0.3046 -0.2714  0.3198
  824MPD2     H12177   2.804   0.366  15.706  3.3409  0.1474  2.1377
  824MPD2    H112178   2.699   4.706  15.818  1.0501 -0.1042 -1.5347
  824MPD2    H212179   2.490   0.270  15.993  0.6886  0.4516  0.4110
  824MPD2    H312180   2.570   0.032  15.980  1.5924 -2.0702 -0.7065
  824MPD2     N12181   2.857   0.126  15.645 -0.0437  0.0325  0.4995
  824MPD2    H512182   2.881   0.199  15.579 -1.8439 -0.2304 -0.4653
  824MPD2    N112183   2.605   0.458  15.879  0.1703 -0.2908 -0.5904
  824MPD2    H712184   2.536   0.469  15.953  1.9982 -1.9085  1.3382
  825MPD2     C12185   3.672   0.189  15.372  0.2549  0.2900  0.3669
  825MPD2    C112186   3.551   0.249  15.412  0.0313 -0.1526 -0.2126
  825MPD2    C212187   3.551   0.387  15.439 -0.1548  0.0872  0.0676
  825MPD2    C312188   3.658   0.462  15.409  0.0952 -0.0953  0.1668
  825MPD2    C412189   3.767   0.401  15.356  0.1949  0.3820 -0.0830
  825MPD2    C512190   3.782   0.261  15.351 -0.5182  0.0510 -0.0460
  825MPD2     H12191   3.456   0.431  15.465  0.1339 -0.4634  2.0783
  825MPD2    H112192   3.848   0.469  15.333 -1.6594  1.7494 -2.4568
  825MPD2    H212193   3.680   0.082  15.354 -0.7373  0.6030 -1.9009
  825MPD2    H312194   3.875   0.215  15.320  0.5128  2.1105  0.0147
  825MPD2     N12195   3.657   0.603  15.415  0.3813 -0.2634 -0.9072
  825MPD2    H512196   3.736   0.656  15.381  0.8913 -1.1624 -1.1202
  825MPD2    N112197   3.432   0.164  15.409 -0.0118  0.3787 -0.3738
  825MPD2    H712198   3.449   0.065  15.394  0.5755  0.5407 -0.7852
  826MPD2     C12199   3.298   0.391  14.129 -0.5640  0.2633  0.0670
  826MPD2    C112200   3.266   0.438  14.003 -0.4141 -0.2977  0.6818
  826MPD2    C212201   3.140   0.497  13.980 -0.4071  0.1860  0.2752
  826MPD2    C312202   3.055   0.517  14.089 -0.0691 -0.1573 -0.1584
  826MPD2    C412203   3.091   0.470  14.210  0.4600  0.6125 -0.3309
  826MPD2    C512204   3.210   0.408  14.233  0.2097 -0.1851 -0.3546
  826MPD2     H12205   3.106   0.504  13.878 -1.0220  1.2936  0.5567
  826MPD2    H112206   3.030   0.492  14.297  0.6605 -1.4350  0.3227
  826MPD2    H212207   3.387   0.332  14.149  0.7992  2.2573 -0.2304
  826MPD2    H312208   3.228   0.375  14.335 -1.0615 -0.4874 -0.2334
  826MPD2     N12209   2.924   0.581  14.089 -0.2356  0.3543  0.3434
  826MPD2    H512210   2.875   0.587  14.177 -0.4433 -3.4019  0.4669
  826MPD2    N112211   3.353   0.408  13.893 -0.3739 -0.0074 -0.0648
  826MPD2    H712212   3.441   0.364  13.915  1.0364  2.4903 -0.7226
  827MPD2     C12213   3.662   1.758  10.355 -0.3911 -0.5246  0.1358
  827MPD2    C112214   3.648   1.627  10.408  0.2587  0.4035  0.3351
  827MPD2    C212215   3.546   1.554  10.354 -0.1415  0.1686 -0.0472
  827MPD2    C312216   3.463   1.598  10.249  0.4480  0.1117  0.8811
  827MPD2    C412217   3.495   1.712  10.181  0.1687 -0.2917  0.2552
  827MPD2    C512218   3.590   1.797  10.241  0.1104 -0.0769 -0.1215
  827MPD2     H12219   3.513   1.461  10.400 -3.2708  1.8762  1.1236
  827MPD2    H112220   3.447   1.739  10.087  2.4653  1.6655 -0.3555
  827MPD2    H212221   3.737   1.822  10.400 -0.9438 -0.5509  1.1053
  827MPD2    H312222   3.602   1.897  10.201 -2.6692  0.7354  1.0606
  827MPD2     N12223   3.354   1.506  10.214  0.4819  0.2760  0.0153
  827MPD2    H512224   3.360   1.413  10.256 -1.2603  0.7117  1.2288
  827MPD2    N112225   3.742   1.586  10.503 -0.0271 -0.3043 -0.2027
  827MPD2    H712226   3.809   1.652  10.542 -0.1583 -1.4226  1.9263
  828MPD2     C12227   2.364   0.901  12.062 -0.2635  0.3123 -0.6731
  828MPD2    C112228   2.302   1.017  12.030  0.2381  0.9562 -0.3865
  828MPD2    C212229   2.339   1.090  11.920 -0.6150 -0.1310  0.0863
  828MPD2    C312230   2.436   1.040  11.832  0.0660 -0.5693 -0.4699
  828MPD2    C412231   2.500   0.924  11.860  0.2142  0.1072 -0.2586
  828MPD2    C512232   2.467   0.856  11.977 -0.0729  0.2145  0.4578
  828MPD2     H12233   2.289   1.185  11.903  0.1346  0.0397 -1.1565
  828MPD2    H112234   2.578   0.878  11.799  0.6815  0.3221  0.1780
  828MPD2    H212235   2.337   0.840  12.147  2.3616  1.6580  1.1233
  828MPD2    H312236   2.525   0.767  11.996 -1.0980 -0.8027 -1.1148
  828MPD2     N12237   2.482   1.097  11.714 -0.5728  0.3759 -0.2178
  828MPD2    H512238   2.556   1.046  11.667 -0.6884 -2.4092  2.5991
  828MPD2    N112239   2.200   1.084  12.111  0.1379 -0.3832  0.2829
  828MPD2    H712240   2.180   1.183  12.099 -2.8458 -0.8362  1.5969
  829MPD2     C12241   1.734   1.766  11.930 -0.7090 -0.1439  0.0874
  829MPD2    C112242   1.646   1.687  12.007 -0.3970 -0.0112 -0.1770
  829MPD2    C212243   1.698   1.585  12.087 -0.1584  1.0303  0.4500
  829MPD2    C312244   1.828   1.559  12.092 -0.0774 -0.2156 -0.5779
  829MPD2    C412245   1.909   1.634  12.014 -0.1087 -0.4573  0.5933
  829MPD2    C512246   1.867   1.736  11.933 -0.0744  0.1979  0.2949
  829MPD2     H12247   1.635   1.512  12.136 -0.2648  0.7948 -0.0457
  829MPD2    H112248   2.014   1.605  12.009  0.1515  0.7780 -1.2887
  829MPD2    H212249   1.693   1.849  11.874 -1.3085  1.2808  2.6562
  829MPD2    H312250   1.935   1.782  11.862 -0.5549  0.0391 -0.2683
  829MPD2     N12251   1.883   1.457  12.164 -0.1853 -0.6629  0.1643
  829MPD2    H512252   1.979   1.431  12.143 -0.0835  0.7895 -1.1269
  829MPD2    N112253   1.506   1.727  12.009 -0.3068  0.4976 -0.4056
  829MPD2    H712254   1.475   1.787  11.933 -0.9673 -1.1563 -1.4612
  830MPD2     C12255   1.684   4.121  15.586 -0.6727  0.5193  0.1802
  830MPD2    C112256   1.815   4.156  15.627 -0.3647 -0.6747 -0.0839
  830MPD2    C212257   1.913   4.144  15.534  0.3746 -0.9582  0.3810
  830MPD2    C312258   1.899   4.097  15.406  0.2552  0.5248 -0.0581
  830MPD2    C412259   1.767   4.078  15.369  0.3966 -0.5597 -0.7558
  830MPD2    C512260   1.666   4.088  15.456  0.0172  0.9960 -0.2064
  830MPD2     H12261   2.010   4.184  15.559  0.9421 -2.3767  0.4226
  830MPD2    H112262   1.750   4.054  15.264 -0.9279 -1.2413 -0.3805
  830MPD2    H212263   1.597   4.140  15.647  0.7485 -1.1262  2.7704
  830MPD2    H312264   1.564   4.072  15.422 -0.1706  0.1502  0.7627
  830MPD2     N12265   1.999   4.087  15.308  0.0128  0.1952 -0.0805
  830MPD2    H512266   1.966   4.060  15.216 -0.1732  1.1865 -0.3079
  830MPD2    N112267   1.838   4.218  15.748 -0.6519  0.0746 -0.4778
  830MPD2    H712268   1.752   4.230  15.801 -0.2473 -1.7485  0.6019
  831MPD2     C12269   2.435   1.584  16.351  0.3729 -0.1271 -0.0664
  831MPD2    C112270   2.432   1.490  16.252  0.1908 -0.0556 -0.4957
  831MPD2    C212271   2.328   1.396  16.259 -0.1823 -0.2600 -0.0487
  831MPD2    C312272   2.233   1.401  16.360 -0.8088  0.3482  0.9743
  831MPD2    C412273   2.241   1.500  16.461  0.4657 -0.3909 -0.1123
  831MPD2    C512274   2.341   1.591  16.453  0.2296 -0.3674 -0.3365
  831MPD2     H12275   2.320   1.320  16.182 -0.1375  0.6313 -0.9215
  831MPD2    H112276   2.166   1.499  16.540 -0.1351  0.7276 -0.6792
  831MPD2    H212277   2.508   1.664  16.352  0.9219 -0.6356  0.2502
  831MPD2    H312278   2.347   1.665  16.532 -3.7071  0.6469 -1.0209
  831MPD2     N12279   2.120   1.309  16.355 -0.2190  0.1042 -0.1174
  831MPD2    H512280   2.065   1.297  16.440  0.6961  0.7617  0.5679
  831MPD2    N112281   2.538   1.492  16.161  0.2712 -0.0808 -0.0003
  831MPD2    H712282   2.603   1.569  16.170 -2.3652  2.2748 -1.1266
  832MPD2     C12283   0.540   2.285  17.485 -0.2108  0.4816 -0.3293
  832MPD2    C112284   0.571   2.379  17.387  0.1990  0.8163  0.4386
  832MPD2    C212285   0.479   2.401  17.283 -0.8903 -0.4406  0.7103
  832MPD2    C312286   0.351   2.339  17.289  0.5357  0.5203 -0.6099
  832MPD2    C412287   0.329   2.252  17.391 -0.4308 -0.4408 -0.2470
  832MPD2    C512288   0.417   2.225  17.489  0.1840  0.0132  0.3620
  832MPD2     H12289   0.483   2.485  17.216 -4.6388 -2.4555 -2.0471
  832MPD2    H112290   0.231   2.206  17.396 -1.0738  0.7071 -2.1954
  832MPD2    H212291   0.614   2.255  17.558  0.9084 -0.1754 -1.7115
  832MPD2    H312292   0.400   2.155  17.570  1.7686 -3.8293 -2.6227
  832MPD2     N12293   0.251   2.340  17.189 -0.0339  0.0219  0.0423
  832MPD2    H512294   0.164   2.292  17.208 -1.0370  2.1300  0.8576
  832MPD2    N112295   0.689   2.460  17.406 -0.1890  0.2853 -0.6972
  832MPD2    H712296   0.746   2.443  17.488  0.2566 -1.5872 -1.4043
  833MPD2     C12297   2.613   4.479  13.011 -0.1797 -0.1850 -0.0384
  833MPD2    C112298   2.670   4.551  12.913 -0.4446  0.6128 -0.4431
  833MPD2    C212299   2.763   4.492  12.833  0.0083  0.1958 -0.2266
  833MPD2    C312300   2.801   4.362  12.856  0.3394 -0.2514 -0.0186
  833MPD2    C412301   2.742   4.299  12.960  0.1451  0.6006  0.1401
  833MPD2    C512302   2.642   4.349  13.033  0.2022  0.0336  0.0725
  833MPD2     H12303   2.787   4.532  12.736 -2.0267  1.5025 -0.2000
  833MPD2    H112304   2.761   4.195  12.983 -1.1394  0.7866  2.0974
  833MPD2    H212305   2.558   4.537  13.084 -0.1771  0.5481 -0.6251
  833MPD2    H312306   2.597   4.295  13.115  3.9177  0.8805  2.6765
  833MPD2     N12307   2.872   4.270  12.771 -0.0740 -0.1848 -0.2912
  833MPD2    H512308   2.895   4.178  12.808  2.0451 -0.6526 -2.7433
  833MPD2    N112309   2.618   4.674  12.899 -0.0542 -0.5397  0.1433
  833MPD2    H712310   2.532   4.691  12.951  1.3588  2.6747  1.4565
  834MPD2     C12311   2.697   3.380  12.315 -0.4581  0.0643 -0.4640
  834MPD2    C112312   2.769   3.451  12.217 -1.0507 -0.1652 -0.3663
  834MPD2    C212313   2.821   3.578  12.240 -0.3296 -0.0217 -0.6039
  834MPD2    C312314   2.803   3.634  12.369 -0.4510  0.4707 -0.2632
  834MPD2    C412315   2.742   3.557  12.469  0.0396  0.0195  0.5474
  834MPD2    C512316   2.701   3.424  12.443  0.0184 -0.3383 -0.1861
  834MPD2     H12317   2.863   3.635  12.158 -2.8747  1.1209 -1.0995
  834MPD2    H112318   2.721   3.600  12.566  0.3253 -0.1619  0.6912
  834MPD2    H212319   2.653   3.287  12.281  0.7628 -0.3065 -1.0601
  834MPD2    H312320   2.654   3.368  12.523 -1.2645 -0.2648 -0.8978
  834MPD2     N12321   2.842   3.771  12.390 -0.1896  0.1884 -0.1486
  834MPD2    H512322   2.873   3.829  12.313 -1.3714  0.9046 -0.0909
  834MPD2    N112323   2.785   3.377  12.096 -0.2111  0.6587 -0.1200
  834MPD2    H712324   2.770   3.277  12.106  1.7291  0.3163 -0.5136
  835MPD2     C12325   3.124   1.415  11.348  0.1876  0.2511 -0.4655
  835MPD2    C112326   3.005   1.476  11.346 -0.4373  0.4215  0.0227
  835MPD2    C212327   2.932   1.497  11.470  0.6669 -0.5449  0.1491
  835MPD2    C312328   2.991   1.464  11.592  0.0674  0.6163  0.9092
  835MPD2    C412329   3.113   1.407  11.591 -0.8142 -0.5592 -0.2217
  835MPD2    C512330   3.175   1.372  11.470  0.3942 -0.0705 -0.4905
  835MPD2     H12331   2.833   1.543  11.468  0.4674 -0.9830 -0.0440
  835MPD2    H112332   3.159   1.376  11.684  0.0621  0.0157 -0.4620
  835MPD2    H212333   3.187   1.393  11.263 -0.1810  0.3301 -0.7630
  835MPD2    H312334   3.267   1.316  11.466  0.6898  0.3995 -0.2636
  835MPD2     N12335   2.943   1.498  11.715  0.1355 -0.2355 -0.1036
  835MPD2    H512336   2.995   1.477  11.800 -0.3316  3.0814  1.0168
  835MPD2    N112337   2.946   1.530  11.229  0.4526 -0.0005 -0.1242
  835MPD2    H712338   2.851   1.566  11.227  1.0136  1.4299 -1.6093
  836MPD2     C12339   2.433   2.224  11.917 -0.2002 -0.5195  1.4470
  836MPD2    C112340   2.431   2.097  11.966  0.5840  0.1894  0.3333
  836MPD2    C212341   2.324   2.058  12.041 -0.1049  0.5497 -0.0338
  836MPD2    C312342   2.209   2.138  12.057  0.4563 -0.2901  1.0717
  836MPD2    C412343   2.212   2.260  11.997 -0.1296  0.1166  0.0752
  836MPD2    C512344   2.325   2.305  11.931 -0.5739 -0.3751 -0.2116
  836MPD2     H12345   2.323   1.954  12.072  1.6680  0.2050 -1.1640
  836MPD2    H112346   2.132   2.333  12.005 -1.6905 -1.5003 -0.7992
  836MPD2    H212347   2.516   2.280  11.877  0.1685 -0.4437  2.3206
  836MPD2    H312348   2.332   2.407  11.897  0.5915 -0.1782  0.6040
  836MPD2     N12349   2.098   2.098  12.137 -0.4209  0.4696 -0.3804
  836MPD2    H512350   2.027   2.168  12.155 -0.3851  0.7201 -1.2238
  836MPD2    N112351   2.539   2.002  11.940 -0.3705 -1.0461  0.0117
  836MPD2    H712352   2.628   2.042  11.910 -1.4491  0.0084 -1.7814
  837MPD2     C12353   1.169   1.374  10.061 -0.0775 -0.7178 -0.7978
  837MPD2    C112354   1.036   1.369  10.102 -0.1701  0.2203  0.1533
  837MPD2    C212355   0.980   1.469  10.175  0.2734 -0.8365  0.5333
  837MPD2    C312356   1.057   1.583  10.207 -0.3626 -0.6771  0.1261
  837MPD2    C412357   1.188   1.594  10.164 -0.2372 -0.2230 -0.1197
  837MPD2    C512358   1.243   1.487  10.091 -0.2196  0.0540 -0.0935
  837MPD2     H12359   0.884   1.451  10.220  0.0912 -0.4603  0.2986
  837MPD2    H112360   1.242   1.685  10.183 -1.0635  0.7746 -2.5940
  837MPD2    H212361   1.193   1.305   9.980 -0.6449 -1.7959 -0.0554
  837MPD2    H312362   1.347   1.490  10.062 -0.1800 -0.3606 -0.0050
  837MPD2     N12363   0.986   1.687  10.267  0.9568 -0.0493  0.1548
  837MPD2    H512364   0.888   1.672  10.291  0.4007  0.2397 -1.8921
  837MPD2    N112365   0.943   1.283  10.041  0.3109  0.6683  0.1246
  837MPD2    H712366   0.844   1.300  10.054  0.8952  2.0820  2.6241
  838MPD2     C12367   4.216   3.919  10.978 -0.7340  0.0963  0.3483
  838MPD2    C112368   4.271   3.979  11.087  0.2763  0.0031 -0.4176
  838MPD2    C212369   4.204   3.999  11.206 -0.4175 -0.4342 -0.2116
  838MPD2    C312370   4.071   3.960  11.214 -0.2616  0.1899 -0.4140
  838MPD2    C412371   4.008   3.899  11.111 -0.0095 -0.1395  0.7682
  838MPD2    C512372   4.087   3.876  10.997 -0.0758 -0.6594  0.3104
  838MPD2     H12373   4.255   4.037  11.293  1.1706  0.6758 -1.6413
  838MPD2    H112374   3.905   3.865  11.113 -0.0749  0.0630  0.8582
  838MPD2    H212375   4.254   3.903  10.878 -0.7308  0.4878  0.2877
  838MPD2    H312376   4.041   3.831  10.910 -2.1149  1.8383  0.1143
  838MPD2     N12377   4.006   3.982  11.330  0.3532  0.3459  0.2787
  838MPD2    H512378   4.055   4.043  11.395  1.5427  0.1946 -0.4765
  838MPD2    N112379   4.410   4.022  11.067  0.7628 -0.0889  0.7332
  838MPD2    H712380   4.453   4.075  11.143 -0.9373  1.7769  0.3975
  839MPD2     C12381   4.298   3.913  11.582  0.1713 -0.0435  0.2391
  839MPD2    C112382   4.329   3.786  11.525  0.3736 -0.1835 -0.2126
  839MPD2    C212383   4.458   3.776  11.466  0.6915  0.1971  0.4618
  839MPD2    C312384   4.551   3.885  11.463 -0.0436  0.0308 -0.1183
  839MPD2    C412385   4.521   4.003  11.527 -0.1492  0.1324  0.1142
  839MPD2    C512386   4.396   4.012  11.584  0.3318 -0.0890  0.2541
  839MPD2     H12387   4.492   3.683  11.423  3.0511  0.1324  2.4181
  839MPD2    H112388   4.582   4.092  11.518 -0.7993  0.3421 -2.2214
  839MPD2    H212389   4.209   3.938  11.638 -1.1798  0.1048 -1.9905
  839MPD2    H312390   4.364   4.109  11.619  2.0593  1.6398 -2.9626
  839MPD2     N12391   4.666   3.869  11.381 -0.8076 -0.2576  0.4578
  839MPD2    H512392   4.656   3.797  11.310  0.9983  0.3502 -0.3968
  839MPD2    N112393   4.241   3.673  11.520 -0.1540  0.2796 -0.9077
  839MPD2    H712394   4.278   3.592  11.471  1.9677  0.4889  0.3105
  840MPD2     C12395   4.187   1.939  10.731 -0.1040  0.5751 -0.2510
  840MPD2    C112396   4.162   1.865  10.838 -0.1552 -0.0901  0.7327
  840MPD2    C212397   4.230   1.890  10.958 -0.2786 -0.9740 -0.3822
  840MPD2    C312398   4.318   2.003  10.975  0.8967 -0.6203 -0.1844
  840MPD2    C412399   4.340   2.073  10.858 -0.1150 -0.2672  0.0503
  840MPD2    C512400   4.278   2.042  10.742  0.2559 -0.1867 -0.9194
  840MPD2     H12401   4.232   1.816  11.038 -1.1095  1.3558  1.7806
  840MPD2    H112402   4.410   2.156  10.854 -0.2318 -0.1927 -0.4519
  840MPD2    H212403   4.130   1.929  10.640 -0.0246 -0.6591 -0.1646
  840MPD2    H312404   4.294   2.099  10.651 -0.1766  0.8256 -0.3604
  840MPD2     N12405   4.386   2.039  11.097 -0.2934  0.1292 -0.2840
  840MPD2    H512406   4.462   2.106  11.088  0.1025 -0.4479 -1.2002
  840MPD2    N112407   4.074   1.751  10.818  0.4962 -0.3502 -0.2059
  840MPD2    H712408   4.041   1.734  10.724 -0.0127  0.4827 -0.1729
  841MPD2     C12409   4.038   1.891  15.262  0.1988  0.9989  0.3162
  841MPD2    C112410   4.114   1.786  15.216 -0.1422 -0.5623  1.0708
  841MPD2    C212411   4.230   1.815  15.135 -0.2326 -0.0556 -0.8428
  841MPD2    C312412   4.266   1.942  15.102 -0.1602 -0.3941  0.1271
  841MPD2    C412413   4.186   2.049  15.146 -0.2965 -0.1424  0.2911
  841MPD2    C512414   4.074   2.019  15.227  0.2276  0.1087  0.4820
  841MPD2     H12415   4.301   1.737  15.114 -0.5650  0.1836 -2.8974
  841MPD2    H112416   4.223   2.151  15.141  0.0323 -0.3021 -0.4907
  841MPD2    H212417   3.942   1.870  15.309 -0.0981  1.5419 -0.0439
  841MPD2    H312418   4.005   2.098  15.254  0.6494  0.8126 -0.4968
  841MPD2     N12419   4.386   1.952  15.024 -0.3071 -0.3291 -0.0248
  841MPD2    H512420   4.442   1.870  15.004  1.9393  1.1588  0.1163
  841MPD2    N112421   4.081   1.650  15.238 -0.1005  0.1894 -0.2273
  841MPD2    H712422   4.129   1.582  15.180 -0.2919 -0.3282  0.2315
  842MPD2     C12423   0.049   2.759  16.828 -0.6029 -0.0169 -0.5947
  842MPD2    C112424   4.671   2.688  16.851 -0.2246  0.8178 -0.6617
  842MPD2    C212425   4.638   2.645  16.984  0.6277  0.3830 -0.3488
  842MPD2    C312426   4.719   2.688  17.089 -0.0228 -0.2895 -0.0512
  842MPD2    C412427   0.095   2.763  17.067 -1.1066  0.5744  0.4893
  842MPD2    C512428   0.131   2.794  16.937 -0.2541 -0.2445 -0.2030
  842MPD2     H12429   4.545   2.590  16.990  0.2617  1.2472  1.8579
  842MPD2    H112430   0.161   2.797  17.145  1.2767 -0.9379 -0.8569
  842MPD2    H212431   0.073   2.803  16.732 -1.2277  1.7150  0.0386
  842MPD2    H312432   0.219   2.857  16.934  0.3993 -1.1760 -0.4089
  842MPD2     N12433   4.694   2.654  17.227 -0.5279  0.3532  0.3990
  842MPD2    H512434   0.013   2.692  17.301 -2.4484  2.2264  0.9942
  842MPD2    N112435   4.590   2.667  16.736  0.0564  0.3345 -0.0760
  842MPD2    H712436   4.619   2.706  16.646 -0.3557  0.8263  0.0084
  843MPD2     C12437   1.917   3.672  17.367  0.1748  0.7970  0.9222
  843MPD2    C112438   1.928   3.645  17.505  0.3916 -0.3173 -0.3887
  843MPD2    C212439   1.997   3.734  17.587  0.0072  0.3002 -0.4637
  843MPD2    C312440   2.037   3.858  17.541  0.2503 -0.4807  0.4241
  843MPD2    C412441   2.027   3.884  17.408 -0.6600  0.1203  0.0427
  843MPD2    C512442   1.982   3.786  17.323 -0.3672  0.3757  0.0522
  843MPD2     H12443   2.018   3.715  17.692 -0.0689 -0.2396 -0.5421
  843MPD2    H112444   2.070   3.966  17.351 -1.6619  1.0232  0.5668
  843MPD2    H212445   1.870   3.606  17.295  0.0833 -1.2766  2.8908
  843MPD2    H312446   1.979   3.811  17.218 -2.1808 -0.9966 -0.2315
  843MPD2     N12447   2.108   3.942  17.635 -0.3617 -0.5146 -0.3090
  843MPD2    H512448   2.124   3.915  17.732  0.8764  1.1710 -0.0352
  843MPD2    N112449   1.845   3.541  17.560 -0.2558  0.0343  0.1721
  843MPD2    H712450   1.788   3.499  17.487  0.7944  0.7206 -1.0484
  844MPD2     C12451   4.734   1.892  16.895  0.9682 -0.1358  0.4044
  844MPD2    C112452   0.054   1.937  16.781  0.6773 -0.3635 -0.3777
  844MPD2    C212453   0.174   1.998  16.800 -0.0564 -0.7192 -0.4397
  844MPD2    C312454   0.236   2.007  16.919 -0.0087  0.2540  0.6400
  844MPD2    C412455   0.177   1.953  17.032 -0.1714 -0.2563 -0.4904
  844MPD2    C512456   0.057   1.895  17.013 -0.1548 -0.4644 -0.1886
  844MPD2     H12457   0.234   2.030  16.715 -2.6390  1.1654 -1.5367
  844MPD2    H112458   0.216   1.951  17.133  1.7480  1.3855 -1.1907
  844MPD2    H212459   4.636   1.845  16.887  1.1822 -0.0493 -3.0158
  844MPD2    H312460   0.003   1.851  17.097  1.6769  0.9617  1.7032
  844MPD2     N12461   0.365   2.066  16.920  0.5050  0.0654 -0.0317
  844MPD2    H512462   0.388   2.122  16.838  0.0888  0.8141  0.3576
  844MPD2    N112463   0.000   1.928  16.649 -0.1673  0.3980 -0.1394
  844MPD2    H712464   0.063   1.953  16.573 -0.0244 -1.7131 -0.7187
  845MPD2     C12465   0.606   2.999  16.801 -0.2169  0.7086 -0.2873
  845MPD2    C112466   0.662   2.973  16.919 -0.2422  0.1135  0.4595
  845MPD2    C212467   0.678   2.837  16.959  0.3544  0.0666  0.0064
  845MPD2    C312468   0.641   2.731  16.883  0.0087 -0.0151  0.0994
  845MPD2    C412469   0.598   2.765  16.758  0.2462  0.2854 -0.1084
  845MPD2    C512470   0.577   2.895  16.714 -0.0531 -0.1214  0.4352
  845MPD2     H12471   0.722   2.808  17.054  0.3331  1.5056  0.4551
  845MPD2    H112472   0.570   2.697  16.679 -1.0781  1.3760 -0.5796
  845MPD2    H212473   0.590   3.104  16.777  0.5780  1.1736  1.2149
  845MPD2    H312474   0.536   2.917  16.616 -0.9677 -2.0970  0.3794
  845MPD2     N12475   0.652   2.600  16.931 -0.2604  0.3366 -0.5920
  845MPD2    H512476   0.682   2.586  17.027 -4.2448 -1.2352  0.4449
  845MPD2    N112477   0.700   3.086  17.000  0.5223  0.6454 -0.3088
  845MPD2    H712478   0.687   3.173  16.950 -1.9330 -0.7132 -2.0571
  846MPD2     C12479   1.882   3.417  13.613  0.7095  0.2317  0.1035
  846MPD2    C112480   1.780   3.493  13.649  0.7617  0.3263  0.4950
  846MPD2    C212481   1.709   3.454  13.758  0.8461 -0.5140  0.8627
  846MPD2    C312482   1.748   3.352  13.845  0.3211  0.0953  0.2062
  846MPD2    C412483   1.861   3.283  13.812 -0.2178 -0.3396 -0.5241
  846MPD2    C512484   1.927   3.317  13.696 -0.5157 -0.7230  0.5191
  846MPD2     H12485   1.619   3.509  13.782 -0.1873 -2.4033  1.2437
  846MPD2    H112486   1.890   3.197  13.871 -0.5527 -0.9327 -1.2332
  846MPD2    H212487   1.936   3.435  13.521 -1.9556 -0.1512 -1.5421
  846MPD2    H312488   2.004   3.249  13.661 -0.9654 -1.5280  1.0902
  846MPD2     N12489   1.667   3.329  13.965 -0.1637 -0.3081  0.2950
  846MPD2    H512490   1.584   3.387  13.971 -0.2989 -0.3937 -0.6766
  846MPD2    N112491   1.739   3.612  13.576  0.4238 -0.2526 -0.6543
  846MPD2    H712492   1.660   3.660  13.617 -0.1803 -0.8891 -1.0767
  847MPD2     C12493   2.327   4.045  14.126 -0.5663 -0.2215  0.3023
  847MPD2    C112494   2.417   4.117  14.205 -0.0005  0.5022 -0.2274
  847MPD2    C212495   2.478   4.049  14.314  0.2804  0.3907 -0.4395
  847MPD2    C312496   2.439   3.923  14.342  0.4762 -0.4534 -0.0265
  847MPD2    C412497   2.347   3.851  14.265  0.3375  0.0040 -0.4152
  847MPD2    C512498   2.296   3.913  14.154  0.1000  0.1668 -0.5183
  847MPD2     H12499   2.534   4.105  14.388  0.9490 -0.9827  0.1019
  847MPD2    H112500   2.304   3.764  14.313  0.4080 -0.6258 -1.4850
  847MPD2    H212501   2.286   4.081  14.033  1.4326  0.3416 -0.3537
  847MPD2    H312502   2.236   3.844  14.095 -1.3254  1.2389 -0.3290
  847MPD2     N12503   2.502   3.880  14.465 -0.0185 -0.0310 -0.1954
  847MPD2    H512504   2.568   3.946  14.505 -0.5695  0.5729 -0.2856
  847MPD2    N112505   2.457   4.252  14.172 -0.2462 -0.7149 -0.0008
  847MPD2    H712506   2.546   4.285  14.207 -0.6207 -1.8220  2.0112
  848MPD2     C12507   0.003   2.431  16.400 -0.2010 -0.2299 -0.2944
  848MPD2    C112508   0.067   2.493  16.502  0.4138  0.9949  0.4236
  848MPD2    C212509   0.144   2.607  16.478 -0.2150 -0.3759 -0.1499
  848MPD2    C312510   0.153   2.660  16.349 -0.2888  0.6647 -0.2444
  848MPD2    C412511   0.090   2.589  16.247  0.1861  0.2278 -0.2787
  848MPD2    C512512   0.027   2.476  16.273  0.5205  0.3454  0.2763
  848MPD2     H12513   0.194   2.662  16.557 -0.1870  1.1811 -1.2321
  848MPD2    H112514   0.090   2.624  16.145 -0.1615  1.8392  0.2745
  848MPD2    H212515   4.674   2.348  16.407  0.0896 -0.4488 -0.0117
  848MPD2    H312516   4.729   2.419  16.190  0.9915  0.8814 -0.3015
  848MPD2     N12517   0.229   2.777  16.315  0.6337  0.4873 -0.4520
  848MPD2    H512518   0.210   2.803  16.219  0.9382 -0.5890 -0.8063
  848MPD2    N112519   0.063   2.445  16.636  0.4403 -0.0799  0.5681
  848MPD2    H712520   0.116   2.510  16.695  0.8364 -0.2688  0.4219
  849MPD2     C12521   4.226   2.696  14.444 -0.1598 -0.1728  0.5060
  849MPD2    C112522   4.333   2.655  14.374  0.3341  0.5377 -0.7977
  849MPD2    C212523   4.419   2.567  14.437  0.1840 -0.1929  0.1592
  849MPD2    C312524   4.387   2.499  14.551 -0.1285  0.6090 -0.1521
  849MPD2    C412525   4.281   2.550  14.623  0.5751 -0.4112  0.3370
  849MPD2    C512526   4.207   2.653  14.569  0.8344  0.0477  0.4426
  849MPD2     H12527   4.510   2.539  14.386  0.2857 -1.8102  1.2367
  849MPD2    H112528   4.256   2.516  14.723 -0.2712  0.2487  0.3429
  849MPD2    H212529   4.170   2.782  14.408  1.9785  0.1474 -2.0222
  849MPD2    H312530   4.125   2.699  14.624  1.2997 -0.1477  1.3039
  849MPD2     N12531   4.462   2.394  14.597  0.1498 -0.0694  0.1618
  849MPD2    H512532   4.443   2.365  14.692  1.0760 -0.5720  0.1946
  849MPD2    N112533   4.357   2.707  14.241  0.3008  0.0308 -0.3740
  849MPD2    H712534   4.283   2.766  14.205  0.2820  0.8195  0.9622
  850MPD2     C12535   2.560   0.243  14.902 -0.4331 -0.3906  0.8136
  850MPD2    C112536   2.549   0.305  15.022 -0.6905  0.2533  0.9355
  850MPD2    C212537   2.656   0.305  15.110  0.7916 -0.8638  0.4167
  850MPD2    C312538   2.773   0.237  15.076 -1.1332  0.0106 -0.1934
  850MPD2    C412539   2.785   0.165  14.954  0.6575  0.3064  0.8475
  850MPD2    C512540   2.679   0.182  14.865  0.2931  0.1177 -1.0416
  850MPD2     H12541   2.654   0.357  15.206  2.2128 -2.1318  1.1412
  850MPD2    H112542   2.875   0.111  14.925 -1.1011 -1.6186 -1.0429
  850MPD2    H212543   2.474   0.250  14.837 -0.6290  0.4373  1.1614
  850MPD2    H312544   2.694   0.150  14.762 -0.7567 -0.6392 -0.9501
  850MPD2     N12545   2.894   0.263  15.154  0.1249  0.5790  0.2537
  850MPD2    H512546   2.977   0.261  15.096 -0.0921  2.3152 -0.1150
  850MPD2    N112547   2.419   0.365  15.047 -0.2748 -0.2041  0.7367
  850MPD2    H712548   2.368   0.406  14.969  2.5536  1.3418 -0.2806
  851MPD2     C12549   2.805   4.651  15.258  0.6799  0.1072 -0.6274
  851MPD2    C112550   2.686   4.654  15.324 -0.0468 -0.8074  0.0161
  851MPD2    C212551   2.604   4.545  15.337 -1.5053 -0.3965  0.5348
  851MPD2    C312552   2.642   4.432  15.268  0.6443 -0.0514  0.3447
  851MPD2    C412553   2.767   4.422  15.205 -0.0294  0.1365 -1.1854
  851MPD2    C512554   2.845   4.533  15.198 -0.3935 -0.9493 -0.2125
  851MPD2     H12555   2.503   4.551  15.375 -3.0933 -0.6584 -3.5895
  851MPD2    H112556   2.801   4.332  15.154 -0.5474  0.1033 -1.4735
  851MPD2    H212557   2.864   0.001  15.244 -0.0877  0.3779 -2.1109
  851MPD2    H312558   2.942   4.527  15.148  0.3135  0.1416  1.0254
  851MPD2     N12559   2.549   4.327  15.269 -0.0771 -0.2927 -0.4084
  851MPD2    H512560   2.458   4.339  15.313  0.9723  0.2895  1.5859
  851MPD2    N112561   2.646   0.043  15.362 -0.0849  0.1092 -0.1478
  851MPD2    H712562   2.688   0.119  15.310 -1.9482 -0.2884 -2.1990
  852MPD2     C12563   1.983   3.331  10.798 -0.6643  0.5250 -0.0048
  852MPD2    C112564   2.084   3.342  10.702 -0.0651  0.2729 -0.7005
  852MPD2    C212565   2.158   3.459  10.690 -0.1851 -0.3782 -0.5958
  852MPD2    C312566   2.127   3.566  10.772 -0.2123 -0.2177 -0.1375
  852MPD2    C412567   2.030   3.551  10.872  0.6149 -0.2621  0.6223
  852MPD2    C512568   1.960   3.434  10.876 -0.1278  0.7899 -0.3843
  852MPD2     H12569   2.236   3.474  10.617  0.4999 -1.0443 -0.0037
  852MPD2    H112570   2.010   3.634  10.938 -0.9958 -0.5990  0.5452
  852MPD2    H212571   1.916   3.246  10.789 -0.9051  0.9852 -2.5654
  852MPD2    H312572   1.888   3.429  10.957  0.0734 -0.7355 -0.3054
  852MPD2     N12573   2.198   3.679  10.738 -0.3978  0.8463  0.3265
  852MPD2    H512574   2.271   3.666  10.668  0.5413  0.4816  1.3849
  852MPD2    N112575   2.135   3.232  10.625  0.3211 -0.1026 -0.2112
  852MPD2    H712576   2.222   3.237  10.573 -0.6955 -0.3134 -1.9504
  853MPD2     C12577   3.907   3.132  12.542 -0.2401  0.3753 -0.2183
  853MPD2    C112578   3.774   3.165  12.552  0.4007 -0.8941  0.4044
  853MPD2    C212579   3.684   3.094  12.475 -0.7017 -0.2562  0.4936
  853MPD2    C312580   3.738   2.995  12.387  0.9812  0.4197  0.8552
  853MPD2    C412581   3.872   2.960  12.383  0.2747 -0.0984  0.1198
  853MPD2    C512582   3.952   3.032  12.461  0.2290 -0.2392 -0.0264
  853MPD2     H12583   3.579   3.107  12.500 -0.8227  0.2976 -0.2910
  853MPD2    H112584   3.909   2.876  12.325  2.2672 -1.5707  3.5952
  853MPD2    H212585   3.981   3.174  12.609 -0.7184  0.3531  0.3241
  853MPD2    H312586   4.059   3.013  12.466  0.3498  0.2764 -0.5952
  853MPD2     N12587   3.653   2.911  12.315  0.3183 -0.2227 -0.4237
  853MPD2    H512588   3.697   2.862  12.237  1.5737  1.3278 -0.6820
  853MPD2    N112589   3.740   3.257  12.653 -0.7994  0.1417 -0.7167
  853MPD2    H712590   3.811   3.270  12.724 -1.2120  0.0457 -0.2828
  854MPD2     C12591   0.505   3.321  12.731 -0.0037 -0.1301  0.3086
  854MPD2    C112592   0.618   3.328  12.654  0.6097  0.3159 -0.3000
  854MPD2    C212593   0.725   3.254  12.691 -0.1418 -0.2440 -0.0414
  854MPD2    C312594   0.722   3.178  12.808  0.1602  0.4564 -0.2792
  854MPD2    C412595   0.612   3.161  12.877 -0.6954  0.2888  0.2084
  854MPD2    C512596   0.499   3.232  12.829  0.0825  0.3472 -0.1438
  854MPD2     H12597   0.812   3.253  12.627  0.0366  0.1969  0.1906
  854MPD2    H112598   0.598   3.085  12.953 -1.7452 -0.1173 -0.3852
  854MPD2    H212599   0.415   3.376  12.706  0.2852  1.1863  2.2013
  854MPD2    H312600   0.408   3.216  12.887 -0.4493 -1.1155 -1.4048
  854MPD2     N12601   0.830   3.094  12.850 -0.3723  0.5642 -0.2370
  854MPD2    H512602   0.813   3.034  12.930 -2.1912 -0.0745 -1.1095
  854MPD2    N112603   0.613   3.419  12.548  0.4524  0.7930  0.3769
  854MPD2    H712604   0.525   3.470  12.540  0.3034  0.4369 -0.2460
  855MPD2     C12605   0.767   2.513  13.469  0.5662 -0.0752 -0.2249
  855MPD2    C112606   0.898   2.523  13.463  0.3955  0.4109 -0.4758
  855MPD2    C212607   0.959   2.621  13.388 -1.1267  0.6601 -0.0639
  855MPD2    C312608   0.884   2.710  13.309 -0.5321 -0.3400 -0.0982
  855MPD2    C412609   0.751   2.694  13.309 -0.2036 -0.0124 -1.0827
  855MPD2    C512610   0.692   2.596  13.391  0.6256 -0.1633 -0.1441
  855MPD2     H12611   1.067   2.633  13.389 -1.1710  1.2021 -1.0526
  855MPD2    H112612   0.692   2.769  13.258 -0.4781  0.3807 -0.1989
  855MPD2    H212613   0.707   2.440  13.521 -1.4258  1.2984 -0.6038
  855MPD2    H312614   0.585   2.580  13.378  0.1432  2.1385  0.8726
  855MPD2     N12615   0.932   2.814  13.227 -0.3457 -0.4859 -0.0670
  855MPD2    H512616   0.873   2.863  13.161  2.3321 -0.8957 -2.7685
  855MPD2    N112617   0.976   2.440  13.540  0.2136  0.9355 -0.2227
  855MPD2    H712618   1.076   2.457  13.552  0.3461 -0.2814  0.3730
  856MPD2     C12619   2.682   3.659  13.921  0.1986 -0.1222 -0.0619
  856MPD2    C112620   2.752   3.766  13.972 -0.0468  0.0331  0.6341
  856MPD2    C212621   2.710   3.897  13.944  0.4925  0.2006 -0.0763
  856MPD2    C312622   2.598   3.923  13.871 -0.1466  0.4668  0.1220
  856MPD2    C412623   2.529   3.818  13.818 -0.4759  0.4800  0.0457
  856MPD2    C512624   2.570   3.688  13.847  0.0182  0.2096 -0.3215
  856MPD2     H12625   2.769   3.979  13.983  1.6717 -1.0766  0.8413
  856MPD2    H112626   2.444   3.830  13.752  1.1213  2.6977 -1.6055
  856MPD2    H212627   2.723   3.560  13.935  0.5120  0.1972  1.2992
  856MPD2    H312628   2.515   3.607  13.802 -1.4866  1.7291 -1.1896
  856MPD2     N12629   2.554   4.047  13.829 -0.6501  0.7498 -0.7138
  856MPD2    H512630   2.482   4.058  13.759 -1.6251  1.7043  0.4442
  856MPD2    N112631   2.883   3.752  14.020 -0.0315 -0.4659 -0.0577
  856MPD2    H712632   2.937   3.837  14.032 -2.0520  0.7620  0.3252
  857MPD2     C12633   4.637   1.198  12.778 -0.8465 -0.0830 -0.0050
  857MPD2    C112634   0.029   1.196  12.759  0.2166  0.0630  0.1118
  857MPD2    C212635   0.112   1.301  12.801  0.4060  0.0154 -0.1893
  857MPD2    C312636   0.051   1.420  12.836  0.9068 -0.0740  0.0200
  857MPD2    C412637   4.657   1.430  12.832 -0.1955 -0.5127  0.1632
  857MPD2    C512638   4.577   1.321  12.794  0.1903  0.0797  0.3780
  857MPD2     H12639   0.217   1.283  12.778  0.8179  1.8685  0.2419
  857MPD2    H112640   4.596   1.514  12.861 -0.9180 -1.0151  0.1133
  857MPD2    H212641   4.572   1.112  12.763 -0.4247 -0.5698  0.9012
  857MPD2    H312642   4.470   1.338  12.800 -0.0127 -1.0814  0.0853
  857MPD2     N12643   0.138   1.525  12.882 -0.0637  0.2813  0.4293
  857MPD2    H512644   0.236   1.501  12.895 -0.3400 -1.0082  0.1755
  857MPD2    N112645   0.077   1.070  12.702 -0.0129 -0.0592  0.3044
  857MPD2    H712646   0.012   1.002  12.666  0.8106 -1.8033  2.1160
  858MPD2     C12647   0.413   0.358  16.849 -0.2947  0.5252  0.5684
  858MPD2    C112648   0.531   0.288  16.820  0.0186  0.3368  0.3031
  858MPD2    C212649   0.636   0.312  16.912 -0.2452  0.3965 -0.0428
  858MPD2    C312650   0.624   0.400  17.018  0.3100 -0.4179 -0.6759
  858MPD2    C412651   0.503   0.470  17.034  0.5624  0.9385  0.3911
  858MPD2    C512652   0.398   0.435  16.955 -0.1989  0.2625 -0.4099
  858MPD2     H12653   0.722   0.246  16.903 -1.1054 -0.3853 -2.7983
  858MPD2    H112654   0.489   0.543  17.114 -1.8520  1.1418 -0.2082
  858MPD2    H212655   0.329   0.344  16.782 -0.0480  2.3549 -0.1149
  858MPD2    H312656   0.308   0.490  16.977 -1.4163 -2.1596  0.7367
  858MPD2     N12657   0.728   0.422  17.112  0.5206  0.4775 -0.3651
  858MPD2    H512658   0.709   0.496  17.180  0.4366 -1.2435  1.4834
  858MPD2    N112659   0.541   0.212  16.704 -0.5909  0.0785 -0.1955
  858MPD2    H712660   0.460   0.216  16.643 -1.9057  0.3124  1.5413
  859MPD2     C12661   4.123   2.394  15.428 -0.3511 -0.2792  0.0302
  859MPD2    C112662   4.247   2.347  15.388 -0.2379  0.3738  0.3686
  859MPD2    C212663   4.300   2.221  15.431  0.0932 -0.1041  0.0137
  859MPD2    C312664   4.215   2.141  15.504 -0.0302  0.4178 -0.7251
  859MPD2    C412665   4.091   2.186  15.547  0.4138 -0.3008 -0.4076
  859MPD2    C512666   4.055   2.315  15.513 -0.0276  0.6527 -0.3528
  859MPD2     H12667   4.395   2.184  15.394 -0.0777 -0.7031  0.1846
  859MPD2    H112668   4.030   2.119  15.605 -1.8827  0.2142 -2.2431
  859MPD2    H212669   4.086   2.494  15.408 -3.2094 -1.7638 -2.1460
  859MPD2    H312670   3.957   2.344  15.550  0.1423  0.7425  0.0321
  859MPD2     N12671   4.243   2.009  15.536 -0.8418  0.1313 -0.2318
  859MPD2    H512672   4.178   1.959  15.596 -0.1787 -1.3530 -0.7431
  859MPD2    N112673   4.315   2.422  15.287 -0.1313  0.0252 -0.2830
  859MPD2    H712674   4.264   2.506  15.261 -0.8796 -0.2666  0.2369
  860MPD2     C12675   2.198   3.003  11.812 -0.0903 -0.0036  0.0842
  860MPD2    C112676   2.161   2.944  11.933 -0.0817  0.4810  0.0046
  860MPD2    C212677   2.041   2.892  11.948  0.4532  0.2728  0.1204
  860MPD2    C312678   1.946   2.891  11.838  0.4125  0.3263  0.6365
  860MPD2    C412679   1.986   2.931  11.714  0.4843  0.0946 -0.0093
  860MPD2    C512680   2.111   2.988  11.709  0.3926  0.1910  0.3682
  860MPD2     H12681   2.008   2.859  12.046  0.3513 -0.2853 -0.1027
  860MPD2    H112682   1.926   2.929  11.624 -1.0277  3.2949  0.9191
  860MPD2    H212683   2.294   3.051  11.800 -0.9570  1.6395 -0.2875
  860MPD2    H312684   2.154   3.014  11.613 -3.8165 -1.7232 -2.0649
  860MPD2     N12685   1.819   2.833  11.860  0.4067  0.2364  0.0197
  860MPD2    H512686   1.803   2.797  11.953 -0.2725 -1.8419 -0.8917
  860MPD2    N112687   2.239   2.952  12.048 -0.0592  0.0869  0.2769
  860MPD2    H712688   2.204   2.900  12.128 -0.5409 -1.9847 -1.2939
  861MPD2     C12689   0.882   0.786  10.766 -0.0598  0.9050  0.4819
  861MPD2    C112690   0.839   0.883  10.860 -0.3984 -0.2081  0.3877
  861MPD2    C212691   0.765   0.983  10.799 -0.3555  0.3760 -0.1107
  861MPD2    C312692   0.722   0.987  10.668 -0.5946  0.6030  0.9381
  861MPD2    C412693   0.764   0.879  10.581  0.7263  0.7816  0.0793
  861MPD2    C512694   0.856   0.784  10.632 -0.2728 -0.7457 -0.4061
  861MPD2     H12695   0.746   1.070  10.859 -0.2291 -0.3617  0.9947
  861MPD2    H112696   0.742   0.867  10.476 -0.8084 -1.3538  0.6387
  861MPD2    H212697   0.955   0.713  10.799 -0.0051  0.8503  0.2405
  861MPD2    H312698   0.893   0.704  10.569 -0.7062 -1.6950  0.5412
  861MPD2     N12699   0.632   1.082  10.628 -0.4682 -0.1167 -0.2431
  861MPD2    H512700   0.586   1.059  10.540 -0.5865 -0.6445 -0.0468
  861MPD2    N112701   0.877   0.888  10.997  0.5266  0.5683 -0.6319
  861MPD2    H712702   0.843   0.968  11.049  0.4931  0.9637 -1.2620
  862MPD2     C12703   0.118   0.925  10.231 -0.5532 -0.5920 -0.7402
  862MPD2    C112704   0.229   0.914  10.310  0.3870  0.4852  0.0365
  862MPD2    C212705   0.289   0.791  10.324 -0.3355  0.7181 -0.3405
  862MPD2    C312706   0.239   0.681  10.263 -0.3074  0.4547  0.4042
  862MPD2    C412707   0.128   0.694  10.175 -0.5332 -0.4101  0.5221
  862MPD2    C512708   0.070   0.816  10.160  0.3071  0.0990  0.0189
  862MPD2     H12709   0.369   0.785  10.396  1.0985 -3.5098 -2.3057
  862MPD2    H112710   0.085   0.616  10.114 -1.4744  2.4262 -2.3989
  862MPD2    H212711   0.077   1.022  10.204  0.4857 -0.8188 -3.0701
  862MPD2    H312712   4.719   0.824  10.102  0.1422  0.6035  0.3510
  862MPD2     N12713   0.281   0.549  10.295 -0.3879 -0.4235  0.2101
  862MPD2    H512714   0.227   0.474  10.253 -2.7592  0.6871  1.2878
  862MPD2    N112715   0.271   1.017  10.398 -0.2031 -0.4511 -0.5017
  862MPD2    H712716   0.339   1.000  10.472 -0.7809  1.6643  0.5016
  863MPD2     C12717   3.969   4.409  16.747  0.5293 -0.3446 -0.4950
  863MPD2    C112718   3.878   4.313  16.795 -0.0333 -0.1616  0.4402
  863MPD2    C212719   3.925   4.206  16.866  0.1474 -0.2770  0.3596
  863MPD2    C312720   4.062   4.198  16.904  1.0741 -0.1207 -0.1301
  863MPD2    C412721   4.149   4.299  16.859  0.0628 -0.6142 -0.7110
  863MPD2    C512722   4.104   4.396  16.774  0.1265 -0.6131  0.0598
  863MPD2     H12723   3.851   4.136  16.902 -0.6992  1.2159  1.5178
  863MPD2    H112724   4.256   4.302  16.874  0.0515 -1.9166 -0.3657
  863MPD2    H212725   3.946   4.496  16.686 -0.8486 -0.1546  0.2928
  863MPD2    H312726   4.179   4.453  16.721 -1.4537  0.6411 -0.7991
  863MPD2     N12727   4.110   4.115  17.003 -0.5592  0.1292 -0.3630
  863MPD2    H512728   4.197   4.143  17.047  0.7115  0.8239 -3.3690
  863MPD2    N112729   3.737   4.323  16.768  0.2401 -0.7192 -0.3872
  863MPD2    H712730   3.682   4.238  16.757 -2.8440  1.4698 -1.7087
  864MPD2     C12731   4.467   0.734  17.342 -0.1037 -0.3639 -0.0547
  864MPD2    C112732   4.454   0.701  17.207  0.4566 -0.8220 -0.1746
  864MPD2    C212733   4.443   0.801  17.112  0.0202  0.6021  0.4506
  864MPD2    C312734   4.482   0.930  17.140 -0.5208 -0.3471  0.6975
  864MPD2    C412735   4.517   0.956  17.267  0.2353  0.4767  0.2744
  864MPD2    C512736   4.511   0.862  17.367  0.5739 -0.7283  0.1302
  864MPD2     H12737   4.418   0.770  17.012 -1.0594 -0.3683  1.0271
  864MPD2    H112738   4.552   1.055  17.294  0.9039  0.1642  0.5315
  864MPD2    H212739   4.473   0.664  17.424 -0.9780 -1.5998 -1.0446
  864MPD2    H312740   4.532   0.886  17.470  2.1550  1.2294 -0.6706
  864MPD2     N12741   4.474   1.035  17.047  0.0899  0.2817 -0.5477
  864MPD2    H512742   4.479   1.127  17.090  3.6062 -0.5107  0.7092
  864MPD2    N112743   4.441   0.572  17.180 -0.0035 -0.6165 -0.3187
  864MPD2    H712744   4.452   0.517  17.265  1.4417 -1.5991 -1.1312
  865MPD2     C12745   4.133   0.820  16.088  0.0772 -0.0594 -0.5777
  865MPD2    C112746   4.182   0.704  16.145  0.0306 -0.1283 -0.2253
  865MPD2    C212747   4.227   0.718  16.274  0.2863  0.5760  0.4401
  865MPD2    C312748   4.229   0.830  16.354 -0.0128  0.0918 -1.2118
  865MPD2    C412749   4.182   0.944  16.294  0.1029 -0.3706  0.3624
  865MPD2    C512750   4.140   0.939  16.159  0.2407  0.3503  0.2419
  865MPD2     H12751   4.274   0.625  16.303  1.4365  0.4953 -1.6037
  865MPD2    H112752   4.195   1.040  16.341 -0.2308  0.0401 -0.3755
  865MPD2    H212753   4.105   0.829  15.983 -2.0539 -0.4100 -0.0529
  865MPD2    H312754   4.123   1.033  16.108  2.7841  0.4908 -0.3307
  865MPD2     N12755   4.301   0.834  16.479  0.2819 -0.0603  0.2621
  865MPD2    H512756   4.298   0.926  16.523  1.4306 -0.5709  1.4238
  865MPD2    N112757   4.192   0.577  16.092 -0.0132 -0.9202 -0.0073
  865MPD2    H712758   4.228   0.507  16.156 -1.9747 -0.0135  2.0903
  866MPD2     C12759   1.175   1.726  11.320  0.0049 -0.0840 -0.3927
  866MPD2    C112760   1.159   1.708  11.187  0.9080 -0.4756  0.2025
  866MPD2    C212761   1.039   1.672  11.138  0.2890  0.0674 -0.7257
  866MPD2    C312762   0.930   1.653  11.223  0.1423 -0.3307  0.2371
  866MPD2    C412763   0.943   1.692  11.357 -0.3415 -0.5278  0.1768
  866MPD2    C512764   1.061   1.743  11.402  1.1345  0.2389  0.3184
  866MPD2     H12765   1.026   1.649  11.033 -1.0811  2.2637 -1.0424
  866MPD2    H112766   0.858   1.688  11.425 -0.2984 -0.6395  0.2242
  866MPD2    H212767   1.270   1.763  11.354 -0.5759  1.2125 -0.1792
  866MPD2    H312768   1.065   1.777  11.504  0.1173 -0.8046  0.7056
  866MPD2     N12769   0.800   1.625  11.183 -0.1715  0.0159  0.1134
  866MPD2    H512770   0.729   1.612  11.255  0.9358  1.4834  1.4618
  866MPD2    N112771   1.279   1.707  11.110  0.3326  1.4044 -0.6810
  866MPD2    H712772   1.363   1.727  11.162  1.0511  1.7129 -1.9551
  867MPD2     C12773   3.025   0.560  16.706 -0.6443  0.0867  0.2606
  867MPD2    C112774   3.115   0.567  16.807 -0.1049  0.2210  0.0033
  867MPD2    C212775   3.115   0.684  16.888 -0.3455  0.6748 -0.1451
  867MPD2    C312776   3.011   0.775  16.871 -0.3652 -0.4030  0.2467
  867MPD2    C412777   2.919   0.765  16.771 -0.1922 -0.0552  0.0852
  867MPD2    C512778   2.927   0.653  16.684 -0.2727  0.0291  0.8399
  867MPD2     H12779   3.194   0.713  16.956 -1.4990 -1.7233  2.1826
  867MPD2    H112780   2.844   0.842  16.755  1.1664  1.7065  2.1010
  867MPD2    H212781   3.032   0.481  16.632 -1.0253  0.6367 -0.3688
  867MPD2    H312782   2.857   0.636  16.603 -2.5690 -0.5258  2.9242
  867MPD2     N12783   3.007   0.894  16.948  0.3471 -0.2022  1.2870
  867MPD2    H512784   2.965   0.977  16.907  0.6491 -1.0465 -0.7089
  867MPD2    N112785   3.214   0.465  16.808  0.9387  0.1763 -0.0780
  867MPD2    H712786   3.216   0.400  16.731 -1.7093  0.8634 -0.7309
  868MPD2     C12787   0.564   0.161  13.492 -0.0708  0.6237 -0.4507
  868MPD2    C112788   0.556   0.024  13.476 -0.2249 -0.1217 -0.5390
  868MPD2    C212789   0.459   4.701  13.555  0.0583 -0.5446 -0.4448
  868MPD2    C312790   0.397   0.024  13.661 -0.5342 -0.0861 -0.2513
  868MPD2    C412791   0.416   0.161  13.684  0.4817  0.0587  0.2960
  868MPD2    C512792   0.493   0.229  13.589  0.7664 -0.7097  0.0378
  868MPD2     H12793   0.430   4.599  13.533  1.4163 -0.8422 -0.8919
  868MPD2    H112794   0.394   0.214  13.776  0.5538  0.7992 -0.1096
  868MPD2    H212795   0.621   0.222  13.423 -1.9236  1.2764 -1.3874
  868MPD2    H312796   0.504   0.335  13.608  1.4170 -0.5095 -1.5004
  868MPD2     N12797   0.328   4.681  13.750  0.3742  0.0940 -0.6326
  868MPD2    H512798   0.347   4.582  13.738 -2.3517 -0.4021 -0.9400
  868MPD2    N112799   0.641   4.699  13.383 -0.5306  0.6375  0.4553
  868MPD2    H712800   0.707   0.014  13.329 -1.0780  1.0874  0.2531
  869MPD2     C12801   1.352   1.981   0.235 -0.1040 -0.4142  0.1534
  869MPD2    C112802   1.334   2.005   0.367  0.1955  0.0514 -0.7916
  869MPD2    C212803   1.418   2.087   0.434 -0.3744 -0.6556  0.2521
  869MPD2    C312804   1.511   2.158   0.366  0.1103  0.0150  0.0148
  869MPD2    C412805   1.519   2.151   0.229 -0.3291 -0.6318  0.3474
  869MPD2    C512806   1.444   2.053   0.162 -0.2818 -0.0126  0.3733
  869MPD2     H12807   1.423   2.068   0.541  0.7304 -1.2166  0.0929
  869MPD2    H112808   1.577   2.224   0.174 -1.0257 -0.3594 -0.0244
  869MPD2    H212809   1.288   1.911   0.183  0.3259 -0.0050 -0.9322
  869MPD2    H312810   1.450   2.044   0.054 -0.7197  1.1729  0.2533
  869MPD2     N12811   1.592   2.253   0.433 -0.0303 -0.0443 -0.1937
  869MPD2    H512812   1.676   2.283   0.384 -1.9391  1.7973 -2.3496
  869MPD2    N112813   1.251   1.908   0.438 -0.0770  0.3288 -0.2636
  869MPD2    H712814   1.204   1.833   0.388 -1.5492  1.0826  0.0126
  870MPD2     C12815   1.170   0.986   1.521 -1.2773  0.3329 -0.7959
  870MPD2    C112816   1.169   1.015   1.385 -0.6573 -0.7651 -0.1323
  870MPD2    C212817   1.091   1.120   1.339  0.4652 -0.0395  0.0607
  870MPD2    C312818   1.023   1.202   1.426  1.0844 -0.5791 -0.0444
  870MPD2    C412819   1.020   1.173   1.562  0.3595  0.0817 -0.2011
  870MPD2    C512820   1.093   1.064   1.608 -0.2660 -0.4430 -0.1101
  870MPD2     H12821   1.096   1.135   1.232 -0.5264  1.7473  0.2625
  870MPD2    H112822   0.981   1.249   1.630  0.3003  0.2212 -0.3909
  870MPD2    H212823   1.224   0.900   1.559  0.6413  1.5326 -0.7847
  870MPD2    H312824   1.110   1.041   1.712  0.6520 -1.7594 -0.5567
  870MPD2     N12825   0.940   1.309   1.372  0.6804  0.0460 -0.4127
  870MPD2    H512826   0.945   1.321   1.272  2.5300 -0.5833 -0.3951
  870MPD2    N112827   1.250   0.935   1.299  0.3384  0.0874 -0.1541
  870MPD2    H712828   1.278   0.848   1.343  0.7463  0.5394  0.4697
  871MPD2     C12829   2.283   0.955  16.352  0.9931  0.1271 -0.2227
  871MPD2    C112830   2.261   0.861  16.456  0.6746  0.0316 -0.5909
  871MPD2    C212831   2.265   0.728  16.424  0.1930 -0.5641 -0.2102
  871MPD2    C312832   2.286   0.684  16.294 -0.2376  0.3000 -0.2008
  871MPD2    C412833   2.318   0.768  16.196 -1.0974  0.2012  0.1942
  871MPD2    C512834   2.303   0.904  16.223 -0.7805 -0.1006 -0.2971
  871MPD2     H12835   2.252   0.663  16.510  1.3410 -0.6301 -0.0882
  871MPD2    H112836   2.336   0.723  16.100 -0.7700 -1.9780  1.2812
  871MPD2    H212837   2.288   1.063  16.360  0.9296  0.3955 -3.7540
  871MPD2    H312838   2.319   0.971  16.140 -1.7804  1.0018  0.4117
  871MPD2     N12839   2.291   0.545  16.282  0.0673  0.4632 -0.3615
  871MPD2    H512840   2.267   0.488  16.362 -0.4133  0.9923 -0.1342
  871MPD2    N112841   2.239   0.924  16.581 -0.8089 -0.0028 -0.0127
  871MPD2    H712842   2.224   1.024  16.584  0.3093  0.0900  2.4326
  872MPD2     C12843   3.080   2.866  13.957 -0.1589  0.8924 -0.6130
  872MPD2    C112844   2.993   2.974  13.939 -0.0753 -0.5770  0.5782
  872MPD2    C212845   2.864   2.972  13.997  0.8034  0.8933  0.4351
  872MPD2    C312846   2.831   2.875  14.089 -0.2450  0.1812  0.6180
  872MPD2    C412847   2.914   2.771  14.113 -0.1092 -0.1892  0.1224
  872MPD2    C512848   3.037   2.767  14.040 -0.0873  0.4146  0.3535
  872MPD2     H12849   2.805   3.061  13.980  0.1136  0.4638  0.5631
  872MPD2    H112850   2.889   2.691  14.182 -2.1498  1.0928  0.9013
  872MPD2    H212851   3.179   2.867  13.914 -0.4942 -1.5371 -1.5083
  872MPD2    H312852   3.100   2.680  14.056 -0.4401 -0.5346 -3.3892
  872MPD2     N12853   2.703   2.881  14.146 -0.1349 -0.4010  0.1576
  872MPD2    H512854   2.682   2.816  14.221  0.0594  0.1941  0.7241
  872MPD2    N112855   3.023   3.088  13.866 -0.6955 -0.3870  0.0422
  872MPD2    H712856   2.952   3.161  13.863  0.3128  0.5214 -1.9452
  873MPD2     C12857   0.241   2.865   1.432  0.3675 -0.3356  0.3161
  873MPD2    C112858   0.145   2.934   1.358 -0.0780  0.4696  0.0438
  873MPD2    C212859   0.015   2.882   1.350  0.0389 -0.1298 -0.1405
  873MPD2    C312860   4.724   2.778   1.432  0.1842 -0.0234  0.7627
  873MPD2    C412861   0.081   2.700   1.494 -0.2207 -0.3199  0.1167
  873MPD2    C512862   0.209   2.747   1.488 -0.6361 -0.0903  0.4581
  873MPD2     H12863   4.678   2.933   1.293 -1.5325 -0.6444  1.5217
  873MPD2    H112864   0.050   2.625   1.566  1.2010  0.8356  1.9710
  873MPD2    H212865   0.340   2.908   1.429  1.6991 -3.4085  0.2167
  873MPD2    H312866   0.288   2.692   1.538 -0.5845 -0.6485 -0.2292
  873MPD2     N12867   4.593   2.733   1.459 -0.4263 -0.2721  0.1466
  873MPD2    H512868   4.578   2.657   1.525  0.5200  0.3361  1.0635
  873MPD2    N112869   0.193   3.057   1.315  0.0831  0.4184  0.5929
  873MPD2    H712870   0.283   3.089   1.350  0.7608 -0.4721 -0.3520
  874MPD2     C12871   4.601   2.657  15.974 -0.2192 -0.5815  0.2738
  874MPD2    C112872   4.559   2.745  16.075  0.6201  0.0835  0.1231
  874MPD2    C212873   4.623   2.866  16.096 -0.4007  0.5508  0.0470
  874MPD2    C312874   4.725   2.903  16.016  0.3776  0.3618  0.2972
  874MPD2    C412875   0.030   2.818  15.920  0.3202 -0.3791  0.8390
  874MPD2    C512876   4.709   2.696  15.906 -0.2274  0.3138  0.3057
  874MPD2     H12877   4.589   2.934  16.173 -2.4624 -2.2999  1.6275
  874MPD2    H112878   0.106   2.841  15.845  1.6034 -0.6200  2.0731
  874MPD2    H212879   4.570   2.558  15.943  1.6974 -1.0423 -0.1878
  874MPD2    H312880   0.002   2.641  15.818 -0.7141  0.1623  0.2219
  874MPD2     N12881   0.057   3.021  16.052  0.1534 -0.0559 -0.0529
  874MPD2    H512882   0.033   3.077  16.132  1.9432  0.2065  0.2972
  874MPD2    N112883   4.460   2.707  16.172  0.0355 -0.0937 -0.3472
  874MPD2    H712884   4.426   2.613  16.154 -0.2082  0.1874 -1.3893
  875MPD2     C12885   1.012   1.715  14.541 -0.6000 -0.0301  0.1214
  875MPD2    C112886   0.877   1.732  14.583  0.4036  0.2833  0.2256
  875MPD2    C212887   0.845   1.791  14.703 -0.5037  0.0155  0.1907
  875MPD2    C312888   0.945   1.850  14.776 -0.6468 -0.8803 -0.1012
  875MPD2    C412889   1.073   1.851  14.724  0.0453  0.5211 -0.6684
  875MPD2    C512890   1.106   1.766  14.623 -0.1107  0.1033  0.2416
  875MPD2     H12891   0.744   1.783  14.742 -1.3276  1.0473 -1.7095
  875MPD2    H112892   1.155   1.893  14.781 -0.9003 -0.4998  1.4723
  875MPD2    H212893   1.041   1.654  14.456  0.5169  0.0752  0.4374
  875MPD2    H312894   1.207   1.759  14.586 -0.3312 -2.2646  0.1336
  875MPD2     N12895   0.928   1.903  14.910  0.2955 -0.3409 -0.0609
  875MPD2    H512896   1.013   1.941  14.951  0.4561  0.8254 -1.4780
  875MPD2    N112897   0.767   1.686  14.510  0.2975 -0.9121 -0.2507
  875MPD2    H712898   0.676   1.706  14.551  1.2946  2.3464  0.3874
  876MPD2     C12899   4.440   3.145  15.655 -0.3820  0.5520  0.2698
  876MPD2    C112900   4.546   3.069  15.628  0.3286 -0.3983 -0.3176
  876MPD2    C212901   4.535   2.932  15.636 -0.1174 -0.4465  0.6328
  876MPD2    C312902   4.419   2.873  15.667  0.3480  0.1128 -0.0102
  876MPD2    C412903   4.314   2.955  15.691 -0.3971  0.1802  0.1253
  876MPD2    C512904   4.324   3.086  15.684  0.2064 -0.0823 -0.5586
  876MPD2     H12905   4.622   2.869  15.622  0.1346 -0.1443  0.8446
  876MPD2    H112906   4.218   2.912  15.717  0.0160 -1.3934 -0.9194
  876MPD2    H212907   4.429   3.252  15.654 -0.1612  0.5784  0.4557
  876MPD2    H312908   4.241   3.151  15.709  1.9732  1.0141  2.5436
  876MPD2     N12909   4.415   2.733  15.666  0.1796 -0.2967  0.6068
  876MPD2    H512910   4.493   2.674  15.639 -0.7485 -0.3842 -1.8410
  876MPD2    N112911   4.664   3.137  15.594  0.0124  0.3254 -0.0332
  876MPD2    H712912   4.660   3.239  15.589  0.2577  0.2762 -1.1895
  877MPD2     C12913   4.598   3.462  15.012 -0.5656  0.0312  0.0618
  877MPD2    C112914   4.712   3.381  14.990  0.3684  0.2150  0.4276
  877MPD2    C212915   4.731   3.324  14.861 -0.4138  0.7035 -0.0713
  877MPD2    C312916   4.656   3.349  14.754 -0.7095  0.1900 -0.8126
  877MPD2    C412917   4.544   3.431  14.768 -0.0922 -0.4336  0.2040
  877MPD2    C512918   4.516   3.479  14.900 -0.4172  0.6645 -0.2368
  877MPD2     H12919   0.069   3.250  14.849  1.9217  3.4733 -2.0537
  877MPD2    H112920   4.476   3.453  14.687 -0.2936 -0.6225  0.3219
  877MPD2    H212921   4.573   3.506  15.107  0.1697 -0.9369  0.6993
  877MPD2    H312922   4.426   3.536  14.919 -1.7160 -0.3089 -3.5547
  877MPD2     N12923   4.681   3.295  14.628  0.6645  0.2214 -0.4658
  877MPD2    H512924   4.612   3.311  14.556  1.1226  0.5083 -0.8395
  877MPD2    N112925   0.059   3.336  15.096 -0.1731  0.1710  0.3202
  877MPD2    H712926   0.143   3.281  15.080 -0.1018  0.6237 -0.9324
  878MPD2     C12927   4.027   2.753  13.288 -1.1640 -0.4705  0.9832
  878MPD2    C112928   4.147   2.817  13.287  0.6522  0.4573 -0.5420
  878MPD2    C212929   4.242   2.819  13.389 -0.6691 -0.3343  0.3896
  878MPD2    C312930   4.203   2.757  13.509 -0.2041 -0.4285 -0.6141
  878MPD2    C412931   4.079   2.698  13.514  0.2154  0.2250 -0.1497
  878MPD2    C512932   3.996   2.698  13.403  0.6378  0.0373  0.0358
  878MPD2     H12933   4.340   2.863  13.379 -1.1219  0.7880  0.9517
  878MPD2    H112934   4.050   2.633  13.596  1.4732 -1.3431 -0.9233
  878MPD2    H212935   3.954   2.763  13.209 -1.3141 -0.7952  1.0810
  878MPD2    H312936   3.902   2.648  13.418  1.3039 -0.9735  0.8497
  878MPD2     N12937   4.298   2.747  13.611  0.0978  0.0806 -0.3292
  878MPD2    H512938   4.395   2.774  13.597  0.0431  1.0256  0.9812
  878MPD2    N112939   4.171   2.884  13.166 -0.6306 -0.6519 -0.3077
  878MPD2    H712940   4.104   2.877  13.091 -1.1830  0.0105  0.1274
  879MPD2     C12941   4.503   4.018  17.136  0.4186 -0.4649  1.1425
  879MPD2    C112942   4.530   3.904  17.208  0.2357  0.5075 -0.1476
  879MPD2    C212943   4.506   3.776  17.156  0.5250  0.9139  0.1130
  879MPD2    C312944   4.446   3.768  17.026  0.5108  0.8935 -0.2000
  879MPD2    C412945   4.421   3.885  16.955  0.2562 -0.3848 -0.6321
  879MPD2    C512946   4.444   4.008  17.009  0.0147  0.5190 -0.3031
  879MPD2     H12947   4.506   3.691  17.224  3.3774  0.7187 -0.1457
  879MPD2    H112948   4.388   3.876  16.852  1.2613  1.6960 -1.1378
  879MPD2    H212949   4.532   4.118  17.166  2.1902 -0.5171 -0.3855
  879MPD2    H312950   4.417   4.099  16.956  0.7093  0.2042 -1.1934
  879MPD2     N12951   4.410   3.646  16.955 -0.4755  0.0189 -0.0465
  879MPD2    H512952   4.365   3.665  16.866  0.0608  1.3482 -0.0350
  879MPD2    N112953   4.580   3.924  17.339 -0.1236  0.9880  1.1028
  879MPD2    H712954   4.591   4.021  17.369  1.2423  1.2653 -0.2672
  880MPD2     C12955   0.951   0.475   0.619  0.0945 -0.7354  0.6053
  880MPD2    C112956   1.046   0.553   0.554 -0.2278 -0.9003 -0.2023
  880MPD2    C212957   1.179   0.519   0.547 -0.4229  0.1148 -0.1834
  880MPD2    C312958   1.216   0.404   0.611  0.8159  0.3271  1.3375
  880MPD2    C412959   1.126   0.325   0.670  0.3987  0.4019  0.1340
  880MPD2    C512960   0.994   0.356   0.666  0.3503  0.1997 -0.3111
  880MPD2     H12961   1.254   0.582   0.502  0.0234 -0.0034  0.3908
  880MPD2    H112962   1.142   0.230   0.720 -0.1942 -1.3986 -3.1006
  880MPD2    H212963   0.848   0.508   0.629  0.1975 -0.0724 -0.4495
  880MPD2    H312964   0.921   0.286   0.704  1.5025 -0.8834 -0.0818
  880MPD2     N12965   1.352   0.382   0.617  0.3431 -0.2033 -0.2209
  880MPD2    H512966   1.413   0.457   0.583 -0.2946  0.8537  0.9483
  880MPD2    N112967   1.009   0.680   0.502  0.2742  0.1768 -0.0435
  880MPD2    H712968   0.913   0.705   0.520  0.6333  2.1961 -0.8639
  881MPD2     C12969   1.215   1.579  17.697  0.3782  0.3898 -0.1802
  881MPD2    C112970   1.179   1.465  17.624 -0.5298  0.0880  0.6511
  881MPD2    C212971   1.152   1.351  17.689 -0.3602  0.7613 -0.1196
  881MPD2    C312972   1.124   1.351   0.068  1.1038  0.4692  0.3519
  881MPD2    C412973   1.145   1.469   0.130 -0.1050 -1.4328  0.2672
  881MPD2    C512974   1.192   1.581   0.077  0.3442  0.1582  0.5589
  881MPD2     H12975   1.130   1.260  17.634  1.3494  0.5747 -0.4692
  881MPD2    H112976   1.114   1.471   0.234 -1.5485 -0.4714 -0.1844
  881MPD2    H212977   1.275   1.657  17.651  0.2498  0.4072 -0.3190
  881MPD2    H312978   1.215   1.671   0.134  1.1777 -0.7214  1.6364
  881MPD2     N12979   1.067   1.248   0.149 -0.5591 -0.2252  0.4711
  881MPD2    H512980   1.053   1.267   0.248  0.3116  1.1353  0.3316
  881MPD2    N112981   1.206   1.455  17.492  0.3420 -0.0083  0.1766
  881MPD2    H712982   1.213   1.367  17.442  1.8175 -0.8974  1.9535
  882MPD2     C12983   4.452   3.121  13.810  0.0542  0.3915 -0.9954
  882MPD2    C112984   4.435   3.085  13.947 -0.1787  0.4534  0.6678
  882MPD2    C212985   4.309   3.049  13.987 -0.8551 -0.2503 -0.0225
  882MPD2    C312986   4.204   3.034  13.900  0.8276 -0.3829  0.0303
  882MPD2    C412987   4.228   3.054  13.769 -0.0790  0.1521  0.1561
  882MPD2    C512988   4.349   3.094  13.724  0.5217 -0.0987  0.2015
  882MPD2     H12989   4.289   3.044  14.094  1.0217  1.5018  0.3969
  882MPD2    H112990   4.149   3.038  13.696  0.0793  2.3356 -0.4831
  882MPD2    H212991   4.551   3.151  13.778  1.8994 -1.7561  2.6422
  882MPD2    H312992   4.370   3.115  13.620 -1.0325  1.5641  0.2259
  882MPD2     N12993   4.078   2.984  13.942 -0.1926  0.3610  0.0695
  882MPD2    H512994   4.007   2.992  13.870  0.6366  0.6052 -0.7157
  882MPD2    N112995   4.536   3.106  14.039  0.5890 -0.8516  0.1896
  882MPD2    H712996   4.627   3.129  14.001 -0.3308  1.4624 -0.5913
  883MPD2     C12997   1.747   3.028  16.601  0.5684 -0.1720 -0.0007
  883MPD2    C112998   1.821   3.064  16.493 -0.1526  0.2793 -0.2525
  883MPD2    C212999   1.962   3.072  16.505 -0.6205 -0.8705 -0.3755
  883MPD2    C313000   2.015   3.047  16.629  0.2301  0.2836  0.5234
  883MPD2    C413001   1.942   3.019  16.739 -0.4213  0.4711  0.5239
  883MPD2    C513002   1.803   3.013  16.726  0.4992  0.1929 -0.0960
  883MPD2     H13003   2.018   3.110  16.421 -2.7942  1.3513 -0.8098
  883MPD2    H113004   1.973   3.005  16.842  0.4459 -0.7302  0.0974
  883MPD2    H213005   1.639   3.022  16.604  0.5863  0.7786  2.0684
  883MPD2    H313006   1.746   3.002  16.818 -0.6463 -2.4008 -1.1160
  883MPD2     N13007   2.152   3.076  16.646  0.2517  0.2709 -0.1999
  883MPD2    H513008   2.196   3.103  16.559  0.7640  0.3246  0.0732
  883MPD2    N113009   1.769   3.097  16.369 -0.3330  0.2121  0.7197
  883MPD2    H713010   1.828   3.131  16.293 -3.1425  0.2283 -1.4667
  884MPD2     C13011   3.765   3.776  15.237  0.3041  0.0139  0.3874
  884MPD2    C113012   3.718   3.889  15.183 -0.4856  0.9410 -0.1144
  884MPD2    C213013   3.578   3.911  15.194 -0.0010  1.0257  0.4512
  884MPD2    C313014   3.494   3.815  15.246 -0.4544  0.2654  0.0450
  884MPD2    C413015   3.548   3.705  15.303 -0.3608  0.2413  0.1294
  884MPD2    C513016   3.682   3.687  15.299  0.7091 -0.0881  0.2131
  884MPD2     H13017   3.537   3.994  15.138 -1.3551 -0.3500 -0.5759
  884MPD2    H113018   3.491   3.628  15.352 -0.3519  0.3394  0.2926
  884MPD2    H213019   3.871   3.754  15.238  0.4227  0.6023  0.7695
  884MPD2    H313020   3.719   3.594  15.340  0.2102 -0.2914  0.2004
  884MPD2     N13021   3.356   3.851  15.244 -0.1345  0.2145  0.0429
  884MPD2    H513022   3.333   3.935  15.192 -0.9346  0.8167  1.3909
  884MPD2    N113023   3.797   3.984  15.110  0.3608  0.0551  0.2082
  884MPD2    H713024   3.748   4.052  15.054 -0.1349 -0.8432 -0.4481
  885MPD2     C13025   1.834   3.955   0.280 -0.4885  0.3798  0.6948
  885MPD2    C113026   1.874   4.081   0.298 -0.1018 -0.2583 -0.1331
  885MPD2    C213027   1.866   4.166   0.185 -0.5975 -0.0374  0.4649
  885MPD2    C313028   1.835   4.125   0.057  0.2486 -0.0908  0.2807
  885MPD2    C413029   1.803   3.992   0.048 -0.8324  0.3983 -0.6840
  885MPD2    C513030   1.800   3.910   0.154 -0.5819 -0.1267 -0.0998
  885MPD2     H13031   1.898   4.270   0.184  2.0166 -0.8469  0.6460
  885MPD2    H113032   1.780   3.953  17.707  0.2568 -1.6125 -0.1421
  885MPD2    H213033   1.835   3.886   0.363 -2.3493  0.1706  0.5473
  885MPD2    H313034   1.774   3.805   0.147 -1.8666  0.1895 -0.0852
  885MPD2     N13035   1.843   4.211  17.709  0.4157  0.1837  0.2404
  885MPD2    H513036   1.874   4.306  17.728 -0.7985  0.7095 -0.4174
  885MPD2    N113037   1.912   4.119   0.431 -0.1251  0.8873  0.1880
  885MPD2    H713038   1.913   4.046   0.502  0.5515 -0.4289 -1.1806
  886MPD2     C13039   3.134   2.725  15.600 -0.1335 -0.5755  0.3433
  886MPD2    C113040   3.252   2.668  15.555 -0.4038 -0.5007 -0.8819
  886MPD2    C213041   3.297   2.680  15.429 -0.3597  0.1302 -0.1825
  886MPD2    C313042   3.226   2.754  15.337 -0.7332 -0.5427 -0.0204
  886MPD2    C413043   3.110   2.814  15.380 -0.6412  0.0549  0.5747
  886MPD2    C513044   3.064   2.794  15.505  0.3155 -0.0177 -0.2150
  886MPD2     H13045   3.381   2.625  15.389 -0.8300 -1.2973  0.7897
  886MPD2    H113046   3.041   2.872  15.318  0.1797  0.2885 -0.1217
  886MPD2    H213047   3.088   2.703  15.695 -1.6933  0.0946 -0.2526
  886MPD2    H313048   2.975   2.846  15.536  0.0431 -1.5560  1.5869
  886MPD2     N13049   3.285   2.772  15.207 -0.0142 -0.3451 -0.2541
  886MPD2    H513050   3.368   2.716  15.188  0.3782  0.0884  0.1948
  886MPD2    N113051   3.331   2.584  15.634  0.1246 -0.1943  0.2863
  886MPD2    H713052   3.397   2.522  15.589 -1.6067 -2.2813  0.6006
  887MPD2     C13053   3.774   2.611  16.371 -0.6225  1.0394 -0.2944
  887MPD2    C113054   3.750   2.654  16.244  0.7309 -0.0650  0.8068
  887MPD2    C213055   3.802   2.786  16.223 -0.7195 -0.2211 -0.0661
  887MPD2    C313056   3.889   2.851  16.310 -0.4838  1.0254  0.8259
  887MPD2    C413057   3.928   2.788  16.425 -0.4534 -0.4054 -0.4017
  887MPD2    C513058   3.863   2.674  16.457  0.7364 -0.4788  0.2018
  887MPD2     H13059   3.779   2.840  16.132 -0.6099  0.2289  0.1754
  887MPD2    H113060   3.997   2.830  16.496  1.0589 -0.4347 -1.8684
  887MPD2    H213061   3.736   2.519  16.415 -0.3340  0.0883 -2.0775
  887MPD2    H313062   3.868   2.628  16.555 -0.3293 -0.9955  0.0186
  887MPD2     N13063   3.938   2.976  16.265  1.0521 -0.2037  0.6292
  887MPD2    H513064   3.905   3.015  16.177 -0.3527 -0.3236  1.1092
  887MPD2    N113065   3.679   2.584  16.139 -0.0066  0.0570  0.2353
  887MPD2    H713066   3.656   2.634  16.054 -0.5859 -1.9290 -0.7965
  888MPD2     C13067   1.336   2.846  15.449 -0.2933  0.3328 -0.7450
  888MPD2    C113068   1.201   2.843  15.474  0.4217 -0.4373  0.9046
  888MPD2    C213069   1.121   2.933  15.414  0.1343 -0.0873 -0.8210
  888MPD2    C313070   1.170   3.043  15.339 -0.1815 -0.6847 -0.5127
  888MPD2    C413071   1.305   3.046  15.328  0.0822  0.0172 -1.0442
  888MPD2    C513072   1.387   2.953  15.377  0.4539  0.0107 -0.4919
  888MPD2     H13073   1.014   2.935  15.435  0.3585  0.1910  0.3002
  888MPD2    H113074   1.355   3.123  15.271 -1.3803  1.5346 -0.2854
  888MPD2    H213075   1.418   2.797  15.499 -1.6341  0.2802  1.3896
  888MPD2    H313076   1.494   2.956  15.357  0.9336 -0.7864  1.9867
  888MPD2     N13077   1.076   3.137  15.283 -0.3338 -0.2461  0.1232
  888MPD2    H513078   0.977   3.135  15.305 -0.5864  3.6432 -0.7359
  888MPD2    N113079   1.139   2.751  15.563 -0.1993  0.4592  0.6457
  888MPD2    H713080   1.038   2.751  15.569 -0.2579  1.1733 -0.3698
  889MPD2     C13081   0.287   2.270  12.674 -0.7244  0.4072 -0.1552
  889MPD2    C113082   0.226   2.244  12.791  0.0891  0.4182  0.5847
  889MPD2    C213083   0.164   2.354  12.856 -0.1118  0.1652  0.4187
  889MPD2    C313084   0.162   2.479  12.800  0.1864  0.8077 -0.2150
  889MPD2    C413085   0.213   2.497  12.673  0.4330 -0.3694  0.2094
  889MPD2    C513086   0.271   2.388  12.609  0.0866 -0.4059 -0.0733
  889MPD2     H13087   0.121   2.341  12.954  0.6695 -0.1404  0.7245
  889MPD2    H113088   0.195   2.589  12.618 -0.1172 -0.0282  0.9584
  889MPD2    H213089   0.329   2.191  12.613 -0.6149 -0.7445  1.4073
  889MPD2    H313090   0.309   2.408  12.510  2.2150 -2.2866  0.3504
  889MPD2     N13091   0.093   2.584  12.872  0.0894  0.2875 -0.4496
  889MPD2    H513092   0.062   2.557  12.965 -0.7086 -0.2759 -0.8788
  889MPD2    N113093   0.262   2.132  12.871  0.4955  0.1682  0.2148
  889MPD2    H713094   0.223   2.126  12.964 -1.1333 -0.3778 -0.4969
  890MPD2     C13095   4.153   3.742  14.725 -0.6279  0.4468  1.0847
  890MPD2    C113096   4.281   3.777  14.700  0.0522 -0.1483  0.0991
  890MPD2    C213097   4.369   3.793  14.803  0.1199 -0.8373  0.0925
  890MPD2    C313098   4.332   3.775  14.935  0.7832  0.3617  0.5669
  890MPD2    C413099   4.201   3.740  14.960  0.0245 -1.0065  0.1665
  890MPD2    C513100   4.113   3.715  14.853 -0.1261  0.3363 -0.4625
  890MPD2     H13101   4.471   3.825  14.791 -0.7472  2.2552  1.0406
  890MPD2    H113102   4.161   3.729  15.060  1.6909 -0.0159  0.9512
  890MPD2    H213103   4.086   3.732  14.640  0.6803 -2.5375  0.4138
  890MPD2    H313104   4.010   3.700  14.882 -0.5241 -1.5492 -2.7882
  890MPD2     N13105   4.436   3.795  15.029  0.9250  0.2013  0.0263
  890MPD2    H513106   4.528   3.807  14.988 -0.3712  1.7666 -2.3963
  890MPD2    N113107   4.321   3.787  14.564  0.1786  0.8262  1.4402
  890MPD2    H713108   4.249   3.807  14.495  0.3664 -1.2968  0.6191
  891MPD2     C13109   3.049   2.592  16.765  1.1344  0.1828  0.1344
  891MPD2    C113110   2.959   2.527  16.853 -0.3342  0.6232  0.2772
  891MPD2    C213111   2.996   2.433  16.951 -0.0023 -0.4610 -0.3769
  891MPD2    C313112   3.126   2.387  16.949 -0.1813 -0.2308 -0.6431
  891MPD2    C413113   3.216   2.445  16.857  0.7489  0.0390  0.4905
  891MPD2    C513114   3.181   2.553  16.774 -0.2476 -0.7784 -0.2909
  891MPD2     H13115   2.927   2.390  17.022  0.9492  1.5286  1.7683
  891MPD2    H113116   3.318   2.409  16.856  0.9394  0.5678  0.7072
  891MPD2    H213117   3.023   2.672  16.698 -0.1581 -0.3770 -0.0295
  891MPD2    H313118   3.258   2.595  16.711  0.3817 -1.0408  0.3060
  891MPD2     N13119   3.161   2.281  17.039 -0.8159  0.0655 -0.3095
  891MPD2    H513120   3.086   2.240  17.093 -0.1450 -2.1644 -1.0664
  891MPD2    N113121   2.823   2.580  16.851 -0.3540  0.2895  0.8906
  891MPD2    H713122   2.803   2.644  16.775  0.3183 -2.6227 -1.7721
  892MPD2     C13123   3.642   3.353  14.604  0.5548  0.5716 -0.1612
  892MPD2    C113124   3.535   3.304  14.528 -0.3068  0.0477  0.4631
  892MPD2    C213125   3.553   3.247  14.409  0.4121  0.1321 -0.2093
  892MPD2    C313126   3.683   3.227  14.364  0.4162  0.1690  0.8397
  892MPD2    C413127   3.790   3.284  14.427 -0.1972 -0.1977 -0.4685
  892MPD2    C513128   3.767   3.338  14.546  0.6420  0.0388 -0.0661
  892MPD2     H13129   3.466   3.208  14.358  1.7137 -0.2655 -2.0987
  892MPD2    H113130   3.891   3.281  14.390  0.0544  0.4121  0.1705
  892MPD2    H213131   3.635   3.396  14.703 -0.6931  2.0307 -0.8752
  892MPD2    H313132   3.854   3.384  14.590  2.2763 -0.4545 -2.8439
  892MPD2     N13133   3.714   3.155  14.249  0.2433 -0.0508 -0.1774
  892MPD2    H513134   3.811   3.134  14.228  0.5363 -1.6105  2.6324
  892MPD2    N113135   3.408   3.300  14.579  0.1908  0.0364 -0.2010
  892MPD2    H713136   3.337   3.269  14.514 -0.7612 -0.0391  0.8691
  893MPD2     C13137   1.504   2.840   1.704 -0.1522 -0.5085 -0.2986
  893MPD2    C113138   1.405   2.758   1.653 -0.7568 -0.7419 -0.1795
  893MPD2    C213139   1.277   2.805   1.642 -0.5632 -0.1779  0.7961
  893MPD2    C313140   1.246   2.932   1.688 -0.1321 -0.2741 -0.7527
  893MPD2    C413141   1.343   3.010   1.738 -0.3018 -0.3952  0.0420
  893MPD2    C513142   1.477   2.968   1.740  0.8059 -0.3281  0.2789
  893MPD2     H13143   1.202   2.733   1.611 -1.7387  0.6963  1.6259
  893MPD2    H113144   1.313   3.109   1.769  2.2599  0.7044 -1.0012
  893MPD2    H213145   1.605   2.800   1.704  0.4381  1.0443  2.5660
  893MPD2    H313146   1.556   3.028   1.782  0.1055  1.1824 -0.5585
  893MPD2     N13147   1.118   2.987   1.669 -0.7931  0.3620  0.3266
  893MPD2    H513148   1.091   3.075   1.712 -2.0739 -0.3331  0.9530
  893MPD2    N113149   1.436   2.619   1.638 -0.2002  0.3245 -0.0009
  893MPD2    H713150   1.531   2.599   1.664  0.1766  2.3191  0.2000
  894MPD2     C13151   3.396   4.225   1.666 -0.1513 -0.3804  1.0888
  894MPD2    C113152   3.298   4.275   1.583  0.5290  0.2435 -0.3090
  894MPD2    C213153   3.336   4.341   1.469  0.5260 -0.3959 -0.2344
  894MPD2    C313154   3.472   4.345   1.441  0.0435  0.9708  0.2980
  894MPD2    C413155   3.570   4.298   1.523 -0.1971  0.8367  1.2187
  894MPD2    C513156   3.527   4.248   1.641  0.3360  0.2967 -0.5741
  894MPD2     H13157   3.263   4.383   1.402 -0.0639  0.9762  1.2939
  894MPD2    H113158   3.678   4.303   1.518 -0.1912 -0.2352  0.3120
  894MPD2    H213159   3.380   4.188   1.767 -0.9314  1.1211  1.5234
  894MPD2    H313160   3.598   4.207   1.712 -1.8284 -0.0115  1.4065
  894MPD2     N13161   3.495   4.407   1.317 -0.5862 -0.0100  0.2166
  894MPD2    H513162   3.417   4.452   1.271 -1.0469 -1.2223 -0.1904
  894MPD2    N113163   3.162   4.277   1.622 -0.0943  0.3563  0.6211
  894MPD2    H713164   3.098   4.320   1.555 -0.2012 -3.1265 -1.5282
  895MPD2     C13165   2.793   2.446  14.053  0.4932  0.0498  0.3182
  895MPD2    C113166   2.726   2.441  13.935  0.3261  0.0463  0.0247
  895MPD2    C213167   2.789   2.369  13.834 -0.4460  0.3580  0.1832
  895MPD2    C313168   2.914   2.309  13.853 -0.0860 -0.3414 -0.2402
  895MPD2    C413169   2.985   2.328  13.968  0.5698 -0.1200 -0.0158
  895MPD2    C513170   2.923   2.394  14.072 -0.3076 -0.1776  0.8539
  895MPD2     H13171   2.734   2.357  13.741 -2.9062  1.5234  1.4838
  895MPD2    H113172   3.082   2.283  13.986  0.1534 -0.3562  1.6128
  895MPD2    H213173   2.747   2.489  14.141 -0.7155 -1.6999  0.5321
  895MPD2    H313174   2.976   2.397  14.167  0.7406  3.1545  0.1732
  895MPD2     N13175   2.956   2.236  13.742  0.3876  0.2249  0.3804
  895MPD2    H513176   2.887   2.230  13.669  1.1108  1.8037 -0.4274
  895MPD2    N113177   2.607   2.512  13.900 -0.0520  0.3005  0.0470
  895MPD2    H713178   2.590   2.510  13.800 -0.3597 -0.5528  0.1184
  896MPD2     C13179   0.297   0.799   1.061 -0.2297  0.5355  0.2854
  896MPD2    C113180   0.246   0.684   1.004  0.5300  0.1876  0.7590
  896MPD2    C213181   0.109   0.681   0.984  0.5477 -0.1032  1.1095
  896MPD2    C313182   0.023   0.778   1.018  0.3003 -0.4014  0.2832
  896MPD2    C413183   0.069   0.886   1.088  0.4390  1.2855  0.0586
  896MPD2    C513184   0.204   0.899   1.092 -0.4106  0.0972  0.4947
  896MPD2     H13185   0.059   0.591   0.951 -0.4983  0.6519  0.6132
  896MPD2    H113186   0.006   0.965   1.129 -0.2362  0.9014 -0.2330
  896MPD2    H213187   0.403   0.807   1.085  0.0218 -2.6973  0.2377
  896MPD2    H313188   0.235   0.990   1.141 -3.3646  0.1958  2.1589
  896MPD2     N13189   4.633   0.755   0.979 -0.4595  0.4879 -0.6812
  896MPD2    H513190   4.618   0.671   0.924 -0.1813  0.3814 -0.5930
  896MPD2    N113191   0.337   0.578   0.985  0.0271 -0.2292 -0.3937
  896MPD2    H713192   0.436   0.599   0.995 -0.3488  0.4139  1.9917
  897MPD2     C13193   1.354   1.696  10.466  0.2631 -0.3634  0.5499
  897MPD2    C113194   1.388   1.816  10.521  0.7442 -0.1056  0.4012
  897MPD2    C213195   1.323   1.868  10.633 -0.1254  0.2271  0.7402
  897MPD2    C313196   1.200   1.811  10.661  0.4438 -0.7435 -0.2461
  897MPD2    C413197   1.167   1.685  10.611  0.3257  0.4745  0.5106
  897MPD2    C513198   1.249   1.622  10.516  0.0875  0.8422 -0.3897
  897MPD2     H13199   1.337   1.967  10.674 -1.3227  0.9668 -0.6283
  897MPD2    H113200   1.069   1.647  10.636  0.2668 -0.9493 -1.8005
  897MPD2    H213201   1.414   1.655  10.385 -2.0457 -0.1788 -1.2637
  897MPD2    H313202   1.209   1.534  10.468 -1.2679  0.2477  1.8157
  897MPD2     N13203   1.118   1.878  10.757  0.2686  0.2016  0.4134
  897MPD2    H513204   1.156   1.961  10.802  1.0161  0.5473 -0.8640
  897MPD2    N113205   1.489   1.883  10.447  0.2180  0.1904  0.0905
  897MPD2    H713206   1.499   1.858  10.349 -0.8878  0.9614 -0.2120
  898MPD2     C13207   3.207   3.106  17.382  0.5236 -1.0998  0.7805
  898MPD2    C113208   3.183   3.228  17.435 -0.4821 -0.0570  0.7001
  898MPD2    C213209   3.181   3.338  17.347  0.2901 -0.1146 -0.5511
  898MPD2    C313210   3.195   3.322  17.212  0.3239  0.0463 -0.0018
  898MPD2    C413211   3.224   3.196  17.165  0.0713 -0.5963  0.0895
  898MPD2    C513212   3.228   3.097  17.252  0.6419 -0.2545 -0.1217
  898MPD2     H13213   3.157   3.438  17.383  0.5360 -0.3919  0.3593
  898MPD2    H113214   3.226   3.164  17.062  1.8352 -1.2600  0.3179
  898MPD2    H213215   3.195   3.012  17.435 -1.4539 -0.7370  0.9784
  898MPD2    H313216   3.266   3.001  17.216 -0.8658 -1.2299  0.9185
  898MPD2     N13217   3.169   3.440  17.139  0.0061  0.2468 -0.7790
  898MPD2    H513218   3.137   3.519  17.194  2.8637  0.2063  0.9632
  898MPD2    N113219   3.169   3.259  17.571  0.2770  0.2838  0.1106
  898MPD2    H713220   3.162   3.358  17.591 -0.8276  0.2561 -0.1771
  899MPD2     C13221   3.994   3.370  17.145  0.6751  0.1528  0.3572
  899MPD2    C113222   4.030   3.433  17.265 -0.2037 -0.5095  0.6126
  899MPD2    C213223   4.021   3.358  17.386 -0.0965  0.0025 -0.2867
  899MPD2    C313224   3.984   3.224  17.387 -0.6538 -0.2786  0.5270
  899MPD2    C413225   3.949   3.170  17.273 -0.2358 -0.4594 -0.4043
  899MPD2    C513226   3.959   3.238  17.152  0.3886  0.2240 -0.1743
  899MPD2     H13227   4.029   3.415  17.478 -0.5158  1.7931 -1.3581
  899MPD2    H113228   3.922   3.065  17.272  0.2237 -0.5576 -2.0813
  899MPD2    H213229   4.006   3.412  17.046 -0.0300 -1.1165 -0.2762
  899MPD2    H313230   3.944   3.187  17.058  0.7817  0.4412 -0.3517
  899MPD2     N13231   3.973   3.141  17.499  0.1568 -0.6956  0.1357
  899MPD2    H513232   3.948   3.043  17.488 -3.9568  0.2936  0.9247
  899MPD2    N113233   4.058   3.568  17.254 -0.5563 -0.6733 -0.2837
  899MPD2    H713234   4.046   3.602  17.160  2.3516  0.6460 -0.1653
  900MPD2     C13235   3.501   0.763  12.020  0.2854  0.1913  0.2566
  900MPD2    C113236   3.451   0.722  12.145 -0.1035  0.3216  0.5529
  900MPD2    C213237   3.353   0.803  12.200  0.3012 -0.0751 -0.0923
  900MPD2    C313238   3.306   0.916  12.127 -0.0879 -0.0942 -0.5220
  900MPD2    C413239   3.341   0.945  11.996  0.2151  0.4826  0.5422
  900MPD2    C513240   3.441   0.866  11.947 -0.1725  0.1607 -0.0747
  900MPD2     H13241   3.320   0.782  12.301 -1.0336 -1.1081 -0.7568
  900MPD2    H113242   3.301   1.024  11.934 -1.7444 -0.7250  0.2830
  900MPD2    H213243   3.579   0.708  11.968  1.2791  0.6113  1.2939
  900MPD2    H313244   3.480   0.882  11.847  0.6772 -2.1522 -0.1096
  900MPD2     N13245   3.218   1.001  12.197 -0.4527  0.2827 -0.0823
  900MPD2    H513246   3.190   0.971  12.290 -0.9364 -1.0410 -0.6630
  900MPD2    N113247   3.511   0.617  12.215  0.1657 -0.3013 -0.5222
  900MPD2    H713248   3.590   0.571  12.170  0.9193 -0.0627  0.5590
  901MPD2     C13249   3.340   4.349  12.338  0.1216  0.4343  0.3308
  901MPD2    C113250   3.442   4.360  12.432 -0.1785 -0.1056 -0.3067
  901MPD2    C213251   3.493   4.487  12.467 -0.2814 -0.2515  0.7694
  901MPD2    C313252   3.440   4.603  12.408 -0.4399  0.1574  0.2508
  901MPD2    C413253   3.343   4.587  12.309  0.1842 -0.2036  0.6811
  901MPD2    C513254   3.291   4.465  12.271  0.2394 -0.3425  0.5313
  901MPD2     H13255   3.570   4.496  12.543  1.4112 -2.3943 -0.6639
  901MPD2    H113256   3.321   4.675  12.249 -0.1101  0.4517  1.7660
  901MPD2    H213257   3.309   4.249  12.312 -0.3180  0.3232  1.2647
  901MPD2    H313258   3.213   4.449  12.198  1.0677 -0.4685 -0.3218
  901MPD2     N13259   3.497   4.730  12.445 -0.7620  0.3686 -0.0189
  901MPD2    H513260   3.584   4.726  12.497 -0.1053  1.7434 -0.9929
  901MPD2    N113261   3.506   4.245  12.473 -0.1007  0.1323  0.4961
  901MPD2    H713262   3.459   4.160  12.443 -1.1068  0.2777  1.6553
  902MPD2     C13263   2.224   3.433  13.518 -0.3634  0.1122  0.6613
  902MPD2    C113264   2.251   3.561  13.468  0.4167 -0.4248 -0.6000
  902MPD2    C213265   2.384   3.605  13.461 -0.0152 -0.5645  0.0116
  902MPD2    C313266   2.485   3.520  13.493  0.3773 -0.4437  0.1515
  902MPD2    C413267   2.455   3.396  13.547  0.2703  0.1399  0.2616
  902MPD2    C513268   2.332   3.355  13.569 -0.7246  0.0788  0.1084
  902MPD2     H13269   2.406   3.701  13.416 -0.3291 -1.1239 -1.3293
  902MPD2    H113270   2.535   3.329  13.577  0.8129 -0.3745 -2.3833
  902MPD2    H213271   2.123   3.396  13.529  0.8348 -3.3591 -0.1540
  902MPD2    H313272   2.317   3.250  13.594 -1.1158  0.3961  1.1887
  902MPD2     N13273   2.619   3.531  13.454  0.9621  0.8110 -0.6302
  902MPD2    H513274   2.678   3.454  13.482  1.3871  0.9718 -1.0873
  902MPD2    N113275   2.142   3.637  13.429 -0.2422 -0.1150 -0.3383
  902MPD2    H713276   2.052   3.594  13.415 -0.7543  0.3738  1.5776
  903MPD2     C13277   2.490   3.621  12.791 -0.1076  0.6268  0.4149
  903MPD2    C113278   2.567   3.513  12.806 -0.1065  0.2128  0.0304
  903MPD2    C213279   2.527   3.389  12.752 -0.1438 -1.2585  0.2857
  903MPD2    C313280   2.427   3.393  12.650 -0.0863  0.3661  0.0348
  903MPD2    C413281   2.361   3.514  12.628 -0.0463  0.4371 -0.2981
  903MPD2    C513282   2.393   3.620  12.700  0.3369 -0.0558 -0.3183
  903MPD2     H13283   2.580   3.298  12.778  1.4034 -0.2503  0.6929
  903MPD2    H113284   2.276   3.525  12.561 -0.1612  0.6523 -0.1154
  903MPD2    H213285   2.503   3.714  12.845  0.6149  0.6836  0.1481
  903MPD2    H313286   2.330   3.706  12.679  1.4171  0.6691 -0.5866
  903MPD2     N13287   2.405   3.274  12.571  0.4992 -0.1109 -0.2038
  903MPD2    H513288   2.470   3.197  12.581 -0.2280 -0.5477  1.1789
  903MPD2    N113289   2.673   3.528  12.895 -0.1572  0.4292 -0.2418
  903MPD2    H713290   2.690   3.624  12.923 -0.1114 -0.2435  2.0163
  904MPD2     C13291   2.399   2.027  14.450 -0.4303 -0.4674 -0.6259
  904MPD2    C113292   2.422   1.996  14.315 -0.0651 -0.3240  0.0573
  904MPD2    C213293   2.554   2.000  14.268  0.2822 -0.3250 -0.2804
  904MPD2    C313294   2.659   2.034  14.361 -0.0145  0.6382  0.1844
  904MPD2    C413295   2.635   2.066  14.499 -0.8776  0.1072  0.1035
  904MPD2    C513296   2.504   2.069  14.534 -0.4934 -0.6141  0.2382
  904MPD2     H13297   2.576   1.973  14.165  0.2997 -3.3280  0.5150
  904MPD2    H113298   2.712   2.097  14.570  0.3075  0.8011 -1.4940
  904MPD2    H213299   2.304   2.007  14.497 -1.0345  0.3504 -1.5154
  904MPD2    H313300   2.474   2.083  14.637  0.0633 -1.1928  0.4796
  904MPD2     N13301   2.787   2.029  14.300  0.0483  0.3802 -0.4256
  904MPD2    H513302   2.801   1.984  14.210 -0.5302 -0.8164  0.0748
  904MPD2    N113303   2.312   1.974  14.228 -0.1008 -0.1272 -0.7759
  904MPD2    H713304   2.323   1.955  14.129  2.3242 -0.6147 -0.4196
  905MPD2     C13305   2.294   1.871  13.615  0.2447  0.5177 -0.0664
  905MPD2    C113306   2.366   1.987  13.664  0.0843 -0.1188 -0.2449
  905MPD2    C213307   2.503   1.996  13.631 -0.3716  0.2749 -0.2909
  905MPD2    C313308   2.542   1.915  13.528 -0.6576 -0.4774  0.1915
  905MPD2    C413309   2.471   1.805  13.489  0.7962 -0.8997  0.4068
  905MPD2    C513310   2.340   1.784  13.526 -0.2557  0.4455 -0.2501
  905MPD2     H13311   2.567   2.056  13.694  0.8081  0.2053 -1.4219
  905MPD2    H113312   2.506   1.737  13.412  0.7600 -0.9865  0.4680
  905MPD2    H213313   2.192   1.858  13.649  0.7429  0.2279  1.3001
  905MPD2    H313314   2.282   1.697  13.496  0.4174 -0.3391  0.7383
  905MPD2     N13315   2.674   1.933  13.466 -0.4969 -0.2280 -0.0374
  905MPD2    H513316   2.703   1.855  13.408  0.7610  1.2295 -1.3333
  905MPD2    N113317   2.283   2.059  13.753  0.0153 -0.0560  0.6500
  905MPD2    H713318   2.190   2.025  13.775 -1.1585  2.9388  0.2763
  906MPD2     C13319   4.588   1.537  11.722  0.1700  0.5144 -0.2222
  906MPD2    C113320   4.490   1.629  11.693 -0.1613 -0.2260 -0.4101
  906MPD2    C213321   4.351   1.606  11.716  1.0529  0.0318 -0.5246
  906MPD2    C313322   4.312   1.482  11.784  0.7797 -0.4252 -0.4291
  906MPD2    C413323   4.413   1.390  11.810 -0.5359  0.2667 -0.3613
  906MPD2    C513324   4.543   1.423  11.782 -0.2932 -0.4568  0.0248
  906MPD2     H13325   4.283   1.680  11.677  0.2732 -0.5288 -0.2362
  906MPD2    H113326   4.392   1.304  11.872 -0.7772  0.2520 -0.4632
  906MPD2    H213327   4.692   1.555  11.696  0.2151  0.9137  0.2428
  906MPD2    H313328   4.619   1.347  11.799 -0.7438 -0.6718  1.1099
  906MPD2     N13329   4.183   1.440  11.812  0.1947 -0.2008  0.2549
  906MPD2    H513330   4.170   1.340  11.828 -2.7881 -0.3425 -2.8499
  906MPD2    N113331   4.515   1.756  11.622  0.3680 -0.5654  0.1184
  906MPD2    H713332   4.433   1.815  11.631 -0.0633 -1.4707  2.1517
  907MPD2     C13333   3.490   1.318  15.850 -0.3266 -0.1548  0.0409
  907MPD2    C113334   3.538   1.192  15.859  0.2776 -0.2398 -0.2443
  907MPD2    C213335   3.585   1.153  15.981  0.4684 -0.1098 -0.5788
  907MPD2    C313336   3.590   1.237  16.094 -0.0122 -0.3082  0.4011
  907MPD2    C413337   3.532   1.362  16.090  0.3213  0.0031  0.1003
  907MPD2    C513338   3.492   1.398  15.963  0.6019 -0.5080  0.2323
  907MPD2     H13339   3.638   1.058  15.978 -2.1340 -1.5791  0.1298
  907MPD2    H113340   3.530   1.441  16.164 -1.9145 -0.0673  0.1133
  907MPD2    H213341   3.471   1.369  15.756  2.9216 -1.9425 -1.5833
  907MPD2    H313342   3.462   1.501  15.951 -1.0303 -1.2901 -2.2090
  907MPD2     N13343   3.663   1.195  16.211  0.2333 -0.3516 -0.0107
  907MPD2    H513344   3.714   1.107  16.206  2.4642  1.0109 -1.4034
  907MPD2    N113345   3.543   1.097  15.754 -0.2470  0.1689  0.1331
  907MPD2    H713346   3.606   1.019  15.771  0.5808  1.2758  2.1711
  908MPD2     C13347   1.806   1.642   9.697  0.7895 -1.1288 -0.1297
  908MPD2    C113348   1.693   1.611   9.773 -0.1420 -0.3413 -0.6561
  908MPD2    C213349   1.663   1.696   9.878 -0.8447 -0.1632 -0.0869
  908MPD2    C313350   1.742   1.806   9.909  0.1444  0.0185 -0.1619
  908MPD2    C413351   1.853   1.829   9.830 -0.3763 -0.7721  0.1330
  908MPD2    C513352   1.880   1.752   9.728 -0.1394  0.0406 -0.1655
  908MPD2     H13353   1.583   1.674   9.948 -0.7604  0.6604  0.2687
  908MPD2    H113354   1.928   1.904   9.850 -0.7984 -1.1518  3.1474
  908MPD2    H213355   1.836   1.585   9.610 -0.3133  0.3336 -1.4611
  908MPD2    H313356   1.972   1.770   9.672 -0.0337  0.8754  0.2719
  908MPD2     N13357   1.709   1.886  10.020 -0.4487 -0.2521 -0.3016
  908MPD2    H513358   1.638   1.855  10.086 -0.8704  1.8785  0.2536
  908MPD2    N113359   1.614   1.492   9.741 -0.0962  0.0357  0.0277
  908MPD2    H713360   1.649   1.425   9.674 -1.2559  0.9304 -1.4774
  909MPD2     C13361   1.631   4.334  11.702 -0.1411  0.2800 -0.2530
  909MPD2    C113362   1.695   4.456  11.687 -0.4815 -0.8436  0.1343
  909MPD2    C213363   1.655   4.560  11.761  0.1438  0.4073 -0.7085
  909MPD2    C313364   1.555   4.554  11.855 -0.0876  0.1195 -0.5877
  909MPD2    C413365   1.497   4.432  11.879 -0.7445  0.9091 -0.0458
  909MPD2    C513366   1.533   4.321  11.801 -0.1583  0.2082 -0.1677
  909MPD2     H13367   1.716   4.649  11.764 -1.2447  1.2535  2.0900
  909MPD2    H113368   1.415   4.414  11.947 -1.8129  1.4358 -1.1923
  909MPD2    H213369   1.657   4.244  11.647 -0.5249 -1.0813  1.8144
  909MPD2    H313370   1.479   4.229  11.822  0.6181 -0.5953 -1.6633
  909MPD2     N13371   1.527   4.671  11.929 -0.6138  0.2744  0.2869
  909MPD2    H513372   1.576   0.013  11.895 -1.5911  1.1075  0.8868
  909MPD2    N113373   1.799   4.476  11.592 -0.5618 -0.4048 -0.0099
  909MPD2    H713374   1.828   4.572  11.577  0.5018 -0.6409  0.5139
  910MPD2     C13375   3.006   1.981  16.397 -0.9829  0.0408 -0.1259
  910MPD2    C113376   3.079   1.918  16.300  0.0672  0.2683 -0.0197
  910MPD2    C213377   3.043   1.924  16.172  0.0974  0.1691  0.0430
  910MPD2    C313378   2.928   1.987  16.128 -0.3203 -0.1072  0.7340
  910MPD2    C413379   2.863   2.063  16.225 -0.2109 -0.2182 -0.6672
  910MPD2    C513380   2.902   2.056  16.356 -0.4926  0.0434  0.1650
  910MPD2     H13381   3.100   1.874  16.096 -1.5723 -2.0101  0.2263
  910MPD2    H113382   2.783   2.132  16.199  0.9939  0.6463 -2.0821
  910MPD2    H213383   3.024   1.982  16.504  2.4645 -0.1868 -0.6944
  910MPD2    H313384   2.857   2.133  16.418  0.9820  1.0561 -0.0110
  910MPD2     N13385   2.884   2.000  15.992  0.1316 -0.0045  0.2122
  910MPD2    H513386   2.813   2.071  15.980 -0.1079 -0.5624 -1.7261
  910MPD2    N113387   3.195   1.842  16.327 -0.3726  0.0316 -0.2543
  910MPD2    H713388   3.233   1.784  16.253 -0.6109  0.7725 -0.9583
  911MPD2     C13389   1.058   2.110  16.649  0.2668 -0.0819  0.8050
  911MPD2    C113390   1.101   2.239  16.622  0.0633 -0.2169 -0.4933
  911MPD2    C213391   1.005   2.339  16.612  0.5840 -0.2397  0.6327
  911MPD2    C313392   0.866   2.315  16.618 -0.4044  0.0477 -0.0351
  911MPD2    C413393   0.823   2.187  16.655 -0.2188 -0.3200 -0.3498
  911MPD2    C513394   0.923   2.087  16.664 -0.2990  0.1665 -1.2571
  911MPD2     H13395   1.050   2.431  16.577  0.1091  0.3014  1.4382
  911MPD2    H113396   0.718   2.161  16.661  0.4709 -2.4222  2.3543
  911MPD2    H213397   1.124   2.027  16.671 -0.0577 -0.6767 -0.4495
  911MPD2    H313398   0.885   1.991  16.697  0.8744  0.1637  0.0995
  911MPD2     N13399   0.769   2.407  16.575  0.1850 -0.3321 -0.4060
  911MPD2    H513400   0.672   2.384  16.593  0.3539 -1.1449 -0.5113
  911MPD2    N113401   1.246   2.261  16.619 -0.1011  0.2839  0.7070
  911MPD2    H713402   1.306   2.179  16.617  0.5611  0.7681  0.6668
  912MPD2     C13403   0.222   2.342  15.968 -0.3244  0.0627 -0.7133
  912MPD2    C113404   0.255   2.312  16.096 -0.2371  0.6969  0.1804
  912MPD2    C213405   0.193   2.215  16.163  0.6031 -0.0824 -0.3927
  912MPD2    C313406   0.090   2.142  16.101  0.1685 -0.0406 -0.0858
  912MPD2    C413407   0.067   2.166  15.967 -1.2807 -0.1527 -0.2020
  912MPD2    C513408   0.124   2.274  15.900  0.7843  0.9958 -0.0527
  912MPD2     H13409   0.224   2.192  16.264  3.0913 -0.8207 -1.3187
  912MPD2    H113410   4.731   2.104  15.920  0.1882 -2.0287 -0.1405
  912MPD2    H213411   0.283   2.414  15.913  0.8429  0.1675  0.7197
  912MPD2    H313412   0.101   2.299  15.797  0.3786  2.9455  0.5155
  912MPD2     N13413   0.028   2.048  16.178  0.4806  0.7257 -0.2082
  912MPD2    H513414   0.070   2.032  16.269 -0.5110  1.3184  0.3551
  912MPD2    N113415   0.358   2.398  16.152  0.2669  0.2274  0.3282
  912MPD2    H713416   0.400   2.471  16.096  0.9210 -0.1078  0.3888
  913MPD2     C13417   1.243   3.174  10.592  0.1659  0.1759  0.0478
  913MPD2    C113418   1.268   3.269  10.688  0.3318  0.0783  0.3325
  913MPD2    C213419   1.321   3.393  10.647 -0.7371 -0.3137  0.7974
  913MPD2    C313420   1.352   3.414  10.512 -0.5528  0.0998 -0.1276
  913MPD2    C413421   1.306   3.324  10.425  0.4282  0.0540  0.1710
  913MPD2    C513422   1.266   3.203  10.459  0.1854  0.0507  0.2985
  913MPD2     H13423   1.339   3.470  10.722  1.6546 -1.2540  1.1941
  913MPD2    H113424   1.321   3.328  10.318  2.0146 -0.3955  0.3773
  913MPD2    H213425   1.220   3.073  10.622 -0.9709  0.2181 -0.6978
  913MPD2    H313426   1.255   3.120  10.390 -2.7431  1.2034 -0.6127
  913MPD2     N13427   1.394   3.534  10.455  0.2458  0.4210  0.5611
  913MPD2    H513428   1.393   3.546  10.355  0.4011 -1.2644  0.3682
  913MPD2    N113429   1.241   3.227  10.819 -0.6362  0.3256 -0.0568
  913MPD2    H713430   1.223   3.127  10.827  1.8165 -0.0589  0.7785
  914MPD2     C13431   3.406   3.676  11.968  0.3406 -0.8551 -0.6032
  914MPD2    C113432   3.522   3.749  11.955  0.3177  1.1240 -0.0737
  914MPD2    C213433   3.590   3.798  12.071  0.3372  0.1181 -0.4774
  914MPD2    C313434   3.543   3.762  12.197  0.1242 -0.4417 -0.0511
  914MPD2    C413435   3.431   3.683  12.206 -0.1539 -0.7436  0.0580
  914MPD2    C513436   3.372   3.634  12.091  0.6364 -0.6996 -0.1668
  914MPD2     H13437   3.687   3.845  12.060  1.1841 -1.4316  0.4749
  914MPD2    H113438   3.400   3.655  12.306  0.3641 -1.1241  0.1066
  914MPD2    H213439   3.353   3.644  11.878  0.0959 -0.5895 -0.5559
  914MPD2    H313440   3.305   3.549  12.089 -1.3020  0.8550 -0.1609
  914MPD2     N13441   3.610   3.805  12.311 -0.5211 -0.8336  0.0628
  914MPD2    H513442   3.680   3.874  12.289  0.7332 -2.1235  0.0291
  914MPD2    N113443   3.570   3.770  11.828 -0.1791 -0.1305 -0.0963
  914MPD2    H713444   3.503   3.775  11.751 -0.3057  0.0790  0.0276
  915MPD2     C13445   1.822   3.737  15.705 -0.3346  0.1779 -0.2993
  915MPD2    C113446   1.714   3.695  15.773 -0.2386  0.4360  0.3108
  915MPD2    C213447   1.686   3.750  15.888  0.1688  0.4496  0.4772
  915MPD2    C313448   1.769   3.848  15.935  0.2731 -0.1483 -0.3005
  915MPD2    C413449   1.886   3.890  15.876 -0.5627 -0.5705 -0.3072
  915MPD2    C513450   1.913   3.830  15.754 -0.0894 -1.0139  0.3597
  915MPD2     H13451   1.596   3.735  15.946 -0.3716  0.3276 -0.3878
  915MPD2    H113452   1.956   3.968  15.905 -0.0853 -0.6892 -1.1393
  915MPD2    H213453   1.844   3.699  15.606 -1.8623  2.4397 -1.5107
  915MPD2    H313454   1.988   3.863  15.683 -0.0342 -1.0956  0.3800
  915MPD2     N13455   1.706   3.923  16.039 -0.0704  0.4877  0.1394
  915MPD2    H513456   1.612   3.893  16.064 -0.0463  1.3617  1.3309
  915MPD2    N113457   1.628   3.604  15.716  0.0323 -0.4582 -0.0105
  915MPD2    H713458   1.642   3.573  15.620 -1.2582  0.0675 -0.3647
  916MPD2     C13459   0.100   2.369  15.403 -0.1064 -0.2210  0.2927
  916MPD2    C113460   0.023   2.276  15.474  0.0449 -0.2736 -0.8510
  916MPD2    C213461   0.033   2.144  15.443  0.1368 -0.4789 -0.0006
  916MPD2    C313462   0.128   2.099  15.360  0.5204 -0.2406  0.1148
  916MPD2    C413463   0.204   2.190  15.292  0.2008 -0.3434 -0.3399
  916MPD2    C513464   0.191   2.324  15.307  0.3157 -0.1710  0.5245
  916MPD2     H13465   4.714   2.068  15.492 -0.2370 -1.8762 -2.6188
  916MPD2    H113466   0.280   2.156  15.222  2.6754  1.0865  1.6231
  916MPD2    H213467   0.091   2.476  15.417  0.4071 -0.4142  2.0028
  916MPD2    H313468   0.234   2.396  15.238  0.6761  0.8733  1.8275
  916MPD2     N13469   0.140   1.955  15.346 -0.9164  0.7598 -0.0641
  916MPD2    H513470   0.093   1.896  15.415 -1.4592 -0.6313 -1.6303
  916MPD2    N113471   4.674   2.331  15.561 -0.1056 -0.9766 -0.0966
  916MPD2    H713472   4.656   2.430  15.544  1.0737 -0.8428 -0.5584
  917MPD2     C13473   0.418   4.048  11.397  0.0258  0.0546 -0.6315
  917MPD2    C113474   0.458   4.131  11.501  0.5459  0.0445  0.0193
  917MPD2    C213475   0.566   4.208  11.478 -0.2055  0.1035  0.0951
  917MPD2    C313476   0.621   4.211  11.345  0.2205 -0.1789  0.7313
  917MPD2    C413477   0.578   4.120  11.250 -0.5345  0.2019  0.2770
  917MPD2    C513478   0.476   4.039  11.276 -0.5914  0.1805 -0.2414
  917MPD2     H13479   0.598   4.278  11.555  1.3065  1.5551 -1.8372
  917MPD2    H113480   0.621   4.132  11.151  1.8434  0.6944  1.3612
  917MPD2    H213481   0.322   3.998  11.407  0.4283 -0.3663  1.1865
  917MPD2    H313482   0.457   3.970  11.194 -1.4862  1.7996 -1.3857
  917MPD2     N13483   0.729   4.299  11.312 -0.4410  0.0434  0.3270
  917MPD2    H513484   0.763   4.304  11.217 -0.1271 -0.7525  0.3968
  917MPD2    N113485   0.382   4.139  11.621 -0.0884  0.2970 -0.2197
  917MPD2    H713486   0.296   4.085  11.619 -0.4656  0.8365  1.4390
  918MPD2     C13487   0.316   0.244  12.049  0.0064  0.0236 -0.3996
  918MPD2    C113488   0.381   0.144  12.111 -0.2594 -0.7744  0.0042
  918MPD2    C213489   0.332   0.016  12.099 -0.3465  0.0145 -0.6243
  918MPD2    C313490   0.227   4.731  12.010  0.2598  0.2305 -0.2188
  918MPD2    C413491   0.164   0.095  11.951 -0.5227  0.2231 -0.1784
  918MPD2    C513492   0.206   0.218  11.971  0.5259  0.1049 -0.1571
  918MPD2     H13493   0.378   4.668  12.141  0.0357  0.3121 -0.4185
  918MPD2    H113494   0.084   0.083  11.879 -0.3035  1.0534 -0.5645
  918MPD2    H213495   0.353   0.345  12.061 -1.0759  0.1291  2.0048
  918MPD2    H313496   0.160   0.302  11.919  1.6135 -0.1235 -1.4879
  918MPD2     N13497   0.199   4.592  11.977 -0.2661  0.0407 -0.0532
  918MPD2    H513498   0.254   4.515  12.013 -0.6426 -0.8544 -1.3914
  918MPD2    N113499   0.510   0.150  12.173 -0.3810  0.0952  0.2664
  918MPD2    H713500   0.546   0.059  12.199  1.9703  0.6401 -1.1149
  919MPD2     C13501   0.973   3.541  11.312 -0.1750  1.0159 -0.1514
  919MPD2    C113502   0.922   3.413  11.321 -0.2659 -0.4047  0.6829
  919MPD2    C213503   0.898   3.353  11.196  0.3886 -1.1099  0.1344
  919MPD2    C313504   0.915   3.412  11.079 -0.1384  0.6722 -0.7095
  919MPD2    C413505   0.959   3.539  11.077  0.4669 -0.1688  0.3344
  919MPD2    C513506   0.998   3.602  11.192 -0.3878  0.1414 -0.5316
  919MPD2     H13507   0.872   3.248  11.191  0.4150 -1.1239  0.2790
  919MPD2    H113508   0.983   3.592  10.986  1.0783 -1.1486 -0.0655
  919MPD2    H213509   0.996   3.598  11.402 -1.3377 -0.4565  1.0687
  919MPD2    H313510   1.034   3.705  11.193 -2.3704  0.8123  1.6678
  919MPD2     N13511   0.893   3.348  10.954 -0.3214  0.1519  0.3981
  919MPD2    H513512   0.901   3.410  10.875  1.7150 -0.7579 -0.1071
  919MPD2    N113513   0.916   3.335  11.443  0.0185  0.4584 -0.7289
  919MPD2    H713514   0.902   3.235  11.429  0.9818  0.2600 -0.2892
  920MPD2     C13515   0.387   3.408  10.095 -0.2395 -0.6935  0.0889
  920MPD2    C113516   0.378   3.273  10.124  0.8600 -0.5310 -0.1548
  920MPD2    C213517   0.462   3.223  10.224 -1.3480 -0.3295 -0.1178
  920MPD2    C313518   0.550   3.303  10.294  0.2386  0.1159  0.0063
  920MPD2    C413519   0.560   3.436  10.255  0.2445  0.0162 -0.3785
  920MPD2    C513520   0.481   3.492  10.159  0.0156  0.5111 -0.3627
  920MPD2     H13521   0.453   3.115  10.237  1.1962 -0.4818  0.5206
  920MPD2    H113522   0.633   3.501  10.301  0.5835 -0.3701 -0.3732
  920MPD2    H213523   0.338   3.452  10.008 -2.3498 -1.1625  1.0304
  920MPD2    H313524   0.506   3.596  10.141 -0.2469  0.7657  0.6947
  920MPD2     N13525   0.629   3.239  10.399 -0.8019 -0.3812 -0.4295
  920MPD2    H513526   0.627   3.138  10.405  0.3941 -0.4021 -0.3966
  920MPD2    N113527   0.292   3.177  10.060 -0.2997 -0.1661  0.8112
  920MPD2    H713528   0.309   3.078  10.077  0.3746 -0.3993 -1.2739
  921MPD2     C13529   1.947   2.806  17.087  0.1187 -0.2462  0.2450
  921MPD2    C113530   2.011   2.705  17.023  0.3665  1.3125 -0.2295
  921MPD2    C213531   1.943   2.606  16.960 -1.2056 -0.5015  0.3104
  921MPD2    C313532   1.802   2.606  16.956  0.2423  0.4215  0.6720
  921MPD2    C413533   1.738   2.703  17.015 -0.3098 -0.1089  0.4285
  921MPD2    C513534   1.808   2.802  17.076 -0.0881 -0.4723 -0.0077
  921MPD2     H13535   1.998   2.527  16.911 -0.7006 -0.2517  0.4694
  921MPD2    H113536   1.630   2.708  17.023 -0.3529  0.5806 -0.5925
  921MPD2    H213537   2.000   2.887  17.136 -0.3458 -0.2801  0.7993
  921MPD2    H313538   1.746   2.871  17.133  1.7569 -0.8171  2.4543
  921MPD2     N13539   1.726   2.505  16.893  0.7291 -0.2869  0.0585
  921MPD2    H513540   1.625   2.517  16.903  1.3202  3.5884  1.1725
  921MPD2    N113541   2.154   2.714  17.021  0.3124  0.7729  0.4834
  921MPD2    H713542   2.201   2.798  17.052  0.4795  0.2940  1.5312
  922MPD2     C13543   2.266   0.644  17.197  0.2701 -0.1098 -0.1966
  922MPD2    C113544   2.165   0.636  17.289  0.4715 -0.2394  0.0258
  922MPD2    C213545   2.089   0.517  17.299 -0.4133  0.1479  0.8034
  922MPD2    C313546   2.112   0.409  17.217 -0.4011  0.7936 -0.1732
  922MPD2    C413547   2.221   0.411  17.129  0.3932  0.1411 -0.1448
  922MPD2    C513548   2.287   0.537  17.118  0.0690 -0.1410 -0.1720
  922MPD2     H13549   2.007   0.509  17.368  0.3281 -0.4865  1.6139
  922MPD2    H113550   2.243   0.327  17.064 -1.1577 -1.8741  1.9326
  922MPD2    H213551   2.328   0.732  17.188  0.3963 -0.0240  1.6307
  922MPD2    H313552   2.370   0.550  17.049 -0.4501  3.8244 -0.0652
  922MPD2     N13553   2.037   0.291  17.244 -0.5714 -0.2640  0.1822
  922MPD2    H513554   1.958   0.306  17.305 -1.2182 -0.1199 -0.6959
  922MPD2    N113555   2.141   0.742  17.389  0.5896 -0.7598  0.2065
  922MPD2    H713556   2.081   0.708  17.463  0.4856 -0.3495  0.3093
  923MPD2     C13557   3.132   1.971   9.158  0.3080  0.1673 -0.5631
  923MPD2    C113558   3.152   2.085   9.235 -0.0188 -1.1841  0.2440
  923MPD2    C213559   3.278   2.096   9.293  0.2692 -0.3461 -0.5661
  923MPD2    C313560   3.380   2.003   9.273 -0.1702  0.5125 -0.3810
  923MPD2    C413561   3.361   1.905   9.182 -0.1511 -0.0314 -1.0207
  923MPD2    C513562   3.234   1.881   9.135  0.0120  0.6623  0.1436
  923MPD2     H13563   3.301   2.175   9.365 -0.4648 -0.4403 -0.2255
  923MPD2    H113564   3.440   1.838   9.150 -0.4041 -0.4974 -0.6657
  923MPD2    H213565   3.038   1.956   9.106  1.3004 -1.1607 -1.9612
  923MPD2    H313566   3.222   1.792   9.074 -1.4417 -0.1764  1.6428
  923MPD2     N13567   3.506   2.017   9.331  0.7822  0.6695  0.7794
  923MPD2    H513568   3.574   1.942   9.316  0.6057  0.4584  1.0330
  923MPD2    N113569   3.052   2.174   9.269  0.0319 -0.2647  0.0776
  923MPD2    H713570   2.962   2.155   9.227  0.5414 -1.4866 -0.4381
  924MPD2     C13571   3.823   0.397  16.300 -0.8703 -0.2230 -0.8035
  924MPD2    C113572   3.827   0.453  16.427  0.0228 -0.1894 -0.4704
  924MPD2    C213573   3.857   0.586  16.443  0.0244  0.6755 -0.5834
  924MPD2    C313574   3.867   0.676  16.341  0.0113  0.6924 -0.0804
  924MPD2    C413575   3.857   0.624  16.215  0.1233  1.3654  0.3250
  924MPD2    C513576   3.840   0.487  16.198 -0.2814  0.3508  0.2882
  924MPD2     H13577   3.871   0.623  16.544 -1.1854 -0.2567 -0.0794
  924MPD2    H113578   3.873   0.674  16.121 -0.8932 -0.2054 -0.7047
  924MPD2    H213579   3.819   0.290  16.284  1.2280 -0.4626  0.1995
  924MPD2    H313580   3.855   0.440  16.101  3.3208  3.1764 -0.5393
  924MPD2     N13581   3.878   0.814  16.354  0.3010  0.4898  0.1051
  924MPD2    H513582   3.874   0.877  16.274 -0.4808  0.1907 -0.0977
  924MPD2    N113583   3.818   0.357  16.535 -0.4499 -0.1648 -0.7047
  924MPD2    H713584   3.818   0.258  16.513 -1.5495  0.1299 -2.0190
  925MPD2     C13585   2.368   3.018  14.796 -0.4321 -0.7764  0.2567
  925MPD2    C113586   2.274   2.941  14.730 -0.4243  0.3808 -0.1515
  925MPD2    C213587   2.170   2.881  14.808 -0.3939  0.8433  0.4749
  925MPD2    C313588   2.167   2.901  14.947  0.2892  0.4191  0.2463
  925MPD2    C413589   2.258   2.983  15.009  0.2169  0.0515  0.1728
  925MPD2    C513590   2.354   3.041  14.929  0.5762  1.1874 -0.4988
  925MPD2     H13591   2.105   2.807  14.763  1.2993 -0.3946  0.0945
  925MPD2    H113592   2.254   3.013  15.114  2.2032 -0.2223  0.3290
  925MPD2    H213593   2.453   3.067  14.748 -0.5245  0.3925  1.2949
  925MPD2    H313594   2.426   3.111  14.970  0.8695  0.3829  0.3596
  925MPD2     N13595   2.065   2.849  15.032 -0.2948 -0.7751  0.3331
  925MPD2    H513596   2.059   2.884  15.127  1.2858  0.8094 -0.1434
  925MPD2    N113597   2.286   2.924  14.588 -0.1240 -0.2663  0.6234
  925MPD2    H713598   2.214   2.870  14.540  0.1186 -1.7724  1.9856
  926MPD2     C13599   1.697   1.123  13.445  0.2576 -0.0221 -0.7996
  926MPD2    C113600   1.611   1.226  13.403 -0.3107  0.0033  0.0266
  926MPD2    C213601   1.665   1.325  13.314  0.0734 -0.1597  0.4565
  926MPD2    C313602   1.798   1.328  13.283  0.1589  0.3416 -0.7445
  926MPD2    C413603   1.882   1.237  13.332  0.0443  0.1134 -0.1368
  926MPD2    C513604   1.825   1.136  13.399 -0.3357 -0.1756  0.6809
  926MPD2     H13605   1.594   1.402  13.286  1.8890  0.8846 -1.1877
  926MPD2    H113606   1.990   1.245  13.322  0.0326  0.7794  0.2831
  926MPD2    H213607   1.669   1.037  13.505  0.1141  0.7610  0.2581
  926MPD2    H313608   1.891   1.054  13.425 -1.5334 -1.0870  0.8480
  926MPD2     N13609   1.868   1.428  13.204 -0.6440  0.6275  0.0993
  926MPD2    H513610   1.969   1.425  13.202 -0.5966  0.6579  2.0662
  926MPD2    N113611   1.474   1.233  13.434  0.2004  0.0550  0.3974
  926MPD2    H713612   1.420   1.303  13.384 -0.8587 -0.8154  0.3514
  927MPD2     C13613   1.529   3.787  17.662  0.1764  0.8020  0.3579
  927MPD2    C113614   1.394   3.761  17.677  0.0050 -0.8312  0.5818
  927MPD2    C213615   1.326   3.723  17.568  0.5144  1.2192  0.3693
  927MPD2    C313616   1.381   3.712  17.442 -0.3211 -0.1077  0.2445
  927MPD2    C413617   1.517   3.736  17.427  0.4051 -0.1423 -0.5010
  927MPD2    C513618   1.588   3.775  17.535 -0.0804 -0.0106  0.4900
  927MPD2     H13619   1.222   3.697  17.585  0.0916  1.5777 -1.6842
  927MPD2    H113620   1.563   3.738  17.329 -1.1580 -2.0698 -1.2865
  927MPD2    H213621   1.595   3.798  17.748  0.5995  0.4624  0.0739
  927MPD2    H313622   1.693   3.797  17.519 -0.1665  1.8546  2.3695
  927MPD2     N13623   1.289   3.687  17.331  0.0768  0.0667 -0.7845
  927MPD2    H513624   1.191   3.707  17.350  0.2071 -0.1053  0.0875
  927MPD2    N113625   1.344   3.765   0.049  0.3906  0.4208 -0.2495
  927MPD2    H713626   1.410   3.788   0.122  0.4235  0.6236 -0.3436
  928MPD2     C13627   3.512   2.316   1.308  0.4288  0.1336  0.4708
  928MPD2    C113628   3.483   2.361   1.181  0.1619 -0.2052  0.0383
  928MPD2    C213629   3.583   2.332   1.082 -0.5873  0.5451 -0.5182
  928MPD2    C313630   3.697   2.251   1.108  0.6985  0.0169  0.6561
  928MPD2    C413631   3.707   2.196   1.235 -0.8387 -1.0234  0.6238
  928MPD2    C513632   3.618   2.230   1.339  0.4397 -0.2734 -0.3415
  928MPD2     H13633   3.567   2.366   0.980 -1.0328  1.3451 -0.1778
  928MPD2    H113634   3.787   2.126   1.258 -0.4457 -0.9448 -0.4603
  928MPD2    H213635   3.444   2.347   1.387 -1.8906 -0.0951 -1.4412
  928MPD2    H313636   3.634   2.200   1.442 -3.1966  1.3932  0.7147
  928MPD2     N13637   3.800   2.221   1.019  0.1988  0.0680  0.4267
  928MPD2    H513638   3.885   2.184   1.060  0.2318 -1.0634 -0.6846
  928MPD2    N113639   3.354   2.419   1.158  0.2701  0.0600  0.9487
  928MPD2    H713640   3.293   2.437   1.238  0.2407 -2.3344  1.4453
  929MPD2     C13641   3.481   2.259  10.232 -0.0127  0.4728  0.0933
  929MPD2    C113642   3.366   2.200  10.276  0.2312 -0.5074  0.0635
  929MPD2    C213643   3.259   2.192  10.189  0.1125 -0.3252  0.2968
  929MPD2    C313644   3.262   2.268  10.074  0.5949  0.0716 -0.0730
  929MPD2    C413645   3.380   2.331  10.035  0.0445  0.7222  0.2781
  929MPD2    C513646   3.488   2.325  10.115  0.5246 -0.4965 -0.3605
  929MPD2     H13647   3.171   2.145  10.232  0.0980 -1.2759 -0.7849
  929MPD2    H113648   3.385   2.385   9.941  1.6475 -2.1314 -1.2426
  929MPD2    H213649   3.572   2.244  10.289 -0.3134 -1.5028  0.0516
  929MPD2    H313650   3.581   2.372  10.085 -0.0188 -0.8234 -2.6154
  929MPD2     N13651   3.157   2.273   9.983 -0.2386 -0.3837 -0.0645
  929MPD2    H513652   3.184   2.322   9.898  1.1451 -1.1863 -0.0905
  929MPD2    N113653   3.368   2.137  10.404  0.4147 -0.1640  0.4152
  929MPD2    H713654   3.450   2.162  10.458  0.4560  2.0118 -0.6429
  930MPD2     C13655   0.778   0.080  14.509  0.3236 -0.3783 -0.0250
  930MPD2    C113656   0.868   0.014  14.433 -0.4883 -0.1355  0.5405
  930MPD2    C213657   0.828   4.695  14.315  0.2496  0.2279  0.5997
  930MPD2    C313658   0.694   4.697  14.275 -0.2414  0.0349  0.2756
  930MPD2    C413659   0.602   0.022  14.355 -0.5181  0.0581 -0.4711
  930MPD2    C513660   0.648   0.087  14.466  0.8617 -0.2056  0.3516
  930MPD2     H13661   0.902   4.634  14.265  0.0678 -0.9434  1.7629
  930MPD2    H113662   0.495   0.025  14.337 -0.5441 -0.0866 -0.3433
  930MPD2    H213663   0.809   0.122  14.604 -0.7395  0.3846 -0.0177
  930MPD2    H313664   0.575   0.144  14.522  0.4447  0.2761 -0.6877
  930MPD2     N13665   0.651   4.626  14.157 -0.1676  0.0409  0.4048
  930MPD2    H513666   0.556   4.648  14.130  0.2403  0.1810 -0.8731
  930MPD2    N113667   0.997   0.015  14.474 -0.2013 -0.1607  0.2806
  930MPD2    H713668   1.009   0.067  14.561  0.9303  0.7440 -0.4215
  931MPD2     C13669   1.536   3.320   0.478 -0.5732 -0.3941  0.4589
  931MPD2    C113670   1.447   3.406   0.547 -0.4830 -0.0179  0.2695
  931MPD2    C213671   1.421   3.385   0.679 -0.2886  0.2374  0.2214
  931MPD2    C313672   1.482   3.280   0.747 -0.4196 -0.4102 -0.4621
  931MPD2    C413673   1.576   3.198   0.684  0.0061 -0.0120  0.1462
  931MPD2    C513674   1.603   3.224   0.553 -0.1491 -0.0609 -0.2175
  931MPD2     H13675   1.329   3.429   0.715 -0.6341 -0.8351  0.6305
  931MPD2    H113676   1.635   3.126   0.738 -0.7661  1.8649  3.4693
  931MPD2    H213677   1.545   3.322   0.370  0.1609 -1.5615  0.4879
  931MPD2    H313678   1.669   3.155   0.502 -1.5617 -0.6432 -1.2636
  931MPD2     N13679   1.450   3.240   0.881 -0.1180  0.2257 -0.1689
  931MPD2    H513680   1.466   3.145   0.911  2.2297 -0.1940 -2.7149
  931MPD2    N113681   1.382   3.510   0.477  0.1900 -0.4055 -0.2152
  931MPD2    H713682   1.388   3.498   0.377 -3.1017  2.7977 -0.8165
  932MPD2     C13683   2.617   2.718  11.850  1.0282 -0.7231  0.5583
  932MPD2    C113684   2.652   2.818  11.940 -0.0292  0.7381 -0.2573
  932MPD2    C213685   2.689   2.783  12.068  0.8258 -0.4492 -0.1659
  932MPD2    C313686   2.701   2.647  12.101  0.1481 -1.1639  0.4592
  932MPD2    C413687   2.655   2.553  12.013  0.2162 -0.3276 -0.4678
  932MPD2    C513688   2.612   2.585  11.886 -0.6996  0.4037  1.3264
  932MPD2     H13689   2.724   2.865  12.131 -0.3288  0.0715 -0.2209
  932MPD2    H113690   2.642   2.449  12.040 -4.0510 -0.1229 -1.7024
  932MPD2    H213691   2.594   2.746  11.748 -0.0676  1.8526  1.5100
  932MPD2    H313692   2.593   2.509  11.810 -1.4718  0.1270  1.7914
  932MPD2     N13693   2.729   2.612  12.234  0.7043 -1.0177 -0.0343
  932MPD2    H513694   2.704   2.515  12.253 -0.7785 -0.5319  0.4706
  932MPD2    N113695   2.649   2.959  11.919 -0.3740 -0.3803  0.2548
  932MPD2    H713696   2.698   3.007  11.994 -2.1597  0.4636  0.8644
  933MPD2     C13697   2.886   2.576   0.530  0.0968  0.2772 -0.6175
  933MPD2    C113698   2.915   2.690   0.605 -0.6702 -0.4680  0.5947
  933MPD2    C213699   2.895   2.819   0.549  0.9736 -0.5950  0.1828
  933MPD2    C313700   2.838   2.836   0.424 -0.2844 -0.2090 -0.4121
  933MPD2    C413701   2.805   2.722   0.354 -0.3705 -0.6251 -0.3716
  933MPD2    C513702   2.834   2.599   0.408  0.2698 -0.4338  0.4093
  933MPD2     H13703   2.922   2.906   0.608  1.0547 -2.3677  2.7720
  933MPD2    H113704   2.761   2.721   0.255 -2.7604 -0.4123  0.6911
  933MPD2    H213705   2.907   2.479   0.572  0.3540  0.9957  0.9084
  933MPD2    H313706   2.813   2.514   0.343 -2.4045  2.5190 -2.5721
  933MPD2     N13707   2.825   2.966   0.370  0.5555  0.3364 -0.0311
  933MPD2    H513708   2.839   3.040   0.438 -2.1023 -0.2186  1.1439
  933MPD2    N113709   2.965   2.668   0.735 -0.1040  0.2122 -0.1883
  933MPD2    H713710   2.977   2.568   0.752 -1.8877  0.4625  2.4799
  934MPD2     C13711   0.414   4.655   0.994  0.2514 -0.3902  0.3015
  934MPD2    C113712   0.290   4.661   1.061 -0.6664 -0.0019 -1.0168
  934MPD2    C213713   0.193   4.562   1.041  0.6057 -0.6985 -0.5780
  934MPD2    C313714   0.215   4.463   0.943 -0.7849  0.6355  0.8403
  934MPD2    C413715   0.339   4.458   0.878  0.9893  0.2309  0.0559
  934MPD2    C513716   0.436   4.558   0.901 -0.9012  0.0240  0.7236
  934MPD2     H13717   0.095   4.573   1.086  0.4853 -0.9321 -0.7884
  934MPD2    H113718   0.357   4.381   0.804 -0.5068  0.2734 -0.3347
  934MPD2    H213719   0.497   4.722   1.012  0.1852 -0.2109 -0.0612
  934MPD2    H313720   0.528   4.568   0.844 -1.3825 -1.2451 -0.2660
  934MPD2     N13721   0.126   4.361   0.911  0.5532 -0.2982 -0.4490
  934MPD2    H513722   0.167   4.282   0.863 -1.4204 -1.2594 -0.5335
  934MPD2    N113723   0.256   0.022   1.148 -0.1586 -0.9293 -0.9449
  934MPD2    H713724   0.165   0.023   1.192 -0.4236  0.5014 -1.5322
  935MPD2     C13725   0.191   3.541   0.836  0.3603  0.0383 -0.3825
  935MPD2    C113726   0.050   3.539   0.846  0.4395 -0.4609 -0.2030
  935MPD2    C213727   4.729   3.664   0.865  0.6022  0.4034  0.0056
  935MPD2    C313728   0.053   3.783   0.862  0.7208  0.2123  0.2422
  935MPD2    C413729   0.189   3.778   0.848 -0.6059  0.4734  0.0082
  935MPD2    C513730   0.257   3.658   0.839 -0.8842 -0.1750 -0.1871
  935MPD2     H13731   4.624   3.647   0.882  1.1804 -0.4813  2.6618
  935MPD2    H113732   0.245   3.871   0.838  0.4578 -0.3191 -1.3580
  935MPD2    H213733   0.245   3.447   0.823  2.0185  0.5996  2.5113
  935MPD2    H313734   0.364   3.661   0.822 -0.5097  1.4402  2.4785
  935MPD2     N13735   4.728   3.906   0.865 -0.0027 -0.0982 -0.2322
  935MPD2    H513736   0.045   3.989   0.863  0.8436 -0.7325 -2.4593
  935MPD2    N113737   4.706   3.431   0.830 -0.0003 -0.0951  0.0495
  935MPD2    H713738   4.605   3.439   0.843 -0.1357 -0.9234 -0.5281
  936MPD2     C13739   3.052   1.531  12.526 -0.5471  0.3327 -0.2084
  936MPD2    C113740   3.102   1.473  12.639  0.6296 -0.1531 -0.0783
  936MPD2    C213741   3.197   1.540  12.711 -0.1281  0.6280  0.3905
  936MPD2    C313742   3.236   1.672  12.686  0.3037  0.5219 -0.2735
  936MPD2    C413743   3.179   1.734  12.578 -0.6756 -0.1472  0.0729
  936MPD2    C513744   3.093   1.660  12.501  0.3738  0.1164 -0.0198
  936MPD2     H13745   3.229   1.487  12.800 -0.5293  2.9179  1.9062
  936MPD2    H113746   3.197   1.838  12.554  0.6335 -0.0104  1.5854
  936MPD2    H213747   2.966   1.483  12.481 -0.2301 -0.4441  0.0100
  936MPD2    H313748   3.043   1.708  12.418  4.2134  2.4315 -1.0268
  936MPD2     N13749   3.341   1.744  12.746  0.2803 -0.2075  0.8459
  936MPD2    H513750   3.355   1.839  12.713 -4.2600  0.7707  1.7011
  936MPD2    N113751   3.060   1.347  12.689  0.1927 -0.2851 -0.4358
  936MPD2    H713752   3.100   1.326  12.780 -0.6841 -2.7925 -0.6090
  937MPD2     C13753   1.204   2.737  11.728  0.7184 -0.1865  0.2023
  937MPD2    C113754   1.242   2.857  11.687  0.0824  0.0196  0.5447
  937MPD2    C213755   1.340   2.866  11.585  0.5992 -0.9546 -0.1542
  937MPD2    C313756   1.403   2.748  11.542 -0.5331 -0.5271 -0.7558
  937MPD2    C413757   1.355   2.625  11.593 -0.0199 -0.4661 -0.2072
  937MPD2    C513758   1.251   2.622  11.683  0.3142 -0.0081 -0.4291
  937MPD2     H13759   1.367   2.959  11.535 -2.2276 -0.4676 -0.7792
  937MPD2    H113760   1.402   2.534  11.557 -1.4484 -1.3325  0.1277
  937MPD2    H213761   1.110   2.728  11.782 -0.4117  3.4467 -1.1308
  937MPD2    H313762   1.207   2.528  11.714 -1.9425  0.2105 -2.9248
  937MPD2     N13763   1.510   2.758  11.450 -0.2444  0.0272  0.1637
  937MPD2    H513764   1.554   2.847  11.428  0.7433 -0.4556  0.1608
  937MPD2    N113765   1.164   2.972  11.704 -0.7443  0.1537  0.1877
  937MPD2    H713766   1.188   3.056  11.654 -2.1591 -1.3060 -2.9460
  938MPD2     C13767   3.809   4.232   0.686  0.2195  0.3714  0.6200
  938MPD2    C113768   3.689   4.293   0.705 -0.5455  0.2263 -0.5968
  938MPD2    C213769   3.612   4.251   0.815 -0.5291  0.9005 -0.0029
  938MPD2    C313770   3.656   4.161   0.909  0.4695  0.0172 -0.3780
  938MPD2    C413771   3.782   4.106   0.886 -0.1485 -0.3941  0.2882
  938MPD2    C513772   3.856   4.142   0.777 -0.3018 -0.1274  0.2340
  938MPD2     H13773   3.511   4.289   0.828 -0.7649 -0.1916  1.3671
  938MPD2    H113774   3.821   4.025   0.947  0.0973 -0.3879  0.1393
  938MPD2    H213775   3.869   4.253   0.598 -3.1856 -0.6527 -1.9781
  938MPD2    H313776   3.946   4.082   0.767 -0.0494  0.3152 -0.1732
  938MPD2     N13777   3.582   4.116   1.020  0.4305 -0.1739 -0.7487
  938MPD2    H513778   3.635   4.050   1.076 -0.0522  1.1599  1.2704
  938MPD2    N113779   3.641   4.403   0.632  0.2011 -0.0177  0.6720
  938MPD2    H713780   3.556   4.446   0.667 -0.2079  0.1626 -0.5216
  939MPD2     C13781   4.694   0.420   0.407  0.1829  0.2567  0.0844
  939MPD2    C113782   0.073   0.432   0.478  0.6956 -0.0415 -0.3320
  939MPD2    C213783   0.171   0.336   0.448  0.0349 -0.4151  0.3158
  939MPD2    C313784   0.141   0.223   0.378 -0.3656  0.4060  0.1230
  939MPD2    C413785   0.023   0.213   0.305 -0.6731  0.7139 -0.2272
  939MPD2    C513786   4.673   0.314   0.315 -0.4279  1.0777  0.2137
  939MPD2     H13787   0.272   0.347   0.487  0.2036  2.4542 -0.8524
  939MPD2    H113788   4.734   0.131   0.241  1.8500  0.1200 -0.5851
  939MPD2    H213789   4.619   0.498   0.418  0.0849  0.2603 -0.6143
  939MPD2    H313790   4.582   0.314   0.256 -0.7987  0.4506  0.7781
  939MPD2     N13791   0.233   0.121   0.376 -0.3086  0.2310 -0.3380
  939MPD2    H513792   0.321   0.135   0.424  0.3984 -0.4458 -1.4292
  939MPD2    N113793   0.099   0.548   0.551 -0.2422 -0.4282 -0.6886
  939MPD2    H713794   0.017   0.603   0.575 -1.3866 -3.0666  1.4990
  940MPD2     C13795   4.177   1.394  13.777 -0.3393  0.9745  0.0958
  940MPD2    C113796   4.202   1.264  13.821 -0.0929  0.3277 -0.0237
  940MPD2    C213797   4.174   1.152  13.744 -0.1519  0.2124 -0.2583
  940MPD2    C313798   4.122   1.171  13.617  0.2151  0.3201  0.4202
  940MPD2    C413799   4.097   1.301  13.571  0.1612 -0.1046  0.4479
  940MPD2    C513800   4.120   1.404  13.653  0.2627 -0.9669 -0.4686
  940MPD2     H13801   4.191   1.052  13.783  0.1947  0.7739  1.0468
  940MPD2    H113802   4.057   1.326  13.474  1.2226 -1.1122 -0.2455
  940MPD2    H213803   4.210   1.487  13.822  0.3022 -0.3980  2.4426
  940MPD2    H313804   4.121   1.502  13.606  0.2151 -1.0947 -0.7345
  940MPD2     N13805   4.091   1.067  13.534 -0.3430 -0.2377 -0.4462
  940MPD2    H513806   4.027   1.086  13.458 -1.7361  0.2685  0.8570
  940MPD2    N113807   4.246   1.242  13.958 -0.0250 -0.2477  0.5341
  940MPD2    H713808   4.245   1.146  13.991  1.0925 -0.4390  0.0210
  941MPD2     C13809   2.645   1.004  10.564 -0.4348  0.1302 -0.0451
  941MPD2    C113810   2.643   0.880  10.505  0.5297  0.6404  0.1878
  941MPD2    C213811   2.542   0.790  10.532 -0.8535 -0.3620  0.3408
  941MPD2    C313812   2.437   0.829  10.621  0.1725 -0.1113 -0.8162
  941MPD2    C413813   2.443   0.957  10.676  0.1384  0.3266 -0.3920
  941MPD2    C513814   2.547   1.043  10.651 -0.4637 -0.5128 -0.0090
  941MPD2     H13815   2.537   0.693  10.485 -3.1210 -0.9246  1.7452
  941MPD2    H113816   2.375   0.996  10.751 -0.9798 -2.3246 -0.0406
  941MPD2    H213817   2.726   1.075  10.554 -0.7527  0.3761 -0.9176
  941MPD2    H313818   2.556   1.136  10.705 -0.6922 -0.1727 -0.5509
  941MPD2     N13819   2.329   0.752  10.662 -0.0541  0.3177 -0.5513
  941MPD2    H513820   2.269   0.780  10.740 -0.0855 -2.4832  0.4298
  941MPD2    N113821   2.749   0.833  10.420 -0.0758  0.3681 -0.5321
  941MPD2    H713822   2.725   0.741  10.384  0.7765 -0.5304  1.2128
  942MPD2     C13823   2.388   2.237   9.810 -0.2103 -0.7314  0.2062
  942MPD2    C113824   2.389   2.151   9.697 -0.2618 -0.1808  0.0817
  942MPD2    C213825   2.514   2.120   9.653  0.0073  0.6016  0.1489
  942MPD2    C313826   2.635   2.155   9.716 -0.8260 -0.5283 -0.2267
  942MPD2    C413827   2.635   2.228   9.833 -0.3617  0.2596 -0.1111
  942MPD2    C513828   2.506   2.265   9.874  0.1655  0.4710  0.3895
  942MPD2     H13829   2.519   2.057   9.564 -3.5741 -0.0534  0.3737
  942MPD2    H113830   2.718   2.255   9.898 -0.1999 -0.8746  0.1500
  942MPD2    H213831   2.299   2.281   9.854 -1.0022 -1.9371 -0.1790
  942MPD2    H313832   2.500   2.331   9.961 -2.4737  1.5856 -0.6204
  942MPD2     N13833   2.768   2.111   9.676  0.2401  0.1838 -0.0368
  942MPD2    H513834   2.836   2.115   9.751 -1.0327  0.7300  1.0953
  942MPD2    N113835   2.274   2.114   9.627 -0.0153 -0.2111 -0.3579
  942MPD2    H713836   2.287   2.056   9.545  1.0352  0.8721 -0.9659
  943MPD2     C13837   2.064   0.640  10.371  0.0640  0.9834  0.3101
  943MPD2    C113838   1.969   0.555  10.430 -0.1638  0.4909 -0.0698
  943MPD2    C213839   1.902   0.601  10.545 -0.1266 -0.1829 -0.2520
  943MPD2    C313840   1.924   0.727  10.596  0.0566 -0.1266 -0.2609
  943MPD2    C413841   2.011   0.813  10.532  0.2218 -0.5636  0.2353
  943MPD2    C513842   2.080   0.762  10.421  0.4102 -0.8444  0.6506
  943MPD2     H13843   1.825   0.542  10.593 -0.3520  1.3090  1.2125
  943MPD2    H113844   2.014   0.919  10.556  0.4353 -0.4578 -0.2660
  943MPD2    H213845   2.125   0.602  10.289  0.1496  0.2451  0.7174
  943MPD2    H313846   2.146   0.829  10.367 -1.0123 -1.6534 -2.0660
  943MPD2     N13847   1.858   0.777  10.711  0.9418 -0.4378 -0.7737
  943MPD2    H513848   1.882   0.870  10.743  1.0863 -2.1553  4.1474
  943MPD2    N113849   1.957   0.419  10.390  0.0791 -0.2179 -0.2717
  943MPD2    H713850   2.009   0.388  10.309  0.4490 -0.7045  0.1564
  944MPD2     C13851   1.922   4.533  11.037  0.0052  0.0944 -0.1825
  944MPD2    C113852   1.813   4.497  11.110 -0.2847 -0.2417 -0.7179
  944MPD2    C213853   1.739   4.602  11.169  0.0561  0.0394  0.2387
  944MPD2    C313854   1.774   4.734  11.151 -0.8193  1.2064  0.5757
  944MPD2    C413855   1.885   0.018  11.071 -0.0725  0.1349 -0.6109
  944MPD2    C513856   1.971   4.661  11.030 -0.0557 -0.0219 -0.1963
  944MPD2     H13857   1.646   4.586  11.223 -0.2790  0.5766 -0.1724
  944MPD2    H113858   1.935   0.107  11.034 -0.4030  0.7478  0.4152
  944MPD2    H213859   1.982   4.456  10.991 -0.2913 -0.4775  0.3849
  944MPD2    H313860   2.065   4.683  10.981 -0.0803  3.0699  1.1668
  944MPD2     N13861   1.712   0.087  11.221  0.2282 -0.0582  0.1173
  944MPD2    H513862   1.646   0.060  11.293  1.2062 -0.3653  0.8977
  944MPD2    N113863   1.787   4.361  11.135 -0.3033  0.0824  0.1104
  944MPD2    H713864   1.857   4.297  11.098  1.3577 -0.2972  3.9205
    1TMC1    C113865   4.546   0.702  14.276  0.1943  0.2449  0.2274
    1TMC1    C213866   4.529   0.766  14.393 -0.4633 -0.2735  0.5256
    1TMC1    C313867   4.591   0.706  14.497 -0.1024  0.2880  0.2940
    1TMC1    C413868   4.628   0.591  14.261  0.7389  0.1781 -0.2956
    1TMC1    C513869   4.691   0.542  14.374  0.6604 -0.4433  0.4350
    1TMC1    C613870   4.672   0.599  14.493 -0.1157 -0.1963  0.1134
    1TMC1     C13871   4.513   0.767  14.157 -0.5103 -0.4230 -0.3516
    1TMC1     O13872   4.488   0.691  14.066 -0.5878  0.0390 -0.2903
    1TMC1     H13873   4.469   0.853  14.414  1.2949  1.1109 -0.2186
    1TMC1    H113874   4.654   0.545  14.166  3.7848 -0.1498  0.6690
    1TMC1    H213875   4.736   0.568  14.575 -0.0022  0.8873  0.4270
    1TMC1    C713876   0.076   0.469  14.362 -0.8949  0.0248 -1.0048
    1TMC1    C813877   4.557   0.757  14.630 -0.6345 -0.0496 -0.4183
    1TMC1    O113878   0.159   0.493  14.449  0.8004  0.2693 -0.0364
    1TMC1    O213879   4.502   0.862  14.635  0.9231 -0.5875  0.1426
    1TMC1    O313880   0.038   0.350  14.315 -0.1925  0.0911 -0.1291
    1TMC1    H313881   4.694   0.359  14.265 -0.2631 -0.2936 -0.0841
    1TMC1    O513882   4.537   0.651  14.708 -0.0661 -0.2785 -0.3229
    1TMC1    H513883   4.562   0.559  14.683 -0.1826 -0.6201  0.8033
    2MPD2     C13884   4.535   1.176  13.861 -0.4619  0.5059 -0.0072
    2MPD2    C113885   4.600   1.210  13.978 -0.7719  0.7115 -0.4940
    2MPD2    C213886   4.600   1.109  14.075  0.1468 -1.3731 -0.4310
    2MPD2    C313887   4.526   0.995  14.059 -0.4191  0.5199  0.5836
    2MPD2    C413888   4.483   0.961  13.932 -0.4358  0.4473 -0.2368
    2MPD2    C513889   4.474   1.053  13.838 -0.2960 -0.2308  0.8777
    2MPD2     H13890   4.650   1.122  14.171  2.4053  1.5056 -1.9835
    2MPD2    H113891   4.453   0.864  13.896 -0.3025  0.7698 -1.2037
    2MPD2    H213892   4.522   1.250  13.782  0.9146 -0.1978 -0.9125
    2MPD2    H313893   4.436   1.020  13.742  0.0080 -0.6364  0.8942
    2MPD2     N13894   4.531   0.903  14.170  0.9382 -0.2684 -0.2670
    2MPD2    H513895   4.568   0.940  14.257 -0.7630  0.5998  0.1045
    2MPD2    N113896   4.655   1.339  13.994 -0.3173  0.1728  0.1585
    2MPD2    H713897   4.639   1.404  13.918 -0.2572 -0.0848 -0.0736
    3TMC2    C113898   4.726   1.532  14.107  0.6470 -0.4923 -1.4319
    3TMC2    C213899   4.691   1.607  14.208  0.0498 -0.1161 -0.4165
    3TMC2    C313900   4.703   1.742  14.180  0.4329 -0.2792  0.1132
    3TMC2    C413901   0.034   1.569  13.982  0.0832  0.1160  0.6604
    3TMC2    C513902   0.036   1.702  13.963 -0.1290  0.7511  0.2614
    3TMC2    C613903   0.004   1.792  14.057 -0.3327 -0.1683 -0.0420
    3TMC2     C13904   4.697   1.390  14.115  0.2914 -0.2587 -0.2469
    3TMC2     O13905   4.690   1.350  14.230 -0.4477 -0.3065  0.3091
    3TMC2     H13906   4.640   1.568  14.296  1.9537  2.2645  1.7282
    3TMC2    H113907   0.076   1.502  13.908  0.2460  0.8664  0.0712
    3TMC2    H213908   0.026   1.898  14.045 -0.2670 -0.3339 -1.4425
    3TMC2    C713909   0.111   1.745  13.851 -0.3987 -0.5141 -0.3150
    3TMC2    C813910   4.654   1.831  14.277  0.1788  0.5185 -0.5663
    3TMC2    O113911   0.201   1.674  13.800 -0.1090  0.3812  0.0844
    3TMC2    O213912   4.644   1.809  14.395 -0.4478 -0.6052  0.3525
    3TMC2    O513913   4.580   1.923  14.213 -0.1360 -0.1029  0.7294
    3TMC2    H513914   4.589   1.927  14.115 -0.2860  0.2868  0.7292
    4TMC2    C113915   4.338   2.410  13.406  0.2829 -0.1375 -0.0814
    4TMC2    C213916   4.373   2.434  13.275 -0.1573 -0.2466 -0.4522
    4TMC2    C313917   4.504   2.419  13.237 -0.0283 -0.3712  0.2077
    4TMC2    C413918   4.433   2.378  13.494 -0.0770  0.2772  0.9376
    4TMC2    C513919   4.565   2.355  13.454  0.0653 -0.2777  0.4016
    4TMC2    C613920   4.606   2.383  13.325 -0.9038 -0.5632  0.4684
    4TMC2     C13921   4.199   2.401  13.449  0.1376 -0.7450  0.0676
    4TMC2     O13922   4.190   2.418  13.571 -0.2059  0.0631 -0.0168
    4TMC2     H13923   4.300   2.454  13.198 -0.5819  0.2771  0.0923
    4TMC2    H113924   4.397   2.334  13.587 -2.4186  0.5570  0.1524
    4TMC2    H213925   4.711   2.399  13.304 -0.7824  0.2121  1.6852
    4TMC2    C713926   4.640   2.262  13.545  0.8634  0.5495  0.2369
    4TMC2    C813927   4.538   2.484  13.113 -0.6819  0.2700  0.3937
    4TMC2    O113928   4.583   2.229  13.651 -0.0187  0.4994 -0.3913
    4TMC2    O213929   4.489   2.590  13.073  0.0716  0.1407 -0.2903
    4TMC2    O513930   4.662   2.443  13.084 -0.6161 -0.1062 -0.0212
    4TMC2    H513931   4.672   2.348  13.106 -4.6008 -0.3968  0.4729
    5MPD2     C13932   3.693   2.269  13.466 -0.5217 -0.1302  1.4605
    5MPD2    C113933   3.735   2.247  13.336  0.1033 -0.5741 -0.5167
    5MPD2    C213934   3.872   2.279  13.297  0.9412 -0.0873 -0.1426
    5MPD2    C313935   3.961   2.333  13.392  0.2750 -0.2675 -0.1647
    5MPD2    C413936   3.910   2.351  13.517  0.4668  0.5153  0.1442
    5MPD2    C513937   3.782   2.324  13.549 -0.1256  0.3697 -0.3082
    5MPD2     H13938   3.900   2.274  13.192  1.1311 -1.1241 -0.0475
    5MPD2    H113939   3.971   2.370  13.604 -0.3901 -0.4424  0.9377
    5MPD2    H213940   3.594   2.251  13.505 -1.5557 -0.3792 -1.3072
    5MPD2    H313941   3.748   2.348  13.650  1.4444 -1.6521  0.6949
    5MPD2     N13942   4.100   2.354  13.357 -0.9099  0.3511 -0.2302
    5MPD2    H513943   4.127   2.333  13.261  2.3358 -3.6413  1.5828
    5MPD2    N113944   3.641   2.182  13.257 -0.0965  0.0870 -0.0213
    5MPD2    H713945   3.547   2.179  13.294  0.4946  0.1595  1.5025
    6MPD1     C13946   3.070   3.707  12.762  0.9104  0.0250  0.2117
    6MPD1    C113947   3.080   3.697  12.895 -0.2069 -0.3004  0.5259
    6MPD1    C213948   3.127   3.574  12.945 -0.5569  0.3058 -0.3317
    6MPD1    C313949   3.186   3.473  12.863  0.1999 -0.4596 -0.7106
    6MPD1    C413950   3.179   3.496  12.724  0.0629  0.2250 -0.4572
    6MPD1    C513951   3.113   3.606  12.682  0.0268 -0.2950 -0.2067
    6MPD1     H13952   3.146   3.559  13.050  0.3105  0.2989 -0.4901
    6MPD1    H113953   3.207   3.422  12.650  0.3002 -1.0420  0.8966
    6MPD1    H213954   3.024   3.791  12.711  1.5770  0.9567  1.1628
    6MPD1    H313955   3.111   3.627  12.575 -2.2175  3.3416  0.5513
    6MPD1     N13956   3.242   3.352  12.906 -0.0955 -0.1210 -0.0270
    6MPD1    H513957   3.266   3.281  12.837 -4.4982 -1.8221  0.2101
    6MPD1    N113958   3.034   3.791  12.988  0.1613  0.7362  0.2790
    6MPD1    H613959   3.084   3.799  13.076 -0.6140  0.7435  0.7128
    6MPD1    H713960   3.015   3.884  12.952 -0.6715  0.5768  0.3109
    7MPD2     C13961   3.196   2.641  13.436  0.0143 -0.3987 -0.2627
    7MPD2    C113962   3.217   2.639  13.300 -0.0677 -0.2025  0.3772
    7MPD2    C213963   3.227   2.511  13.245  0.0423 -0.3976  0.6834
    7MPD2    C313964   3.224   2.393  13.323 -0.3724 -0.5158 -0.3433
    7MPD2    C413965   3.224   2.407  13.461 -0.4606 -0.2902 -0.3206
    7MPD2    C513966   3.203   2.532  13.516  0.3234  0.0459  0.7038
    7MPD2     H13967   3.240   2.505  13.138 -0.0961 -1.4284  0.7239
    7MPD2    H113968   3.239   2.331  13.537 -1.8647  0.6920  0.9339
    7MPD2    H213969   3.190   2.737  13.485  0.4222 -1.5716  2.1284
    7MPD2    H313970   3.189   2.540  13.624  3.1446 -0.8788  1.1190
    7MPD2     N13971   3.255   2.270  13.264  0.2447  0.6842  0.8893
    7MPD2    H513972   3.287   2.195  13.324 -2.0814 -0.2493  0.9860
    7MPD2    N113973   3.236   2.751  13.216 -0.2835  0.7404  0.4534
    7MPD2    H713974   3.237   2.739  13.116  0.3372 -1.0360  0.6774
    8TMC3    C113975   3.306   2.139  13.076  0.0181 -0.7149 -0.5026
    8TMC3    C213976   3.424   2.107  13.138 -0.1067  0.1849  0.3886
    8TMC3    C313977   3.544   2.119  13.063  0.2389 -0.3320  0.2936
    8TMC3    C413978   3.307   2.170  12.940 -0.6047  0.3620  0.3214
    8TMC3    C513979   3.426   2.188  12.871  0.0756  0.4015 -0.9832
    8TMC3    C613980   3.546   2.161  12.933 -0.3162 -0.4141  0.0088
    8TMC3     C13981   3.215   2.235  13.135  0.0246 -0.6591  0.8829
    8TMC3     O13982   3.117   2.279  13.078  0.4692  0.0823 -0.4896
    8TMC3     H13983   3.418   2.058  13.234 -2.0610  1.4123  0.8965
    8TMC3    H113984   3.220   2.214  12.893 -0.5760  1.4206  1.2712
    8TMC3    H213985   3.640   2.168  12.879 -0.7939 -4.5326 -1.3794
    8TMC3    C713986   3.419   2.300  12.778  0.0512  0.4782 -0.2156
    8TMC3    C813987   3.668   2.138  13.128  0.0109  0.0126  1.0451
    8TMC3    O113988   3.307   2.353  12.751  0.6755 -0.2656  0.1665
    8TMC3    O213989   3.776   2.142  13.069  0.3388  0.1627  0.3559
    9TMC3    C113990   3.316   3.180  13.048 -0.3843  0.1218 -0.4159
    9TMC3    C213991   3.400   3.129  12.951 -0.6564  0.0150 -0.6584
    9TMC3    C313992   3.424   2.996  12.948 -0.0533  0.5298 -0.1944
    9TMC3    C413993   3.263   3.106  13.144 -0.1619 -0.2571 -0.2996
    9TMC3    C513994   3.287   2.968  13.139 -0.2896 -0.1422  0.2522
    9TMC3    C613995   3.378   2.913  13.048  0.3955 -0.6212 -0.1402
    9TMC3     C13996   3.258   3.313  13.037  0.7144 -0.0771  0.0064
    9TMC3     O13997   3.228   3.369  13.143  0.0479 -0.1334 -0.2238
    9TMC3     H13998   3.455   3.199  12.888 -1.1799  1.1725  0.1589
    9TMC3    H113999   3.187   3.140  13.214 -1.0777  1.9115 -2.3605
    9TMC3    H214000   3.391   2.805  13.050  0.5773 -0.6086 -0.7868
    9TMC3    C714001   3.254   2.882  13.254 -0.8627  0.4421  0.2080
    9TMC3    C814002   3.497   2.940  12.846 -0.1262  0.1708  0.3308
    9TMC3    O114003   3.241   2.934  13.362  0.1214  0.3445  0.1161
    9TMC3    O214004   3.596   2.997  12.802 -0.3212  0.3164 -0.0843
   10MPD2     C14005   3.676   2.516  12.625  0.4895  0.6584  0.4473
   10MPD2    C114006   3.562   2.482  12.703 -0.2406  0.0977 -0.1006
   10MPD2    C214007   3.490   2.585  12.754  0.1574  1.0013 -0.5979
   10MPD2    C314008   3.527   2.716  12.743  0.0277 -0.9030 -1.2029
   10MPD2    C414009   3.631   2.750  12.659  0.3688 -0.3302 -0.1298
   10MPD2    C514010   3.708   2.648  12.610  0.1245  0.2238 -0.0353
   10MPD2     H14011   3.402   2.559  12.812  0.0800  0.7982 -0.8090
   10MPD2    H114012   3.675   2.849  12.646 -1.2747  0.1552 -1.9467
   10MPD2    H214013   3.750   2.448  12.584 -0.0698 -0.8566  1.9403
   10MPD2    H314014   3.795   2.675  12.551  2.1695 -2.0320  1.9801
   10MPD2     N14015   3.462   2.806  12.828 -0.4757  0.0319  0.3726
   10MPD2    H514016   3.387   2.773  12.888  0.7822 -1.2201  1.2767
   10MPD2    N114017   3.541   2.344  12.733 -0.0189  0.3515  0.5923
   10MPD2    H714018   3.622   2.288  12.710 -0.8681 -1.1412  1.2352
   11MPD2     C14019   0.231   1.906  13.623 -0.1432  0.3064 -0.4079
   11MPD2    C114020   0.119   1.940  13.693 -1.0451  0.2254 -0.6105
   11MPD2    C214021   0.055   2.054  13.665 -0.1280  0.4094  0.2704
   11MPD2    C314022   0.094   2.126  13.550  0.1330  0.1172 -0.3049
   11MPD2    C414023   0.212   2.094  13.487  0.2970  0.4255 -0.2530
   11MPD2    C514024   0.282   1.986  13.527 -0.2367  0.0614 -0.4475
   11MPD2     H14025   4.708   2.083  13.724 -0.8291  0.3326 -0.7323
   11MPD2    H114026   0.254   2.154  13.406  0.7343  0.9124  0.3357
   11MPD2    H214027   0.280   1.813  13.650  0.7300  0.4145 -1.6172
   11MPD2    H314028   0.378   1.955  13.485 -0.5685 -1.5549 -0.0313
   11MPD2     N14029   0.017   2.226  13.495 -0.3676  0.4780 -0.2464
   11MPD2    H514030   0.046   2.276  13.412 -1.0693  2.0227  0.4486
   11MPD2    N114031   0.064   1.866  13.800 -0.3134 -0.2663  0.2168
   11MPD2    H714032   4.719   1.906  13.838  0.3963  0.5929  0.8854
    1MPD1     C14033   2.356   2.751  17.529 -0.2174 -0.2817  0.3806
    1MPD1    C114034   2.369   2.820  17.415 -0.3958 -0.0775 -0.5643
    1MPD1    C214035   2.497   2.812  17.355 -0.3325  0.1519 -0.1619
    1MPD1    C314036   2.593   2.715  17.391  0.3415  0.1621 -0.3042
    1MPD1    C414037   2.564   2.647  17.503 -0.2421  0.4478  0.5785
    1MPD1    C514038   2.449   2.665  17.573  0.2698  0.2454 -0.1835
    1MPD1     H14039   2.518   2.886  17.280 -2.2706 -0.1821 -1.0457
    1MPD1    H114040   2.627   2.573  17.551  1.3256  0.9990 -0.6286
    1MPD1    H214041   2.262   2.764  17.581 -1.0510  1.6426 -1.6127
    1MPD1    H314042   2.425   2.614  17.665 -1.1180  0.4115 -0.4533
    1MPD1     N14043   2.719   2.700  17.339  0.3753  0.0815  0.4270
    1MPD1    H514044   2.780   2.630  17.379 -0.2170 -1.4819 -1.3672
    1MPD1    N114045   2.279   2.922  17.393  0.1067  0.1570  0.1731
    1MPD1    H614046   2.185   2.903  17.426  0.0701  0.2658  0.1307
    1MPD1    H714047   2.271   2.935  17.293  1.2843 -0.8635 -0.0493
    2MPD1     C14048   3.544   2.214  17.526  0.1148 -0.2141 -0.6524
    2MPD1    C114049   3.593   2.282  17.418 -0.1412  0.1890  1.0150
    2MPD1    C214050   3.506   2.365  17.343  0.6970 -0.0934  0.1896
    2MPD1    C314051   3.373   2.380  17.378 -0.2297  0.8494 -0.3722
    2MPD1    C414052   3.330   2.312  17.487 -0.0749 -0.2154 -0.1941
    2MPD1    C514053   3.415   2.233  17.561  0.0374  0.5193  0.1222
    2MPD1     H14054   3.547   2.419  17.258  0.3968 -1.1707 -0.6498
    2MPD1    H114055   3.229   2.328  17.523  0.4446 -0.8301  1.5468
    2MPD1    H214056   3.602   2.137  17.576  1.1166  0.2781 -1.0640
    2MPD1    H314057   3.383   2.180  17.650  0.1718  0.0721 -0.0984
    2MPD1     N14058   3.289   2.479  17.315  0.4145 -0.1258 -0.0712
    2MPD1    H514059   3.333   2.539  17.246 -0.5633 -0.5102 -1.0325
    2MPD1    N114060   3.729   2.283  17.386  0.2878  0.0142 -0.8224
    2MPD1    H614061   3.779   2.196  17.405  0.2523  0.1108 -0.3052
    2MPD1    H714062   3.737   2.306  17.287 -1.4265  1.4054 -0.6373
    3TMC3    C114063   3.101   2.608  17.246 -0.8205  0.1127 -0.2664
    3TMC3    C214064   3.164   2.658  17.139 -0.0341 -0.4229 -0.0167
    3TMC3    C314065   3.090   2.752  17.066  0.3908  0.4708 -0.3996
    3TMC3    C414066   2.976   2.646  17.282  0.1874  0.0560  1.8750
    3TMC3    C514067   2.905   2.729  17.199 -0.1786  0.2517 -0.0328
    3TMC3    C614068   2.960   2.774  17.087  0.9166 -0.2590 -0.2985
    3TMC3     C14069   3.152   2.495  17.326  0.1049  0.0118  0.0387
    3TMC3     O14070   3.076   2.430  17.399  0.3053 -0.2793 -0.1716
    3TMC3     H14071   3.254   2.621  17.093  1.2303  2.0854  0.4484
    3TMC3    H114072   2.948   2.621  17.384 -1.3282  0.5174  1.5604
    3TMC3    H214073   2.897   2.838  17.027  0.0097  1.1008  2.1024
    3TMC3    C714074   2.780   2.778  17.245 -0.1718  0.0101  0.7544
    3TMC3    C814075   3.154   2.837  16.965 -0.7818 -0.2276 -0.9876
    3TMC3    O114076   2.729   2.874  17.186 -0.3620 -0.4566 -0.8315
    3TMC3    O214077   3.088   2.910  16.901  0.1337 -0.2965 -0.0453
    4MPD1     C14078   3.555   3.101  16.791  0.1193 -0.4991  0.6028
    4MPD1    C114079   3.588   3.045  16.913  0.3397 -0.2766 -0.0749
    4MPD1    C214080   3.500   2.957  16.970 -0.6532  0.2620 -0.2040
    4MPD1    C314081   3.377   2.939  16.913  0.4218 -0.4637 -0.6236
    4MPD1    C414082   3.339   3.012  16.802 -0.1820  0.4687 -0.5910
    4MPD1    C514083   3.428   3.090  16.740  0.1328 -0.2649  0.1568
    4MPD1     H14084   3.535   2.901  17.056 -0.7176  0.4534 -0.0525
    4MPD1    H114085   3.235   3.015  16.770 -0.7973  1.7825  1.5062
    4MPD1    H214086   3.621   3.172  16.743 -0.4867 -1.9536 -2.3532
    4MPD1    H314087   3.401   3.150  16.654 -2.1920 -0.2625  0.8715
    4MPD1     N14088   3.287   2.854  16.989 -0.2548 -0.0123 -0.3085
    4MPD1    H514089   3.333   2.819  17.073  0.8169  0.5928 -0.6441
    4MPD1    N114090   3.724   3.025  16.967  0.0438 -0.6335  0.1684
    4MPD1    H614091   3.784   3.105  16.950 -0.0672 -0.3683  1.0104
    4MPD1    H714092   3.722   3.011  17.068 -3.1927  0.7562  0.2943
    1TCq1    O114093   3.214   2.948  12.541  0.0370 -0.1111 -0.3136
    1TCq1    C114094   3.210   2.822  12.584 -0.0531  0.8423 -1.1342
    1TCq1    O214095   3.146   2.787  12.681 -0.4625  0.0580  0.1508
    1TCq1    C214096   3.196   2.746  12.457  0.4710  0.6211  0.0067
    1TCq1    C314097   3.165   2.612  12.465  0.1110  0.0832  0.5552
    1TCq1    C414098   3.126   2.543  12.354 -0.2991 -0.5436 -0.4127
    1TCq1    C514099   3.104   2.611  12.240  0.3460  0.2619 -0.5611
    1TCq1    C614100   3.118   2.744  12.237  0.2600 -0.8324  0.1358
    1TCq1    C714101   3.166   2.816  12.338 -0.6639  0.3510  0.3913
    1TCq1    C814102   3.084   2.819  12.116 -0.0263 -0.6560  0.1253
    1TCq1    O414103   3.056   2.937  12.124 -0.1497 -0.3845  0.3173
    1TCq1    C914104   3.067   2.416  12.372 -0.0026 -0.0532 -0.3277
    1TCq1    O514105   3.023   2.358  12.267  0.0675  0.3722  0.2394
    1TCq1    O614106   3.050   2.376  12.491  0.0930  1.0345  0.0761
    1TCq1    H114107   3.283   2.964  12.473 -0.5511 -1.7252 -1.2867
    1TCq1    H214108   3.189   2.557  12.555 -1.5920 -0.5622  0.6059
    1TCq1    H314109   3.071   2.559  12.151 -0.0975  1.0576 -0.8622
    1TCq1    H414110   3.185   2.921  12.320 -0.0362  0.1105 -0.3722
    2MPD1     C14111   3.052   2.869  11.606  0.2222  0.7678 -0.5155
    2MPD1    C114112   3.110   2.743  11.635 -0.5740 -0.1383  0.3951
    2MPD1    C214113   3.129   2.707  11.768  0.2254 -0.5677  0.3556
    2MPD1    C314114   3.086   2.788  11.872  0.5290  0.8969  0.0989
    2MPD1    C414115   3.020   2.904  11.839  0.3510 -1.0973 -0.3177
    2MPD1    C514116   2.998   2.940  11.709  0.0153  0.1482 -0.0682
    2MPD1     H14117   3.193   2.622  11.787  0.1229 -0.1733  2.4574
    2MPD1    H114118   2.987   2.974  11.915 -2.4497 -0.2239 -2.3782
    2MPD1    H214119   3.027   2.909  11.509 -2.2703 -1.9849 -1.0305
    2MPD1    H314120   2.962   3.041  11.691 -2.1404 -0.5693  0.2343
    2MPD1     N14121   3.113   2.752  12.002  0.3241  0.0428 -0.0617
    2MPD1    H514122   3.158   2.662  12.013  1.1621  0.2965 -1.4016
    2MPD1    N114123   3.175   2.678  11.531 -0.3187 -0.0438  0.5053
    2MPD1    H614124   3.122   2.671  11.444 -1.2470  0.9313  0.9863
    2MPD1    H714125   3.192   2.583  11.563  2.4600 -0.3897 -1.9484
    1TMC1    C114126   4.114   1.740   0.521 -1.1958  0.7970 -0.7109
    1TMC1    C214127   3.979   1.732   0.522  0.3324 -0.1239 -0.1425
    1TMC1    C314128   3.921   1.732   0.396 -0.2541  0.5198 -0.0878
    1TMC1    C414129   4.186   1.727   0.404  0.3383 -0.1301 -0.1288
    1TMC1    C514130   4.123   1.704   0.288  0.0879  0.2411 -0.3025
    1TMC1    C614131   3.986   1.720   0.277 -0.6883 -0.1392 -0.5357
    1TMC1     C14132   4.192   1.758   0.640 -0.0218  0.3297 -0.9319
    1TMC1     O14133   4.312   1.736   0.644  0.2429  0.4329 -0.0316
    1TMC1     H14134   3.922   1.725   0.613  1.1428  0.0723  0.3819
    1TMC1    H114135   4.293   1.740   0.400  0.0742  1.4322 -1.7886
    1TMC1    H214136   3.940   1.717   0.179 -0.3520 -0.2581 -0.6933
    1TMC1    C714137   4.199   1.719   0.166 -0.5866 -0.1993 -0.8178
    1TMC1    C814138   3.773   1.716   0.396 -0.3672 -0.0318 -0.7898
    1TMC1    O114139   4.312   1.768   0.167 -0.1519 -0.1224  0.2874
    1TMC1    O214140   3.700   1.687   0.489  1.0493 -0.2302 -0.2689
    1TMC1    O314141   4.123   1.681   0.059  0.0621  0.0142  0.4411
    1TMC1    H314142   4.033   1.643   0.074  0.7925 -1.5466  0.8600
    1TMC1    O514143   3.733   1.766   0.274  0.4008 -0.1976  0.0258
    1TMC1    H514144   3.805   1.814   0.229  0.5346  1.0013  1.5328
    2MPD1     C14145   4.254   2.047   1.050 -0.2704 -0.0234 -0.4953
    2MPD1    C114146   4.123   2.010   1.049  0.2864 -0.7715 -0.0647
    2MPD1    C214147   4.067   1.939   0.941  0.3652 -0.1583 -0.5435
    2MPD1    C314148   4.153   1.892   0.843  0.3912  0.2653  0.5653
    2MPD1    C414149   4.289   1.935   0.849  0.0573 -0.6696 -0.2858
    2MPD1    C514150   4.343   2.004   0.953 -0.2976 -0.2777 -0.8002
    2MPD1     H14151   3.959   1.932   0.935  0.5576 -2.6146 -1.1601
    2MPD1    H114152   4.363   1.909   0.774 -0.0709 -0.6841 -0.4079
    2MPD1    H214153   4.289   2.113   1.129 -1.0317  1.1892 -1.1764
    2MPD1    H314154   4.450   2.020   0.961 -0.7997  1.4192  2.4341
    2MPD1     N14155   4.106   1.820   0.735 -0.0623  0.3535  0.0354
    2MPD1    H514156   4.008   1.835   0.713  0.2397  1.9616 -0.2084
    2MPD1    N114157   4.040   2.059   1.147  0.6960  0.4491  0.4934
    2MPD1    H614158   3.969   1.992   1.177  1.4406 -0.4843  0.1753
    2MPD1    H714159   4.096   2.081   1.229 -1.5996  3.8623  1.1393
    1MPD1     C14160   4.463   3.582  11.160 -0.0967  0.1807 -0.9510
    1MPD1    C114161   4.547   3.477  11.169 -0.4850  0.1054 -0.4385
    1MPD1    C214162   4.609   3.430  11.047  0.2211  0.4922  0.4540
    1MPD1    C314163   4.592   3.500  10.928  0.0381 -0.6646  0.0825
    1MPD1    C414164   4.506   3.602  10.921 -0.6038  0.6263  0.1557
    1MPD1    C514165   4.445   3.641  11.034  0.5209 -0.4413  0.4039
    1MPD1     H14166   4.673   3.344  11.058  0.2704  0.4870  0.1190
    1MPD1    H114167   4.496   3.664  10.833 -0.7197 -0.9691 -0.9443
    1MPD1    H214168   4.410   3.626  11.243 -0.4020 -3.6016  0.8431
    1MPD1    H314169   4.381   3.728  11.034 -0.5322 -1.2012 -2.1491
    1MPD1     N14170   4.671   3.464  10.815  0.0809 -0.7081  0.5704
    1MPD1    H514171   4.729   3.381  10.821 -0.7786 -1.4026 -0.7447
    1MPD1    N114172   4.588   3.434  11.296 -0.2206  0.3445 -0.9176
    1MPD1    H614173   4.508   3.434  11.360 -0.6755 -1.7639 -1.4885
    1MPD1    H714174   4.628   3.340  11.297  2.4769  1.4872 -3.4777
    2MPD1     C14175   3.569   2.092  11.531 -0.0186 -0.4711 -0.0442
    2MPD1    C114176   3.691   2.164  11.551  0.5245 -0.2912  0.8615
    2MPD1    C214177   3.774   2.195  11.444 -0.0363  0.1714 -0.2698
    2MPD1    C314178   3.746   2.146  11.314 -0.2735 -0.1887  0.1949
    2MPD1    C414179   3.633   2.074  11.297  0.6272 -0.9175 -0.0325
    2MPD1    C514180   3.545   2.048  11.400 -0.1693  0.1332  0.2696
    2MPD1     H14181   3.861   2.256  11.465  1.6525 -2.7431  1.3495
    2MPD1    H114182   3.613   2.033  11.199 -0.9714  1.2669 -0.6055
    2MPD1    H214183   3.497   2.078  11.611  0.1447  0.5826  0.2746
    2MPD1    H314184   3.454   1.994  11.375  0.5339 -1.1525  0.4404
    2MPD1     N14185   3.823   2.184  11.202  0.2151  0.1809  0.0127
    2MPD1    H514186   3.809   2.128  11.119  0.1681  1.1363 -0.6249
    2MPD1    N114187   3.725   2.223  11.677  0.5384  0.1816 -0.0159
    2MPD1    H614188   3.825   2.243  11.678  0.4041  0.7433  2.3588
    2MPD1    H714189   3.695   2.162  11.752 -1.9182  0.3031 -0.8938
    3MPD1     C14190   4.037   2.103  10.216  0.8890 -0.3639 -0.3320
    3MPD1    C114191   4.117   2.215  10.247  0.5893 -0.2727  0.1060
    3MPD1    C214192   4.119   2.253  10.381  0.3112  0.3932  0.3306
    3MPD1    C314193   4.032   2.198  10.472  0.4067  0.1880 -0.3732
    3MPD1    C414194   3.953   2.093  10.439  0.0865 -0.0172 -0.1620
    3MPD1    C514195   3.948   2.056  10.310  0.3057 -0.1516  0.0883
    3MPD1     H14196   4.195   2.318  10.421  0.3961 -1.2512  2.8330
    3MPD1    H114197   3.899   2.038  10.515  2.1301 -0.8115  0.6901
    3MPD1    H214198   4.034   2.058  10.118  0.3172 -2.3074  0.5862
    3MPD1    H314199   3.886   1.969  10.291  1.2907 -0.8016 -0.1450
    3MPD1     N14200   4.039   2.250  10.610  0.3611  0.0437 -0.0884
    3MPD1    H514201   4.102   2.328  10.618  1.1054 -0.6512  0.8053
    3MPD1    N114202   4.220   2.255  10.158  0.1055  0.5555  0.0837
    3MPD1    H614203   4.203   2.251  10.058 -0.0813 -1.1104  0.1800
    3MPD1    H714204   4.237   2.352  10.184 -2.3116  1.2370 -0.8893
    4MPD2     C14205   4.677   2.995  10.240  1.0078  0.4872  0.6962
    4MPD2    C114206   0.049   3.031  10.312  0.9751 -0.9337 -0.4073
    4MPD2    C214207   0.137   2.936  10.349 -0.6343  0.3560 -0.2124
    4MPD2    C314208   0.104   2.803  10.340 -0.7404  0.0809  0.5310
    4MPD2    C414209   4.728   2.768  10.271 -0.3425  0.0840 -0.5603
    4MPD2    C514210   4.648   2.866  10.218  0.3978 -0.5283 -0.1259
    4MPD2     H14211   0.217   2.965  10.416 -0.4682  1.1348 -0.7531
    4MPD2    H114212   4.705   2.664  10.250  0.4631  0.1972 -1.9840
    4MPD2    H214213   4.610   3.071  10.202  0.4767 -1.9711 -3.3416
    4MPD2    H314214   4.558   2.854  10.158  0.6237 -0.6091 -0.4536
    4MPD2     N14215   0.177   2.703  10.412 -0.0148 -0.2803  0.2059
    4MPD2    H514216   0.141   2.608  10.415 -0.1110 -0.1254  3.9584
    4MPD2    N114217   0.081   3.164  10.352  0.0124 -0.0979 -0.5547
    4MPD2    H714218   0.165   3.176  10.407  0.5371 -0.4569 -1.2743
    5TMC3    C114219   0.070   3.392  10.392 -0.6193 -1.2344 -0.0212
    5TMC3    C214220   4.719   3.451  10.471  0.6954  0.1913 -0.1379
    5TMC3    C314221   0.021   3.476  10.595 -1.0700 -0.8579 -0.2734
    5TMC3    C414222   0.203   3.380  10.416 -0.1109  0.3769 -0.0430
    5TMC3    C514223   0.241   3.392  10.545  0.3536 -0.4529 -0.0562
    5TMC3    C614224   0.143   3.437  10.638 -0.1049 -0.2418 -0.1368
    5TMC3     C14225   0.012   3.281  10.312  0.3413  0.1091  0.4068
    5TMC3     O14226   4.640   3.284  10.266  0.7923  0.2197 -0.2436
    5TMC3     H14227   4.617   3.459  10.435  1.0098  0.2443 -1.0251
    5TMC3    H114228   0.263   3.335  10.337  1.2615  0.5414  0.9081
    5TMC3    H214229   0.164   3.456  10.742 -0.5996 -1.2831  0.1462
    5TMC3    C714230   0.312   3.276  10.593  0.3069 -0.3006  0.1952
    5TMC3    C814231   4.664   3.523  10.690  0.0708  0.8331  0.4371
    5TMC3    O114232   0.301   3.177  10.512 -0.1444  0.6284  0.0901
    5TMC3    O214233   4.580   3.588  10.642 -0.5777 -0.0528  0.5063
    6TMC3    C114234   3.996   2.300  11.073 -0.7901  0.3551 -0.5287
    6TMC3    C214235   3.947   2.245  10.961 -0.3568  0.3725  0.6663
    6TMC3    C314236   4.023   2.261  10.846  0.4709  0.5512 -0.0392
    6TMC3    C414237   4.111   2.366  11.082  0.1091  0.4049 -0.0545
    6TMC3    C514238   4.188   2.375  10.971 -0.2900  0.0025 -0.5540
    6TMC3    C614239   4.150   2.321  10.853  0.1337 -0.2719 -0.0527
    6TMC3     C14240   3.922   2.284  11.199 -0.3002  0.5347 -0.9401
    6TMC3     O14241   3.946   2.371  11.283  0.3217  0.6976  0.1835
    6TMC3     H14242   3.843   2.212  10.959 -0.5210  0.8859  0.6219
    6TMC3    H114243   4.145   2.399  11.179 -0.4582  4.3556 -1.2244
    6TMC3    H214244   4.215   2.328  10.766  1.2341  0.4653  0.8292
    6TMC3    C714245   4.329   2.412  10.969 -1.2754  0.5092 -0.3524
    6TMC3    C814246   3.969   2.209  10.721 -0.2780  0.0207  0.4272
    6TMC3    O114247   4.377   2.448  10.862 -0.6534 -0.7634  0.0210
    6TMC3    O214248   3.890   2.113  10.727 -0.2742  0.0673  0.2606
    7MPD2     C14249   0.550   2.996  10.944 -0.5021 -0.9059 -0.3547
    7MPD2    C114250   0.485   2.962  10.826 -0.1880 -0.1596  0.2865
    7MPD2    C214251   0.446   3.066  10.746  0.0418  0.3956  0.2316
    7MPD2    C314252   0.446   3.196  10.786 -0.8621 -0.4260 -0.5915
    7MPD2    C414253   0.511   3.233  10.905 -0.0745 -0.1902  0.8430
    7MPD2    C514254   0.560   3.132  10.980 -0.4359 -0.1650 -0.4567
    7MPD2     H14255   0.406   3.035  10.650  1.6804 -1.8406  0.2976
    7MPD2    H114256   0.512   3.335  10.942 -1.1332  0.4762 -0.9511
    7MPD2    H214257   0.569   2.917  11.015  0.4764  0.7145  1.1854
    7MPD2    H314258   0.603   3.157  11.076  0.8281 -3.0158 -0.2666
    7MPD2     N14259   0.380   3.300  10.713  0.5603 -0.4215  0.5538
    7MPD2    H514260   0.394   3.396  10.743  0.6812 -0.9019  2.0471
    7MPD2    N114261   0.466   2.830  10.780 -0.5545  0.7301 -0.0175
    7MPD2    H714262   0.417   2.821  10.692 -1.0210  1.2352  0.1908
    8TMC3    C114263   0.442   2.601  10.767 -0.5113  0.1121  0.5255
    8TMC3    C214264   0.335   2.544  10.826  0.6261 -0.1633 -0.2681
    8TMC3    C314265   0.222   2.510  10.740  0.2980  0.9953  0.2135
    8TMC3    C414266   0.435   2.640  10.629 -0.0896 -0.2180  0.1343
    8TMC3    C514267   0.322   2.606  10.562  0.0421  0.3975 -0.7587
    8TMC3    C614268   0.215   2.534  10.607 -0.0994  0.1066  0.4243
    8TMC3     C14269   0.489   2.714  10.848  0.5355 -0.0835 -0.4974
    8TMC3     O14270   0.513   2.694  10.967  0.9205 -0.3703 -0.4836
    8TMC3     H14271   0.352   2.507  10.926  1.6730  1.1222  0.0399
    8TMC3    H114272   0.520   2.688  10.583  0.4552  0.7133  2.1290
    8TMC3    H214273   0.124   2.513  10.552 -0.7050 -2.2530  2.3177
    8TMC3    C714274   0.296   2.720  10.481  1.0681 -0.5632  0.6549
    8TMC3    C814275   0.094   2.479  10.806 -0.4070 -0.4238 -0.3933
    8TMC3    O114276   0.370   2.820  10.488  0.5576  0.2395  0.5004
    8TMC3    O214277   4.740   2.437  10.747 -0.5668  0.2164  0.0817
    9MPD2     C14278   0.042   2.507  11.170  0.7380 -0.4037  0.5407
    9MPD2    C114279   0.015   2.477  11.037  0.1752 -0.7238  0.5150
    9MPD2    C214280   4.623   2.446  11.005 -0.1014  0.6613 -0.1040
    9MPD2    C314281   4.530   2.436  11.111 -0.5383 -0.1590 -0.1436
    9MPD2    C414282   4.570   2.433  11.236 -0.7361  0.5746  0.0450
    9MPD2    C514283   4.692   2.489  11.272  0.3125  0.1264  0.4917
    9MPD2     H14284   4.587   2.435  10.904  1.4471  2.0309 -0.7956
    9MPD2    H114285   4.490   2.437  11.309 -0.6761 -4.1735  0.3580
    9MPD2    H214286   0.145   2.530  11.197  0.6009 -0.6504  1.2858
    9MPD2    H314287   4.715   2.492  11.377  1.6386 -2.5040  0.2979
    9MPD2     N14288   4.393   2.405  11.087 -0.3897 -0.0653 -0.0886
    9MPD2    H514289   4.340   2.384  11.170 -1.5336  0.6749 -0.6298
    9MPD2    N114290   0.103   2.513  10.936 -0.2299 -0.1151  0.3802
    9MPD2    H714291   0.187   2.559  10.969 -2.3693  4.0601  0.0377
    1MPD1     C14292   4.712   1.166  16.008 -0.4993  0.0033  0.1080
    1MPD1    C114293   0.040   1.213  16.122  0.2303 -0.0353  0.2351
    1MPD1    C214294   0.091   1.348  16.113 -0.4341 -0.6020 -0.4187
    1MPD1    C314295   0.052   1.432  16.008  0.0406  0.1104 -0.0544
    1MPD1    C414296   4.718   1.374  15.905  1.4427  0.2537  0.4918
    1MPD1    C514297   4.689   1.242  15.906  0.0300 -0.2846  0.9703
    1MPD1     H14298   0.168   1.386  16.180 -1.2502 -0.5782  0.4975
    1MPD1    H114299   4.698   1.434  15.818  0.9179  1.0815  1.1828
    1MPD1    H214300   4.671   1.066  16.001  1.1372 -0.5411 -2.0290
    1MPD1    H314301   4.641   1.191  15.824  3.1524 -1.9679  0.2121
    1MPD1     N14302   0.098   1.560  15.982  0.2010 -0.7886 -0.4599
    1MPD1    H514303   0.063   1.602  15.897 -1.4982 -1.4847 -0.1080
    1MPD1    N114304   0.088   1.117  16.219 -0.1894  0.0771 -0.4263
    1MPD1    H614305   0.137   1.154  16.301 -1.2435  0.7259 -0.0798
    1MPD1    H714306   0.017   1.046  16.237  0.9050 -1.2962 -1.6087
    2TMC2    C114307   0.367   1.941  16.026  0.2805 -0.0003 -0.0580
    2TMC2    C214308   0.348   1.966  15.895  0.9064  0.1928  0.4906
    2TMC2    C314309   0.251   1.897  15.829 -0.0780  0.2404  0.0784
    2TMC2    C414310   0.298   1.841  16.091 -0.0692 -0.2162 -0.4996
    2TMC2    C514311   0.200   1.775  16.021 -0.6604  0.1973 -0.3940
    2TMC2    C614312   0.170   1.804  15.888  0.0229 -0.3828  0.0516
    2TMC2     C14313   0.456   2.015  16.110  0.0369  0.1653  0.3618
    2TMC2     O14314   0.444   2.009  16.233 -1.0032 -0.6315  0.0729
    2TMC2     H14315   0.403   2.044  15.843 -1.7699  1.9789  0.3695
    2TMC2    H114316   0.320   1.819  16.195  0.3146  0.1136 -0.5118
    2TMC2    H214317   0.092   1.752  15.833 -2.0658  2.3011  0.4618
    2TMC2    C714318   0.166   1.645  16.071  0.0513  0.2673 -0.2382
    2TMC2    C814319   0.249   1.899  15.683 -0.9533 -0.4628 -0.1836
    2TMC2    O114320   0.184   1.618  16.192  0.4912 -0.3081 -0.3698
    2TMC2    O214321   0.344   1.942  15.619  0.9237  0.1872  0.0327
    2TMC2    O514322   0.129   1.861  15.633  0.1403  0.2407  0.2664
    2TMC2    H514323   0.054   1.880  15.692  0.8766 -3.3281  2.3887
    3MPD1     C14324   0.806   2.373  16.180  0.2187  0.2395  0.9173
    3MPD1    C114325   0.755   2.386  16.050 -0.4742  1.1715  0.0693
    3MPD1    C214326   0.669   2.286  16.005 -0.1832 -0.0143  0.2321
    3MPD1    C314327   0.628   2.185  16.093 -0.5330 -0.2364  0.3370
    3MPD1    C414328   0.678   2.178  16.222 -0.0445 -0.5245  0.2885
    3MPD1    C514329   0.772   2.274  16.258  0.7541 -0.0457  0.2410
    3MPD1     H14330   0.628   2.291  15.905 -0.1555 -0.2754  0.2079
    3MPD1    H114331   0.656   2.096  16.289  0.8468 -0.2914  0.8684
    3MPD1    H214332   0.886   2.437  16.216  0.3697  0.8855 -0.5641
    3MPD1    H314333   0.822   2.251  16.352 -0.1841 -1.2380  0.4443
    3MPD1     N14334   0.527   2.095  16.038 -0.3410  0.4174  0.3752
    3MPD1    H514335   0.509   2.090  15.938 -0.6597  2.1789  0.3418
    3MPD1    N114336   0.783   2.493  15.970 -0.2300 -0.3564  0.5501
    3MPD1    H614337   0.805   2.575  16.026 -3.2293  0.4144  0.5921
    3MPD1    H714338   0.714   2.521  15.900  0.9967  1.8647  0.2031
    1TMC1    C114339   3.360   0.465  14.741 -0.4480 -0.7273  0.1751
    1TMC1    C214340   3.271   0.375  14.791  0.7452  0.2753  0.3109
    1TMC1    C314341   3.308   0.247  14.818 -0.1216 -1.3085 -0.5077
    1TMC1    C414342   3.482   0.423  14.704  0.0488  0.1655  0.5661
    1TMC1    C514343   3.516   0.294  14.737 -0.2430 -0.4971  0.4378
    1TMC1    C614344   3.435   0.204  14.791  0.6688  0.1551  0.1470
    1TMC1     C14345   3.303   0.567  14.662 -0.1847 -0.1418  0.4624
    1TMC1     O14346   3.208   0.627  14.712  0.3193 -0.3255 -0.3355
    1TMC1     H14347   3.171   0.407  14.816  0.6877 -1.6541  2.5073
    1TMC1    H114348   3.560   0.488  14.667  0.1810  1.0257  2.3362
    1TMC1    H214349   3.472   0.104  14.813 -1.2542  0.5666  5.1910
    1TMC1    C714350   3.656   0.285  14.745 -0.4369  0.1424 -0.3919
    1TMC1    C814351   3.211   0.169  14.896  0.1299  0.1847  0.9576
    1TMC1    O114352   3.730   0.335  14.662  0.2625 -0.4473 -0.0735
    1TMC1    O214353   3.127   0.226  14.959 -0.0711  0.0954 -0.2478
    1TMC1    O314354   3.704   0.235  14.861 -0.1438 -0.1115 -0.2672
    1TMC1    H314355   3.635   0.193  14.917  1.2378 -0.8976  0.8559
    1TMC1    O514356   3.209   0.046  14.844 -0.0278 -0.1447  0.3626
    1TMC1    H514357   3.275   0.022  14.775 -0.8276  0.5768 -0.6656
    2MPD2     C14358   3.222   0.769  14.453 -0.9324 -0.6160 -0.5722
    2MPD2    C114359   3.331   0.682  14.435  0.4697 -0.4496  0.0072
    2MPD2    C214360   3.405   0.686  14.317  0.2054 -0.3253  0.3866
    2MPD2    C314361   3.366   0.772  14.213  0.2369  0.2896  0.0179
    2MPD2    C414362   3.250   0.846  14.230 -0.2421 -0.0336  0.4274
    2MPD2    C514363   3.189   0.855  14.351  0.3739  0.3217  0.1599
    2MPD2     H14364   3.475   0.607  14.294  0.1171 -0.3089  0.0597
    2MPD2    H114365   3.206   0.906  14.152 -2.8433 -1.0439  1.1295
    2MPD2    H214366   3.166   0.787  14.543  1.4775 -1.6407  1.1377
    2MPD2    H314367   3.105   0.922  14.368  0.1289 -0.2541  1.2482
    2MPD2     N14368   3.439   0.766  14.096  0.1911  0.1059  0.8233
    2MPD2    H514369   3.521   0.707  14.103  1.3890  1.7086  0.1556
    2MPD2    N114370   3.365   0.584  14.537  0.0426  0.1664  0.5517
    2MPD2    H714371   3.440   0.520  14.515 -1.4471 -1.4730  0.1958
    3TCq1    O114372   3.493   1.033  13.527  0.3214 -0.5531  0.2377
    3TCq1    C114373   3.593   0.942  13.538  0.9767 -0.7540  0.2582
    3TCq1    O214374   3.697   0.941  13.469 -0.0318  0.0937  0.2778
    3TCq1    C214375   3.575   0.840  13.651 -0.5519  0.6467 -0.6369
    3TCq1    C314376   3.689   0.758  13.665  0.0575  0.4161 -0.1756
    3TCq1    C414377   3.694   0.687  13.785  0.7601 -0.3392  0.6322
    3TCq1    C514378   3.597   0.701  13.890 -0.1848 -0.0505 -0.0972
    3TCq1    C614379   3.504   0.796  13.871  0.2211  0.2982  0.4410
    3TCq1    C714380   3.486   0.860  13.752 -0.1023 -0.1040 -0.4133
    3TCq1    C814381   3.414   0.828  13.979  0.7248  0.7051 -0.4141
    3TCq1    O414382   3.327   0.908  13.953 -0.1273  0.2426 -0.3990
    3TCq1    C914383   3.798   0.588  13.800  0.1447 -0.2710 -0.3682
    3TCq1    O514384   3.882   0.582  13.708 -0.7254  0.0892 -0.0137
    3TCq1    O614385   3.788   0.503  13.895  0.0474  0.1185  0.8779
    3TCq1    H114386   3.414   1.014  13.583 -1.5128  2.8524 -1.2286
    3TCq1    H214387   3.774   0.750  13.599  1.2846  0.5271  1.3896
    3TCq1    H314388   3.618   0.651  13.983 -0.2369 -1.2031 -0.7020
    3TCq1    H414389   3.411   0.938  13.741  1.2259  1.4200  1.2878
    1MPD2     C14390   3.221   2.096  14.587  0.4131  0.1847 -0.1393
    1MPD2    C114391   3.196   2.002  14.681 -0.6307  0.6663 -0.4031
    1MPD2    C214392   3.299   1.930  14.727  0.3046 -0.7198 -0.4122
    1MPD2    C314393   3.429   1.959  14.715 -0.1700  0.1445 -0.0785
    1MPD2    C414394   3.456   2.065  14.632 -0.1497 -0.2464  0.3477
    1MPD2    C514395   3.354   2.136  14.569 -0.7232  0.8405 -0.2902
    1MPD2     H14396   3.261   1.859  14.800  0.4165 -0.8216 -0.4550
    1MPD2    H114397   3.556   2.086  14.596  0.5899 -1.2837  1.7966
    1MPD2    H214398   3.147   2.153  14.532 -1.6624 -1.1275  1.2669
    1MPD2    H314399   3.379   2.215  14.500 -0.2703  1.1328  0.2057
    1MPD2     N14400   3.533   1.889  14.782 -0.3794  0.2124  0.7460
    1MPD2    H514401   3.629   1.922  14.786  0.0453 -1.2063  2.1260
    1MPD2    N114402   3.057   1.977  14.706  0.1134 -0.2053  0.1890
    1MPD2    H714403   2.985   2.038  14.669 -0.0781 -1.4027 -1.4186
    2TMC3    C114404   2.866   1.887  14.818 -0.5833  0.3163  0.0966
    2TMC3    C214405   2.849   1.842  14.944  0.8345 -0.2202 -0.2575
    2TMC3    C314406   2.772   1.728  14.968 -0.3954  0.3685 -0.0444
    2TMC3    C414407   2.789   1.835  14.719  0.4919  0.6670  0.1450
    2TMC3    C514408   2.698   1.733  14.750 -0.2106  0.1392  0.2341
    2TMC3    C614409   2.691   1.678  14.870  0.2531 -0.1777 -0.0197
    2TMC3     C14410   3.006   1.868  14.781 -0.4876 -1.1130 -0.7288
    2TMC3     O14411   3.067   1.780  14.846 -0.2006 -1.0097 -0.7518
    2TMC3     H14412   2.911   1.884  15.023  1.1765 -2.2106  0.5322
    2TMC3    H114413   2.810   1.860  14.615  1.1109 -1.8463 -0.3325
    2TMC3    H214414   2.640   1.584  14.888 -0.8727  0.5542  0.5987
    2TMC3    C714415   2.596   1.708  14.651  0.4289 -0.5685 -0.1660
    2TMC3    C814416   2.830   1.631  15.052  0.2594 -0.0887 -0.0176
    2TMC3    O114417   2.631   1.719  14.533  0.2776 -0.8684 -0.3105
    2TMC3    O214418   2.750   1.553  15.101 -0.2338 -0.0651  0.1575
    3TCq1    O114419   1.432   1.827  14.771 -0.1787 -0.5382 -0.4803
    3TCq1    C114420   1.430   1.749  14.883  0.4727 -1.1292 -0.1645
    3TCq1    O214421   1.339   1.739  14.963 -0.9224  0.0932 -0.1855
    3TCq1    C214422   1.568   1.711  14.911  0.3821  0.0775  0.1910
    3TCq1    C314423   1.614   1.711  15.042  0.0604 -0.3651 -0.5033
    3TCq1    C414424   1.745   1.665  15.063 -0.1494 -0.5399  0.2559
    3TCq1    C514425   1.829   1.639  14.962 -0.3401 -0.2245  0.2510
    3TCq1    C614426   1.780   1.632  14.833 -0.1715 -0.6224 -0.4635
    3TCq1    C714427   1.651   1.674  14.809 -0.9180 -0.2581 -0.2851
    3TCq1    C814428   1.870   1.622  14.716 -0.0566  0.0403 -0.0200
    3TCq1    O414429   1.816   1.608  14.605 -0.3906  0.3571  0.0048
    3TCq1    C914430   1.801   1.667  15.194  0.5613  0.0659  0.0169
    3TCq1    O514431   1.913   1.615  15.205 -0.3816  0.1960  0.4215
    3TCq1    O614432   1.737   1.736  15.280  0.1930  0.6658  0.0668
    3TCq1    H114433   1.520   1.857  14.740 -0.3618 -1.3837 -1.8118
    3TCq1    H214434   1.552   1.737  15.126  2.1271 -0.1274  0.9422
    3TCq1    H314435   1.930   1.601  14.979 -1.0429 -1.1010  2.4917
    3TCq1    H414436   1.615   1.684  14.707 -0.2533  1.4699 -0.3395
    4MPD2     C14437   2.101   1.678  14.531 -0.5966  0.2002 -0.4032
    4MPD2    C114438   2.113   1.659  14.664 -0.3565  0.0612 -0.3150
    4MPD2    C214439   2.238   1.662  14.722  0.4521  0.3045  0.6065
    4MPD2    C314440   2.357   1.670  14.649  0.2486 -0.0813 -0.3803
    4MPD2    C414441   2.343   1.685  14.507 -0.1943 -0.3652  1.0807
    4MPD2    C514442   2.212   1.695  14.458 -0.2937  0.4555 -0.5412
    4MPD2     H14443   2.248   1.635  14.827  0.1266  0.6170  0.7165
    4MPD2    H114444   2.428   1.709  14.444  0.3805 -0.5212  1.7911
    4MPD2    H214445   2.005   1.678  14.480 -1.8697 -1.1314  2.0169
    4MPD2    H314446   2.206   1.726  14.354 -1.1790 -1.7815 -1.1463
    4MPD2     N14447   2.481   1.686  14.715 -0.1521 -0.3782 -0.5552
    4MPD2    H514448   2.479   1.693  14.816  0.8445 -1.7507 -0.4443
    4MPD2    N114449   2.000   1.646  14.743 -0.3453  0.6479 -0.4809
    4MPD2    H714450   2.019   1.652  14.843  0.0563  2.6887 -0.6859
    5TMC2    C114451   3.647   1.598  15.124 -0.1552 -0.3584 -0.5547
    5TMC2    C214452   3.683   1.699  15.212  0.2347  0.1140  0.6103
    5TMC2    C314453   3.685   1.831  15.163 -0.6159 -0.1837  0.1745
    5TMC2    C414454   3.631   1.623  14.987  0.8575 -0.0318 -0.0356
    5TMC2    C514455   3.640   1.754  14.940  0.4137 -0.4115 -0.6398
    5TMC2    C614456   3.674   1.855  15.025 -0.0834 -0.2820 -0.6212
    5TMC2     C14457   3.537   1.528  15.187  0.0754  0.2201 -0.2114
    5TMC2     O14458   3.562   1.475  15.296  0.1212 -0.0055  0.6276
    5TMC2     H14459   3.708   1.672  15.314 -0.3077  0.9363  0.9575
    5TMC2    H114460   3.596   1.550  14.915  0.9809  0.5229 -0.6500
    5TMC2    H214461   3.682   1.960  14.999  0.3466 -0.5455 -1.5465
    5TMC2    C714462   3.528   1.776  14.857 -0.3883  0.3407  0.1289
    5TMC2    C814463   3.695   1.941  15.257  0.0087 -0.3250  0.3063
    5TMC2    O114464   3.431   1.714  14.892  0.0415 -0.3037  0.8865
    5TMC2    O214465   3.735   2.055  15.224 -0.4385 -0.2719 -0.1212
    5TMC2    O514466   3.647   1.905  15.378  0.3424 -1.1168 -0.3135
    5TMC2    H514467   3.594   1.823  15.381  0.8236 -1.4855 -1.5444
    6MPD2     C14468   3.026   1.514  15.254 -0.1894 -0.0363 -0.0609
    6MPD2    C114469   3.058   1.585  15.139  0.1978 -0.6405 -0.0429
    6MPD2    C214470   3.188   1.590  15.093 -0.6094  0.2371  1.0945
    6MPD2    C314471   3.289   1.528  15.162 -0.5588  0.0649  0.5460
    6MPD2    C414472   3.261   1.454  15.268 -0.2786 -0.3668  0.0762
    6MPD2    C514473   3.129   1.445  15.317  0.8560 -0.4859 -0.5105
    6MPD2     H14474   3.211   1.645  15.003 -0.1788  0.5558  1.4014
    6MPD2    H114475   3.329   1.392  15.325  2.2741  1.9123 -0.5179
    6MPD2    H214476   2.928   1.496  15.297  0.6933 -1.0780  1.4874
    6MPD2    H314477   3.113   1.384  15.405 -1.9904 -1.2490 -1.5521
    6MPD2     N14478   3.421   1.555  15.123 -0.1591 -0.0192  0.5530
    6MPD2    H514479   3.428   1.604  15.034 -0.7547  1.5260  1.3424
    6MPD2    N114480   2.964   1.654  15.067 -0.8469  0.0790  0.3275
    6MPD2    H714481   3.006   1.708  14.993 -1.0635 -2.2233 -1.4992
  945NH3     N114482   0.244   2.371   1.481 -0.1067  0.0451 -0.5309
  945NH3     H214483   0.293   2.415   1.404  0.5793 -0.1817 -0.2221
  945NH3     H314484   0.313   2.307   1.519 -1.3505 -0.3067  1.1141
  945NH3     H414485   0.174   2.314   1.434 -2.7297  3.7566 -1.1142
  946SOD     NA14486   4.272   3.301  14.359 -0.0976  0.1339 -0.8329
  947SOD     NA14487   4.302   0.333  13.807  0.1450  0.2160  0.2839
  948SOD     NA14488   3.559   0.483   6.483 -0.0464  0.4660  0.3491
  949SOD     NA14489   0.648   2.313   1.560 -0.0325  0.0952  0.2858
  950SOD     NA14490   3.901   0.135   5.208  0.4246  0.6934 -0.3463
  951SOD     NA14491   3.121   2.305  11.151 -0.0386 -0.0412  0.3236
  952SOD     NA14492   2.764   4.140  17.037  0.2005  0.0458  0.1509
  953SOD     NA14493   3.543   3.289  15.917 -0.0221  0.3114  0.2857
  954SOL     OW14494   1.372   3.033   6.219  0.4363 -0.1632 -0.4907
  954SOL    HW114495   1.334   2.998   6.139  1.8008 -0.1365 -1.1543
  954SOL    HW214496   1.460   3.060   6.191  0.6869 -0.4064  0.0603
  955SOL     OW14497   2.382   3.265   6.074  0.6869  0.3640  0.1310
  955SOL    HW114498   2.324   3.313   6.014  0.2940  0.0361  0.2428
  955SOL    HW214499   2.339   3.284   6.157  0.9044  0.6982  0.1632
  956SOL     OW14500   2.400   3.642   9.357  0.1118 -0.3222 -0.1553
  956SOL    HW114501   2.484   3.619   9.317 -0.0489 -0.3677 -0.4661
  956SOL    HW214502   2.347   3.671   9.283  0.1696  0.6001  0.1605
  957SOL     OW14503   4.591   4.504   7.891 -0.0696  0.0964 -0.1305
  957SOL    HW114504   4.546   4.485   7.809 -0.4105  2.7969 -0.5787
  957SOL    HW214505   4.536   4.456   7.953 -0.5513  0.1733 -0.4952
  958SOL     OW14506   1.642   3.369   2.253  0.1007  0.5330 -0.1452
  958SOL    HW114507   1.629   3.329   2.167  0.8448 -2.0081  0.9297
  958SOL    HW214508   1.584   3.445   2.241  0.3916  0.5354 -1.4998
  959SOL     OW14509   2.805   1.308  10.805  0.2742 -0.2582 -0.0831
  959SOL    HW114510   2.868   1.238  10.819  1.2118  0.7058  0.4847
  959SOL    HW214511   2.771   1.288  10.717  1.2787  3.5927 -1.3797
  960SOL     OW14512   4.174   0.913  15.360  0.0170  0.0923 -0.3188
  960SOL    HW114513   4.113   0.921  15.433 -0.6894 -0.5476 -0.8401
  960SOL    HW214514   4.118   0.868  15.297  1.4500 -0.0803 -1.4738
  961SOL     OW14515   0.580   3.608  11.952 -0.1782  0.3326 -0.0994
  961SOL    HW114516   0.515   3.565  12.008  0.9675 -2.4342 -0.8915
  961SOL    HW214517   0.651   3.544  11.964  1.2274  1.9152 -0.1018
  962SOL     OW14518   2.323   0.737   0.774 -0.2483  0.4523  0.6766
  962SOL    HW114519   2.389   0.785   0.824  1.1474  0.0499 -0.7441
  962SOL    HW214520   2.312   0.785   0.692  1.1945 -3.2217 -1.6971
  963SOL     OW14521   0.625   4.512   2.116  0.4045 -0.0751  0.0243
  963SOL    HW114522   0.621   4.480   2.206  0.1172  0.8626  0.3457
  963SOL    HW214523   0.534   4.535   2.099  0.9616  0.1632 -2.6208
  964SOL     OW14524   2.013   2.130   6.238 -0.3923 -0.6026  0.4310
  964SOL    HW114525   1.949   2.165   6.176  2.1099 -0.9174 -2.3354
  964SOL    HW214526   1.988   2.177   6.318  3.5641  1.3432  0.5427
  965SOL     OW14527   3.832   2.748   8.847  0.8043  0.4140  0.3248
  965SOL    HW114528   3.896   2.689   8.807 -0.2652 -2.2853  2.5729
  965SOL    HW214529   3.767   2.686   8.880 -0.7203  0.9196 -1.7586
  966SOL     OW14530   0.651   2.111   7.790 -0.1983 -0.5028 -0.5534
  966SOL    HW114531   0.562   2.080   7.808  0.4590 -1.1083  1.7319
  966SOL    HW214532   0.696   2.046   7.844 -1.6053 -1.3631 -0.4259
  967SOL     OW14533   2.354   0.558   4.504  0.0464  0.1583 -0.8158
  967SOL    HW114534   2.362   0.471   4.464  1.1067 -1.6714  3.3115
  967SOL    HW214535   2.338   0.608   4.425  0.5278  1.3552 -0.1585
  968SOL     OW14536   1.329   1.970   8.807 -0.3771 -0.0542  0.2885
  968SOL    HW114537   1.380   1.889   8.802 -1.4221 -0.6604 -0.4766
  968SOL    HW214538   1.329   2.001   8.717  0.1078 -2.4081 -0.5183
  969SOL     OW14539   3.994   0.403   4.324  0.0964 -0.1399  0.4482
  969SOL    HW114540   4.040   0.434   4.402 -0.6414 -1.6545  1.4734
  969SOL    HW214541   3.903   0.388   4.353  0.7238 -3.5079  0.6053
  970SOL     OW14542   0.560   3.308   4.619  0.3734 -0.1445 -0.4273
  970SOL    HW114543   0.642   3.261   4.602  0.3414 -0.2868 -0.1911
  970SOL    HW214544   0.577   3.330   4.711 -1.3465 -0.0907 -0.1191
  971SOL     OW14545   4.078   4.604   8.784 -0.4792 -0.5298  0.0488
  971SOL    HW114546   4.002   4.547   8.789 -0.0573 -1.1904 -0.8108
  971SOL    HW214547   4.080   4.633   8.875 -3.0918  0.3408 -0.1928
  972SOL     OW14548   4.052   0.336   6.593  0.4613 -0.0519 -0.0400
  972SOL    HW114549   4.056   0.425   6.627 -0.3854 -0.9883  2.4926
  972SOL    HW214550   4.094   0.358   6.510 -2.1543 -0.2668 -1.4142
  973SOL     OW14551   4.496   2.010   7.176 -0.0081 -0.1514  0.1717
  973SOL    HW114552   4.472   1.921   7.202 -1.7686 -0.1393 -1.3912
  973SOL    HW214553   4.421   2.040   7.125  1.8043  1.1532 -1.7073
  974SOL     OW14554   2.430   4.114  16.419  0.5084 -0.5030 -0.4396
  974SOL    HW114555   2.447   4.136  16.328 -0.9513 -0.4039 -0.6868
  974SOL    HW214556   2.342   4.151  16.413 -0.2073 -2.3327 -1.1627
  975SOL     OW14557   2.801   4.611   9.190  0.3800  0.1860 -0.2506
  975SOL    HW114558   2.867   4.679   9.201  0.5209  0.4811 -3.0406
  975SOL    HW214559   2.772   4.595   9.280 -2.7325  1.8974 -0.9736
  976SOL     OW14560   2.279   3.396   5.856 -0.5269  0.1931 -0.1045
  976SOL    HW114561   2.257   3.488   5.873 -0.8949  0.3876 -1.7081
  976SOL    HW214562   2.352   3.406   5.795 -1.5714 -2.2162 -1.7547
  977SOL     OW14563   4.410   1.593  10.559  0.2890  0.1567 -0.3859
  977SOL    HW114564   4.410   1.545  10.476  1.0153 -0.0688 -0.2527
  977SOL    HW214565   4.374   1.679  10.536 -0.5775 -0.2525 -0.5698
  978SOL     OW14566   4.347   0.776   5.941  0.0075 -0.6430 -0.3971
  978SOL    HW114567   4.395   0.748   6.019 -1.6335 -1.3058  0.3912
  978SOL    HW214568   4.423   0.814   5.898 -0.1006 -0.3294 -0.3104
  979SOL     OW14569   3.831   2.110   4.940  0.1590  0.0517 -0.0259
  979SOL    HW114570   3.763   2.042   4.940 -2.6801  2.8407 -0.2025
  979SOL    HW214571   3.781   2.190   4.958 -1.9323 -1.2970  0.1204
  980SOL     OW14572   4.663   3.997   6.827 -0.4910 -0.2310 -0.3199
  980SOL    HW114573   4.640   4.071   6.884  0.9040  0.7118 -0.9866
  980SOL    HW214574   4.600   4.021   6.759 -3.4377 -5.1511  0.6579
  981SOL     OW14575   1.050   3.089   9.908  0.1471 -0.0453  0.0588
  981SOL    HW114576   0.963   3.060   9.937  0.9810 -1.9534  0.7056
  981SOL    HW214577   1.097   3.006   9.899 -0.3085 -0.7030  3.6770
  982SOL     OW14578   3.085   4.326  13.723 -0.2529 -0.6158 -0.0846
  982SOL    HW114579   3.019   4.389  13.751 -0.9938 -0.5512 -2.0060
  982SOL    HW214580   3.163   4.372  13.756 -1.4347  1.8598 -0.7177
  983SOL     OW14581   2.628   1.014   8.538  0.1363  0.1980 -0.5533
  983SOL    HW114582   2.550   1.055   8.575 -0.0387  0.4868 -1.2361
  983SOL    HW214583   2.690   1.084   8.517  2.2395 -2.2124 -2.3978
  984SOL     OW14584   1.989   3.851   1.529 -0.0900  0.0084 -0.2335
  984SOL    HW114585   2.035   3.919   1.579  1.8887 -0.9868 -0.6928
  984SOL    HW214586   2.052   3.829   1.460 -1.2392  2.7391 -2.1976
  985SOL     OW14587   1.220   2.484  16.356  0.1843  0.6146 -0.2109
  985SOL    HW114588   1.241   2.398  16.319  0.0645 -0.3825  2.0428
  985SOL    HW214589   1.126   2.479  16.377  0.1534  0.4587 -0.3811
  986SOL     OW14590   3.404   2.306  12.407  0.2188 -0.1145 -0.2585
  986SOL    HW114591   3.386   2.387  12.454  2.4054 -0.0737  0.5065
  986SOL    HW214592   3.332   2.251  12.438  0.7099 -1.1709 -1.0035
  987SOL     OW14593   1.204   3.666   9.720 -0.6784  0.3305 -0.0737
  987SOL    HW114594   1.289   3.632   9.748 -1.4169 -1.1748  0.3311
  987SOL    HW214595   1.221   3.758   9.741  0.1291 -0.8052  4.2743
  988SOL     OW14596   0.414   2.640  11.549  0.0381  0.0078 -0.0899
  988SOL    HW114597   0.489   2.630  11.491  0.0609 -0.3977  0.0077
  988SOL    HW214598   0.453   2.629  11.636 -0.3833 -2.0536 -0.1484
  989SOL     OW14599   2.321   0.336   4.292  0.6658 -0.3364 -0.0625
  989SOL    HW114600   2.298   0.271   4.226 -1.0186  0.0791  0.0913
  989SOL    HW214601   2.402   0.369   4.255 -0.7322  2.0559 -1.0031
  990SOL     OW14602   1.479   1.146   2.422 -0.0906 -0.3964 -0.1362
  990SOL    HW114603   1.466   1.185   2.335 -0.7416  3.4374  1.6618
  990SOL    HW214604   1.573   1.159   2.431  0.0126  1.6751 -3.7211
  991SOL     OW14605   3.807   1.978   2.459 -0.0591 -0.2902 -0.1353
  991SOL    HW114606   3.842   2.000   2.372  0.5922 -0.0344  0.1908
  991SOL    HW214607   3.778   2.064   2.489 -0.3412 -0.5221  0.2425
  992SOL     OW14608   2.240   0.463  16.800  0.0714 -0.4973  0.3299
  992SOL    HW114609   2.230   0.556  16.819  1.2128 -0.4779  0.8301
  992SOL    HW214610   2.149   0.433  16.809 -0.1900 -0.1662 -1.2872
  993SOL     OW14611   3.746   0.217   8.777  0.1445  0.1740 -0.5094
  993SOL    HW114612   3.816   0.265   8.822 -0.3005 -0.8492  1.2901
  993SOL    HW214613   3.668   0.258   8.814  0.6042 -0.0782  0.7622
  994SOL     OW14614   0.083   0.686   6.678 -0.6067 -0.5283  0.1120
  994SOL    HW114615   0.149   0.743   6.639 -0.2876  0.4070  2.0015
  994SOL    HW214616   0.131   0.604   6.682  0.1271 -0.0538  1.1675
  995SOL     OW14617   1.662   0.089   4.045  0.4481  0.2992 -0.0349
  995SOL    HW114618   1.702   0.014   4.000 -0.1175  1.3373 -2.2760
  995SOL    HW214619   1.649   0.147   3.970  0.2732  0.1080 -0.1556
  996SOL     OW14620   3.777   0.803   1.267  0.0643 -0.0560 -0.4452
  996SOL    HW114621   3.700   0.859   1.276  0.4572  0.8976 -2.8764
  996SOL    HW214622   3.771   0.748   1.345 -0.0718  1.5585  0.6678
  997SOL     OW14623   3.438   1.912  17.711  0.0555 -0.3680  0.1993
  997SOL    HW114624   3.366   1.957  17.667  0.6987  2.3630  1.9108
  997SOL    HW214625   3.440   1.823  17.677  0.1670  0.6206 -2.4054
  998SOL     OW14626   3.094   2.008   6.917 -0.0671  0.1030  0.0667
  998SOL    HW114627   3.025   1.941   6.922  0.4816 -0.2079  3.5991
  998SOL    HW214628   3.044   2.089   6.907  1.7575  1.2067 -0.0901
  999SOL     OW14629   0.550   3.304   5.515  0.2900  0.1982  0.4700
  999SOL    HW114630   0.635   3.338   5.487  0.1094  0.4275  0.2001
  999SOL    HW214631   0.543   3.222   5.466 -0.5745  0.4955  0.0835
 1000SOL     OW14632   3.666   1.182   1.353 -0.6951  0.0197 -0.3471
 1000SOL    HW114633   3.610   1.119   1.309 -0.4641 -0.0382 -0.5578
 1000SOL    HW214634   3.722   1.219   1.285  0.8332 -0.7896  0.4614
 1001SOL     OW14635   3.860   4.716   5.059  0.7998 -0.1455  0.3018
 1001SOL    HW114636   3.787   4.656   5.038 -0.4171  1.4837 -0.1141
 1001SOL    HW214637   3.861   0.023   4.975 -0.2823 -0.0449  0.3414
 1002SOL     OW14638   2.867   0.369   8.684 -0.4781 -0.0635 -0.0427
 1002SOL    HW114639   2.897   0.404   8.767  0.5213  1.2852 -0.9733
 1002SOL    HW214640   2.798   0.311   8.716 -1.2688  1.0933  0.3774
 1003SOL     OW14641   4.140   2.186   2.312 -0.2214 -0.4934  0.3548
 1003SOL    HW114642   4.200   2.180   2.238  0.7598 -1.1398  1.2020
 1003SOL    HW214643   4.067   2.142   2.269 -0.2436 -0.9596  0.8703
 1004SOL     OW14644   4.443   1.364   1.346  0.2210  0.1456  0.5085
 1004SOL    HW114645   4.536   1.383   1.341  0.6092 -1.8325  0.2166
 1004SOL    HW214646   4.434   1.274   1.314 -1.1947  0.6892 -0.6411
 1005SOL     OW14647   4.181   3.774  12.573  0.4285  0.1355  0.4682
 1005SOL    HW114648   4.254   3.739  12.523 -0.4337 -1.2125  0.1687
 1005SOL    HW214649   4.211   3.860  12.602  0.4988  0.1936  0.2219
 1006SOL     OW14650   1.062   4.585   5.669  0.6254 -0.5671 -0.3731
 1006SOL    HW114651   1.119   4.509   5.655  0.8189 -0.2703 -1.1411
 1006SOL    HW214652   1.082   4.622   5.755  1.2608 -0.1828 -0.6915
 1007SOL     OW14653   2.947   3.231   8.834 -0.0466 -0.5745 -0.0859
 1007SOL    HW114654   2.919   3.295   8.768  0.3944 -0.8821 -0.5768
 1007SOL    HW214655   2.910   3.148   8.803 -0.6222 -0.0467 -0.8223
 1008SOL     OW14656   2.042   2.568  10.247  0.2430 -0.2876 -0.7992
 1008SOL    HW114657   2.084   2.540  10.328 -1.5739 -2.2145 -0.5493
 1008SOL    HW214658   1.959   2.524  10.263  0.6628 -0.9002 -0.3455
 1009SOL     OW14659   1.479   0.357  17.439 -0.6804 -0.3527  0.1457
 1009SOL    HW114660   1.411   0.392  17.382  0.5842  1.5925 -0.1600
 1009SOL    HW214661   1.433   0.344  17.521  1.8384 -0.0889  1.5993
 1010SOL     OW14662   0.552   0.107   8.541 -0.7911  0.0988  0.9388
 1010SOL    HW114663   0.565   0.014   8.522 -1.6250 -0.1866  1.7652
 1010SOL    HW214664   0.612   0.137   8.473  0.6643 -2.3035  1.1794
 1011SOL     OW14665   2.747   0.239   6.030  0.0867  0.0959 -0.0930
 1011SOL    HW114666   2.673   0.298   6.017  0.1047  0.6008  2.1636
 1011SOL    HW214667   2.817   0.299   6.054 -0.9100  0.5491  1.6535
 1012SOL     OW14668   0.035   4.539  11.104  0.5842 -0.2618  0.1472
 1012SOL    HW114669   0.094   4.488  11.049  0.7224  1.1678 -1.0021
 1012SOL    HW214670   0.023   4.619  11.053 -1.9824 -0.4080  0.5276
 1013SOL     OW14671   0.389   2.773   7.629  0.0719  0.2923  0.2588
 1013SOL    HW114672   0.418   2.860   7.602 -1.3918  0.2935 -1.3699
 1013SOL    HW214673   0.329   2.759   7.555 -0.2574  0.6848  0.4494
 1014SOL     OW14674   3.972   0.307   5.373 -0.1454  0.0217  0.2450
 1014SOL    HW114675   4.010   0.256   5.445 -2.3240  0.1534  1.4798
 1014SOL    HW214676   3.896   0.338   5.421  0.3783  0.9766  0.4487
 1015SOL     OW14677   0.443   4.411   9.240  0.1805 -0.0030  0.4350
 1015SOL    HW114678   0.465   4.404   9.332  2.7440 -1.2305 -0.2767
 1015SOL    HW214679   0.364   4.358   9.251 -0.5135  0.9992  0.3348
 1016SOL     OW14680   3.734   0.594   9.860 -0.4024 -0.1699  0.0628
 1016SOL    HW114681   3.757   0.667   9.803  0.1810 -1.5116 -1.4044
 1016SOL    HW214682   3.789   0.519   9.837  0.4564  0.4945 -0.0491
 1017SOL     OW14683   4.128   2.296   6.407  0.1566 -0.1901  0.0230
 1017SOL    HW114684   4.103   2.389   6.406  3.2884  0.6370 -4.1766
 1017SOL    HW214685   4.039   2.265   6.422 -1.0271  2.9942 -0.3329
 1018SOL     OW14686   2.636   0.537  17.415 -0.6692 -0.5853  0.0302
 1018SOL    HW114687   2.711   0.496  17.459  0.9809 -0.5143 -2.6914
 1018SOL    HW214688   2.625   0.480  17.340  0.5914 -1.2803  0.3773
 1019SOL     OW14689   3.958   4.399   9.314 -0.4752  0.6449 -0.7757
 1019SOL    HW114690   4.015   4.361   9.246 -0.9772 -0.1097 -0.7743
 1019SOL    HW214691   3.911   4.319   9.338  0.7106  0.5024  1.0529
 1020SOL     OW14692   4.115   3.593   4.337  0.8582 -0.8162  0.6758
 1020SOL    HW114693   4.144   3.683   4.319  0.3162 -0.6877  0.4318
 1020SOL    HW214694   4.058   3.581   4.261  0.3225  1.5666  0.7047
 1021SOL     OW14695   2.356   1.688   3.266 -0.2465  0.0010 -0.1432
 1021SOL    HW114696   2.390   1.671   3.354 -0.8472 -0.4908 -0.0039
 1021SOL    HW214697   2.265   1.713   3.280 -0.5276 -0.3508 -1.3902
 1022SOL     OW14698   2.848   2.987   8.740 -0.5073  0.3594  0.2653
 1022SOL    HW114699   2.838   2.911   8.683 -0.1467 -0.3036  1.0931
 1022SOL    HW214700   2.774   2.969   8.799 -0.0817 -1.9676  0.0666
 1023SOL     OW14701   2.117   4.732   7.553  0.0300 -0.3458 -0.1251
 1023SOL    HW114702   2.063   4.672   7.501 -0.3448 -1.4550  1.5358
 1023SOL    HW214703   2.096   4.709   7.644 -0.7295  0.5792 -0.0715
 1024SOL     OW14704   4.431   3.269   8.200 -0.0944  0.2795 -0.3746
 1024SOL    HW114705   4.483   3.315   8.134 -0.0689 -1.1983 -1.3708
 1024SOL    HW214706   4.454   3.177   8.205  0.7007  0.3596 -2.4321
 1025SOL     OW14707   1.160   1.350   7.697 -0.2692  0.1028 -0.1615
 1025SOL    HW114708   1.122   1.436   7.681  1.0096  1.3417  3.6017
 1025SOL    HW214709   1.240   1.361   7.646  0.5040  0.0510  1.0316
 1026SOL     OW14710   2.114   3.998   5.508 -0.5449 -0.2646  0.4925
 1026SOL    HW114711   2.065   4.062   5.456 -0.5204  1.3466  2.4125
 1026SOL    HW214712   2.170   4.060   5.555  2.8152 -2.7233 -0.2638
 1027SOL     OW14713   3.879   1.999   8.598 -0.1936 -0.0815  0.7681
 1027SOL    HW114714   3.897   2.063   8.529  0.1059 -0.1153  0.8155
 1027SOL    HW214715   3.963   1.991   8.644 -0.8679  0.3844  2.0677
 1028SOL     OW14716   3.557   4.478   3.834 -0.4822  0.5421 -0.5726
 1028SOL    HW114717   3.621   4.450   3.769 -0.0898 -1.5823  0.7262
 1028SOL    HW214718   3.489   4.514   3.777  0.5943  0.8017 -1.6843
 1029SOL     OW14719   2.992   3.647  17.301  0.0688 -0.2409 -0.0892
 1029SOL    HW114720   2.984   3.605  17.387  0.0429 -0.3625 -0.1502
 1029SOL    HW214721   2.900   3.662  17.278 -0.3223 -0.9948  0.9862
 1030SOL     OW14722   3.320   1.146   1.389  0.0472 -0.3044  0.4868
 1030SOL    HW114723   3.357   1.235   1.393  1.4071 -0.8593  0.4179
 1030SOL    HW214724   3.244   1.162   1.445  1.1777  0.7680  1.7195
 1031SOL     OW14725   1.152   2.756   6.698 -0.0809 -0.6211 -0.2101
 1031SOL    HW114726   1.243   2.766   6.725 -0.6374  0.8654  1.0980
 1031SOL    HW214727   1.110   2.770   6.783  1.8012 -2.6134  1.0764
 1032SOL     OW14728   2.228   4.302   3.935 -0.3462 -0.2174 -0.0173
 1032SOL    HW114729   2.231   4.356   3.856  1.4114 -0.0516  0.1643
 1032SOL    HW214730   2.317   4.314   3.968 -0.4891 -0.0837  0.3277
 1033SOL     OW14731   0.969   2.229  12.568  0.2270  0.2304  0.1461
 1033SOL    HW114732   0.938   2.256  12.655  0.8063 -1.7891  0.9744
 1033SOL    HW214733   0.941   2.299  12.509  2.2678 -0.0069 -1.0891
 1034SOL     OW14734   0.986   2.659   5.181  0.1016  0.1260 -0.1281
 1034SOL    HW114735   0.924   2.725   5.150 -0.5787 -0.5438 -0.1780
 1034SOL    HW214736   0.946   2.572   5.188  0.3393  0.0548  0.4036
 1035SOL     OW14737   1.493   1.362   5.918 -0.0927  0.6391  0.1655
 1035SOL    HW114738   1.465   1.451   5.896  2.0574  1.8000  2.1026
 1035SOL    HW214739   1.449   1.363   6.003  0.2037 -1.0243  0.3340
 1036SOL     OW14740   1.184   0.533   2.752 -0.2643 -0.3423 -0.5493
 1036SOL    HW114741   1.224   0.492   2.829  2.4055  2.0762 -0.6467
 1036SOL    HW214742   1.103   0.557   2.798 -0.8751 -0.5797 -1.4823
 1037SOL     OW14743   3.944   3.964   4.615  0.0045 -0.1978  0.2626
 1037SOL    HW114744   3.911   3.877   4.591  2.2712 -1.1633  0.6121
 1037SOL    HW214745   3.868   3.998   4.661  0.2732  1.2904 -0.3974
 1038SOL     OW14746   0.980   2.669   3.771  0.7292  0.0402  0.0193
 1038SOL    HW114747   0.944   2.660   3.683  1.7234  0.1035 -0.3911
 1038SOL    HW214748   1.019   2.582   3.782  1.1460  0.1840 -0.3014
 1039SOL     OW14749   4.527   4.285   8.042 -0.4744  0.4430 -0.2601
 1039SOL    HW114750   4.473   4.206   8.030  1.1913 -0.6441 -0.6511
 1039SOL    HW214751   4.511   4.298   8.135 -0.4097  2.2788 -0.5097
 1040SOL     OW14752   1.958   3.388   4.087 -0.0735 -0.1341  0.1059
 1040SOL    HW114753   2.011   3.463   4.115 -1.7776  0.8129  0.8136
 1040SOL    HW214754   1.936   3.416   3.998  0.2722  3.3996  1.1546
 1041SOL     OW14755   1.286   0.834   2.296  0.0220 -0.2364 -0.2593
 1041SOL    HW114756   1.350   0.879   2.241 -0.3950  0.3928 -0.2320
 1041SOL    HW214757   1.345   0.817   2.369 -1.0714  2.1778  1.2037
 1042SOL     OW14758   2.143   3.221   1.468  0.2200 -0.3246  0.2072
 1042SOL    HW114759   2.232   3.257   1.462  0.3600 -1.1829 -2.9132
 1042SOL    HW214760   2.094   3.294   1.504 -1.6650 -1.0017 -1.0003
 1043SOL     OW14761   0.581   4.377   5.020 -0.1573 -0.2925  0.2133
 1043SOL    HW114762   0.513   4.439   5.048  0.9956  0.1525  2.0017
 1043SOL    HW214763   0.536   4.300   4.986 -1.4226  0.8897 -0.8329
 1044SOL     OW14764   1.239   3.746   8.981  0.2002 -0.0484 -0.5038
 1044SOL    HW114765   1.250   3.840   8.974  0.0731 -0.0577 -0.8509
 1044SOL    HW214766   1.231   3.722   8.888  0.2260  0.6364 -0.6804
 1045SOL     OW14767   0.976   4.506   4.698  0.2192 -0.6714 -0.3728
 1045SOL    HW114768   0.943   4.426   4.738  0.2330  0.2108  1.3977
 1045SOL    HW214769   0.995   4.562   4.773 -1.6774 -0.8546  0.2414
 1046SOL     OW14770   2.805   1.305   4.449  0.5996  0.3035  0.3298
 1046SOL    HW114771   2.828   1.231   4.394  1.0809 -0.2839  1.3097
 1046SOL    HW214772   2.753   1.256   4.513 -0.0377  0.5311 -0.0177
 1047SOL     OW14773   3.705   4.117   1.941  0.5428 -0.0251 -0.1544
 1047SOL    HW114774   3.755   4.073   2.009  0.3339  2.7234  1.7823
 1047SOL    HW214775   3.626   4.145   1.988  0.4202 -1.3526  0.4102
 1048SOL     OW14776   0.330   3.826   6.236 -0.1094 -0.4883  0.4714
 1048SOL    HW114777   0.294   3.840   6.149 -2.0722  0.9579  1.5075
 1048SOL    HW214778   0.425   3.830   6.224  0.1018  0.1162  2.3199
 1049SOL     OW14779   4.491   3.697   5.922  0.4230  0.3050  0.4253
 1049SOL    HW114780   4.526   3.684   5.834 -0.3051  0.7942  0.0709
 1049SOL    HW214781   4.541   3.620   5.949 -0.6298  0.4401  2.8196
 1050SOL     OW14782   0.372   1.309  16.772 -0.0860 -1.1135 -0.0573
 1050SOL    HW114783   0.296   1.356  16.806  1.5607  1.2073  0.3993
 1050SOL    HW214784   0.353   1.319  16.678 -5.0455 -1.9600  0.8406
 1051SOL     OW14785   1.705   2.815   3.022 -0.0649 -0.5473 -0.1561
 1051SOL    HW114786   1.652   2.838   3.098 -0.7733  1.0821 -1.1641
 1051SOL    HW214787   1.765   2.889   3.016  0.0152 -0.7818 -2.1037
 1052SOL     OW14788   3.323   4.667   8.297  0.0169  0.1938 -0.6550
 1052SOL    HW114789   3.393   4.604   8.283 -0.0717  0.3465 -1.8453
 1052SOL    HW214790   3.257   4.606   8.329  0.9400 -1.4225 -1.8427
 1053SOL     OW14791   2.820   1.010  10.024  0.3145  0.4508  0.5787
 1053SOL    HW114792   2.737   0.965  10.011  0.7778 -0.1287 -0.3454
 1053SOL    HW214793   2.803   1.063  10.102 -1.7768  0.8690 -0.1527
 1054SOL     OW14794   0.186   1.360   9.262  0.1016 -0.6297  0.5485
 1054SOL    HW114795   0.278   1.357   9.291  0.5560 -1.0643 -0.9443
 1054SOL    HW214796   0.144   1.367   9.348 -1.5357 -2.9073 -0.0854
 1055SOL     OW14797   1.285   4.679   9.540 -0.0035 -0.4846 -0.0773
 1055SOL    HW114798   1.346   4.616   9.578  1.7750  0.4784 -1.3849
 1055SOL    HW214799   1.247   4.723   9.616 -1.1003 -0.4601 -0.6432
 1056SOL     OW14800   1.097   4.555   2.856 -0.0690  0.0367 -0.2411
 1056SOL    HW114801   1.039   4.628   2.876 -0.7429 -1.4525  3.1294
 1056SOL    HW214802   1.119   4.519   2.942  0.2638 -1.5516 -0.9780
 1057SOL     OW14803   1.959   4.260  14.283 -0.7320 -0.1624  0.2058
 1057SOL    HW114804   1.913   4.344  14.278 -0.3458  0.1440  1.7701
 1057SOL    HW214805   2.025   4.280  14.217 -1.0864 -1.7048 -0.6104
 1058SOL     OW14806   0.783   4.196   1.847 -0.2483  0.0624 -0.1994
 1058SOL    HW114807   0.690   4.215   1.834  0.4439  3.8265  0.5023
 1058SOL    HW214808   0.798   4.283   1.884  1.1576 -0.0504 -0.5163
 1059SOL     OW14809   0.899   2.294   2.937 -0.2087 -0.9444  0.0959
 1059SOL    HW114810   0.989   2.268   2.917 -0.5152 -1.5902 -0.4762
 1059SOL    HW214811   0.858   2.292   2.850  0.6517  0.6087 -0.3295
 1060SOL     OW14812   2.509   0.755   6.128  0.4342  0.8078  0.3176
 1060SOL    HW114813   2.532   0.694   6.199 -1.0953  1.2692  1.2043
 1060SOL    HW214814   2.573   0.736   6.060  0.2749 -0.5398  0.5528
 1061SOL     OW14815   2.913   3.350   9.452 -0.1485  0.1252  0.5913
 1061SOL    HW114816   2.843   3.290   9.428 -0.6876  0.9909 -0.0150
 1061SOL    HW214817   2.859   3.409   9.504  1.8782  0.7141  2.0495
 1062SOL     OW14818   1.077   1.666  15.090  0.0321  0.1329  0.3883
 1062SOL    HW114819   1.133   1.699  15.021 -0.5938 -2.1242 -1.2047
 1062SOL    HW214820   1.156   1.662  15.145  0.9823 -1.1862 -1.0543
 1063SOL     OW14821   2.548   2.547   6.275  0.4776  0.3485  0.0821
 1063SOL    HW114822   2.579   2.458   6.259  0.9415  0.7987 -1.4933
 1063SOL    HW214823   2.629   2.594   6.255  0.3066  0.8708  0.6181
 1064SOL     OW14824   1.711   4.259   5.285  0.4514  0.1263 -0.1437
 1064SOL    HW114825   1.670   4.230   5.204  1.5079 -0.1444 -0.5685
 1064SOL    HW214826   1.677   4.348   5.294 -0.1284 -0.2379  1.2732
 1065SOL     OW14827   3.479   4.669  15.017  0.5218 -0.2782 -0.3284
 1065SOL    HW114828   3.554   4.623  15.055  0.0565 -0.9103 -0.1858
 1065SOL    HW214829   3.408   4.608  15.035  0.7758 -0.9692 -1.6074
 1066SOL     OW14830   3.203   1.787   6.150 -0.3251 -0.4017  0.1159
 1066SOL    HW114831   3.141   1.714   6.147 -0.8094  0.1006 -1.6629
 1066SOL    HW214832   3.191   1.839   6.071 -0.3374 -3.0181 -1.5764
 1067SOL     OW14833   1.261   4.128   1.978  0.2797  0.8855 -0.0557
 1067SOL    HW114834   1.316   4.057   2.011 -0.0945  1.3651  1.6017
 1067SOL    HW214835   1.172   4.100   1.995  0.2060  2.0873  1.5232
 1068SOL     OW14836   2.573   3.632   5.618  0.4870 -0.6474  0.1452
 1068SOL    HW114837   2.549   3.543   5.591  0.6558 -0.9604  1.0142
 1068SOL    HW214838   2.659   3.645   5.579 -0.0524 -0.0111 -0.8298
 1069SOL     OW14839   0.765   3.780  12.724  0.0325  0.3563  0.0850
 1069SOL    HW114840   0.713   3.796  12.803 -0.3649  0.5773 -0.2263
 1069SOL    HW214841   0.811   3.861  12.702 -0.1554 -0.0159 -1.6280
 1070SOL     OW14842   4.471   3.151  17.196 -0.4250 -0.6395  0.1979
 1070SOL    HW114843   4.520   3.102  17.263 -1.0534  0.3387  1.3733
 1070SOL    HW214844   4.545   3.198  17.156  1.5804 -1.5926  2.7607
 1071SOL     OW14845   3.175   2.713  12.923  0.4260 -0.2694  0.0659
 1071SOL    HW114846   3.104   2.649  12.927  0.7770 -0.6134  0.9658
 1071SOL    HW214847   3.168   2.738  12.831  3.4120 -1.3878 -0.4815
 1072SOL     OW14848   3.062   1.009   7.709  0.3729  0.3741  0.2131
 1072SOL    HW114849   3.011   1.077   7.753  1.8204  1.2479  0.5474
 1072SOL    HW214850   3.010   0.930   7.725  1.2643 -0.0341  1.1458
 1073SOL     OW14851   0.271   1.563   7.751 -0.0397 -0.3487  0.6371
 1073SOL    HW114852   0.311   1.545   7.836 -1.0736  0.5973  1.3261
 1073SOL    HW214853   0.186   1.598   7.778  0.0982  0.0832  0.5112
 1074SOL     OW14854   3.085   0.669   7.436 -0.1691 -0.2231 -0.3554
 1074SOL    HW114855   3.153   0.713   7.386 -0.1246 -0.5411 -0.5752
 1074SOL    HW214856   3.057   0.599   7.377  2.5088 -1.7055  0.1324
 1075SOL     OW14857   1.740   4.504  12.116  0.2163 -0.0054 -0.6769
 1075SOL    HW114858   1.738   4.534  12.207 -1.8053 -1.3483 -0.2673
 1075SOL    HW214859   1.664   4.552  12.083 -1.0897 -1.2721  0.5083
 1076SOL     OW14860   0.330   2.055  10.245 -0.4381  0.5127 -0.1768
 1076SOL    HW114861   0.390   2.058  10.170 -0.9167  2.4018 -0.4643
 1076SOL    HW214862   0.336   1.961  10.264  0.8522  0.1147 -2.4115
 1077SOL     OW14863   3.904   1.112   3.241 -0.3980  0.0866 -0.5047
 1077SOL    HW114864   3.887   1.018   3.241  0.1819 -0.0217 -0.6767
 1077SOL    HW214865   3.988   1.107   3.288 -0.3309 -0.2129 -0.6542
 1078SOL     OW14866   0.027   2.908   2.080  0.0408 -0.3478 -0.0969
 1078SOL    HW114867   0.067   2.900   1.994 -0.0495  0.3599 -0.1996
 1078SOL    HW214868   0.058   2.993   2.110 -0.0108  0.2944 -1.9077
 1079SOL     OW14869   0.151   2.038   7.063 -0.3833  0.4919  0.4084
 1079SOL    HW114870   0.181   2.123   7.097  1.0577 -0.4063  1.3553
 1079SOL    HW214871   0.194   1.982   7.127 -0.5724  0.3998  0.4537
 1080SOL     OW14872   1.536   2.183   4.579 -0.1369 -0.2699 -0.3805
 1080SOL    HW114873   1.556   2.275   4.595 -0.3491 -0.6662  2.2170
 1080SOL    HW214874   1.448   2.179   4.617  0.8501 -2.6033  1.5918
 1081SOL     OW14875   4.492   0.205   1.403  0.4580  0.0468  0.3734
 1081SOL    HW114876   4.468   0.112   1.403  0.9353 -0.0812  1.9885
 1081SOL    HW214877   4.481   0.217   1.309 -0.5360  0.0629  0.4904
 1082SOL     OW14878   4.077   4.122   5.022  0.4110  0.0239 -0.1638
 1082SOL    HW114879   4.079   4.201   4.967 -2.5101  0.0778 -0.2027
 1082SOL    HW214880   3.986   4.104   4.999  0.1420 -0.2550  1.1425
 1083SOL     OW14881   3.821   4.478   8.317 -0.0832 -0.0428 -0.0708
 1083SOL    HW114882   3.786   4.547   8.261  2.7196  1.3802 -0.0398
 1083SOL    HW214883   3.834   4.410   8.250 -0.5446 -0.6433  0.4439
 1084SOL     OW14884   3.877   2.766   0.158  0.3712 -0.1537 -0.7700
 1084SOL    HW114885   3.934   2.833   0.119 -0.7856  0.7846 -0.8462
 1084SOL    HW214886   3.834   2.726   0.082 -1.3074  0.6912 -0.2566
 1085SOL     OW14887   4.272   0.634   7.740  0.2488  0.0428  0.5003
 1085SOL    HW114888   4.316   0.636   7.655 -0.8168  0.5970 -0.0352
 1085SOL    HW214889   4.187   0.663   7.708  1.7003  1.2652 -2.3174
 1086SOL     OW14890   4.580   2.359   4.356 -0.3820  0.4303  0.4101
 1086SOL    HW114891   4.540   2.404   4.281  0.3615 -0.0630 -0.2843
 1086SOL    HW214892   4.562   2.273   4.318 -1.0097  0.4561  0.6502
 1087SOL     OW14893   3.387   2.466   2.504  0.3241 -0.0188  0.4336
 1087SOL    HW114894   3.298   2.437   2.525 -0.2335  1.5468  0.2557
 1087SOL    HW214895   3.405   2.516   2.584  0.9933  2.7322 -1.4455
 1088SOL     OW14896   2.267   4.685   2.409  0.3929 -0.4559  0.0679
 1088SOL    HW114897   2.186   4.727   2.377  1.2846  1.0697 -0.1861
 1088SOL    HW214898   2.316   0.016   2.451  0.0112  1.2887 -2.4044
 1089SOL     OW14899   4.437   2.064   7.964  0.1438 -0.2702  0.7671
 1089SOL    HW114900   4.383   2.135   8.002 -1.2738 -0.4616 -0.8908
 1089SOL    HW214901   4.503   2.039   8.028  2.5824  0.4474 -1.4636
 1090SOL     OW14902   2.636   4.676   8.797  0.0874 -0.4717 -0.5546
 1090SOL    HW114903   2.544   4.659   8.776 -0.4248  2.0508 -0.4069
 1090SOL    HW214904   2.647   4.607   8.861 -1.3694 -0.4107 -0.2401
 1091SOL     OW14905   1.951   2.658   8.821  0.2920 -0.1072 -0.2159
 1091SOL    HW114906   1.973   2.683   8.911  0.7812  0.9565 -0.6382
 1091SOL    HW214907   1.883   2.722   8.802 -0.1478 -0.5347 -0.0694
 1092SOL     OW14908   3.540   4.592   5.655  0.4989 -0.0470 -0.4475
 1092SOL    HW114909   3.497   4.512   5.625  1.2294 -0.0949 -1.3931
 1092SOL    HW214910   3.470   4.635   5.704 -0.6720 -1.8497 -0.5611
 1093SOL     OW14911   1.308   0.691   5.370  0.4545  0.0038 -0.1843
 1093SOL    HW114912   1.389   0.707   5.322  1.0143  1.4387  1.2683
 1093SOL    HW214913   1.348   0.669   5.454  2.2622  0.4923 -0.9198
 1094SOL     OW14914   3.341   3.022  10.448  0.3938 -0.1712  0.2942
 1094SOL    HW114915   3.416   3.020  10.507  0.0111  0.4735  0.7998
 1094SOL    HW214916   3.314   2.930  10.441  1.4245 -0.5022  0.7285
 1095SOL     OW14917   4.088   3.208   8.712  0.1485 -0.1234  0.0494
 1095SOL    HW114918   4.032   3.134   8.736  0.9706  0.0763  2.6784
 1095SOL    HW214919   4.037   3.281   8.748  0.3417  0.8605 -1.6850
 1096SOL     OW14920   2.601   0.653   7.856 -0.3454  0.3161 -0.3205
 1096SOL    HW114921   2.603   0.700   7.939 -1.4317  1.8926 -1.1920
 1096SOL    HW214922   2.538   0.583   7.873 -0.0461 -0.5202 -2.5741
 1097SOL     OW14923   4.323   4.358   1.113  0.2998 -0.0448 -0.4019
 1097SOL    HW114924   4.233   4.391   1.123  1.7731  3.0765  2.3768
 1097SOL    HW214925   4.314   4.286   1.050  0.1091 -0.2779 -0.1048
 1098SOL     OW14926   3.337   2.016   5.528  0.2329 -0.7330 -0.7892
 1098SOL    HW114927   3.259   2.053   5.570  0.9534 -0.6293  0.4660
 1098SOL    HW214928   3.346   1.928   5.564 -3.2972 -0.5567  0.5705
 1099SOL     OW14929   0.277   4.228   9.381 -0.0039  0.4976  0.0637
 1099SOL    HW114930   0.210   4.282   9.340 -0.0148 -0.2403 -0.9026
 1099SOL    HW214931   0.251   4.143   9.346  1.7670  0.2409 -0.6263
 1100SOL     OW14932   3.853   2.944   6.469  0.1881  0.5704  0.5592
 1100SOL    HW114933   3.921   2.896   6.422 -0.4918  1.0676 -0.9224
 1100SOL    HW214934   3.900   2.958   6.551  0.1424 -0.5595  0.7805
 1101SOL     OW14935   0.811   4.308   5.379  0.8634 -0.3945 -0.1444
 1101SOL    HW114936   0.797   4.316   5.285  1.1888 -0.2948 -0.1824
 1101SOL    HW214937   0.834   4.398   5.399 -1.2780  0.3809 -1.1607
 1102SOL     OW14938   2.606   0.623   2.927 -0.5409  0.1565 -0.4511
 1102SOL    HW114939   2.552   0.690   2.886  0.2473 -0.4238 -2.4252
 1102SOL    HW214940   2.633   0.580   2.846 -0.4866 -2.0727  0.7532
 1103SOL     OW14941   2.320   0.274   8.091 -0.6368  0.1263 -0.4461
 1103SOL    HW114942   2.412   0.249   8.086 -0.9669 -0.9027 -1.4318
 1103SOL    HW214943   2.312   0.303   8.182 -0.3408  0.0216 -0.3885
 1104SOL     OW14944   1.644   0.742   8.817  0.1021  0.3655  0.4953
 1104SOL    HW114945   1.632   0.676   8.885  0.7972  0.6272  0.8736
 1104SOL    HW214946   1.702   0.799   8.867 -0.4538  1.8448 -0.5451
 1105SOL     OW14947   1.295   0.920   5.536  0.3276 -0.5694  0.2099
 1105SOL    HW114948   1.316   0.834   5.500  3.4190  0.1340  0.3912
 1105SOL    HW214949   1.303   0.972   5.456  0.7581 -1.7117 -0.4916
 1106SOL     OW14950   1.861   3.507   5.814  0.0962  0.8284  0.0291
 1106SOL    HW114951   1.921   3.582   5.814 -0.8416  1.5760 -0.6589
 1106SOL    HW214952   1.786   3.555   5.779 -0.1110 -0.1716 -0.9077
 1107SOL     OW14953   1.842   4.192  17.141  0.1079 -0.4032 -0.4453
 1107SOL    HW114954   1.766   4.248  17.155 -0.3101 -1.1203  0.1799
 1107SOL    HW214955   1.809   4.114  17.185 -0.5430  0.7385  1.0603
 1108SOL     OW14956   2.463   1.669   0.898 -0.0317 -0.2166  0.0978
 1108SOL    HW114957   2.552   1.633   0.905 -0.2038 -1.2092 -3.1886
 1108SOL    HW214958   2.465   1.701   0.808  2.4696 -0.5734  0.0106
 1109SOL     OW14959   1.903   1.396   4.094  0.0466  0.0488 -0.4025
 1109SOL    HW114960   1.893   1.355   4.008  1.1056 -1.0820  0.0220
 1109SOL    HW214961   1.889   1.489   4.073 -0.8653 -0.1180 -0.5210
 1110SOL     OW14962   1.111   3.135   8.589  0.9176  0.3980  0.0777
 1110SOL    HW114963   1.170   3.094   8.525  0.0762 -1.4642  0.4762
 1110SOL    HW214964   1.114   3.066   8.655  0.0856  1.1805  0.9291
 1111SOL     OW14965   0.586   4.010   2.017 -0.2583  0.2010 -0.3604
 1111SOL    HW114966   0.670   3.999   2.059 -0.4615 -1.0247 -0.2539
 1111SOL    HW214967   0.586   4.102   1.990  1.3115  0.9889  2.4207
 1112SOL     OW14968   2.987   0.783   3.097 -0.2935 -0.0904  0.4503
 1112SOL    HW114969   2.939   0.849   3.047 -0.9648 -0.4334  0.6484
 1112SOL    HW214970   2.932   0.772   3.175  1.3385  0.0836  1.6371
 1113SOL     OW14971   2.706   2.718   0.008  0.0452 -0.6335 -0.0459
 1113SOL    HW114972   2.631   2.770  17.737  0.1509  0.2460  1.2987
 1113SOL    HW214973   2.750   2.778   0.067 -1.9474  0.5381  0.2299
 1114SOL     OW14974   2.921   1.638   3.786 -0.3766 -0.6696  0.0503
 1114SOL    HW114975   2.967   1.697   3.727 -2.1859  0.2334 -0.4467
 1114SOL    HW214976   2.886   1.579   3.718 -1.4101 -0.8317  0.7198
 1115SOL     OW14977   0.617   1.491   6.841 -0.2749 -0.1971  0.2969
 1115SOL    HW114978   0.654   1.463   6.925 -1.1570  0.2699  0.8407
 1115SOL    HW214979   0.542   1.541   6.874  0.7904  0.4859  1.6864
 1116SOL     OW14980   2.964   2.622   2.598  0.5840 -0.6605 -0.7836
 1116SOL    HW114981   3.029   2.558   2.627  0.0903 -1.8419 -2.2420
 1116SOL    HW214982   2.913   2.571   2.534 -1.4910 -0.6949  0.8698
 1117SOL     OW14983   2.423   1.415   6.096 -0.2606  0.2927 -0.0600
 1117SOL    HW114984   2.344   1.361   6.103 -0.2926  0.5187  1.2523
 1117SOL    HW214985   2.440   1.384   6.006  1.4872 -1.9528  1.0366
 1118SOL     OW14986   3.021   3.215   7.592 -0.1062 -0.7897  0.2527
 1118SOL    HW114987   3.065   3.145   7.641  1.2280  0.3079  0.6332
 1118SOL    HW214988   3.040   3.193   7.501  1.4386  2.1817 -0.1189
 1119SOL     OW14989   2.410   2.507   3.739  0.2140 -0.2393 -0.3460
 1119SOL    HW114990   2.468   2.466   3.803 -0.2266 -1.3118 -0.6352
 1119SOL    HW214991   2.455   2.496   3.655  1.5557  0.7786  0.2571
 1120SOL     OW14992   0.685   3.859   0.992  0.6180  0.4997 -0.1362
 1120SOL    HW114993   0.752   3.847   0.924  1.8508  3.4931  0.5510
 1120SOL    HW214994   0.702   3.776   1.037 -0.4589  0.3462 -0.0291
 1121SOL     OW14995   2.979   0.382  11.537  0.2017  0.0592  0.5963
 1121SOL    HW114996   2.993   0.476  11.532 -0.8360  0.1750 -0.2193
 1121SOL    HW214997   2.982   0.364  11.631 -1.7220 -1.4176  0.3886
 1122SOL     OW14998   4.722   2.642  11.586  0.5288  0.2771 -0.8880
 1122SOL    HW114999   4.699   2.695  11.662  0.5199 -2.1338  0.7868
 1122SOL    HW215000   0.030   2.708  11.536 -2.4166  0.5093 -3.4253
 1123SOL     OW15001   2.756   1.103   6.208  0.7324 -0.3613 -0.1459
 1123SOL    HW115002   2.816   1.042   6.249  0.9251 -0.5172 -0.6599
 1123SOL    HW215003   2.686   1.046   6.175 -0.1141  0.0177  0.9912
 1124SOL     OW15004   3.942   1.067  10.199 -0.0939  0.0531  0.0858
 1124SOL    HW115005   3.913   0.985  10.159 -0.7111  1.0225 -1.4685
 1124SOL    HW215006   4.037   1.072  10.196 -0.2154  2.3143 -0.2874
 1125SOL     OW15007   2.304   0.724   2.168  0.4975  0.0865 -0.4574
 1125SOL    HW115008   2.387   0.716   2.215  0.1380  0.6806  0.2836
 1125SOL    HW215009   2.278   0.633   2.160 -0.3831  0.2684  0.2608
 1126SOL     OW15010   4.190   1.767   3.451 -0.0898  0.1625  0.1899
 1126SOL    HW115011   4.264   1.782   3.392 -1.3181 -0.3837 -1.4814
 1126SOL    HW215012   4.124   1.747   3.385 -0.9132 -0.4829  1.1916
 1127SOL     OW15013   4.657   0.034  11.401 -0.7274 -0.0528  0.0290
 1127SOL    HW115014   4.620   0.104  11.347  4.3472  1.9952 -0.6857
 1127SOL    HW215015   4.695   0.080  11.475 -0.4387  1.6751 -1.1985
 1128SOL     OW15016   1.145   1.565   5.854 -0.1171 -0.1648  0.1544
 1128SOL    HW115017   1.110   1.476   5.863 -0.5484  0.0685  0.8833
 1128SOL    HW215018   1.063   1.613   5.843 -0.3162 -0.2267  1.3160
 1129SOL     OW15019   4.016   1.443   7.483  0.2164  0.6102 -0.2733
 1129SOL    HW115020   3.937   1.394   7.508  0.0900  1.4485  0.9658
 1129SOL    HW215021   4.079   1.376   7.459 -1.6355 -1.4005  0.4674
 1130SOL     OW15022   3.134   4.684   7.406 -0.0427 -0.2930 -0.4860
 1130SOL    HW115023   3.070   4.613   7.398  0.4585 -0.7709 -0.2877
 1130SOL    HW215024   3.199   4.648   7.346  1.0494  0.6411  0.1313
 1131SOL     OW15025   2.209   1.369  13.209  0.1312  0.0857 -0.2900
 1131SOL    HW115026   2.240   1.410  13.128 -0.1042 -1.4867 -1.1685
 1131SOL    HW215027   2.257   1.287  13.201 -1.0677 -0.3643 -3.1302
 1132SOL     OW15028   0.596   3.223   5.775  0.2725 -0.1620  0.3439
 1132SOL    HW115029   0.530   3.268   5.828 -0.2490  0.7566 -1.0763
 1132SOL    HW215030   0.561   3.239   5.687 -0.8588 -2.9139  0.2937
 1133SOL     OW15031   2.385   3.566  10.456  0.0016  0.2846  0.5733
 1133SOL    HW115032   2.458   3.620  10.427 -0.9001  0.0283 -2.1592
 1133SOL    HW215033   2.314   3.617  10.417 -2.5819  0.1100  5.0609
 1134SOL     OW15034   4.682   4.644   5.190 -0.1263 -0.5582  0.5763
 1134SOL    HW115035   4.700   4.688   5.107 -0.1354 -1.9700 -0.1754
 1134SOL    HW215036   4.597   4.674   5.221  0.9935  3.3624 -0.1373
 1135SOL     OW15037   3.488   1.016   4.423  0.1915  0.9723 -0.0074
 1135SOL    HW115038   3.446   1.100   4.409 -1.0437  0.4702  0.7048
 1135SOL    HW215039   3.432   0.955   4.375  0.4668  1.4268 -0.9087
 1136SOL     OW15040   2.620   2.898   5.584 -0.5532  0.1387 -0.2663
 1136SOL    HW115041   2.613   2.806   5.557  1.0525 -0.0531 -0.0068
 1136SOL    HW215042   2.607   2.891   5.679 -0.4584  1.0441 -0.1848
 1137SOL     OW15043   0.437   1.855   6.355 -0.3744 -0.1991  0.6240
 1137SOL    HW115044   0.416   1.921   6.289  0.0545 -0.9034 -0.2192
 1137SOL    HW215045   0.362   1.857   6.415 -0.8723 -0.9322  0.0149
 1138SOL     OW15046   1.973   4.441   3.302 -0.3939 -0.8949  0.2334
 1138SOL    HW115047   1.918   4.373   3.264 -0.1174 -2.4413  2.5770
 1138SOL    HW215048   2.035   4.463   3.233 -1.7270  1.5645 -0.2103
 1139SOL     OW15049   0.634   1.134   6.466  0.0900 -0.0711 -0.2459
 1139SOL    HW115050   0.675   1.219   6.483  1.2860 -0.1010 -2.9502
 1139SOL    HW215051   0.622   1.107   6.557 -1.2244  1.8631  0.1726
 1140SOL     OW15052   0.327   3.624  15.345 -0.9718 -0.4018 -0.2456
 1140SOL    HW115053   0.366   3.685  15.408  0.2093 -2.4482  1.0156
 1140SOL    HW215054   0.258   3.587  15.400  2.1033 -0.0822  3.8171
 1141SOL     OW15055   2.595   3.612  10.985 -0.1400  0.3230 -0.6490
 1141SOL    HW115056   2.634   3.596  10.899 -1.4053  1.2340 -1.3983
 1141SOL    HW215057   2.558   3.700  10.973 -2.0760 -0.5576 -1.1412
 1142SOL     OW15058   3.274   0.204   4.394  0.1572  0.2270 -0.1936
 1142SOL    HW115059   3.193   0.254   4.400  0.8470  1.3840 -0.6529
 1142SOL    HW215060   3.331   0.275   4.363  0.2861  0.4673  0.6171
 1143SOL     OW15061   1.997   2.582  11.781 -0.4305 -0.3416  0.1989
 1143SOL    HW115062   2.052   2.611  11.708 -1.3982 -0.1248 -0.4417
 1143SOL    HW215063   2.050   2.622  11.850 -2.9262 -0.3792  2.1334
 1144SOL     OW15064   1.174   1.475   1.595 -0.1385 -0.4224  0.3767
 1144SOL    HW115065   1.091   1.440   1.562 -0.2830 -0.3585  0.6790
 1144SOL    HW215066   1.165   1.570   1.594  0.4597 -0.3615  0.5341
 1145SOL     OW15067   1.459   3.765   8.332 -0.0458 -0.1921 -0.3090
 1145SOL    HW115068   1.368   3.756   8.304  0.0469  0.7702 -0.9069
 1145SOL    HW215069   1.490   3.822   8.261  0.3024  0.9062  0.7315
 1146SOL     OW15070   3.247   2.960   7.946 -0.4870 -0.2198 -0.1852
 1146SOL    HW115071   3.229   2.885   8.003 -0.9555 -0.1926 -0.2991
 1146SOL    HW215072   3.335   2.990   7.968  0.2668 -2.3032 -0.3971
 1147SOL     OW15073   0.416   2.154   5.267  0.2850  0.1786 -0.3337
 1147SOL    HW115074   0.407   2.190   5.179 -0.3192 -0.3065 -0.4630
 1147SOL    HW215075   0.329   2.119   5.283 -0.0040  2.3215  2.8399
 1148SOL     OW15076   1.601   3.686   6.770  0.1784  0.1804 -0.6454
 1148SOL    HW115077   1.561   3.689   6.683  2.2058 -2.8074 -1.6825
 1148SOL    HW215078   1.551   3.760   6.806 -0.7966 -0.4851 -0.6212
 1149SOL     OW15079   3.274   1.794   3.257 -0.4693  0.0382 -0.4458
 1149SOL    HW115080   3.342   1.781   3.192  0.4030 -0.0041  0.4777
 1149SOL    HW215081   3.196   1.821   3.208 -1.4763 -0.5668  0.8368
 1150SOL     OW15082   4.183   0.865   1.622 -0.2807 -0.3796  0.2312
 1150SOL    HW115083   4.219   0.790   1.576 -0.5821 -0.9210  0.8848
 1150SOL    HW215084   4.265   0.899   1.658  0.3302  0.7810 -2.2213
 1151SOL     OW15085   0.498   2.812   5.210  0.1536 -0.4520 -0.1400
 1151SOL    HW115086   0.412   2.770   5.206  1.1171 -2.2309 -2.4801
 1151SOL    HW215087   0.548   2.754   5.268  0.7169  0.0229 -0.1574
 1152SOL     OW15088   4.540   4.069   9.938 -0.0059 -0.2517  0.7944
 1152SOL    HW115089   4.591   3.992   9.964 -0.5710 -0.8800  0.0381
 1152SOL    HW215090   4.498   4.044   9.856 -0.3312  1.5045  0.4377
 1153SOL     OW15091   1.814   2.630   5.110 -0.3651  0.7966 -0.1988
 1153SOL    HW115092   1.734   2.636   5.059  0.6609 -2.6918 -2.1820
 1153SOL    HW215093   1.884   2.636   5.046  0.5317  0.4520  0.7494
 1154SOL     OW15094   2.772   2.434  17.718  0.0468 -0.2820  0.4991
 1154SOL    HW115095   2.683   2.399  17.726 -0.2807  0.8030  1.5769
 1154SOL    HW215096   2.753   2.517   0.004 -0.8921 -0.2976  0.1216
 1155SOL     OW15097   0.449   0.207   6.436  0.4755 -0.6542 -0.4987
 1155SOL    HW115098   0.443   0.290   6.388  1.9608 -0.3964 -0.2627
 1155SOL    HW215099   0.404   0.140   6.386  0.1627 -1.6147  1.0801
 1156SOL     OW15100   3.117   0.438   5.896 -0.2429  0.7028  0.2621
 1156SOL    HW115101   3.141   0.460   5.987  0.8379 -0.9400  0.3747
 1156SOL    HW215102   3.054   0.368   5.913 -0.6839  0.6475 -1.6184
 1157SOL     OW15103   2.120   2.921  15.314  0.5942  0.4836 -0.0827
 1157SOL    HW115104   2.143   2.833  15.347 -0.3339  0.3609  0.2288
 1157SOL    HW215105   2.179   2.973  15.368 -1.6253 -0.2913  3.0964
 1158SOL     OW15106   2.787   4.699  17.127  0.3498 -0.1196  0.3894
 1158SOL    HW115107   2.873   4.665  17.103  0.4779  0.2000  0.3915
 1158SOL    HW215108   2.773   0.036  17.071 -0.0132  1.1504  2.2230
 1159SOL     OW15109   3.559   4.139   9.117  0.3435  0.6772  0.2925
 1159SOL    HW115110   3.613   4.175   9.187 -1.2390  3.8928 -0.1798
 1159SOL    HW215111   3.490   4.100   9.169 -0.9476  2.5025 -0.0593
 1160SOL     OW15112   2.373   4.288   7.217  0.2480  0.3932  0.3129
 1160SOL    HW115113   2.301   4.308   7.277 -1.0064  2.5667 -1.8913
 1160SOL    HW215114   2.341   4.327   7.136 -0.9657 -0.4810  0.3761
 1161SOL     OW15115   1.648   1.055  13.777 -0.0853 -0.2001 -0.2087
 1161SOL    HW115116   1.644   1.148  13.800  1.1783 -0.0474 -0.6256
 1161SOL    HW215117   1.583   1.053  13.706  0.0291  1.3983 -0.3604
 1162SOL     OW15118   1.321   4.047  17.563 -0.2088 -0.0643  0.5891
 1162SOL    HW115119   1.229   4.062  17.584 -0.4626  0.0253 -0.5790
 1162SOL    HW215120   1.329   3.952  17.565  1.6773  0.0538 -1.2985
 1163SOL     OW15121   0.739   2.324   6.838 -0.4238  0.2129 -0.5956
 1163SOL    HW115122   0.719   2.396   6.778 -1.7969 -1.5757 -2.2818
 1163SOL    HW215123   0.801   2.366   6.898 -1.5536  1.9546 -0.6649
 1164SOL     OW15124   3.970   3.242   6.635 -0.2857 -0.4209 -0.7389
 1164SOL    HW115125   3.988   3.171   6.696  2.3309  0.1899 -0.7943
 1164SOL    HW215126   3.926   3.307   6.691  0.0700 -0.8494  0.0277
 1165SOL     OW15127   2.744   1.548   4.516 -0.1784  0.0894 -0.0225
 1165SOL    HW115128   2.725   1.459   4.484  0.7779 -0.4390  0.8746
 1165SOL    HW215129   2.764   1.582   4.429 -0.4389 -1.5249 -0.7144
 1166SOL     OW15130   0.842   3.661   4.410 -0.2213  0.6268  0.2064
 1166SOL    HW115131   0.872   3.587   4.464  0.3879 -0.2020 -1.2638
 1166SOL    HW215132   0.765   3.697   4.452 -1.9744  0.1588 -2.6289
 1167SOL     OW15133   3.898   4.071   6.184 -0.6213  0.4260  0.7790
 1167SOL    HW115134   3.989   4.053   6.161 -0.4567  1.9432  0.2318
 1167SOL    HW215135   3.891   4.166   6.197 -0.6693  0.5160  0.0665
 1168SOL     OW15136   0.503   1.583   7.586  0.2577  0.3643  0.5212
 1168SOL    HW115137   0.420   1.604   7.629  0.0288 -0.7922  0.6433
 1168SOL    HW215138   0.560   1.656   7.611  1.4360 -1.0435  1.9561
 1169SOL     OW15139   1.103   1.627   9.290  0.2259 -0.0188 -0.3661
 1169SOL    HW115140   1.098   1.723   9.293 -0.0997 -0.0589  0.2469
 1169SOL    HW215141   1.020   1.606   9.247 -1.4930  3.2860  1.3622
 1170SOL     OW15142   4.565   4.644  10.381 -0.3566  0.4219 -0.1095
 1170SOL    HW115143   4.601   4.555  10.378  0.6209  0.9113 -2.1222
 1170SOL    HW215144   4.548   4.663  10.289  1.3063 -1.3095 -0.7734
 1171SOL     OW15145   1.543   0.125   6.323  0.3568  0.4701 -0.0124
 1171SOL    HW115146   1.466   0.076   6.294  0.0889  1.2501 -0.6408
 1171SOL    HW215147   1.607   0.058   6.300 -0.1761 -0.5348  1.4901
 1172SOL     OW15148   4.422   4.373   2.034 -0.4824  0.2984 -0.3379
 1172SOL    HW115149   4.459   4.447   1.986 -0.9995  1.5946  1.2841
 1172SOL    HW215150   4.327   4.378   2.032 -0.4640  1.2070  1.0930
 1173SOL     OW15151   2.225   2.745   7.083 -0.7420 -0.8322  0.1574
 1173SOL    HW115152   2.139   2.750   7.124 -0.2679  0.5704  1.0040
 1173SOL    HW215153   2.211   2.755   6.989  2.0920  2.8293  0.1148
 1174SOL     OW15154   3.748   3.026  10.931 -0.0463  0.7727 -0.1856
 1174SOL    HW115155   3.688   2.952  10.920 -0.7525  0.8511  3.0871
 1174SOL    HW215156   3.770   3.027  11.025 -1.6522  1.2201  0.1895
 1175SOL     OW15157   0.479   0.872   7.560 -0.2566  0.2240 -0.1092
 1175SOL    HW115158   0.399   0.914   7.591  0.0077 -0.9377  2.1324
 1175SOL    HW215159   0.502   0.812   7.631  1.6801  1.3826  0.2633
 1176SOL     OW15160   2.547   0.000   7.961 -0.4973  0.4983  0.1885
 1176SOL    HW115161   2.629   4.696   7.981 -1.5887 -1.8973 -0.5925
 1176SOL    HW215162   2.590   0.086   7.963 -0.3954  0.5071 -2.0900
 1177SOL     OW15163   3.298   1.432   1.553 -0.2988 -0.3656 -0.1390
 1177SOL    HW115164   3.288   1.520   1.589  0.1642 -0.7207  0.8550
 1177SOL    HW215165   3.288   1.459   1.462 -0.0712 -0.3128 -0.1488
 1178SOL     OW15166   1.511   1.259   1.140 -0.3195 -0.0393  0.1676
 1178SOL    HW115167   1.438   1.320   1.136 -1.0845 -1.0360 -1.1468
 1178SOL    HW215168   1.462   1.185   1.175  1.5933 -0.1889  2.5646
 1179SOL     OW15169   3.526   3.173  17.300 -0.2813  0.4344 -0.8673
 1179SOL    HW115170   3.564   3.234  17.364  0.3901 -2.8684  1.8863
 1179SOL    HW215171   3.434   3.191  17.316 -0.5683 -2.0603  0.2977
 1180SOL     OW15172   1.596   4.246  10.062 -0.3548  0.5690  0.6659
 1180SOL    HW115173   1.654   4.222  10.136 -0.6031 -1.7766  0.1007
 1180SOL    HW215174   1.518   4.200  10.092 -0.8258  1.4026  0.7128
 1181SOL     OW15175   1.006   1.382   3.014 -0.1518  0.2033  0.0087
 1181SOL    HW115176   0.913   1.406   3.009  0.0350  0.8069 -0.5704
 1181SOL    HW215177   1.036   1.424   2.934 -3.4284  4.4800  0.9954
 1182SOL     OW15178   3.194   1.257   4.107  0.0139  0.3508 -0.0249
 1182SOL    HW115179   3.110   1.230   4.146 -0.6273  1.8584 -0.3506
 1182SOL    HW215180   3.222   1.177   4.062 -0.5889 -0.4260  0.9781
 1183SOL     OW15181   1.401   3.949  15.728 -0.3295  0.0647 -0.0610
 1183SOL    HW115182   1.377   3.904  15.809  3.5042 -0.4793  0.8179
 1183SOL    HW215183   1.376   4.036  15.760 -0.2887  0.5983 -1.4767
 1184SOL     OW15184   2.415   0.301   9.361 -0.2999 -0.3967 -0.4810
 1184SOL    HW115185   2.503   0.337   9.368 -0.3524 -0.5590  0.8518
 1184SOL    HW215186   2.441   0.219   9.403 -0.7688 -0.1954  0.1985
 1185SOL     OW15187   2.691   1.563   8.568 -0.5729 -0.4419 -0.6167
 1185SOL    HW115188   2.599   1.548   8.548 -0.2092  0.9712 -3.3213
 1185SOL    HW215189   2.735   1.580   8.485  2.2089 -2.8656  0.3344
 1186SOL     OW15190   0.361   4.432   8.826  0.3618 -0.0999  0.4296
 1186SOL    HW115191   0.380   4.382   8.905  1.4397  1.4246  1.1344
 1186SOL    HW215192   0.419   4.506   8.844 -1.1977  0.4866  2.9634
 1187SOL     OW15193   1.261   3.948   4.539 -0.3788  0.0974  0.7396
 1187SOL    HW115194   1.185   3.957   4.482 -0.7939  0.7255  1.3930
 1187SOL    HW215195   1.238   3.860   4.569 -0.4988 -0.3235 -0.5538
 1188SOL     OW15196   3.237   0.850   3.203 -0.0431  0.4267  0.3246
 1188SOL    HW115197   3.151   0.837   3.163 -0.9027  1.9864  1.6704
 1188SOL    HW215198   3.275   0.763   3.207 -1.9150 -0.3581  1.2787
 1189SOL     OW15199   4.590   1.170  15.101  0.1715  0.1417  0.2036
 1189SOL    HW115200   4.589   1.261  15.133  0.1901  0.7108 -1.4400
 1189SOL    HW215201   4.512   1.135  15.145  1.2167 -1.8007  0.5004
 1190SOL     OW15202   0.800   3.496   8.220 -0.2263  1.0191  0.2814
 1190SOL    HW115203   0.778   3.462   8.133  0.5881 -0.7361  0.7422
 1190SOL    HW215204   0.763   3.423   8.269 -0.0875 -0.3487 -1.6377
 1191SOL     OW15205   3.214   4.267   9.309  0.4298 -0.2936 -0.5747
 1191SOL    HW115206   3.292   4.312   9.342 -0.5228 -0.5735  2.0403
 1191SOL    HW215207   3.155   4.297   9.378  1.5882 -0.1357  0.3536
 1192SOL     OW15208   3.983   4.123   8.816  0.4126 -0.3796  0.1011
 1192SOL    HW115209   4.063   4.130   8.763  0.3325 -0.7654 -0.0734
 1192SOL    HW215210   4.003   4.193   8.878  0.4768  0.3063 -0.7108
 1193SOL     OW15211   3.021   3.860  14.772  0.3033  0.2171  0.2922
 1193SOL    HW115212   3.071   3.779  14.770 -1.0548 -0.5615 -2.2258
 1193SOL    HW215213   3.002   3.868  14.679  0.0333  1.0006  0.4130
 1194SOL     OW15214   0.165   3.836   8.242  0.9571  0.1221 -0.0775
 1194SOL    HW115215   0.192   3.849   8.151  2.0851 -3.7995 -0.3301
 1194SOL    HW215216   0.246   3.806   8.282  0.7860  0.3376  0.4198
 1195SOL     OW15217   0.822   0.583   1.289  0.1425 -0.1952  0.3207
 1195SOL    HW115218   0.834   0.507   1.232 -4.0664 -1.1812  0.7271
 1195SOL    HW215219   0.845   0.661   1.238 -0.0055 -1.9384 -2.4249
 1196SOL     OW15220   2.229   4.034   9.176 -0.5224  0.1351  0.4321
 1196SOL    HW115221   2.144   4.026   9.220 -0.9972  0.5310 -0.3977
 1196SOL    HW215222   2.235   3.948   9.134  0.6077  0.8963 -0.9438
 1197SOL     OW15223   4.459   3.001   5.210  0.3422 -0.5742  0.2465
 1197SOL    HW115224   4.414   3.010   5.127 -0.0668 -1.5068  0.3649
 1197SOL    HW215225   4.519   3.072   5.190  1.7088 -1.5729  0.7714
 1198SOL     OW15226   4.152   0.185   7.985  0.2815  0.3160  0.1669
 1198SOL    HW115227   4.206   0.175   7.907 -1.8115 -2.2001 -0.9686
 1198SOL    HW215228   4.183   0.115   8.043  0.2179 -1.0082 -1.3930
 1199SOL     OW15229   2.770   2.028   4.170  0.1228 -0.4914  0.4446
 1199SOL    HW115230   2.839   2.085   4.205 -0.9337  1.4599 -0.6480
 1199SOL    HW215231   2.819   1.956   4.130  0.9421  1.4228 -1.9865
 1200SOL     OW15232   1.805   1.720   8.252  0.2412 -0.8474 -0.2098
 1200SOL    HW115233   1.781   1.687   8.166  0.7855  2.4674 -1.6667
 1200SOL    HW215234   1.862   1.654   8.291  0.6700 -0.3162  0.0690
 1201SOL     OW15235   3.112   1.109  10.564 -0.5258 -0.0653  0.7554
 1201SOL    HW115236   3.084   1.073  10.648  0.8357  0.2065  1.3345
 1201SOL    HW215237   3.047   1.070  10.506  0.9196 -0.6930 -0.4302
 1202SOL     OW15238   3.709   3.771   1.005  0.2684  0.2397 -0.5177
 1202SOL    HW115239   3.725   3.687   0.962 -0.4135  1.2432 -2.7310
 1202SOL    HW215240   3.797   3.792   1.038  0.1728  3.1534 -2.1146
 1203SOL     OW15241   4.312   3.011   9.128 -0.2149 -0.0831  0.3393
 1203SOL    HW115242   4.232   3.038   9.083 -0.9324 -2.3288  0.2604
 1203SOL    HW215243   4.360   3.094   9.121 -0.4968  0.1872  1.6095
 1204SOL     OW15244   0.577   2.839  17.303  0.0636  0.1278 -0.4271
 1204SOL    HW115245   0.629   2.881  17.235 -0.6831  1.7501  0.0019
 1204SOL    HW215246   0.522   2.785  17.246 -0.1404 -0.5877  0.4404
 1205SOL     OW15247   3.345   0.292   4.049  0.7040 -0.6229  0.0875
 1205SOL    HW115248   3.350   0.342   3.968 -2.8313 -0.9419 -0.3340
 1205SOL    HW215249   3.372   0.361   4.109  1.5014 -0.6070 -0.2832
 1206SOL     OW15250   1.643   3.665  15.427 -0.1084  0.7877  0.1925
 1206SOL    HW115251   1.653   3.722  15.350  1.2261  1.2501  0.7000
 1206SOL    HW215252   1.570   3.713  15.465 -1.1563 -0.4468 -0.2917
 1207SOL     OW15253   4.352   3.328  13.188  0.1692 -0.7014  0.1313
 1207SOL    HW115254   4.403   3.407  13.170 -0.4611 -0.6139 -1.2507
 1207SOL    HW215255   4.409   3.253  13.178  0.4145 -0.6971  1.4209
 1208SOL     OW15256   3.138   2.776   8.829 -0.2207 -0.4019 -0.0258
 1208SOL    HW115257   3.179   2.850   8.785  1.6298 -0.1183  2.1518
 1208SOL    HW215258   3.052   2.772   8.788 -0.2456 -0.7827  0.0613
 1209SOL     OW15259   3.258   2.506  11.982 -0.3816  0.5389 -0.2672
 1209SOL    HW115260   3.349   2.477  11.976 -0.3481  0.6666 -0.3705
 1209SOL    HW215261   3.219   2.419  11.980 -0.3409  0.4826  1.6672
 1210SOL     OW15262   1.548   2.208   1.018 -0.4124 -0.4645 -0.6162
 1210SOL    HW115263   1.534   2.149   0.944  1.6844  0.7763 -1.9868
 1210SOL    HW215264   1.485   2.173   1.081 -1.4660  1.7458 -0.4377
 1211SOL     OW15265   3.032   2.187   0.983 -0.2123  0.5774 -0.2203
 1211SOL    HW115266   3.113   2.171   0.934 -1.2653 -2.1535 -1.0344
 1211SOL    HW215267   3.020   2.111   1.040 -0.1129 -0.1558 -1.1823
 1212SOL     OW15268   4.726   2.617   8.352  0.2866 -0.1880  0.4140
 1212SOL    HW115269   4.632   2.605   8.335  0.6855  0.8566 -2.5838
 1212SOL    HW215270   4.740   2.591   8.443 -1.5164 -2.3299  0.0840
 1213SOL     OW15271   1.971   4.119   6.697  0.7506  0.1909  1.0249
 1213SOL    HW115272   1.892   4.102   6.749 -0.9781  0.9807 -1.3582
 1213SOL    HW215273   2.025   4.182   6.745  0.5320  0.7589  0.5227
 1214SOL     OW15274   3.228   2.302   2.988 -0.3677  0.1625 -0.6084
 1214SOL    HW115275   3.266   2.268   2.907  1.9683 -1.1101  1.0322
 1214SOL    HW215276   3.182   2.383   2.963 -2.5873 -0.8108  0.3087
 1215SOL     OW15277   3.537   0.271   6.579 -0.4449  0.0929  0.7369
 1215SOL    HW115278   3.625   0.252   6.611 -0.5392 -1.8075 -0.1908
 1215SOL    HW215279   3.486   0.227   6.647  0.4210 -3.4923 -0.9810
 1216SOL     OW15280   3.259   2.963  15.735 -0.0213 -0.9756  0.4933
 1216SOL    HW115281   3.195   2.991  15.669  1.5698  0.1373 -0.5991
 1216SOL    HW215282   3.226   2.879  15.767 -0.4696 -1.5605 -1.5156
 1217SOL     OW15283   3.690   0.172   9.568 -0.0260 -0.2671 -0.4487
 1217SOL    HW115284   3.635   0.129   9.503 -0.7815  1.2818 -0.8423
 1217SOL    HW215285   3.755   0.103   9.579  1.5338  1.1500 -0.7194
 1218SOL     OW15286   3.640   2.357   0.014  0.4373 -0.3027  0.3019
 1218SOL    HW115287   3.695   2.279   0.021  2.3595  1.1139  0.7245
 1218SOL    HW215288   3.559   2.331   0.057 -0.5915  0.4718 -1.1408
 1219SOL     OW15289   4.035   2.615  11.670  0.3190 -0.1733 -0.3010
 1219SOL    HW115290   4.071   2.700  11.696  0.7134 -0.1035 -1.0655
 1219SOL    HW215291   3.940   2.622  11.662  0.5526  2.6358 -0.5236
 1220SOL     OW15292   4.696   1.854   7.728 -0.1183 -0.1704 -1.1502
 1220SOL    HW115293   4.715   1.765   7.757  1.4203  0.5814  0.1213
 1220SOL    HW215294   4.609   1.868   7.765  0.2484 -0.0874 -0.3109
 1221SOL     OW15295   3.881   2.727   5.516 -0.8687  0.0582  0.3148
 1221SOL    HW115296   3.885   2.818   5.489 -1.0646 -0.4354 -1.3867
 1221SOL    HW215297   3.789   2.725   5.487 -0.9425  0.7928  0.5244
 1222SOL     OW15298   1.073   3.544   2.415  0.1657 -0.0216  0.1839
 1222SOL    HW115299   1.141   3.486   2.379 -0.0264  0.1583 -0.4744
 1222SOL    HW215300   1.051   3.600   2.340  1.7229 -0.9640 -0.9867
 1223SOL     OW15301   1.637   2.816   6.574 -0.6015 -0.6678 -0.1871
 1223SOL    HW115302   1.687   2.800   6.495 -0.1022 -1.2145  0.2407
 1223SOL    HW215303   1.547   2.821   6.540 -0.5602 -1.0582 -0.3448
 1224SOL     OW15304   2.165   1.418   2.941  0.0421  0.4264  0.6734
 1224SOL    HW115305   2.079   1.424   2.982 -0.1928  0.8272  0.1036
 1224SOL    HW215306   2.229   1.428   3.012  0.0572  0.5362  0.6452
 1225SOL     OW15307   2.429   0.511   8.702  0.4810 -0.2293 -0.0863
 1225SOL    HW115308   2.428   0.596   8.658  0.3776 -0.5693 -0.7313
 1225SOL    HW215309   2.360   0.529   8.767 -0.1355  0.7084 -0.9994
 1226SOL     OW15310   3.936   0.512  14.608 -0.4363  0.8338 -0.4240
 1226SOL    HW115311   3.948   0.522  14.702 -0.8605  1.0451 -0.3912
 1226SOL    HW215312   3.883   0.432  14.605  0.7017  0.0163  1.6843
 1227SOL     OW15313   1.883   3.628   7.213  0.2795 -0.5394  0.6952
 1227SOL    HW115314   1.903   3.541   7.178  0.2337 -0.6224  0.8779
 1227SOL    HW215315   1.856   3.601   7.300 -1.8960  0.6899  0.3915
 1228SOL     OW15316   4.295   0.757   9.486  0.0051 -0.2091 -0.1936
 1228SOL    HW115317   4.293   0.665   9.458  1.9185 -0.5102  0.6874
 1228SOL    HW215318   4.233   0.792   9.422  0.4759 -2.4008 -1.8455
 1229SOL     OW15319   1.347   3.249  12.810 -0.0445  0.0262  0.3582
 1229SOL    HW115320   1.411   3.319  12.795 -0.0634  0.7052  3.5616
 1229SOL    HW215321   1.264   3.297  12.804  0.5729  0.8924 -1.2252
 1230SOL     OW15322   0.170   3.278   2.942 -0.6009  0.1968  0.3131
 1230SOL    HW115323   0.257   3.318   2.940 -0.0293 -1.1104 -0.8299
 1230SOL    HW215324   0.198   3.188   2.959 -1.1884 -0.0177  0.1605
 1231SOL     OW15325   2.659   2.975   8.255  0.0429  0.6163  0.4873
 1231SOL    HW115326   2.707   2.978   8.338 -0.5493  1.1736  0.8049
 1231SOL    HW215327   2.736   2.970   8.198 -1.0654 -1.8251 -0.8185
 1232SOL     OW15328   3.043   4.039   5.217 -0.2487 -0.0937 -0.5158
 1232SOL    HW115329   2.981   4.008   5.284 -0.1155 -0.8551 -0.7488
 1232SOL    HW215330   3.025   4.133   5.223  1.0952  0.1427 -0.0659
 1233SOL     OW15331   2.692   1.736   3.896  0.7070  0.2670 -0.0299
 1233SOL    HW115332   2.617   1.676   3.903  0.1157  1.0264  0.1909
 1233SOL    HW215333   2.756   1.686   3.847  1.3159  0.3500  0.6839
 1234SOL     OW15334   1.887   1.939   6.618 -0.3788  0.1645 -0.0678
 1234SOL    HW115335   1.865   2.031   6.605  0.8492  0.2598 -1.5416
 1234SOL    HW215336   1.930   1.911   6.537 -1.7423  1.5525 -1.2708
 1235SOL     OW15337   3.382   3.488   8.862 -0.6078 -0.3752 -0.0184
 1235SOL    HW115338   3.370   3.569   8.912 -1.1105  1.1855 -2.6459
 1235SOL    HW215339   3.404   3.527   8.777  1.6616 -2.7809 -0.5545
 1236SOL     OW15340   4.134   3.953   6.094 -0.3540 -0.6111  0.1380
 1236SOL    HW115341   4.223   3.956   6.059 -0.5413 -3.1486 -0.5094
 1236SOL    HW215342   4.131   3.860   6.114 -2.6640 -0.2158  1.7056
 1237SOL     OW15343   4.171   2.001   6.441  0.4540  0.5733  0.4351
 1237SOL    HW115344   4.163   2.094   6.421 -1.0555  0.3683  0.0169
 1237SOL    HW215345   4.083   1.984   6.475  0.2778 -1.3908 -0.9841
 1238SOL     OW15346   1.963   3.027   8.409 -0.0293 -0.2806 -0.0577
 1238SOL    HW115347   1.943   3.038   8.502 -2.3805  3.6463 -1.0208
 1238SOL    HW215348   2.007   2.942   8.406 -0.9970 -0.9143  3.0634
 1239SOL     OW15349   2.736   3.048  14.665  0.1049  0.3601  0.0053
 1239SOL    HW115350   2.768   2.958  14.662 -1.2720 -0.1267  0.3850
 1239SOL    HW215351   2.669   3.034  14.598 -2.1123  1.7796  1.9473
 1240SOL     OW15352   1.671   3.981  17.296 -0.3152 -0.0267 -0.1143
 1240SOL    HW115353   1.710   3.997  17.382  0.9932 -0.9688 -0.5173
 1240SOL    HW215354   1.583   4.015  17.311  1.6301  5.0299 -0.4709
 1241SOL     OW15355   3.391   1.947   4.663 -0.0289 -0.2565  0.3701
 1241SOL    HW115356   3.455   1.907   4.604  1.7034  1.8657  0.8331
 1241SOL    HW215357   3.307   1.909   4.636  1.4290 -2.0226 -1.6993
 1242SOL     OW15358   3.955   4.263   1.500 -0.1498  0.1228  0.0912
 1242SOL    HW115359   4.038   4.300   1.471  0.8911 -1.0478  1.6118
 1242SOL    HW215360   3.887   4.320   1.463  0.7946  0.1592 -1.5865
 1243SOL     OW15361   4.051   0.222  13.151 -0.7219 -0.3951  0.1224
 1243SOL    HW115362   3.984   0.171  13.196  0.1624  1.2091  3.2310
 1243SOL    HW215363   4.061   0.290  13.218  0.1058  0.4786 -0.8776
 1244SOL     OW15364   3.031   3.125   7.991 -0.1628 -0.0536  0.1129
 1244SOL    HW115365   3.079   3.200   7.957  3.5666 -1.3228  2.5978
 1244SOL    HW215366   3.092   3.060   7.955  0.0578  1.5985 -2.5039
 1245SOL     OW15367   2.607   0.802   9.923  0.0681  0.6809  0.5726
 1245SOL    HW115368   2.588   0.848   9.841 -1.2510 -0.2684  0.3342
 1245SOL    HW215369   2.649   0.718   9.902 -0.5750  0.5884 -0.3770
 1246SOL     OW15370   3.177   0.828   3.728  0.0365  0.2867  0.1121
 1246SOL    HW115371   3.256   0.868   3.764  0.9671 -2.0467  0.6562
 1246SOL    HW215372   3.200   0.812   3.636 -1.6833 -1.3049 -0.0476
 1247SOL     OW15373   0.806   3.693   1.916 -0.1887  0.8685  0.4374
 1247SOL    HW115374   0.807   3.780   1.874  0.9343  0.9484  0.6322
 1247SOL    HW215375   0.884   3.704   1.971  0.8403 -1.3136 -0.5774
 1248SOL     OW15376   4.016   2.644   5.820  0.1208  0.5247 -0.1040
 1248SOL    HW115377   4.016   2.663   5.726  2.2623  0.4452 -0.1090
 1248SOL    HW215378   3.966   2.716   5.860  2.5113  0.2424  3.4188
 1249SOL     OW15379   0.790   0.484   2.286 -0.0204  0.2493  0.0061
 1249SOL    HW115380   0.745   0.522   2.210 -0.2833 -3.1393 -1.5225
 1249SOL    HW215381   0.788   0.394   2.253  2.3898 -0.1725  0.9840
 1250SOL     OW15382   4.350   1.772   7.119  0.0485  0.4497 -0.2317
 1250SOL    HW115383   4.338   1.691   7.168 -0.6934  0.5633 -0.2100
 1250SOL    HW215384   4.389   1.731   7.042 -0.2342 -0.0045 -0.1355
 1251SOL     OW15385   3.167   3.348   2.981  0.3707  0.4374 -0.0773
 1251SOL    HW115386   3.190   3.259   2.953  1.2774  1.0346 -1.1672
 1251SOL    HW215387   3.167   3.334   3.076  1.3703 -0.8367 -0.2614
 1252SOL     OW15388   3.688   2.635   7.666 -0.1880  0.3300 -0.3656
 1252SOL    HW115389   3.689   2.544   7.637 -4.3663  0.1425  0.0021
 1252SOL    HW215390   3.721   2.682   7.589 -2.1138  1.0881 -0.7433
 1253SOL     OW15391   3.921   3.098  15.111  0.1314  0.9507  0.0855
 1253SOL    HW115392   4.006   3.057  15.126  0.7494  1.8202 -1.0570
 1253SOL    HW215393   3.918   3.082  15.017 -0.7109  0.2458  0.2339
 1254SOL     OW15394   3.393   0.102   6.736 -0.5900  0.4117  0.1817
 1254SOL    HW115395   3.419   0.010   6.723 -2.0823  0.0611 -0.3856
 1254SOL    HW215396   3.333   0.104   6.810 -1.3806  0.1869 -0.4579
 1255SOL     OW15397   0.561   3.250  16.511 -0.9278 -0.2096 -0.2281
 1255SOL    HW115398   0.584   3.325  16.455 -2.1775  1.5232  1.5640
 1255SOL    HW215399   0.619   3.281  16.581  0.2761 -3.3928  0.1850
 1256SOL     OW15400   0.792   2.566  10.710  0.3549  0.2072  0.0432
 1256SOL    HW115401   0.838   2.528  10.785  0.2440 -1.1768 -0.6056
 1256SOL    HW215402   0.839   2.647  10.691  0.5214  0.4584  1.4941
 1257SOL     OW15403   0.635   1.268   0.209 -0.0816 -0.2075 -0.2324
 1257SOL    HW115404   0.677   1.285   0.125  2.3501  0.9226  1.2209
 1257SOL    HW215405   0.559   1.211   0.195 -0.7001 -0.0473  2.3134
 1258SOL     OW15406   3.869   3.390   8.640  0.1037 -0.1275 -0.3685
 1258SOL    HW115407   3.802   3.331   8.674  0.5410  0.5412  1.6041
 1258SOL    HW215408   3.840   3.477   8.665  0.3684  0.0399 -0.6428
 1259SOL     OW15409   2.721   3.539   3.196 -0.2068  0.3753  0.0682
 1259SOL    HW115410   2.745   3.603   3.263 -0.3568 -1.8110  2.2240
 1259SOL    HW215411   2.732   3.589   3.115 -4.1524  0.5870 -0.3467
 1260SOL     OW15412   0.565   0.592  15.490  0.2914  0.0305  0.1311
 1260SOL    HW115413   0.654   0.566  15.512 -0.0279 -1.6227 -0.5184
 1260SOL    HW215414   0.553   0.566  15.399  1.7237  0.6906 -0.2437
 1261SOL     OW15415   1.824   3.821   3.453  0.3663 -0.0220 -0.4512
 1261SOL    HW115416   1.734   3.846   3.476 -0.0506 -2.5354  0.6690
 1261SOL    HW215417   1.823   3.811   3.358  1.1195 -0.9826 -0.3566
 1262SOL     OW15418   1.623   4.186   5.021 -0.4402  0.4242 -0.7958
 1262SOL    HW115419   1.643   4.280   5.017 -2.0677  0.7868 -0.1537
 1262SOL    HW215420   1.573   4.169   4.941  2.4324  1.7989 -2.9007
 1263SOL     OW15421   1.343   3.420   8.796 -0.1553 -0.3034  0.0480
 1263SOL    HW115422   1.399   3.481   8.747  0.4550 -1.0579 -0.1892
 1263SOL    HW215423   1.317   3.466   8.876 -0.3836  0.3141 -0.3893
 1264SOL     OW15424   0.312   3.693   2.608  0.1470 -0.0512 -0.2787
 1264SOL    HW115425   0.217   3.679   2.606  0.0062  0.9163 -0.6499
 1264SOL    HW215426   0.324   3.776   2.655  1.8795 -0.1588 -0.5413
 1265SOL     OW15427   2.600   2.494  14.900 -0.0747 -0.4123  0.3190
 1265SOL    HW115428   2.610   2.403  14.928 -0.7024  1.0075  5.1666
 1265SOL    HW215429   2.586   2.539  14.983 -0.4459  0.3519 -0.1561
 1266SOL     OW15430   2.506   0.425   6.084 -0.0537  0.0792 -0.7444
 1266SOL    HW115431   2.421   0.401   6.120 -0.3965  1.9219 -0.2881
 1266SOL    HW215432   2.540   0.477   6.157  1.8946  0.9796 -2.2890
 1267SOL     OW15433   1.433   2.916   0.201 -0.1239  0.5483  0.5721
 1267SOL    HW115434   1.528   2.917   0.216 -0.3516 -0.8714  2.1154
 1267SOL    HW215435   1.430   2.888   0.109 -0.9839  0.0554  0.7458
 1268SOL     OW15436   1.522   3.916   0.807 -0.5295  0.0202  0.1974
 1268SOL    HW115437   1.500   3.825   0.826 -0.7007  0.2023  0.8513
 1268SOL    HW215438   1.455   3.957   0.861 -0.5421 -1.1428  1.0699
 1269SOL     OW15439   0.611   4.670  17.419 -0.5529  0.4845  0.1592
 1269SOL    HW115440   0.667   4.729  17.368  2.1506 -0.7207  1.7072
 1269SOL    HW215441   0.592   4.608  17.349 -1.6220  0.9123  0.0728
 1270SOL     OW15442   0.103   1.391   3.599 -0.1850 -0.1072  0.5231
 1270SOL    HW115443   0.120   1.409   3.691  0.8228  0.6909  0.1770
 1270SOL    HW215444   0.189   1.370   3.563 -0.8794 -1.2330 -0.4802
 1271SOL     OW15445   2.613   4.319  11.990  0.0395  0.2192  0.0480
 1271SOL    HW115446   2.527   4.283  12.013 -0.0367 -0.3990 -1.1861
 1271SOL    HW215447   2.664   4.295  12.067 -2.4244 -0.5489  1.4613
 1272SOL     OW15448   3.372   2.445   8.825  0.7282 -0.2147  0.2579
 1272SOL    HW115449   3.375   2.526   8.775 -0.2848 -1.6295 -2.1361
 1272SOL    HW215450   3.405   2.373   8.771 -1.1286 -2.3393  1.9561
 1273SOL     OW15451   1.053   2.915   2.844  0.1514 -0.6205 -0.5992
 1273SOL    HW115452   1.069   2.943   2.754 -0.3940  2.0158  0.1336
 1273SOL    HW215453   1.107   2.836   2.848  0.4511 -0.5121 -2.5421
 1274SOL     OW15454   0.935   2.009   4.922 -0.2988 -0.5741 -0.2785
 1274SOL    HW115455   0.987   2.082   4.956  0.9559 -1.3828 -0.4670
 1274SOL    HW215456   0.858   2.057   4.891  0.2357  0.3432 -0.1915
 1275SOL     OW15457   2.328   3.133   6.817 -1.1885  0.0061 -0.5916
 1275SOL    HW115458   2.242   3.108   6.785 -1.3618 -0.6217  0.3711
 1275SOL    HW215459   2.375   3.055   6.786 -0.4850  0.0605  0.3415
 1276SOL     OW15460   3.785   3.934  16.592  0.3278 -0.1053  0.0563
 1276SOL    HW115461   3.714   3.973  16.644 -0.2598  1.0813 -1.6157
 1276SOL    HW215462   3.786   3.994  16.517  1.9901  0.0795  0.2363
 1277SOL     OW15463   0.418   1.107   3.788 -0.2036 -0.9941 -0.1378
 1277SOL    HW115464   0.418   1.199   3.813 -2.6280 -1.2151  0.6400
 1277SOL    HW215465   0.382   1.068   3.867 -0.0321 -1.7768 -0.4431
 1278SOL     OW15466   0.855   1.567   9.201  0.4565 -0.2352 -0.2902
 1278SOL    HW115467   0.853   1.494   9.263 -0.6153 -0.1076 -0.1744
 1278SOL    HW215468   0.779   1.547   9.148 -1.0295  0.8084  1.4258
 1279SOL     OW15469   4.449   0.681   2.790  0.5090  0.6454  0.2223
 1279SOL    HW115470   4.537   0.707   2.815 -0.4372  1.7267  2.4796
 1279SOL    HW215471   4.460   0.679   2.695 -2.9186  1.9331 -0.2084
 1280SOL     OW15472   2.945   0.730  11.617 -0.5446 -0.5952 -0.1837
 1280SOL    HW115473   2.889   0.677  11.673 -1.8746  1.4087  0.4002
 1280SOL    HW215474   3.028   0.732  11.665 -0.7017  1.6123  0.0209
 1281SOL     OW15475   4.553   1.197   5.830 -0.3531 -0.5109 -0.5030
 1281SOL    HW115476   4.560   1.112   5.788  1.7871 -0.3391 -0.4883
 1281SOL    HW215477   4.606   1.183   5.909 -0.0953  0.7824 -0.4361
 1282SOL     OW15478   2.670   3.005   4.075  0.7357  0.0017  0.2265
 1282SOL    HW115479   2.726   3.022   4.151  0.2017  0.1565  0.5889
 1282SOL    HW215480   2.592   3.055   4.100 -1.3394 -2.4957 -1.2730
 1283SOL     OW15481   3.346   3.336   6.505 -0.0503  1.0690 -0.0756
 1283SOL    HW115482   3.356   3.282   6.426 -1.1325 -2.0338  1.8833
 1283SOL    HW215483   3.276   3.393   6.476 -0.1360  0.5025 -0.9948
 1284SOL     OW15484   4.022   3.033   6.843  0.2172  0.2256 -0.3043
 1284SOL    HW115485   4.099   2.989   6.880 -1.0209 -1.2412  0.4779
 1284SOL    HW215486   3.946   2.982   6.870 -0.7212  2.0452  0.5309
 1285SOL     OW15487   0.883   1.187  16.706 -0.1580  0.0195 -0.3744
 1285SOL    HW115488   0.831   1.110  16.731  0.2180  0.1534  0.7773
 1285SOL    HW215489   0.819   1.250  16.672  0.7080  1.7329  1.1873
 1286SOL     OW15490   1.162   1.094  16.744  0.5249  0.0366 -0.1152
 1286SOL    HW115491   1.073   1.106  16.711  0.0488 -0.5636  0.9695
 1286SOL    HW215492   1.183   1.007  16.708 -1.0722  0.0895 -1.1421
 1287SOL     OW15493   4.496   0.293  14.338 -0.3980 -0.8642 -0.2664
 1287SOL    HW115494   4.428   0.357  14.319 -1.2540 -1.3620  1.1436
 1287SOL    HW215495   4.475   0.270  14.428 -1.7450  0.1516 -0.3130
 1288SOL     OW15496   1.197   3.954   9.333 -1.0185  0.0306  0.3104
 1288SOL    HW115497   1.227   3.989   9.418 -1.8183 -0.0274  0.6149
 1288SOL    HW215498   1.121   3.905   9.363  0.1773 -1.8364  0.3013
 1289SOL     OW15499   0.551   2.922  11.299  0.5752 -0.0583 -0.0118
 1289SOL    HW115500   0.635   2.925  11.254 -0.8932  0.8118 -2.6999
 1289SOL    HW215501   0.571   2.852  11.362 -0.6574 -1.2034 -0.8948
 1290SOL     OW15502   3.391   1.998   7.542  0.5250  0.2604 -0.0952
 1290SOL    HW115503   3.349   2.026   7.623 -0.8132 -0.3178 -0.5941
 1290SOL    HW215504   3.368   2.067   7.479 -0.8791 -0.6056 -0.5179
 1291SOL     OW15505   1.925   0.042   3.667 -0.0175 -0.1298 -0.5566
 1291SOL    HW115506   2.017   0.019   3.652  0.7661  0.9918  2.6011
 1291SOL    HW215507   1.894   0.074   3.583 -0.1766  0.3561 -0.3133
 1292SOL     OW15508   3.870   2.481   0.098  0.5988 -0.4762 -0.3378
 1292SOL    HW115509   3.827   2.474   0.184  1.1654 -0.5855 -0.0651
 1292SOL    HW215510   3.809   2.441   0.036 -1.6740 -0.7017  2.0149
 1293SOL     OW15511   3.127   1.470   0.456 -0.0499 -0.1592 -0.7404
 1293SOL    HW115512   3.196   1.536   0.455  0.8010 -1.0112  1.2964
 1293SOL    HW215513   3.176   1.393   0.486 -1.2861 -0.3849  0.6760
 1294SOL     OW15514   0.760   3.801  10.055 -0.1477  0.5566  0.4046
 1294SOL    HW115515   0.790   3.892  10.059  1.1966  0.1028  0.5162
 1294SOL    HW215516   0.667   3.816  10.035 -0.1967  0.5958  0.6658
 1295SOL     OW15517   1.114   2.501   1.839  0.0817 -0.1494  0.4360
 1295SOL    HW115518   1.193   2.476   1.888  0.5844 -0.4367 -0.5255
 1295SOL    HW215519   1.143   2.481   1.750 -1.1517 -0.2568  0.0523
 1296SOL     OW15520   2.653   4.039   5.149  0.3594 -0.1300 -0.4148
 1296SOL    HW115521   2.682   4.121   5.189  0.7016 -0.5336  0.1652
 1296SOL    HW215522   2.563   4.036   5.182  0.7595 -1.4917  0.5318
 1297SOL     OW15523   3.543   1.535   9.849  0.0208 -0.1713 -0.2925
 1297SOL    HW115524   3.541   1.470   9.779 -0.1661  0.7052 -1.1058
 1297SOL    HW215525   3.452   1.559   9.830 -0.2049 -2.1740 -1.7877
 1298SOL     OW15526   3.432   1.955   8.821  0.0055  0.6650 -0.0766
 1298SOL    HW115527   3.379   1.875   8.816  0.6114  0.4061 -2.9060
 1298SOL    HW215528   3.518   1.919   8.846  0.3236  1.1448 -0.4749
 1299SOL     OW15529   3.220   3.327   8.622  0.1291 -0.6891  0.1422
 1299SOL    HW115530   3.242   3.254   8.563  0.7870 -1.3710  1.2240
 1299SOL    HW215531   3.273   3.320   8.702  0.7704  1.0563 -0.1188
 1300SOL     OW15532   4.502   2.944   1.835  0.1111 -0.3573 -0.6007
 1300SOL    HW115533   4.461   3.027   1.809  1.5492 -0.2127 -2.3719
 1300SOL    HW215534   4.577   2.941   1.776  0.5868  1.9184 -0.1446
 1301SOL     OW15535   2.781   2.699   6.323  0.3371  1.1208 -0.2518
 1301SOL    HW115536   2.803   2.736   6.409 -1.3224 -0.6179  0.9098
 1301SOL    HW215537   2.841   2.625   6.326 -0.8765  0.1698  0.8249
 1302SOL     OW15538   3.155   3.130  12.737  0.3151 -0.2527 -0.0819
 1302SOL    HW115539   3.173   3.065  12.669  1.1549 -1.5722  1.4123
 1302SOL    HW215540   3.060   3.129  12.729  0.2493 -0.0763  0.7768
 1303SOL     OW15541   1.252   1.595   6.632 -0.1713  0.2387 -0.4287
 1303SOL    HW115542   1.284   1.550   6.710  1.5666 -0.2454 -1.4104
 1303SOL    HW215543   1.186   1.651   6.670  0.0722 -1.3243  2.2935
 1304SOL     OW15544   1.781   1.358   5.837 -0.0772  0.4015 -0.3152
 1304SOL    HW115545   1.732   1.303   5.899  0.6263  0.4949  0.3182
 1304SOL    HW215546   1.774   1.440   5.885  0.4448  0.2298  0.0532
 1305SOL     OW15547   1.300   4.649  13.674  0.2452 -0.5747 -0.1875
 1305SOL    HW115548   1.273   4.706  13.746  3.0186  0.0366  0.3721
 1305SOL    HW215549   1.252   4.567  13.688  0.3019 -0.6823 -0.6267
 1306SOL     OW15550   3.084   3.130  15.613  0.1965  0.1264 -0.2826
 1306SOL    HW115551   3.101   3.207  15.667  0.1112  0.0676 -0.1725
 1306SOL    HW215552   3.133   3.156  15.535  1.4540 -0.8444  0.1832
 1307SOL     OW15553   2.740   3.503   1.457 -0.6042  0.3803  0.1473
 1307SOL    HW115554   2.668   3.565   1.469 -0.9860 -0.5760  2.7634
 1307SOL    HW215555   2.756   3.469   1.545 -1.6684  1.2502  0.6768
 1308SOL     OW15556   4.573   1.249   7.001  0.4464 -0.1328  0.5637
 1308SOL    HW115557   4.640   1.225   7.066 -2.8166 -0.2500  3.9225
 1308SOL    HW215558   4.561   1.168   6.952 -1.8640  1.2772 -1.2168
 1309SOL     OW15559   0.824   1.964  12.169  0.1692  0.0377 -0.1078
 1309SOL    HW115560   0.820   1.989  12.261 -0.4491 -0.2457 -0.0517
 1309SOL    HW215561   0.788   1.875  12.181  2.3972 -0.9046 -0.4683
 1310SOL     OW15562   4.534   4.296  14.721 -0.6021  0.4374  0.3935
 1310SOL    HW115563   4.573   4.330  14.801 -0.7086  0.7899  0.2950
 1310SOL    HW215564   4.440   4.301  14.739 -1.0093 -1.1219 -1.2918
 1311SOL     OW15565   0.621   2.887   4.885  0.0811 -0.2519  0.6959
 1311SOL    HW115566   0.580   2.970   4.909 -0.2938  0.0046 -0.8778
 1311SOL    HW215567   0.651   2.861   4.972 -0.8190  1.1343  1.4207
 1312SOL     OW15568   0.915   4.500   3.433  0.0156 -0.2671  0.1190
 1312SOL    HW115569   0.866   4.482   3.513  0.0597 -1.7783 -0.1865
 1312SOL    HW215570   1.003   4.479   3.467 -0.6124 -1.7607  0.8138
 1313SOL     OW15571   4.434   3.894  15.919 -0.1252 -0.2454  0.0179
 1313SOL    HW115572   4.509   3.944  15.888  0.4169 -2.2121 -1.7990
 1313SOL    HW215573   4.428   3.936  16.005 -2.8953 -0.9129  0.1723
 1314SOL     OW15574   4.617   2.828   4.695  0.0985  0.0129 -0.5335
 1314SOL    HW115575   4.582   2.762   4.636 -1.2652  1.8042 -1.7578
 1314SOL    HW215576   4.637   2.781   4.776 -2.3414  0.5685  0.4180
 1315SOL     OW15577   4.592   4.682   3.810 -0.1563  0.2177 -0.5672
 1315SOL    HW115578   4.616   4.611   3.869  0.3571  0.6609 -0.2411
 1315SOL    HW215579   4.661   4.682   3.743 -0.2166  0.1311 -0.6299
 1316SOL     OW15580   1.695   0.873  15.329  0.0557 -0.5350  0.3286
 1316SOL    HW115581   1.735   0.960  15.318 -0.2435 -0.6988 -2.0372
 1316SOL    HW215582   1.765   0.820  15.365  1.6124  0.2207 -1.5750
 1317SOL     OW15583   0.434   2.977   9.727  0.2416  0.3249  0.5586
 1317SOL    HW115584   0.520   3.017   9.724  0.0149  0.8907  1.7035
 1317SOL    HW215585   0.458   2.891   9.691  1.4836  0.2029  1.6566
 1318SOL     OW15586   1.853   4.555   5.166  0.2285 -0.0095 -0.3117
 1318SOL    HW115587   1.896   4.511   5.240  1.3053  1.2353 -0.1915
 1318SOL    HW215588   1.774   4.593   5.203  0.2987  0.1510 -0.3265
 1319SOL     OW15589   3.750   0.028   3.476  0.4267  0.4785 -0.6308
 1319SOL    HW115590   3.754   4.722   3.392 -1.5169 -0.2477 -0.3370
 1319SOL    HW215591   3.685   4.720   3.527  0.6806  0.5458 -0.2408
 1320SOL     OW15592   0.176   1.251   8.151 -0.2127  0.2614  0.1798
 1320SOL    HW115593   0.108   1.200   8.194  0.4935 -0.1529  0.8118
 1320SOL    HW215594   0.214   1.183   8.095 -1.7149  0.2078 -0.7808
 1321SOL     OW15595   0.648   0.500   6.632 -0.3259  0.4535  0.0866
 1321SOL    HW115596   0.694   0.430   6.584  0.3105  1.2183 -0.4181
 1321SOL    HW215597   0.695   0.498   6.716  0.7982 -0.7327 -0.5529
 1322SOL     OW15598   3.275   3.991   8.512 -0.4858 -0.2083 -0.0801
 1322SOL    HW115599   3.287   3.967   8.603  0.6162 -1.1846 -0.4855
 1322SOL    HW215600   3.237   3.909   8.480 -1.5167 -0.4725  1.7982
 1323SOL     OW15601   0.876   3.525   6.830  0.3254 -0.2359  0.1521
 1323SOL    HW115602   0.944   3.531   6.764 -1.3058  0.7662 -1.4358
 1323SOL    HW215603   0.794   3.510   6.782  0.0158  2.4751 -0.1667
 1324SOL     OW15604   1.010   1.838   2.313 -0.6744 -0.3813 -0.3029
 1324SOL    HW115605   0.919   1.813   2.332 -0.6336 -0.1520  0.2037
 1324SOL    HW215606   1.059   1.757   2.322  0.3591  0.3958  1.0363
 1325SOL     OW15607   3.582   3.007  13.244  0.1458  0.1330 -0.1974
 1325SOL    HW115608   3.603   3.089  13.199  1.1522  1.5626  2.8657
 1325SOL    HW215609   3.536   3.034  13.323  0.8105 -1.1964  0.6448
 1326SOL     OW15610   3.071   0.877   4.081  0.0312 -0.1241 -0.0811
 1326SOL    HW115611   3.115   0.797   4.110  1.3535  0.1058 -1.4603
 1326SOL    HW215612   3.140   0.944   4.087 -2.5905  2.4678  0.9926
 1327SOL     OW15613   2.859   4.715   8.455  0.2530  0.0565  0.2551
 1327SOL    HW115614   2.918   4.729   8.381  1.0695 -1.2322  0.6696
 1327SOL    HW215615   2.795   0.044   8.437 -0.2628  0.1515  2.4894
 1328SOL     OW15616   0.330   1.312   6.039  0.2175 -0.4151  0.0393
 1328SOL    HW115617   0.371   1.327   6.124  1.4626  0.0993 -0.6485
 1328SOL    HW215618   0.387   1.248   5.998  0.8227 -0.1083  0.3979
 1329SOL     OW15619   2.743   2.263  15.973  0.1582 -0.3735 -0.1010
 1329SOL    HW115620   2.768   2.302  15.889 -1.6694  0.8793 -0.0687
 1329SOL    HW215621   2.661   2.312  15.980  0.5275 -0.0147  1.6949
 1330SOL     OW15622   1.172   4.048   5.200 -0.2562 -0.1223  0.3547
 1330SOL    HW115623   1.243   4.110   5.217 -1.8495  1.7818 -0.0910
 1330SOL    HW215624   1.116   4.073   5.274 -1.0333  2.3057 -1.0769
 1331SOL     OW15625   3.697   3.010   2.114  0.0973 -0.4112 -0.0080
 1331SOL    HW115626   3.701   2.922   2.152 -3.1969 -0.8918 -0.7997
 1331SOL    HW215627   3.602   3.021   2.109  0.1867  0.0572 -0.6261
 1332SOL     OW15628   0.532   2.493   5.184  0.4497 -0.0514 -0.2266
 1332SOL    HW115629   0.570   2.454   5.106 -1.6181 -1.5929 -0.4499
 1332SOL    HW215630   0.590   2.455   5.251  2.0666 -0.3396 -1.7980
 1333SOL     OW15631   1.903   4.188   7.872  0.3948  0.4403  0.0675
 1333SOL    HW115632   1.987   4.234   7.869 -0.2303  1.6501  1.0631
 1333SOL    HW215633   1.930   4.105   7.911 -0.2405  0.9199  1.5098
 1334SOL     OW15634   2.986   0.552  15.827  0.3597 -0.2342 -0.1638
 1334SOL    HW115635   3.046   0.599  15.770  1.7485 -0.8595  0.7729
 1334SOL    HW215636   2.900   0.567  15.786  0.4787  1.7876  0.3270
 1335SOL     OW15637   0.413   0.584   4.283 -0.1179 -0.2127  0.1559
 1335SOL    HW115638   0.375   0.496   4.280  3.6041 -1.7344 -1.2404
 1335SOL    HW215639   0.468   0.580   4.205 -1.5216 -0.3497 -0.8334
 1336SOL     OW15640   4.149   0.949   6.792  0.4793  0.6781 -0.0924
 1336SOL    HW115641   4.077   0.983   6.739 -0.1619 -1.2668 -0.4753
 1336SOL    HW215642   4.141   0.854   6.780 -0.1221  0.9314 -1.6707
 1337SOL     OW15643   4.475   4.359  10.585 -0.2296 -0.3096 -0.0682
 1337SOL    HW115644   4.418   4.355  10.662  2.2187  0.7455  1.7957
 1337SOL    HW215645   4.538   4.415  10.630  1.5295 -0.5183 -2.3040
 1338SOL     OW15646   0.487   2.933   8.645  0.0562 -0.3600 -0.3942
 1338SOL    HW115647   0.525   2.995   8.708  0.3315 -3.7890  2.7650
 1338SOL    HW215648   0.394   2.958   8.648 -0.6500 -3.0683 -0.3968
 1339SOL     OW15649   0.802   4.315  11.765 -0.5988 -0.0014  0.1460
 1339SOL    HW115650   0.778   4.224  11.778 -1.5937  0.4550  1.5603
 1339SOL    HW215651   0.808   4.325  11.670  0.5307  0.4382  0.2607
 1340SOL     OW15652   0.895   1.069  12.075 -0.1866  0.2480 -0.0910
 1340SOL    HW115653   0.838   1.143  12.056  0.6466  0.4990 -1.6059
 1340SOL    HW215654   0.967   1.074  12.012  1.6187 -0.7563  1.8890
 1341SOL     OW15655   3.569   3.450   5.582  0.1246 -0.1863  0.2166
 1341SOL    HW115656   3.592   3.358   5.568 -0.5280 -0.3652  0.3122
 1341SOL    HW215657   3.620   3.468   5.661 -1.4173 -1.6082  1.5273
 1342SOL     OW15658   1.109   3.373  12.769  0.0494  0.3114  0.6094
 1342SOL    HW115659   1.069   3.294  12.733  0.7730  0.1339  0.1816
 1342SOL    HW215660   1.028   3.423  12.774  0.1444  0.5079  0.1724
 1343SOL     OW15661   3.708   0.908   3.470  0.2398 -0.0210  0.0317
 1343SOL    HW115662   3.689   0.832   3.415 -1.0138  1.3053 -1.3787
 1343SOL    HW215663   3.691   0.877   3.559  1.1225  0.7125  0.4671
 1344SOL     OW15664   0.356   4.353  13.327  0.0470  0.0703 -0.1059
 1344SOL    HW115665   0.428   4.416  13.325 -0.1721  0.2721 -1.5361
 1344SOL    HW215666   0.404   4.270  13.339  0.5184  0.2926 -0.4716
 1345SOL     OW15667   2.023   1.562  15.432  0.0912  0.0403 -0.0681
 1345SOL    HW115668   2.116   1.572  15.410  0.2353 -0.6306  0.2200
 1345SOL    HW215669   1.984   1.587  15.348 -0.0279 -0.7847 -0.2590
 1346SOL     OW15670   4.405   3.210   5.510  0.1726 -0.0700  0.3428
 1346SOL    HW115671   4.501   3.206   5.501 -0.1615 -3.7029 -1.4151
 1346SOL    HW215672   4.397   3.190   5.603  1.7602 -0.0502  0.4952
 1347SOL     OW15673   3.508   3.587   3.958  0.5725  0.0613 -0.2800
 1347SOL    HW115674   3.486   3.526   3.888 -1.7123  0.0772  0.4295
 1347SOL    HW215675   3.472   3.537   4.032 -0.3714 -1.0163 -1.4827
 1348SOL     OW15676   3.431   1.467   7.227  0.4790  0.1955  0.0589
 1348SOL    HW115677   3.465   1.541   7.176  1.4527 -0.4758 -0.2705
 1348SOL    HW215678   3.518   1.429   7.237 -0.1025 -1.1312 -0.0042
 1349SOL     OW15679   4.680   2.636   4.938  0.5452  0.6329 -0.4521
 1349SOL    HW115680   0.001   2.577   4.896 -0.0992 -0.5572  0.2828
 1349SOL    HW215681   4.686   2.591   5.022 -2.9356  1.3049  0.1660
 1350SOL     OW15682   4.217   3.751   4.612 -0.0125  0.1454  0.2429
 1350SOL    HW115683   4.265   3.678   4.574 -0.5292  0.9145 -1.8511
 1350SOL    HW215684   4.173   3.791   4.537  0.6541  2.7493  1.2220
 1351SOL     OW15685   4.245   0.871  11.816  0.7912  0.4349 -0.2758
 1351SOL    HW115686   4.234   0.778  11.800  0.2827  0.4526 -0.0297
 1351SOL    HW215687   4.223   0.892  11.725  1.0549  0.0334 -0.4278
 1352SOL     OW15688   3.102   0.646  17.547  0.2982  0.0008 -0.3290
 1352SOL    HW115689   3.144   0.603  17.471  0.3454  1.5045 -1.1537
 1352SOL    HW215690   3.041   0.703  17.499  0.4532  0.9030  0.5681
 1353SOL     OW15691   3.923   2.333   8.163 -0.2704 -0.1613 -0.2374
 1353SOL    HW115692   3.904   2.269   8.094  1.4354 -2.2512  1.2410
 1353SOL    HW215693   4.000   2.380   8.132 -0.8457  0.0489 -1.3541
 1354SOL     OW15694   0.970   3.144   2.065  0.5689 -0.2983 -0.2327
 1354SOL    HW115695   1.060   3.175   2.054 -0.3893  2.7692  0.5550
 1354SOL    HW215696   0.960   3.061   2.018  0.2629 -1.1325  1.3151
 1355SOL     OW15697   4.484   1.940   9.329 -0.2142  0.1089 -0.0123
 1355SOL    HW115698   4.537   1.953   9.407  1.8854  1.8130 -1.7477
 1355SOL    HW215699   4.463   1.847   9.340  0.8357 -0.2873 -1.4409
 1356SOL     OW15700   3.691   0.607   6.601 -0.6340 -0.4204  0.1123
 1356SOL    HW115701   3.679   0.699   6.625 -2.5929 -0.4360 -0.8446
 1356SOL    HW215702   3.724   0.579   6.687  2.6785  0.8080 -0.7944
 1357SOL     OW15703   4.539   4.318   3.287  0.1023  0.3460  0.3589
 1357SOL    HW115704   4.505   4.229   3.285 -0.0926  0.4150  0.6697
 1357SOL    HW215705   4.517   4.341   3.377 -1.3956  0.4149 -0.0318
 1358SOL     OW15706   1.510   0.779   7.612  0.3485  0.0757  0.3317
 1358SOL    HW115707   1.593   0.826   7.607  0.2177  0.0504 -2.5361
 1358SOL    HW215708   1.527   0.685   7.617  0.5677  0.0700 -0.4023
 1359SOL     OW15709   4.349   1.374  16.739  0.7321 -0.0148  0.0304
 1359SOL    HW115710   4.345   1.307  16.808  1.2676 -0.8762 -0.7705
 1359SOL    HW215711   4.404   1.438  16.784  0.5930 -0.1343  0.3671
 1360SOL     OW15712   2.793   0.003   3.649 -0.4842 -0.8276  0.0646
 1360SOL    HW115713   2.745   4.707   3.723  0.7310 -0.2969  1.1117
 1360SOL    HW215714   2.849   4.668   3.630 -2.0913 -1.1488 -3.4786
 1361SOL     OW15715   3.399   1.443   4.071  0.0322 -0.3194 -0.1556
 1361SOL    HW115716   3.445   1.423   3.990  0.2955  0.0058 -0.0860
 1361SOL    HW215717   3.316   1.396   4.069 -0.1603 -0.1243  2.7354
 1362SOL     OW15718   1.974   3.422   9.147 -0.0504 -0.3372  0.1996
 1362SOL    HW115719   2.055   3.377   9.126  0.2663  0.0656  0.5569
 1362SOL    HW215720   1.977   3.415   9.242 -4.1397 -1.0376  0.3138
 1363SOL     OW15721   2.436   3.053  13.728 -0.2100 -0.1553 -0.2050
 1363SOL    HW115722   2.494   3.076  13.801  2.6560 -1.0244 -2.2005
 1363SOL    HW215723   2.363   3.100  13.769 -1.1961 -1.8056 -0.0971
 1364SOL     OW15724   4.065   0.475   0.903 -0.2157  0.1343 -0.0088
 1364SOL    HW115725   4.030   0.532   0.972 -1.8104 -0.7674 -0.0779
 1364SOL    HW215726   3.999   0.408   0.920  2.7998 -2.7193  0.4627
 1365SOL     OW15727   4.000   0.709   7.445 -0.3604 -0.2801  0.2710
 1365SOL    HW115728   4.077   0.753   7.411  0.2910 -0.7840  1.0929
 1365SOL    HW215729   4.016   0.717   7.539 -1.9154 -0.7135  0.5845
 1366SOL     OW15730   2.999   1.783   4.745 -0.6606  0.3352  0.1253
 1366SOL    HW115731   2.925   1.790   4.685  0.2728  1.9828 -0.8362
 1366SOL    HW215732   3.074   1.773   4.686 -0.4884  1.4309  0.1558
 1367SOL     OW15733   3.655   3.520   5.821 -0.1991 -0.1078 -0.5024
 1367SOL    HW115734   3.611   3.605   5.823 -0.5118 -0.2413 -1.5620
 1367SOL    HW215735   3.618   3.479   5.898  1.4763 -1.6817 -0.5289
 1368SOL     OW15736   3.488   1.320   8.394 -0.2244 -0.1292 -0.5639
 1368SOL    HW115737   3.428   1.245   8.393 -0.4496  0.0617 -1.4084
 1368SOL    HW215738   3.518   1.319   8.303 -0.0997 -0.5266 -0.5203
 1369SOL     OW15739   1.688   2.175   2.903  0.2762  0.3859 -0.9278
 1369SOL    HW115740   1.772   2.190   2.946  0.2677 -0.4285 -0.6173
 1369SOL    HW215741   1.702   2.239   2.834 -0.2278  2.0022  0.4848
 1370SOL     OW15742   3.469   2.539   1.609  0.1715 -0.0830 -0.1227
 1370SOL    HW115743   3.544   2.488   1.637  0.5778  1.1396  1.0150
 1370SOL    HW215744   3.499   2.619   1.566  2.2314 -0.9613 -0.2659
 1371SOL     OW15745   4.562   0.020  13.142 -0.1686 -0.3878 -0.5255
 1371SOL    HW115746   4.550   4.688  13.203 -2.3788  0.9777  0.6666
 1371SOL    HW215747   4.491   0.004  13.080 -1.0745  0.9619  0.1390
 1372SOL     OW15748   0.300   0.237  16.539 -0.2392 -0.6704 -0.3340
 1372SOL    HW115749   0.210   0.206  16.528 -1.0112  1.7413 -0.7410
 1372SOL    HW215750   0.299   0.316  16.486 -0.6496 -0.3705  0.1246
 1373SOL     OW15751   4.235   0.273   3.192  0.1367  0.3138 -0.0145
 1373SOL    HW115752   4.170   0.203   3.201  1.7406 -1.2031 -0.2305
 1373SOL    HW215753   4.247   0.298   3.284  1.2728  0.3471 -0.1816
 1374SOL     OW15754   3.475   0.521   2.031 -0.0020 -0.4812 -0.0866
 1374SOL    HW115755   3.408   0.587   2.014  1.2825  0.7066 -0.5820
 1374SOL    HW215756   3.527   0.519   1.950 -2.0129 -1.9975 -1.3499
 1375SOL     OW15757   2.211   3.845  10.020  0.3005 -0.2372 -0.0939
 1375SOL    HW115758   2.132   3.828  10.071  1.3677 -0.2543  1.5673
 1375SOL    HW215759   2.278   3.836  10.088  1.9920  2.7645 -1.3457
 1376SOL     OW15760   2.956   3.673   9.156  0.3059 -0.4875  0.8084
 1376SOL    HW115761   2.917   3.629   9.081 -0.3231  2.0545 -0.3526
 1376SOL    HW215762   2.890   3.739   9.175  2.5707  2.3043 -1.0352
 1377SOL     OW15763   4.219   3.985   4.015 -0.3550 -0.2590  0.0786
 1377SOL    HW115764   4.188   3.961   3.928  0.2053  0.1597 -0.2332
 1377SOL    HW215765   4.134   4.009   4.053 -0.2710  0.0942  0.0422
 1378SOL     OW15766   0.106   1.579  14.613 -0.4605 -0.0396 -0.1030
 1378SOL    HW115767   0.040   1.564  14.546 -1.3418 -0.5212  0.8779
 1378SOL    HW215768   0.123   1.501  14.665 -1.1306  1.4082  2.2859
 1379SOL     OW15769   0.030   3.763   6.074 -0.4172  0.3246 -0.2987
 1379SOL    HW115770   0.029   3.768   6.170  0.4310  1.3280 -0.3338
 1379SOL    HW215771   4.719   3.683   6.073  0.0749  0.0172 -0.7952
 1380SOL     OW15772   3.848   2.677   5.115  0.3676  0.1865 -0.2355
 1380SOL    HW115773   3.856   2.677   5.020  1.0926  1.2357 -0.1811
 1380SOL    HW215774   3.801   2.760   5.124  0.7874  0.2916  1.0433
 1381SOL     OW15775   2.768   2.594   5.257 -0.4551  0.2862 -0.3506
 1381SOL    HW115776   2.698   2.612   5.195 -0.9111 -2.4827 -0.6745
 1381SOL    HW215777   2.813   2.677   5.271  0.7258 -0.4449  0.2191
 1382SOL     OW15778   3.124   1.660   2.129  0.0906  0.1071  0.1413
 1382SOL    HW115779   3.116   1.746   2.088 -0.0130  0.0382  0.0163
 1382SOL    HW215780   3.105   1.690   2.218  2.9952 -1.3959  1.2424
 1383SOL     OW15781   0.861   0.724   7.883  0.2668 -0.5976  0.0414
 1383SOL    HW115782   0.927   0.680   7.829  0.6134  0.0685 -0.0788
 1383SOL    HW215783   0.804   0.766   7.819  1.2543  0.0491 -0.4164
 1384SOL     OW15784   4.313   3.245  14.819 -0.4120  0.3943 -0.0209
 1384SOL    HW115785   4.370   3.313  14.856  0.0146 -0.2347  0.4819
 1384SOL    HW215786   4.333   3.174  14.881  1.2134  0.1646 -0.7983
 1385SOL     OW15787   2.784   1.426  13.048 -0.1681  0.1250 -0.1602
 1385SOL    HW115788   2.692   1.449  13.062  0.1721  0.7635  1.1042
 1385SOL    HW215789   2.782   1.341  13.092  1.5820 -0.4266 -1.1665
 1386SOL     OW15790   0.869   2.708   5.776  0.3505  0.0340  0.0812
 1386SOL    HW115791   0.952   2.667   5.753 -0.4511 -2.4369  1.5428
 1386SOL    HW215792   0.847   2.742   5.689 -2.2790  2.4355  1.7005
 1387SOL     OW15793   4.370   1.825   3.666  0.1353 -0.5371 -0.1654
 1387SOL    HW115794   4.400   1.750   3.717  0.2204  0.5475  1.3831
 1387SOL    HW215795   4.321   1.783   3.595  0.8628  0.4229 -1.2366
 1388SOL     OW15796   0.826   2.425  14.527 -0.5098  0.2427 -0.1969
 1388SOL    HW115797   0.863   2.506  14.491 -1.2118 -0.4123 -2.3796
 1388SOL    HW215798   0.779   2.386  14.454 -0.7606  0.1624  0.0099
 1389SOL     OW15799   1.778   2.842   8.101  0.0156  0.3871  0.1246
 1389SOL    HW115800   1.752   2.825   8.011  0.2216  0.6832  0.0114
 1389SOL    HW215801   1.874   2.836   8.102 -0.0760 -1.3865 -0.3301
 1390SOL     OW15802   4.259   1.969   1.790 -0.3876  0.0984  0.2328
 1390SOL    HW115803   4.346   2.006   1.781 -0.2917 -0.5633 -1.6116
 1390SOL    HW215804   4.225   1.960   1.701  1.6369  1.3949 -0.6505
 1391SOL     OW15805   0.754   4.161  16.862  0.1608 -0.2997 -0.0079
 1391SOL    HW115806   0.826   4.222  16.882  1.4268 -1.2848 -1.5603
 1391SOL    HW215807   0.683   4.204  16.911  0.8299 -0.9431  1.5300
 1392SOL     OW15808   3.289   1.258   7.948 -0.3105  0.3963  0.1081
 1392SOL    HW115809   3.368   1.240   7.896  0.0721  0.3770  0.6957
 1392SOL    HW215810   3.234   1.317   7.896 -0.2925  0.9454  0.7198
 1393SOL     OW15811   0.552   0.684  11.767  0.6141  0.4075 -0.2287
 1393SOL    HW115812   0.627   0.640  11.726 -0.8081 -0.6618 -1.6919
 1393SOL    HW215813   0.492   0.610  11.776  1.4270 -0.0103  1.6602
 1394SOL     OW15814   2.820   0.628  14.898  0.2296 -0.2214  0.5343
 1394SOL    HW115815   2.784   0.604  14.984 -4.4027  2.1183 -0.7348
 1394SOL    HW215816   2.737   0.654  14.858  1.3338  1.4216 -0.6602
 1395SOL     OW15817   2.196   2.679   6.706  0.1064 -0.2603  0.8597
 1395SOL    HW115818   2.213   2.596   6.662 -0.9823  0.4728 -0.9635
 1395SOL    HW215819   2.101   2.685   6.697  0.0692 -1.8471  0.3214
 1396SOL     OW15820   0.103   0.768  17.202 -0.4006 -0.1958  0.1728
 1396SOL    HW115821   0.054   0.831  17.255 -1.2246 -1.6758  1.1496
 1396SOL    HW215822   0.045   0.732  17.135 -1.7698  0.0846  1.2019
 1397SOL     OW15823   1.053   0.357   5.791 -0.5808  0.0768 -0.6315
 1397SOL    HW115824   1.124   0.296   5.815 -1.8696 -0.8815  0.7210
 1397SOL    HW215825   0.981   0.295   5.796 -0.5452 -0.0563 -1.6782
 1398SOL     OW15826   2.329   3.984   5.839  0.2320 -0.5549  0.3674
 1398SOL    HW115827   2.294   4.058   5.791  1.4013  0.0252  0.4061
 1398SOL    HW215828   2.386   3.951   5.769  1.1660  0.3036  0.7272
 1399SOL     OW15829   3.424   2.274   7.662  0.3067  0.5177  0.8496
 1399SOL    HW115830   3.517   2.251   7.671  0.1945  0.0819  0.9248
 1399SOL    HW215831   3.397   2.261   7.571  3.5389  1.0926 -0.1933
 1400SOL     OW15832   0.862   1.775   6.868  0.0836  0.3135  0.4853
 1400SOL    HW115833   0.954   1.784   6.845 -0.0755  0.8017  0.0531
 1400SOL    HW215834   0.865   1.832   6.944 -0.8286 -0.8896  1.4407
 1401SOL     OW15835   1.560   2.217   7.675  0.2071  0.3578 -0.2889
 1401SOL    HW115836   1.552   2.209   7.580 -1.4681  1.1046 -0.2129
 1401SOL    HW215837   1.641   2.268   7.670  0.2595  0.3506  0.5025
 1402SOL     OW15838   3.164   3.090   4.576  0.1013  0.0168  0.0218
 1402SOL    HW115839   3.121   3.033   4.639  0.4449 -0.8604 -0.5468
 1402SOL    HW215840   3.121   3.073   4.493  0.9424 -2.2950  0.0574
 1403SOL     OW15841   1.001   4.382   2.178  0.0896  0.4218 -0.4760
 1403SOL    HW115842   0.987   4.289   2.157 -1.3879 -0.1635  3.0520
 1403SOL    HW215843   0.988   4.393   2.272 -2.1696 -3.6469 -0.3040
 1404SOL     OW15844   4.581   2.034   2.176 -0.1043  0.1174 -0.3759
 1404SOL    HW115845   4.491   2.002   2.165 -1.2745  2.5262  2.0808
 1404SOL    HW215846   4.591   2.017   2.270 -0.6186  0.3488 -0.2782
 1405SOL     OW15847   2.381   1.904   2.649 -0.1172  0.8849 -0.3946
 1405SOL    HW115848   2.317   1.892   2.718 -0.2830 -0.9462 -0.8833
 1405SOL    HW215849   2.410   1.995   2.662 -1.5931  1.2421  0.3455
 1406SOL     OW15850   2.704   4.549   9.442  0.7325  0.4987 -0.7233
 1406SOL    HW115851   2.730   4.535   9.533 -3.0892  1.3362  0.5162
 1406SOL    HW215852   2.661   4.467   9.420  0.1355  0.9107 -1.0764
 1407SOL     OW15853   4.737   2.344   1.651 -0.3560 -0.1214 -0.2544
 1407SOL    HW115854   0.036   2.303   1.728 -1.5914  1.3121  1.1497
 1407SOL    HW215855   0.076   2.354   1.598  0.9765 -0.1533  1.7317
 1408SOL     OW15856   4.443   4.387   5.341 -0.0395  0.2074  0.0475
 1408SOL    HW115857   4.448   4.455   5.408  0.6939  2.1882 -2.0268
 1408SOL    HW215858   4.394   4.320   5.390 -0.7959  1.0546  0.4470
 1409SOL     OW15859   1.963   3.959  16.930  0.5176 -0.5526 -0.5879
 1409SOL    HW115860   2.047   4.000  16.951 -0.2608 -0.5543  2.6002
 1409SOL    HW215861   1.982   3.922  16.844 -1.2261  0.2256 -1.3137
 1410SOL     OW15862   2.142   3.203   0.856 -0.8637 -0.2982  0.3326
 1410SOL    HW115863   2.051   3.179   0.876 -0.2994  0.1306  3.4336
 1410SOL    HW215864   2.183   3.156   0.928  0.3246  0.2292 -0.0004
 1411SOL     OW15865   4.227   1.531   1.457 -0.0453 -0.0483 -0.1251
 1411SOL    HW115866   4.295   1.486   1.408  1.0141  0.4844  0.8453
 1411SOL    HW215867   4.146   1.489   1.429 -0.0470  1.2412 -2.0487
 1412SOL     OW15868   0.441   1.520   5.830  0.5559  0.1579 -0.2364
 1412SOL    HW115869   0.385   1.479   5.896  2.1844 -2.3763 -0.4138
 1412SOL    HW215870   0.419   1.612   5.822 -0.6071 -0.1645 -0.7466
 1413SOL     OW15871   1.280   2.164  10.929 -0.1663  0.3469  0.1540
 1413SOL    HW115872   1.253   2.190  11.017 -0.5721 -1.6912  0.6251
 1413SOL    HW215873   1.336   2.238  10.907 -0.1024  0.5747  1.0762
 1414SOL     OW15874   3.377   3.648   6.369 -0.2108  0.4083  0.2937
 1414SOL    HW115875   3.349   3.571   6.320  2.2966  0.8437 -1.8503
 1414SOL    HW215876   3.297   3.697   6.387 -0.1375  0.5299  0.2913
 1415SOL     OW15877   2.924   3.389   3.660 -0.6049 -0.6177  0.1862
 1415SOL    HW115878   2.891   3.386   3.750 -2.7175  0.1908 -0.5661
 1415SOL    HW215879   2.854   3.351   3.607 -1.7582  1.1432  0.4399
 1416SOL     OW15880   3.716   0.414   6.331 -0.2755  0.0569  0.2067
 1416SOL    HW115881   3.784   0.348   6.321  1.0920  1.6871 -1.2960
 1416SOL    HW215882   3.694   0.417   6.238 -0.6275 -2.0744  0.2194
 1417SOL     OW15883   2.338   4.183  15.773 -0.1035 -0.6408 -0.3813
 1417SOL    HW115884   2.245   4.195  15.791  0.2014  0.3691  0.5347
 1417SOL    HW215885   2.348   4.237  15.694 -2.4010 -0.1485 -0.3198
 1418SOL     OW15886   0.184   3.673  15.041 -0.0679  0.0159  0.2776
 1418SOL    HW115887   0.186   3.616  14.964  1.4534  1.2828 -0.6141
 1418SOL    HW215888   0.091   3.692  15.037  0.2515  1.3870 -0.6772
 1419SOL     OW15889   1.864   2.262   2.679  0.2446  0.2405  0.2797
 1419SOL    HW115890   1.910   2.255   2.596  1.2034 -0.8621  0.9076
 1419SOL    HW215891   1.804   2.188   2.670  0.3031  0.4245 -1.5029
 1420SOL     OW15892   4.577   2.256   7.761  0.4310 -0.8476  0.2283
 1420SOL    HW115893   4.543   2.181   7.811 -2.3464  1.6826  2.0852
 1420SOL    HW215894   4.666   2.222   7.746  1.2032  0.9460  0.8282
 1421SOL     OW15895   4.324   2.053   8.285  0.3522 -0.3039 -0.2878
 1421SOL    HW115896   4.260   2.062   8.214 -0.2353 -0.0260  0.2724
 1421SOL    HW215897   4.384   2.126   8.271  1.4666 -0.8301  1.7696
 1422SOL     OW15898   0.415   3.149   3.873 -0.1465  0.0101  0.4387
 1422SOL    HW115899   0.502   3.174   3.905  0.8213 -3.2537  0.3358
 1422SOL    HW215900   0.387   3.237   3.848  0.5074  0.7850  2.4490
 1423SOL     OW15901   0.280   1.327  16.498  0.4289 -0.4825  0.1536
 1423SOL    HW115902   0.268   1.420  16.481  2.8670 -0.5553 -1.9151
 1423SOL    HW215903   0.340   1.308  16.426 -1.7473 -2.2371 -1.2348
 1424SOL     OW15904   4.380   0.084   7.815  0.2257  0.7400 -0.2094
 1424SOL    HW115905   4.474   0.101   7.812  0.7178 -2.2520 -1.3848
 1424SOL    HW215906   4.384   4.737   7.854  1.3509  0.8986  0.0179
 1425SOL     OW15907   1.389   1.643   5.939 -0.2499  0.0187 -0.2708
 1425SOL    HW115908   1.300   1.614   5.921 -0.9043  2.5011 -1.0628
 1425SOL    HW215909   1.381   1.668   6.031 -0.2552 -1.5769  0.1668
 1426SOL     OW15910   1.844   2.417  17.282  0.2484 -0.2813  0.2519
 1426SOL    HW115911   1.935   2.443  17.271  1.3433 -2.8983  3.3417
 1426SOL    HW215912   1.821   2.389  17.193 -1.1787 -0.3077  0.6218
 1427SOL     OW15913   0.055   0.567  16.013  0.0494  0.6652  0.1963
 1427SOL    HW115914   0.137   0.528  15.985 -0.0483 -0.3835  1.4000
 1427SOL    HW215915   4.738   0.538  15.942  1.7098 -1.9952 -0.0144
 1428SOL     OW15916   3.493   3.603   5.393 -0.4105 -0.0504  0.6689
 1428SOL    HW115917   3.508   3.563   5.478 -1.5079 -0.8747  0.4735
 1428SOL    HW215918   3.543   3.540   5.341 -2.8598 -1.2935 -0.1514
 1429SOL     OW15919   4.515   4.393  10.129  0.1328  0.2963  0.7550
 1429SOL    HW115920   4.446   4.334  10.098  1.6252 -0.7347 -0.6315
 1429SOL    HW215921   4.532   4.366  10.219  0.4525  0.8552  0.8574
 1430SOL     OW15922   2.151   3.157   9.252  0.0617  0.5230  0.6994
 1430SOL    HW115923   2.207   3.233   9.266 -0.5045  1.7288 -3.4927
 1430SOL    HW215924   2.174   3.115   9.335  0.7946  0.3210  0.3902
 1431SOL     OW15925   1.440   0.897  15.201 -0.2196 -0.0655 -0.2859
 1431SOL    HW115926   1.530   0.884  15.229 -1.2853 -1.7943  2.3697
 1431SOL    HW215927   1.431   0.991  15.216 -2.4108 -0.2643 -0.3372
 1432SOL     OW15928   3.109   1.045  13.366 -0.1673 -0.0511 -0.3758
 1432SOL    HW115929   3.020   1.010  13.374 -0.3083  0.1684 -0.9567
 1432SOL    HW215930   3.144   1.007  13.285 -0.4921  1.4227 -1.2107
 1433SOL     OW15931   0.996   1.604  12.478 -0.8283 -0.6113  0.0359
 1433SOL    HW115932   0.944   1.532  12.515 -2.0509  0.6475  0.7741
 1433SOL    HW215933   1.079   1.580  12.519  0.5372  0.1526 -2.3085
 1434SOL     OW15934   3.781   3.686   3.917  0.2126  0.0710  0.0783
 1434SOL    HW115935   3.786   3.700   3.822  1.8317  2.3170  0.5170
 1434SOL    HW215936   3.688   3.663   3.927  0.5348 -1.1419  0.3362
 1435SOL     OW15937   3.745   4.173  17.173  0.2168 -0.7648 -0.0348
 1435SOL    HW115938   3.760   4.261  17.210  0.1524 -0.1601 -1.4546
 1435SOL    HW215939   3.794   4.131  17.245  0.7748 -0.6993 -0.3735
 1436SOL     OW15940   1.672   0.038   8.707 -0.0443  0.2632  0.0732
 1436SOL    HW115941   1.666   0.133   8.707  0.1640  0.2781  0.6792
 1436SOL    HW215942   1.678   0.010   8.616 -1.1382 -1.8649  0.6420
 1437SOL     OW15943   3.854   2.484   1.507  0.8006 -0.2085 -0.6186
 1437SOL    HW115944   3.792   2.530   1.451  0.3521 -1.4413 -1.1378
 1437SOL    HW215945   3.793   2.440   1.567  1.1826  1.1516  0.7750
 1438SOL     OW15946   0.080   0.849  15.885  0.3337  0.6000  0.0748
 1438SOL    HW115947   0.011   0.788  15.911 -1.7283  2.4520 -1.0512
 1438SOL    HW215948   0.122   0.810  15.808 -0.1076  1.6878 -0.7102
 1439SOL     OW15949   2.897   4.421   2.778  0.6520 -0.0775  0.0471
 1439SOL    HW115950   2.927   4.366   2.706 -1.0131 -2.8475  1.4847
 1439SOL    HW215951   2.815   4.375   2.794  0.4605 -0.7470 -2.8163
 1440SOL     OW15952   1.654   1.489  12.723 -0.0636 -0.1080 -0.5632
 1440SOL    HW115953   1.701   1.541  12.657  0.8704 -2.0931 -1.4612
 1440SOL    HW215954   1.708   1.411  12.736  1.3202  0.8906 -0.3189
 1441SOL     OW15955   0.370   1.179  14.535 -0.1455  0.0117 -0.6316
 1441SOL    HW115956   0.356   1.270  14.560  1.6468  0.8074 -2.4974
 1441SOL    HW215957   0.465   1.172  14.526 -0.0644  1.2835 -0.7721
 1442SOL     OW15958   1.768   3.801   5.759 -0.1594  0.2342  0.1706
 1442SOL    HW115959   1.700   3.866   5.741  1.5391  1.8116 -0.5280
 1442SOL    HW215960   1.753   3.735   5.691  1.3925  0.8975 -0.8077
 1443SOL     OW15961   2.227   2.002   6.127  0.3805  0.0394  0.0089
 1443SOL    HW115962   2.246   2.053   6.048  1.4266 -2.0186 -1.0656
 1443SOL    HW215963   2.167   2.060   6.173  0.6680 -1.5652  2.3618
 1444SOL     OW15964   1.608   1.321   3.234 -0.2985 -0.0512 -0.2703
 1444SOL    HW115965   1.519   1.350   3.213  0.7156  1.7213 -2.1540
 1444SOL    HW215966   1.617   1.352   3.324  0.0866 -0.6691 -0.0941
 1445SOL     OW15967   4.639   4.340  12.687  0.4568  0.2549  0.1648
 1445SOL    HW115968   4.649   4.313  12.779  2.1180  1.1024  0.2269
 1445SOL    HW215969   4.721   4.386  12.669 -0.6738  2.2927  0.2141
 1446SOL     OW15970   3.499   4.541  17.096  0.6246 -0.7155  0.3152
 1446SOL    HW115971   3.576   4.599  17.093 -0.2089  0.4030  0.2666
 1446SOL    HW215972   3.431   4.591  17.141  0.3309 -0.9784  0.1603
 1447SOL     OW15973   0.854   0.746   4.024 -0.2644  0.6907  0.5935
 1447SOL    HW115974   0.804   0.793   3.957 -0.8122 -1.2134 -0.3672
 1447SOL    HW215975   0.934   0.718   3.979 -2.4766 -2.2616 -1.5863
 1448SOL     OW15976   3.434   4.128  17.284 -0.4174  0.3360 -0.8548
 1448SOL    HW115977   3.343   4.107  17.305  0.2922 -1.9507 -0.1236
 1448SOL    HW215978   3.434   4.190  17.211  1.1734  1.1080 -0.2102
 1449SOL     OW15979   1.692   1.250   8.450  0.4635 -0.3067  0.3925
 1449SOL    HW115980   1.619   1.306   8.424 -0.0236 -1.4432 -0.7162
 1449SOL    HW215981   1.721   1.216   8.365  0.4585  0.0526  0.2477
 1450SOL     OW15982   1.088   1.498  16.964  0.5786  0.0528 -0.7501
 1450SOL    HW115983   1.111   1.591  16.964 -0.3839  0.2934 -1.5588
 1450SOL    HW215984   1.015   1.502  17.026  0.0768 -3.0030 -1.1252
 1451SOL     OW15985   2.623   2.509   7.394 -0.3114 -0.6373  0.1394
 1451SOL    HW115986   2.669   2.550   7.320 -0.1678  1.7394  1.5604
 1451SOL    HW215987   2.533   2.541   7.391 -1.2860 -3.2638  1.7028
 1452SOL     OW15988   4.138   0.130   5.091  0.3501  0.0451  0.1328
 1452SOL    HW115989   4.190   0.054   5.117 -1.1685 -0.8942  0.3678
 1452SOL    HW215990   4.187   0.180   5.025 -0.5538  0.0421 -0.5304
 1453SOL     OW15991   4.342   1.840  15.917  0.3845  0.1252  0.2765
 1453SOL    HW115992   4.316   1.794  15.997 -0.5486  1.8284  0.9393
 1453SOL    HW215993   4.284   1.916  15.919  0.0925 -0.1375  1.6946
 1454SOL     OW15994   4.693   2.525   9.301 -0.0633  0.1566  0.3797
 1454SOL    HW115995   4.713   2.491   9.388 -2.1008  2.7769  1.8515
 1454SOL    HW215996   4.605   2.491   9.286  0.4716 -1.3423  0.6127
 1455SOL     OW15997   1.286   1.351   7.407  0.1657  0.3293  0.4089
 1455SOL    HW115998   1.284   1.446   7.395 -2.1205  0.0528 -1.5295
 1455SOL    HW215999   1.359   1.333   7.348 -1.3068 -0.4236 -1.1705
 1456SOL     OW16000   0.464   2.018  14.500  0.2948 -0.0939 -0.2314
 1456SOL    HW116001   0.433   1.948  14.556  2.2324  1.0815  2.2922
 1456SOL    HW216002   0.383   2.015  14.448  1.5246 -2.4748 -2.0073
 1457SOL     OW16003   0.096   0.565   7.514 -0.6124  0.0979  0.1376
 1457SOL    HW116004   0.110   0.489   7.457  1.3393 -0.6855  1.6109
 1457SOL    HW216005   0.170   0.619   7.486  0.3611 -1.3162 -0.0510
 1458SOL     OW16006   2.407   1.756  13.111 -0.1724  0.3759  0.6364
 1458SOL    HW116007   2.440   1.668  13.097 -2.4039 -0.3914  0.1580
 1458SOL    HW216008   2.474   1.804  13.160  0.9295  0.3036 -0.7890
 1459SOL     OW16009   4.690   3.685   4.405 -0.0918  0.3948 -0.1141
 1459SOL    HW116010   0.030   3.644   4.372 -1.3622 -1.0807 -1.3564
 1459SOL    HW216011   4.653   3.610   4.451  0.9473 -0.8534 -1.3029
 1460SOL     OW16012   0.056   3.524   2.995 -0.6082 -0.4319  0.1866
 1460SOL    HW116013   0.098   3.454   3.045 -1.3450  0.3161  1.8486
 1460SOL    HW216014   0.112   3.600   3.009 -0.2423 -0.2287 -2.3513
 1461SOL     OW16015   0.284   1.729   5.387  0.4428  0.1462  0.4130
 1461SOL    HW116016   0.371   1.725   5.347  0.5810 -1.3686  0.8681
 1461SOL    HW216017   0.297   1.811   5.434  1.6652  0.0869  0.1829
 1462SOL     OW16018   1.560   3.302   4.437  0.0081 -0.5569 -0.0889
 1462SOL    HW116019   1.495   3.316   4.506 -0.2501 -0.7669 -0.2897
 1462SOL    HW216020   1.587   3.393   4.424  2.2441 -0.8428  2.6592
 1463SOL     OW16021   2.503   1.564   2.922 -0.7077 -0.2499 -0.1066
 1463SOL    HW116022   2.593   1.538   2.903 -0.6248 -0.6918  0.8654
 1463SOL    HW216023   2.465   1.600   2.842 -0.5631  1.1332  0.4496
 1464SOL     OW16024   1.831   4.223   8.842 -0.0941  0.3162 -0.1901
 1464SOL    HW116025   1.916   4.180   8.851 -0.1324  0.4379  0.7559
 1464SOL    HW216026   1.844   4.287   8.912 -0.9690 -1.4630  1.5732
 1465SOL     OW16027   0.950   3.729   5.233  0.0507 -0.2615 -0.2742
 1465SOL    HW116028   0.905   3.734   5.149  0.7180 -1.2443 -0.6934
 1465SOL    HW216029   0.994   3.646   5.215  1.2845  0.6300 -1.3718
 1466SOL     OW16030   0.915   4.529   9.170  0.1997 -0.2359  0.6045
 1466SOL    HW116031   0.824   4.559   9.172  0.0489 -0.5401 -1.4103
 1466SOL    HW216032   0.912   4.522   9.075  1.0969  2.1368  0.4106
 1467SOL     OW16033   0.980   3.968   6.691 -0.1301 -0.4924  0.1829
 1467SOL    HW116034   0.939   3.975   6.777 -0.7597  1.1129 -0.2476
 1467SOL    HW216035   0.993   4.062   6.674 -0.5572 -1.0047 -3.0657
 1468SOL     OW16036   0.295   3.091  13.086  0.2236 -0.2620 -0.4506
 1468SOL    HW116037   0.376   3.107  13.134  0.1886 -0.3748 -0.3525
 1468SOL    HW216038   0.308   2.998  13.067  1.0532 -0.5034  1.2481
 1469SOL     OW16039   0.636   1.303   8.193 -0.2844 -0.0546 -0.2122
 1469SOL    HW116040   0.666   1.220   8.228  1.5559  0.6469 -0.1372
 1469SOL    HW216041   0.572   1.313   8.264  0.3774  1.1967  0.2199
 1470SOL     OW16042   0.393   2.706  17.170 -0.2078  0.0473  0.0939
 1470SOL    HW116043   0.400   2.618  17.133  4.0915  0.1035  0.8214
 1470SOL    HW216044   0.336   2.695  17.247 -1.8765  0.3725 -1.0905
 1471SOL     OW16045   1.036   3.500   9.513 -0.0385  0.8823 -0.6442
 1471SOL    HW116046   1.100   3.522   9.581 -0.8107  1.1048 -0.0003
 1471SOL    HW216047   0.991   3.584   9.510 -0.7525  0.4807 -1.0310
 1472SOL     OW16048   1.549   4.274   9.715 -0.0348 -0.3595 -0.3918
 1472SOL    HW116049   1.625   4.254   9.660 -0.3811 -2.9623  0.0706
 1472SOL    HW216050   1.563   4.369   9.722 -0.9157 -0.2400 -0.3028
 1473SOL     OW16051   3.669   3.944  17.007  0.0443  0.7141 -1.2166
 1473SOL    HW116052   3.627   4.004  17.068 -0.5024  0.1134 -0.9997
 1473SOL    HW216053   3.763   3.947  17.028 -0.7487  1.3039  2.2247
 1474SOL     OW16054   0.767   1.406   3.437  0.1977 -0.1205 -0.5217
 1474SOL    HW116055   0.841   1.440   3.387 -1.0988  2.2389 -0.8115
 1474SOL    HW216056   0.709   1.482   3.435 -1.4849 -1.3223  1.7330
 1475SOL     OW16057   0.552   2.402   8.209  0.0032 -0.3892 -0.1064
 1475SOL    HW116058   0.501   2.477   8.239  2.2243  1.2061 -0.3313
 1475SOL    HW216059   0.497   2.368   8.138 -0.1624 -0.7623  0.1988
 1476SOL     OW16060   4.029   4.301   4.829  0.1102 -0.2230  0.1357
 1476SOL    HW116061   4.068   4.381   4.794  1.0310 -1.9773 -2.8649
 1476SOL    HW216062   3.936   4.310   4.808 -0.5234 -1.6658  2.3911
 1477SOL     OW16063   1.346   0.939   3.942  0.4753 -0.6190  0.3039
 1477SOL    HW116064   1.414   1.005   3.951  1.1959 -1.2271 -0.6243
 1477SOL    HW216065   1.268   0.990   3.962 -1.5584 -3.2309 -0.9184
 1478SOL     OW16066   4.081   3.149  15.462  0.3453 -0.3669  0.4411
 1478SOL    HW116067   4.112   3.183  15.378  0.9722 -2.2926 -0.1102
 1478SOL    HW216068   4.028   3.224  15.490 -1.3178 -1.0213 -0.9495
 1479SOL     OW16069   0.657   1.011   3.596 -0.0662  0.3106  0.2837
 1479SOL    HW116070   0.697   1.083   3.547 -0.2291  0.3728  0.2415
 1479SOL    HW216071   0.609   1.060   3.662 -1.8493  1.1007 -1.6134
 1480SOL     OW16072   2.880   2.100   8.915  0.5344 -0.4009  0.4125
 1480SOL    HW116073   2.804   2.088   8.859  0.9601  0.4459 -0.3650
 1480SOL    HW216074   2.933   2.088   8.836 -1.4543 -0.2152 -0.9441
 1481SOL     OW16075   0.449   0.892  15.798 -0.6687 -0.0620 -0.0450
 1481SOL    HW116076   0.373   0.941  15.829 -1.6052 -3.4453  3.0530
 1481SOL    HW216077   0.523   0.932  15.844 -0.9706  1.0894 -0.5533
 1482SOL     OW16078   1.454   2.251   8.811  0.0739 -0.4236  0.1590
 1482SOL    HW116079   1.383   2.314   8.803  0.8145  0.2721 -1.0666
 1482SOL    HW216080   1.407   2.178   8.769 -0.0337 -0.8349  1.0042
 1483SOL     OW16081   4.454   3.591  13.144  0.1675 -0.2474 -0.0192
 1483SOL    HW116082   4.461   3.640  13.226  0.1107  1.9880 -1.3302
 1483SOL    HW216083   4.381   3.636  13.101  0.5376 -0.8300 -1.2445
 1484SOL     OW16084   1.905   2.379   8.898 -0.3177 -0.5037  0.3262
 1484SOL    HW116085   1.911   2.415   8.810  0.6481  1.8070  1.3243
 1484SOL    HW216086   1.966   2.433   8.948 -2.5028 -0.8952  3.4576
 1485SOL     OW16087   3.346   1.694   3.003  0.3145 -0.7119  0.6817
 1485SOL    HW116088   3.306   1.618   3.047 -0.9358  0.0583  0.8896
 1485SOL    HW216089   3.401   1.656   2.935 -0.5603  1.0467 -1.0131
 1486SOL     OW16090   3.484   4.594   4.584  0.0848 -0.3162  0.4538
 1486SOL    HW116091   3.573   4.561   4.581  0.5739  1.0716 -0.4911
 1486SOL    HW216092   3.432   4.514   4.586  1.0050 -0.9619 -2.2576
 1487SOL     OW16093   2.948   1.216   7.816  0.0350  0.2979  0.7828
 1487SOL    HW116094   2.896   1.261   7.883 -0.0091 -2.9584  2.9307
 1487SOL    HW216095   3.035   1.256   7.823 -0.9502  2.3656  1.3217
 1488SOL     OW16096   3.430   1.990  12.654 -0.6760 -0.1893 -1.0923
 1488SOL    HW116097   3.387   2.057  12.601 -0.5587 -0.1772 -1.1730
 1488SOL    HW216098   3.495   1.956  12.591  1.6520 -2.0911  2.3066
 1489SOL     OW16099   1.759   2.776  13.195  0.1484  0.4421 -0.1545
 1489SOL    HW116100   1.695   2.732  13.140  0.3198  0.0223 -0.0160
 1489SOL    HW216101   1.715   2.858  13.218 -0.5462  0.3083 -1.0364
 1490SOL     OW16102   3.900   2.486   8.519  0.0513  0.3363  0.2550
 1490SOL    HW116103   3.931   2.475   8.609  0.1863 -0.9303  0.0643
 1490SOL    HW216104   3.856   2.571   8.520  0.0594  0.3501 -0.6807
 1491SOL     OW16105   1.225   2.976   8.356  0.7143 -0.1162  0.2990
 1491SOL    HW116106   1.303   3.021   8.324  0.5880 -0.5954 -0.7002
 1491SOL    HW216107   1.266   2.913   8.414 -0.4098 -1.1248 -0.0036
 1492SOL     OW16108   0.827   2.051  17.524 -0.2574 -0.2686  0.2029
 1492SOL    HW116109   0.834   2.097  17.440 -1.1683 -1.8617 -0.7388
 1492SOL    HW216110   0.853   2.115  17.591 -0.6259 -1.2379  1.2613
 1493SOL     OW16111   2.908   0.549   7.237 -0.8291 -0.2989  0.0036
 1493SOL    HW116112   2.932   0.563   7.145  0.3350 -0.6395  0.2484
 1493SOL    HW216113   2.813   0.556   7.232 -0.9116 -0.0700  2.0911
 1494SOL     OW16114   0.748   0.340   5.144 -0.1907  0.4377  0.1063
 1494SOL    HW116115   0.677   0.389   5.184 -0.6177  0.5352 -0.7627
 1494SOL    HW216116   0.787   0.299   5.221  0.5856  1.0411  0.0294
 1495SOL     OW16117   3.594   3.209   2.956  0.1834 -0.6433 -0.3495
 1495SOL    HW116118   3.545   3.168   3.027  0.6602 -0.3008  0.1656
 1495SOL    HW216119   3.630   3.289   2.992  0.7043 -0.9857 -0.1073
 1496SOL     OW16120   0.137   2.206   0.608 -0.2361 -0.1608 -0.7858
 1496SOL    HW116121   0.141   2.288   0.559 -0.8006  0.5552  0.3511
 1496SOL    HW216122   0.111   2.245   0.692  1.3213  0.9547 -0.8247
 1497SOL     OW16123   0.681   2.643   3.067  0.1397 -0.1040 -0.2497
 1497SOL    HW116124   0.638   2.572   3.020 -0.7917  0.0760  0.3206
 1497SOL    HW216125   0.729   2.682   2.995 -0.5134  0.8103 -0.1986
 1498SOL     OW16126   3.169   0.005   5.054 -0.0837 -0.3737  0.4347
 1498SOL    HW116127   3.093   0.013   4.995 -0.2311  0.5497  0.7618
 1498SOL    HW216128   3.170   0.084   5.108  1.6582 -0.3032  0.2933
 1499SOL     OW16129   3.206   1.004   7.462 -0.2323 -0.0810  0.1718
 1499SOL    HW116130   3.140   0.991   7.530 -0.8024 -0.5389 -0.4637
 1499SOL    HW216131   3.288   0.986   7.508  1.8814  2.1791 -2.7351
 1500SOL     OW16132   0.442   3.169   3.536 -0.3294 -0.0705  0.6963
 1500SOL    HW116133   0.428   3.140   3.626  1.4682  0.1861  1.0478
 1500SOL    HW216134   0.466   3.261   3.547 -1.2713  0.2707 -0.0490
 1501SOL     OW16135   1.424   4.402   3.329 -0.3109 -0.2760 -0.6877
 1501SOL    HW116136   1.401   4.472   3.390  0.5594  0.3805 -1.1130
 1501SOL    HW216137   1.337   4.374   3.300 -1.8808  3.1365  0.7757
 1502SOL     OW16138   0.722   2.875  13.024  0.1324 -0.4842  0.0592
 1502SOL    HW116139   0.748   2.816  12.953  0.7084  0.2230 -0.3141
 1502SOL    HW216140   0.640   2.828  13.043  0.8509 -1.7313  0.0789
 1503SOL     OW16141   3.513   4.627  15.390  0.0634 -0.0629 -0.0078
 1503SOL    HW116142   3.561   4.577  15.455 -0.6582 -0.7216  0.0297
 1503SOL    HW216143   3.578   4.626  15.319  1.3591 -0.7814  1.1954
 1504SOL     OW16144   4.284   3.774   2.538 -0.3035 -0.5209 -0.3653
 1504SOL    HW116145   4.302   3.865   2.515 -0.5053 -0.4077 -0.0701
 1504SOL    HW216146   4.368   3.734   2.514  1.2359  1.4191  1.8077
 1505SOL     OW16147   1.680   1.659   7.004  0.2287 -0.4932  0.6026
 1505SOL    HW116148   1.667   1.569   6.973 -0.7326  0.5242 -1.9213
 1505SOL    HW216149   1.713   1.715   6.934  2.7449  0.8807  2.8904
 1506SOL     OW16150   0.480   0.160   5.746  0.7431  0.1013 -0.0931
 1506SOL    HW116151   0.521   0.141   5.830  0.8509  2.0309  0.2806
 1506SOL    HW216152   0.470   0.254   5.737 -1.6476 -0.2175 -0.9357
 1507SOL     OW16153   0.649   2.108   4.840  0.2437  0.4124  0.4580
 1507SOL    HW116154   0.637   2.180   4.777  2.4693 -0.3273 -0.8070
 1507SOL    HW216155   0.603   2.040   4.791 -1.4228  1.1708  0.9737
 1508SOL     OW16156   3.112   3.447   7.538  0.7341 -0.1343 -0.4339
 1508SOL    HW116157   3.079   3.512   7.601 -1.0962  0.9004 -2.4768
 1508SOL    HW216158   3.078   3.363   7.569  0.4633 -0.2866 -1.1558
 1509SOL     OW16159   3.984   4.004  13.384 -0.5902  0.3039 -0.3046
 1509SOL    HW116160   3.937   4.055  13.318  0.8563  2.8047  0.6201
 1509SOL    HW216161   4.001   3.929  13.326 -0.0602  1.9130 -2.2187
 1510SOL     OW16162   3.738   3.877   1.719  0.0824  0.3265  0.4631
 1510SOL    HW116163   3.809   3.936   1.694  0.0100 -0.0881 -0.7217
 1510SOL    HW216164   3.719   3.917   1.804 -1.5302  0.4632  0.0302
 1511SOL     OW16165   1.160   4.313   3.326 -0.6253  0.0064  0.3798
 1511SOL    HW116166   1.170   4.362   3.408  1.3151 -0.4090  0.4153
 1511SOL    HW216167   1.110   4.239   3.359 -0.3210 -1.2663 -2.0140
 1512SOL     OW16168   2.251   2.951   4.250  0.0174 -0.1501  0.1965
 1512SOL    HW116169   2.272   2.967   4.158 -2.3974  0.0416 -0.3256
 1512SOL    HW216170   2.330   2.901   4.272  0.1679 -0.4258 -0.9331
 1513SOL     OW16171   3.403   1.248   3.240 -0.0596  0.1947 -0.4772
 1513SOL    HW116172   3.353   1.266   3.160  0.9387 -1.3674 -1.4421
 1513SOL    HW216173   3.493   1.246   3.207 -0.1261 -0.1537 -0.6424
 1514SOL     OW16174   2.694   2.987   5.160 -0.6596 -0.2747  0.7380
 1514SOL    HW116175   2.708   3.002   5.067  1.9413 -2.5012  0.7614
 1514SOL    HW216176   2.730   3.071   5.189  0.3902 -1.3143  2.4309
 1515SOL     OW16177   0.521   1.702  14.665 -0.1282  0.5938  0.7029
 1515SOL    HW116178   0.525   1.708  14.760  2.1221 -1.8197  0.7652
 1515SOL    HW216179   0.490   1.615  14.640 -1.6101  1.7412 -1.4310
 1516SOL     OW16180   2.449   1.920  10.899 -0.6712  0.3044 -0.6020
 1516SOL    HW116181   2.440   1.835  10.940  3.5869 -0.0241 -0.3046
 1516SOL    HW216182   2.360   1.950  10.915 -1.0527 -0.4885 -1.2357
 1517SOL     OW16183   3.547   4.515   7.960 -0.4380 -0.8950  0.1008
 1517SOL    HW116184   3.559   4.601   7.921  0.3830 -0.8305  0.4805
 1517SOL    HW216185   3.520   4.456   7.890 -0.8409 -0.6238  0.0278
 1518SOL     OW16186   2.393   4.054   6.657 -0.4000 -0.4972 -0.3160
 1518SOL    HW116187   2.382   3.960   6.674 -0.5249 -0.2594  0.9397
 1518SOL    HW216188   2.330   4.054   6.586 -0.1648 -2.2542 -0.5305
 1519SOL     OW16189   1.653   0.515   1.887 -0.3787  0.4475  0.6854
 1519SOL    HW116190   1.636   0.542   1.977 -1.3021  1.7594  0.1193
 1519SOL    HW216191   1.728   0.455   1.889 -1.0863 -0.4554  0.0940
 1520SOL     OW16192   0.159   1.618   6.095  0.3176 -0.3267  0.2969
 1520SOL    HW116193   0.082   1.607   6.151 -1.1676  2.4971 -1.2007
 1520SOL    HW216194   0.125   1.573   6.018 -2.3599 -1.0878  1.9179
 1521SOL     OW16195   0.468   0.585  12.066 -0.3702  0.1214  0.6306
 1521SOL    HW116196   0.548   0.625  12.101 -1.1902  2.0805  0.2734
 1521SOL    HW216197   0.501   0.496  12.055  0.9342  0.5583  0.9359
 1522SOL     OW16198   3.743   4.029   2.692  0.1690 -0.0444  0.2832
 1522SOL    HW116199   3.817   4.003   2.637 -1.5098 -0.8035 -1.5976
 1522SOL    HW216200   3.671   4.024   2.629  0.1677 -3.0380  0.4946
 1523SOL     OW16201   0.378   2.283   2.920 -0.5504  0.2997  0.3172
 1523SOL    HW116202   0.320   2.331   2.979 -0.6456 -0.8390  1.1499
 1523SOL    HW216203   0.367   2.199   2.964  0.8322 -0.1086 -0.1124
 1524SOL     OW16204   4.391   2.320  14.222  1.1718 -0.0789 -0.2342
 1524SOL    HW116205   4.451   2.318  14.147  1.4528 -0.5476  0.0060
 1524SOL    HW216206   4.452   2.310  14.295 -0.7963  0.9367  1.5589
 1525SOL     OW16207   3.141   4.384   0.323 -0.5960 -0.3990  0.1696
 1525SOL    HW116208   3.052   4.349   0.323 -1.1474  1.0128  0.0969
 1525SOL    HW216209   3.153   4.431   0.405  0.3574  0.4119 -0.4385
 1526SOL     OW16210   4.729   0.751  16.213  0.1894  0.0960 -0.4768
 1526SOL    HW116211   0.006   0.689  16.142 -0.7074  0.7046 -1.2368
 1526SOL    HW216212   4.679   0.819  16.167 -0.6954  0.4479  1.0177
 1527SOL     OW16213   0.878   3.533   0.133 -0.5857 -0.7133  0.3779
 1527SOL    HW116214   0.934   3.497   0.202 -1.0515  0.0484  1.1571
 1527SOL    HW216215   0.928   3.528   0.051  0.2997  2.1429  0.7552
 1528SOL     OW16216   3.392   2.291   8.252 -0.4434  0.4809  0.6552
 1528SOL    HW116217   3.471   2.237   8.254 -0.0654  1.1127  2.2827
 1528SOL    HW216218   3.415   2.324   8.165 -1.5087 -2.4445 -0.7109
 1529SOL     OW16219   1.132   4.554  12.148  0.2866  0.4325  0.2521
 1529SOL    HW116220   1.226   4.546  12.131 -0.3223 -0.3811 -2.9472
 1529SOL    HW216221   1.112   4.460  12.139 -0.5135  0.4333  2.1534
 1530SOL     OW16222   0.197   0.306  10.132 -0.5011  0.6279 -0.6678
 1530SOL    HW116223   0.163   0.275  10.048  1.7809 -2.4080 -0.4651
 1530SOL    HW216224   0.126   0.271  10.185  0.4923 -0.7461 -0.2646
 1531SOL     OW16225   0.247   2.363   5.502  0.4939  0.5330  0.2007
 1531SOL    HW116226   0.159   2.325   5.507  1.5009 -1.5477  1.8342
 1531SOL    HW216227   0.257   2.419   5.425 -2.4015  0.2410 -0.3819
 1532SOL     OW16228   0.357   3.666   3.663 -0.3477 -0.0397  0.5074
 1532SOL    HW116229   0.303   3.612   3.722  0.0537 -0.0408  0.8739
 1532SOL    HW216230   0.306   3.747   3.665  1.8262  1.3296 -0.3199
 1533SOL     OW16231   2.209   2.319   5.451 -0.5360 -0.2377 -0.1860
 1533SOL    HW116232   2.117   2.337   5.430  0.0147  0.8514 -1.6004
 1533SOL    HW216233   2.215   2.355   5.540 -0.8516 -0.1080 -0.2166
 1534SOL     OW16234   0.339   1.811  17.387  0.4201 -0.4381  0.4995
 1534SOL    HW116235   0.432   1.828  17.371 -0.2662  2.3564 -0.4641
 1534SOL    HW216236   0.320   1.885  17.444 -1.0417  0.0919 -0.6886
 1535SOL     OW16237   1.532   3.289   6.992 -0.1934 -0.0233  0.5680
 1535SOL    HW116238   1.541   3.194   6.984 -0.9281 -0.1360  1.0633
 1535SOL    HW216239   1.447   3.293   7.037  0.7291  1.7719  2.1291
 1536SOL     OW16240   0.491   2.818   6.715 -0.3609 -0.0358  0.2704
 1536SOL    HW116241   0.463   2.799   6.804 -0.0160 -1.6350  0.0401
 1536SOL    HW216242   0.565   2.874   6.738  1.3355 -2.0605 -0.2667
 1537SOL     OW16243   1.018   2.230  14.892  0.7427 -0.0886 -0.2618
 1537SOL    HW116244   1.019   2.319  14.855 -2.2191 -0.2799 -0.7970
 1537SOL    HW216245   1.036   2.176  14.815  3.1430  0.5128 -0.1419
 1538SOL     OW16246   3.163   0.463   8.484 -0.4147 -0.3031  0.1348
 1538SOL    HW116247   3.242   0.447   8.433  0.2105 -0.1161  1.0449
 1538SOL    HW216248   3.184   0.437   8.574  2.1998  3.7868  0.6964
 1539SOL     OW16249   0.602   4.727   3.644  0.3280  0.0716 -0.1975
 1539SOL    HW116250   0.621   4.686   3.559 -1.7766  0.2471 -0.7468
 1539SOL    HW216251   0.640   4.662   3.703  0.6790 -0.6661 -1.2203
 1540SOL     OW16252   1.799   3.679   6.374 -0.2988  0.1878  0.0611
 1540SOL    HW116253   1.751   3.642   6.300 -1.1468  0.9973  0.1973
 1540SOL    HW216254   1.738   3.738   6.419  1.2315  0.9477  1.1219
 1541SOL     OW16255   2.407   1.152  17.353 -0.4058 -0.2690  0.4420
 1541SOL    HW116256   2.351   1.200  17.292 -1.7248  0.9764  2.6378
 1541SOL    HW216257   2.374   1.066  17.328 -1.0262  0.7865 -2.3539
 1542SOL     OW16258   3.182   1.421   1.045  0.3088  0.4166 -0.0373
 1542SOL    HW116259   3.172   1.436   0.951 -0.2124 -0.3142 -0.1015
 1542SOL    HW216260   3.211   1.330   1.054  0.3422  0.2289 -2.2468
 1543SOL     OW16261   2.040   2.533   8.059  0.1152  0.4155 -0.4092
 1543SOL    HW116262   1.973   2.524   8.127  1.1131  0.7383  0.6263
 1543SOL    HW216263   2.061   2.443   8.036 -1.6386 -0.3077  0.7734
 1544SOL     OW16264   1.508   2.705   8.952 -0.2598 -0.0227 -0.1617
 1544SOL    HW116265   1.425   2.675   8.988 -0.8233  0.2371 -1.2281
 1544SOL    HW216266   1.532   2.628   8.900  0.1651  1.8087 -2.6696
 1545SOL     OW16267   2.449   2.911   1.108 -0.3111 -0.4775  0.4882
 1545SOL    HW116268   2.462   2.872   1.022 -1.9889  0.7448 -0.3196
 1545SOL    HW216269   2.369   2.865   1.132  0.0948 -1.5270 -0.2101
 1546SOL     OW16270   4.600   4.659  16.147 -0.0422  0.5485  0.7458
 1546SOL    HW116271   4.630   4.727  16.207 -0.4770  0.0262  1.5525
 1546SOL    HW216272   4.518   4.700  16.121 -0.5792 -0.3176  1.1064
 1547SOL     OW16273   4.223   3.863   2.079 -0.2358  0.1896  0.6000
 1547SOL    HW116274   4.158   3.896   2.017 -0.0558 -0.2439  0.1715
 1547SOL    HW216275   4.177   3.875   2.161 -1.1400  1.5399 -0.1136
 1548SOL     OW16276   3.296   0.699   7.270  0.1872  0.1130 -0.0387
 1548SOL    HW116277   3.340   0.717   7.352  0.6222 -0.1913 -0.2043
 1548SOL    HW216278   3.365   0.650   7.223 -0.9682 -1.4570 -0.1210
 1549SOL     OW16279   2.578   3.401   5.125 -0.5834  0.1687 -0.2728
 1549SOL    HW116280   2.625   3.322   5.152 -1.5259 -0.4697 -0.5045
 1549SOL    HW216281   2.566   3.447   5.208 -2.1624 -0.6356 -0.0584
 1550SOL     OW16282   1.946   0.696  16.842 -0.0975 -0.0958 -0.3943
 1550SOL    HW116283   2.019   0.729  16.790  0.8816 -1.7464 -0.0607
 1550SOL    HW216284   1.923   0.621  16.788 -1.4031  0.4239 -0.5527
 1551SOL     OW16285   2.501   2.143  10.180 -0.2107 -0.0163 -0.0340
 1551SOL    HW116286   2.537   2.230  10.192 -3.3050  1.2262  0.2482
 1551SOL    HW216287   2.563   2.091  10.232  0.9671  1.3697 -0.0652
 1552SOL     OW16288   2.399   2.298  14.766  0.0915  0.3581 -0.3433
 1552SOL    HW116289   2.436   2.365  14.709 -0.6631 -0.0143 -1.2529
 1552SOL    HW216290   2.480   2.276  14.813  1.0925  0.3473 -2.0765
 1553SOL     OW16291   1.725   0.924   3.414  0.1391 -1.0407  0.2779
 1553SOL    HW116292   1.682   0.872   3.346 -0.9899 -0.9588  0.9408
 1553SOL    HW216293   1.790   0.860   3.444  0.6021 -1.7681 -2.2778
 1554SOL     OW16294   0.509   3.441   9.450 -0.5129  0.0358  0.5838
 1554SOL    HW116295   0.530   3.468   9.540 -3.7319  0.6642  1.1431
 1554SOL    HW216296   0.476   3.530   9.433  1.0393  0.7478  1.3017
 1555SOL     OW16297   3.419   1.023   6.498  0.5931  0.1382  0.0499
 1555SOL    HW116298   3.435   1.067   6.414  0.2896  0.3026  0.0783
 1555SOL    HW216299   3.397   1.092   6.561 -0.5701  0.4276 -0.6574
 1556SOL     OW16300   4.609   2.190   3.294 -0.5832  0.0932  0.5717
 1556SOL    HW116301   4.662   2.255   3.340  0.5217  0.9131 -1.8630
 1556SOL    HW216302   4.583   2.233   3.213 -0.6784 -1.8339 -0.4290
 1557SOL     OW16303   1.126   3.634  10.015  0.3464  0.2186 -0.0966
 1557SOL    HW116304   1.106   3.576   9.942  0.9079  0.0159 -0.0926
 1557SOL    HW216305   1.102   3.715   9.969  2.2513  0.8054 -0.0831
 1558SOL     OW16306   2.822   3.619  13.680 -0.1515 -0.1440  0.1606
 1558SOL    HW116307   2.854   3.529  13.688 -2.8127 -1.0536  0.6923
 1558SOL    HW216308   2.746   3.635  13.736 -0.7219  0.9524 -0.9259
 1559SOL     OW16309   1.784   4.282   9.469  0.0064  0.1462  0.3692
 1559SOL    HW116310   1.743   4.200   9.441 -0.3770  0.1714  0.8552
 1559SOL    HW216311   1.780   4.327   9.385  1.5501 -2.2983 -0.9971
 1560SOL     OW16312   0.211   2.382   1.005 -0.0860 -0.5022 -0.0229
 1560SOL    HW116313   0.127   2.395   1.048  0.6726  0.4125  1.1712
 1560SOL    HW216314   0.188   2.420   0.921 -0.1520  1.2246  0.7801
 1561SOL     OW16315   4.246   0.437   4.962  0.5880 -0.7523  0.0193
 1561SOL    HW116316   4.159   0.471   4.983  0.1037 -1.4543 -0.8594
 1561SOL    HW216317   4.300   0.501   5.009 -1.5243  1.9410 -1.2481
 1562SOL     OW16318   0.118   2.832   2.741 -0.0664 -0.1206 -0.8619
 1562SOL    HW116319   0.075   2.762   2.692 -0.1098  0.0913 -1.1300
 1562SOL    HW216320   0.120   2.901   2.675 -1.3107 -0.6985 -1.5089
 1563SOL     OW16321   3.261   3.683   4.338  0.1513  0.2832 -0.2397
 1563SOL    HW116322   3.180   3.728   4.364  0.5459  1.0304 -0.3009
 1563SOL    HW216323   3.315   3.758   4.314  0.5518  0.1472  0.2381
 1564SOL     OW16324   0.243   1.957   1.602  0.1516 -0.2686  0.2612
 1564SOL    HW116325   0.274   1.870   1.628  0.6024 -0.1185  0.2334
 1564SOL    HW216326   0.265   1.960   1.509  1.8937  0.8193  0.6965
 1565SOL     OW16327   4.700   3.190   5.570  0.0253 -0.3373  0.1590
 1565SOL    HW116328   4.698   3.144   5.654 -2.0671  1.1242  0.9099
 1565SOL    HW216329   0.005   3.133   5.508  0.3457  0.2285 -0.1312
 1566SOL     OW16330   0.313   4.213   3.866 -0.1300 -0.4607  0.0352
 1566SOL    HW116331   0.267   4.221   3.949  0.3403  3.1032 -0.0758
 1566SOL    HW216332   0.288   4.293   3.820 -0.6266 -1.2855 -1.1183
 1567SOL     OW16333   0.114   0.901   7.189  0.0300 -0.0116 -0.0695
 1567SOL    HW116334   0.208   0.888   7.203  0.0588  1.6806  1.3430
 1567SOL    HW216335   0.097   0.833   7.124  2.0077 -3.5181  3.0932
 1568SOL     OW16336   2.256   2.234   7.325 -0.1810  0.4145 -0.2081
 1568SOL    HW116337   2.260   2.141   7.349  0.4113  0.2802 -0.8529
 1568SOL    HW216338   2.280   2.238   7.233 -1.6814  3.1525 -0.4619
 1569SOL     OW16339   3.768   3.738   4.567 -0.2921 -0.0795 -0.3619
 1569SOL    HW116340   3.686   3.778   4.595  0.2412 -0.3901  1.6719
 1569SOL    HW216341   3.742   3.685   4.492 -0.3564 -0.0188 -0.3830
 1570SOL     OW16342   3.505   0.128   8.397  0.1702 -0.0883  0.5497
 1570SOL    HW116343   3.478   0.064   8.331  0.1138  1.1357 -0.6301
 1570SOL    HW216344   3.547   0.074   8.463 -0.3730 -0.7086  0.3853
 1571SOL     OW16345   3.262   1.035   4.625 -0.2156 -0.5018  0.1197
 1571SOL    HW116346   3.296   1.107   4.571 -0.5816 -0.3508  0.0900
 1571SOL    HW216347   3.250   0.973   4.553  0.0016  0.7332 -0.9740
 1572SOL     OW16348   3.917   0.282   4.730  0.1293 -0.4314 -0.0725
 1572SOL    HW116349   3.890   0.265   4.820 -1.3815  0.5293 -0.3349
 1572SOL    HW216350   3.832   0.263   4.690  1.1883 -2.3157 -1.4519
 1573SOL     OW16351   3.863   0.200  17.523  0.0406 -0.5809 -0.4688
 1573SOL    HW116352   3.778   0.158  17.537  0.4108 -1.6273 -1.4163
 1573SOL    HW216353   3.876   0.175  17.432  0.0675 -1.1035 -0.3175
 1574SOL     OW16354   2.362   1.578   0.182 -0.0959 -0.1159 -0.2991
 1574SOL    HW116355   2.374   1.545   0.271 -0.9636  1.3668  0.3809
 1574SOL    HW216356   2.325   1.503   0.135 -0.9986  0.1198  0.0221
 1575SOL     OW16357   1.769   4.012   1.316 -0.4160  0.3740  0.1801
 1575SOL    HW116358   1.838   3.979   1.259  1.3232 -0.3063  2.7071
 1575SOL    HW216359   1.722   4.073   1.259  1.6355 -0.0951 -2.0128
 1576SOL     OW16360   0.133   4.465  12.648 -0.0313  0.2024  0.3304
 1576SOL    HW116361   0.149   4.544  12.699  3.4391 -0.5853  0.4541
 1576SOL    HW216362   0.127   4.517  12.568 -2.8268 -0.7148 -0.0797
 1577SOL     OW16363   3.629   1.456   1.408 -0.3026  0.5484  0.1049
 1577SOL    HW116364   3.556   1.500   1.452 -0.9972  1.5165 -2.0462
 1577SOL    HW216365   3.618   1.362   1.425  0.3566  1.1042  3.6275
 1578SOL     OW16366   2.132   4.329   7.945  0.5804 -0.1430 -0.2909
 1578SOL    HW116367   2.196   4.259   7.955 -0.4126 -1.3387 -2.0859
 1578SOL    HW216368   2.191   4.403   7.931  1.3035 -0.0845  3.0999
 1579SOL     OW16369   4.256   1.418   8.097 -0.2310  0.2343  0.1587
 1579SOL    HW116370   4.263   1.493   8.156  2.9854 -0.3540  0.5111
 1579SOL    HW216371   4.333   1.364   8.116  0.2547  0.3420 -1.5649
 1580SOL     OW16372   2.743   3.243   5.260 -0.8926  0.3604 -0.0657
 1580SOL    HW116373   2.807   3.311   5.283 -2.9474  1.5742  2.1471
 1580SOL    HW216374   2.693   3.228   5.340  0.5089 -2.3968  0.2815
 1581SOL     OW16375   2.948   1.402   1.220 -0.6474  0.1243 -0.2946
 1581SOL    HW116376   2.939   1.310   1.245  2.5471  0.0160  0.4107
 1581SOL    HW216377   3.023   1.388   1.162  1.1691 -4.7503  3.2375
 1582SOL     OW16378   2.382   1.001   6.142  0.0729  0.0950  0.3660
 1582SOL    HW116379   2.360   1.021   6.233  1.4561  1.7007  0.3631
 1582SOL    HW216380   2.456   0.941   6.149  0.3798  0.1793 -2.1334
 1583SOL     OW16381   1.221   2.030   8.311 -0.0748 -0.1185  0.5564
 1583SOL    HW116382   1.133   2.012   8.276  1.1139  0.6082 -2.8124
 1583SOL    HW216383   1.273   2.037   8.231 -0.4786  1.0394  0.3838
 1584SOL     OW16384   1.551   4.357  13.378  0.3452 -0.1562  0.2520
 1584SOL    HW116385   1.534   4.449  13.360 -0.9093 -0.4073  0.1573
 1584SOL    HW216386   1.499   4.306  13.315  1.0333  0.5598 -0.8936
 1585SOL     OW16387   1.780   1.271   2.172  0.2249 -0.1123 -0.0171
 1585SOL    HW116388   1.847   1.218   2.214  0.1832 -1.9719 -2.2524
 1585SOL    HW216389   1.755   1.211   2.102  1.9054 -1.8085  0.8306
 1586SOL     OW16390   1.736   2.098   8.666 -0.2908  0.3473  0.1977
 1586SOL    HW116391   1.668   2.157   8.632  0.3167 -0.5134 -2.4642
 1586SOL    HW216392   1.818   2.137   8.638 -1.1200  1.9891  0.0361
 1587SOL     OW16393   0.676   3.943  10.969  0.0808 -0.1420 -0.0481
 1587SOL    HW116394   0.668   3.849  10.952  0.1561 -0.6688  2.7149
 1587SOL    HW216395   0.708   3.933  11.059 -1.6799 -1.4996  0.4442
 1588SOL     OW16396   1.689   2.345   9.381  0.0503 -0.3664 -0.8589
 1588SOL    HW116397   1.621   2.407   9.407  1.2470  0.6248 -0.1301
 1588SOL    HW216398   1.651   2.316   9.298 -1.3124 -1.6506  0.2218
 1589SOL     OW16399   1.540   3.935  12.033  0.3128  0.0924  0.9335
 1589SOL    HW116400   1.541   3.916  11.939 -1.2168  2.3072  0.4768
 1589SOL    HW216401   1.446   3.951  12.042 -0.2620 -3.0112  0.2794
 1590SOL     OW16402   3.690   3.610   4.318  0.1802 -0.1551  0.3596
 1590SOL    HW116403   3.630   3.567   4.257 -1.5063  0.0988  1.8385
 1590SOL    HW216404   3.727   3.683   4.269 -1.4078  0.3539 -0.0740
 1591SOL     OW16405   3.091   3.489   6.550  0.4765 -0.1364  0.2435
 1591SOL    HW116406   3.062   3.411   6.503  3.0168 -0.3174 -1.0550
 1591SOL    HW216407   3.059   3.548   6.483 -2.3477 -0.1961  1.5528
 1592SOL     OW16408   0.177   2.818  10.992  0.0537  0.2697  0.1173
 1592SOL    HW116409   0.193   2.912  10.992  1.0796  0.1020  1.2070
 1592SOL    HW216410   0.122   2.808  10.914 -0.9721 -1.1084  1.0211
 1593SOL     OW16411   4.042   1.889   6.142 -0.4076  0.4482  0.5217
 1593SOL    HW116412   3.992   1.833   6.082  2.5520 -0.4388 -1.1266
 1593SOL    HW216413   4.007   1.858   6.225 -0.0533 -1.9470 -0.2040
 1594SOL     OW16414   1.215   4.627   6.678 -0.5192 -0.2133 -0.7049
 1594SOL    HW116415   1.188   4.592   6.762 -0.1565 -2.2841 -1.4447
 1594SOL    HW216416   1.253   4.543   6.649  0.5593  1.1002 -3.1600
 1595SOL     OW16417   0.226   3.089   9.616  0.0515 -0.2334 -0.1791
 1595SOL    HW116418   0.290   3.038   9.665  1.2809  0.7884 -0.7153
 1595SOL    HW216419   0.274   3.124   9.541  1.1199  2.0176  1.5600
 1596SOL     OW16420   2.414   4.684  13.376  0.1465 -0.1221  0.3813
 1596SOL    HW116421   2.450   4.598  13.356 -0.4812 -0.1032 -0.7804
 1596SOL    HW216422   2.370   4.664  13.459 -0.5132 -0.1560  0.0206
 1597SOL     OW16423   0.130   0.542   3.574  0.3077  0.4036 -0.2644
 1597SOL    HW116424   0.161   0.608   3.512  1.7119 -0.4082 -0.4162
 1597SOL    HW216425   0.168   0.463   3.536  1.5490  1.0675 -0.4007
 1598SOL     OW16426   1.787   4.247   3.262  0.1403 -0.1780  0.0749
 1598SOL    HW116427   1.708   4.197   3.241  0.2563  0.5045 -1.9420
 1598SOL    HW216428   1.831   4.183   3.318  0.7588  1.6080  1.6414
 1599SOL     OW16429   2.361   1.455   3.130 -0.4313 -0.1449 -0.0695
 1599SOL    HW116430   2.410   1.493   3.057  0.1228  0.6571  0.7251
 1599SOL    HW216431   2.359   1.530   3.189  0.1990 -2.3419  2.7726
 1600SOL     OW16432   2.381   3.906   5.106 -0.1850  0.1729  0.2556
 1600SOL    HW116433   2.465   3.860   5.109  1.0447  2.3958 -0.2656
 1600SOL    HW216434   2.354   3.894   5.197 -1.9600 -1.6760 -0.5002
 1601SOL     OW16435   3.944   3.212   4.280  0.2810  0.3594  0.1864
 1601SOL    HW116436   3.938   3.306   4.299  1.9915  0.2238  1.2866
 1601SOL    HW216437   3.899   3.177   4.356 -0.4703 -1.7025 -1.2168
 1602SOL     OW16438   3.555   4.002  17.481  0.4672  0.5890  0.4523
 1602SOL    HW116439   3.640   3.985  17.439  1.1514 -1.7346  2.7727
 1602SOL    HW216440   3.510   4.055  17.415 -1.1941  0.2375  1.3269
 1603SOL     OW16441   4.125   1.448   0.738  0.1727  0.2220 -0.5614
 1603SOL    HW116442   4.180   1.449   0.660  0.4247 -1.2234 -0.4154
 1603SOL    HW216443   4.058   1.388   0.704  0.6563 -0.7174  0.1664
 1604SOL     OW16444   4.482   2.756  12.138  0.0148 -0.7778  0.4770
 1604SOL    HW116445   4.500   2.810  12.061  1.9632  0.8231  2.0560
 1604SOL    HW216446   4.406   2.709  12.103 -0.2038  0.4760 -0.7731
 1605SOL     OW16447   3.311   4.252   2.239  0.6026 -0.7182 -0.0582
 1605SOL    HW116448   3.294   4.265   2.332 -0.0303  1.1211 -0.4209
 1605SOL    HW216449   3.251   4.179   2.222  0.2112  0.0480 -2.0100
 1606SOL     OW16450   3.389   3.105   8.770  0.2807 -0.2222  0.7151
 1606SOL    HW116451   3.479   3.078   8.749 -0.5118 -0.5801 -2.2571
 1606SOL    HW216452   3.377   3.090   8.864  0.0831  1.2637  0.9151
 1607SOL     OW16453   1.657   2.216   8.337  0.2677 -0.0959 -0.3719
 1607SOL    HW116454   1.691   2.223   8.248 -0.3256  0.7496 -0.5309
 1607SOL    HW216455   1.676   2.123   8.351  0.9199  0.1083  0.1244
 1608SOL     OW16456   1.243   3.028   5.631 -0.3373  0.3924  0.0297
 1608SOL    HW116457   1.289   3.110   5.612  1.3729 -0.5374  0.2064
 1608SOL    HW216458   1.149   3.043   5.624 -0.3075 -0.0932 -1.3795
 1609SOL     OW16459   0.954   0.889   7.345  0.2730  0.2564 -0.0723
 1609SOL    HW116460   0.881   0.942   7.377  1.3217 -0.8239  4.1021
 1609SOL    HW216461   0.918   0.800   7.350 -1.6258  1.0954  1.2899
 1610SOL     OW16462   2.051   0.285  13.126  0.7461 -0.0385  0.2197
 1610SOL    HW116463   2.021   0.194  13.131 -2.3967  1.1024  1.7371
 1610SOL    HW216464   2.137   0.278  13.168 -0.5094 -0.4991  2.7439
 1611SOL     OW16465   3.586   0.437   3.748  0.8009 -0.2918  0.0036
 1611SOL    HW116466   3.645   0.362   3.740  0.1326 -0.8501  0.3032
 1611SOL    HW216467   3.621   0.467   3.832 -0.5187  2.0292 -0.2675
 1612SOL     OW16468   0.694   0.547   5.760 -0.7220 -0.6227  0.0925
 1612SOL    HW116469   0.756   0.546   5.833  1.1685 -1.9520 -1.5176
 1612SOL    HW216470   0.672   0.639   5.775  0.6333  0.0439 -2.0193
 1613SOL     OW16471   4.275   0.656   1.418 -0.0011  0.1270 -0.0372
 1613SOL    HW116472   4.224   0.636   1.340 -1.0163  1.6269  0.2522
 1613SOL    HW216473   4.286   0.572   1.464  2.3512 -0.4247 -1.5980
 1614SOL     OW16474   3.904   1.766  14.576 -0.3900  0.3498 -0.3810
 1614SOL    HW116475   3.844   1.691  14.573 -0.1194  0.1898 -1.9275
 1614SOL    HW216476   3.981   1.722  14.540 -0.3031 -0.0236  0.2532
 1615SOL     OW16477   1.346   3.575  13.787 -0.3236  0.2740 -0.3623
 1615SOL    HW116478   1.379   3.531  13.709 -2.7003  0.1395 -1.2975
 1615SOL    HW216479   1.260   3.599  13.752  0.0410  0.0243 -1.4237
 1616SOL     OW16480   2.207   0.384   6.139  0.0162  0.0458 -0.0463
 1616SOL    HW116481   2.217   0.306   6.085  1.5469  1.9535 -2.4665
 1616SOL    HW216482   2.122   0.411   6.105 -1.1573 -0.2570  2.6097
 1617SOL     OW16483   1.070   0.328   3.397  0.1081 -0.1657 -0.3142
 1617SOL    HW116484   1.061   0.253   3.338  1.4157 -2.0806  1.8982
 1617SOL    HW216485   1.141   0.380   3.360  1.7352 -2.1455  0.0213
 1618SOL     OW16486   4.257   2.431  17.227 -0.3734  0.9865  0.0584
 1618SOL    HW116487   4.209   2.496  17.176 -0.1696 -0.5901 -2.1483
 1618SOL    HW216488   4.347   2.447  17.197  0.6642 -1.2764  2.0320
 1619SOL     OW16489   4.709   3.235  13.341  0.4024 -0.0484 -0.1074
 1619SOL    HW116490   0.006   3.262  13.425 -0.7088 -1.9470  0.9707
 1619SOL    HW216491   0.001   3.303  13.282 -3.4808  1.7007 -0.2080
 1620SOL     OW16492   2.930   0.664   3.890 -0.4872 -0.1967  0.2697
 1620SOL    HW116493   2.856   0.698   3.940  0.1606  0.7455  0.5878
 1620SOL    HW216494   2.993   0.733   3.866  0.8972 -0.9210  1.8628
 1621SOL     OW16495   4.509   2.964   2.124  0.1796  0.7029 -0.1627
 1621SOL    HW116496   4.603   2.954   2.135 -0.3095 -1.8961  1.6187
 1621SOL    HW216497   4.510   2.943   2.030 -1.9260  0.3514 -0.1222
 1622SOL     OW16498   4.530   3.004  10.934 -0.4031  0.2708  0.0521
 1622SOL    HW116499   4.461   2.954  10.891 -0.1329  0.7307 -0.9206
 1622SOL    HW216500   4.544   3.078  10.875 -2.2499 -1.2758 -2.3150
 1623SOL     OW16501   0.934   2.673   7.131  0.2473  0.3231 -0.2116
 1623SOL    HW116502   0.952   2.614   7.204 -1.0500  0.1804 -0.0249
 1623SOL    HW216503   0.861   2.631   7.085 -0.2798 -0.9558  1.8092
 1624SOL     OW16504   0.160   0.541   3.145  0.6554  0.3745  0.2552
 1624SOL    HW116505   0.134   0.519   3.056 -3.7858  3.6200  0.7805
 1624SOL    HW216506   0.222   0.474   3.173 -0.7511 -0.4200  1.4377
 1625SOL     OW16507   0.844   2.415  12.382 -0.4862 -0.3215  0.3898
 1625SOL    HW116508   0.763   2.427  12.331 -0.5858  1.1846  0.8990
 1625SOL    HW216509   0.899   2.490  12.362 -0.2285 -0.1509  1.7820
 1626SOL     OW16510   4.368   3.384  10.330  0.1930 -0.5769  0.9245
 1626SOL    HW116511   4.424   3.364  10.255 -1.0046  1.2556 -0.4558
 1626SOL    HW216512   4.300   3.439  10.291  2.0248  0.9428 -0.1048
 1627SOL     OW16513   3.349   4.152   2.829  0.0490 -0.1546 -0.2535
 1627SOL    HW116514   3.294   4.228   2.848  0.9025  0.5142 -0.4635
 1627SOL    HW216515   3.294   4.086   2.872  0.8702  0.2536  1.4409
 1628SOL     OW16516   4.278   3.747  12.947 -0.2361  0.0274 -0.6551
 1628SOL    HW116517   4.204   3.720  12.893 -0.7020 -0.9008  0.4516
 1628SOL    HW216518   4.236   3.813  13.002  1.6418 -0.3709  1.2768
 1629SOL     OW16519   0.212   2.763   7.418 -0.0420  0.2694  0.7340
 1629SOL    HW116520   0.129   2.795   7.383  1.2661  3.2298  0.2588
 1629SOL    HW216521   0.277   2.819   7.376  1.1001 -1.4378  0.2337
 1630SOL     OW16522   2.837   3.904   2.776  0.0792  0.2704 -0.6540
 1630SOL    HW116523   2.746   3.891   2.804  0.2421  1.6986  0.5638
 1630SOL    HW216524   2.836   3.868   2.688  0.2237  0.8402 -0.8926
 1631SOL     OW16525   1.388   2.154   4.970  0.1175  0.2696  0.0565
 1631SOL    HW116526   1.476   2.190   4.961  0.7799 -1.7458 -1.5171
 1631SOL    HW216527   1.410   2.065   4.998 -0.1748  0.3251  0.4600
 1632SOL     OW16528   2.393   0.755   8.264 -0.0204 -0.5148 -0.0355
 1632SOL    HW116529   2.437   0.749   8.348  0.8163 -0.3044 -0.4583
 1632SOL    HW216530   2.467   0.731   8.208  0.8086 -2.0387  1.7328
 1633SOL     OW16531   2.990   0.550   6.549 -1.0454  0.1308 -0.3528
 1633SOL    HW116532   2.908   0.516   6.585  0.0887  0.9140  2.9749
 1633SOL    HW216533   3.042   0.565   6.627  1.4066 -1.2438 -1.7308
 1634SOL     OW16534   3.266   2.711   5.372 -0.1270 -0.2854 -0.2488
 1634SOL    HW116535   3.240   2.621   5.389  0.1824 -0.0842  1.2957
 1634SOL    HW216536   3.270   2.744   5.462 -2.1817 -0.1084 -0.2248
 1635SOL     OW16537   2.411   1.702  17.110  0.1407 -0.0251 -0.5166
 1635SOL    HW116538   2.465   1.660  17.177  1.9849  0.1938 -1.8964
 1635SOL    HW216539   2.442   1.793  17.111 -0.6135  0.2308  0.1564
 1636SOL     OW16540   3.356   0.577   6.548  0.4149 -0.0771 -0.1423
 1636SOL    HW116541   3.362   0.646   6.614 -0.3826  0.1691 -0.3355
 1636SOL    HW216542   3.291   0.619   6.492 -1.6589 -1.1744  1.4646
 1637SOL     OW16543   1.310   4.405   1.896 -0.1120  0.0885 -0.4724
 1637SOL    HW116544   1.262   4.322   1.895 -0.4168  0.2916 -2.2214
 1637SOL    HW216545   1.229   4.455   1.908 -1.4209 -2.3485  0.8965
 1638SOL     OW16546   2.643   2.983   6.584  0.6019 -0.1781 -0.1578
 1638SOL    HW116547   2.639   2.939   6.669  1.8876  2.3628  1.2362
 1638SOL    HW216548   2.692   2.922   6.530  1.3433 -0.9075  1.3307
 1639SOL     OW16549   1.426   2.863  17.681  0.2881  0.2905 -0.1667
 1639SOL    HW116550   1.447   2.772  17.701  0.0340  0.2926  0.1189
 1639SOL    HW216551   1.332   2.850  17.688  0.6517 -2.3335 -0.2134
 1640SOL     OW16552   4.261   4.030   8.268  0.5346 -0.1671  0.3627
 1640SOL    HW116553   4.258   4.077   8.351  0.5365 -1.2675  0.9889
 1640SOL    HW216554   4.247   3.940   8.297 -0.0061 -0.0331  0.5035
 1641SOL     OW16555   1.710   4.077   7.675  0.1442  0.0644  1.1490
 1641SOL    HW116556   1.788   4.067   7.729  1.8038 -0.4495 -1.3665
 1641SOL    HW216557   1.705   3.987   7.643 -2.2128 -0.4945  3.0409
 1642SOL     OW16558   0.460   4.500   1.829 -0.1243 -0.1164 -0.0962
 1642SOL    HW116559   0.387   4.511   1.768  1.0399 -0.7747 -1.6128
 1642SOL    HW216560   0.432   4.547   1.908 -0.1867 -1.7218  0.8391
 1643SOL     OW16561   3.446   2.044   8.370 -0.5540 -0.0604  0.2004
 1643SOL    HW116562   3.358   2.075   8.393  0.4123  1.9270  1.1388
 1643SOL    HW216563   3.481   2.007   8.451 -1.0189 -1.8097 -0.3844
 1644SOL     OW16564   2.090   3.320   1.875  0.2140 -0.4193 -0.3481
 1644SOL    HW116565   2.025   3.367   1.824  0.7047 -1.2625 -1.7321
 1644SOL    HW216566   2.171   3.344   1.831  1.7103  0.5769  2.9221
 1645SOL     OW16567   0.834   1.040  14.715  0.2793 -0.3616 -0.2874
 1645SOL    HW116568   0.852   1.083  14.799 -0.2172 -1.8296  0.5865
 1645SOL    HW216569   0.845   0.946  14.733  0.9637 -0.1085  0.6147
 1646SOL     OW16570   1.510   4.698   4.476  0.2129  0.0668 -0.1099
 1646SOL    HW116571   1.478   0.040   4.514  0.9882  0.1963  0.2483
 1646SOL    HW216572   1.435   4.643   4.500 -0.3180  0.2128 -1.3954
 1647SOL     OW16573   2.414   3.952   3.963  0.3252  0.4607 -0.4779
 1647SOL    HW116574   2.498   3.981   3.998 -0.1306  1.6580 -0.3721
 1647SOL    HW216575   2.360   3.984   4.036  0.8562  1.4282 -0.5180
 1648SOL     OW16576   0.497   0.407   8.300  0.0608 -0.1120  0.1452
 1648SOL    HW116577   0.517   0.321   8.262  0.6628  0.9778 -1.9875
 1648SOL    HW216578   0.416   0.382   8.345 -0.4689  0.7662 -0.3090
 1649SOL     OW16579   4.473   4.043   3.332  0.3521 -1.0653 -0.2536
 1649SOL    HW116580   4.525   3.990   3.271 -1.7007 -0.2756 -2.7196
 1649SOL    HW216581   4.389   4.032   3.287  0.0789 -0.2538  0.0509
 1650SOL     OW16582   1.358   4.606   9.856  0.3030 -0.5505 -0.7000
 1650SOL    HW116583   1.384   4.690   9.895 -1.4308 -0.5852  0.5806
 1650SOL    HW216584   1.423   4.555   9.903 -0.6950 -1.4434 -0.2793
 1651SOL     OW16585   2.867   1.069  15.350 -0.5340  0.1507 -0.1757
 1651SOL    HW116586   2.852   1.138  15.286  1.3642  1.8620  1.2160
 1651SOL    HW216587   2.867   0.990  15.296  1.9545  0.3784 -0.4880
 1652SOL     OW16588   4.612   2.436   8.980 -0.1736 -0.3557 -0.3473
 1652SOL    HW116589   4.552   2.420   9.053 -2.7072  0.7364 -2.1724
 1652SOL    HW216590   4.692   2.402   9.020  0.2245  1.1552  0.1632
 1653SOL     OW16591   0.192   4.296  11.336  0.2390 -0.4604  0.0891
 1653SOL    HW116592   0.148   4.229  11.389  3.3352 -1.4238  1.4031
 1653SOL    HW216593   0.230   4.360  11.396  1.6122 -0.3643 -0.8941
 1654SOL     OW16594   4.132   4.561  11.426  0.5403  0.6253  0.0322
 1654SOL    HW116595   4.196   4.501  11.388 -0.2898 -0.8584  0.9229
 1654SOL    HW216596   4.189   4.620  11.475  1.6444 -1.4736  1.2629
 1655SOL     OW16597   1.666   4.287   2.957 -0.4893 -0.8127  0.4929
 1655SOL    HW116598   1.702   4.288   2.868  0.9802  4.5143  1.1468
 1655SOL    HW216599   1.735   4.237   3.002  2.8252  1.8529 -1.6814
 1656SOL     OW16600   0.106   0.645   5.349  0.1366  0.2047 -0.2607
 1656SOL    HW116601   0.094   0.562   5.302  1.7296 -0.3088  0.2322
 1656SOL    HW216602   0.185   0.673   5.302  1.4863  1.6500  2.8814
 1657SOL     OW16603   0.085   1.037   6.485 -0.0394  0.0701 -0.0836
 1657SOL    HW116604   0.096   1.108   6.422  1.8965 -0.0563  0.1244
 1657SOL    HW216605   0.171   1.046   6.525  1.4666 -0.7396 -3.1564
 1658SOL     OW16606   0.733   0.824  16.169  0.5990  0.0313 -0.2728
 1658SOL    HW116607   0.805   0.886  16.159  0.6548  0.4748  2.8893
 1658SOL    HW216608   0.665   0.871  16.121 -0.5582 -0.8329  0.5248
 1659SOL     OW16609   2.993   0.367   1.096  0.4768 -0.1802  0.6993
 1659SOL    HW116610   3.079   0.343   1.132  2.0332  0.9027 -2.2971
 1659SOL    HW216611   2.973   0.435   1.161  2.2862 -0.8383  1.9583
 1660SOL     OW16612   4.188   4.567  16.048 -0.1321 -0.5136  0.5339
 1660SOL    HW116613   4.261   4.629  16.050  0.2104 -0.8907 -0.4170
 1660SOL    HW216614   4.231   4.499  15.997  0.5581  2.0542 -2.3200
 1661SOL     OW16615   0.105   2.674  12.203 -0.3295 -0.7829 -0.4716
 1661SOL    HW116616   0.059   2.609  12.150  0.6366 -1.6296 -0.2730
 1661SOL    HW216617   0.043   2.690  12.275 -0.3298  0.2004 -0.6864
 1662SOL     OW16618   1.464   1.768   8.089 -0.3859 -0.4339  0.1370
 1662SOL    HW116619   1.440   1.716   8.012 -0.7123 -0.4580  0.2547
 1662SOL    HW216620   1.556   1.786   8.070 -0.1859  1.6356  3.1388
 1663SOL     OW16621   2.828   4.123   8.162  0.3688  0.8452 -0.0192
 1663SOL    HW116622   2.777   4.042   8.167 -0.0086  1.0015 -1.2767
 1663SOL    HW216623   2.874   4.123   8.246  1.4697  2.3063 -0.6144
 1664SOL     OW16624   0.861   0.341  13.462 -0.1306 -0.3805 -0.4202
 1664SOL    HW116625   0.855   0.246  13.472  1.0167 -0.3710  0.4183
 1664SOL    HW216626   0.894   0.345  13.373 -1.5570 -1.9030 -1.0085
 1665SOL     OW16627   4.423   3.190   6.770 -0.4980 -0.2579  0.0448
 1665SOL    HW116628   4.481   3.162   6.841 -0.4168  0.0158  0.0830
 1665SOL    HW216629   4.347   3.239   6.800  0.6701  0.8700  1.1332
 1666SOL     OW16630   2.518   0.851   7.419  0.3298  0.0730 -0.1488
 1666SOL    HW116631   2.466   0.792   7.364  2.3116 -1.9990  0.2062
 1666SOL    HW216632   2.587   0.801   7.463  2.3564  1.9491 -1.2035
 1667SOL     OW16633   1.896   1.200   9.043 -0.1369  0.0195 -0.7958
 1667SOL    HW116634   1.885   1.249   9.124  1.5487 -0.5952 -0.1817
 1667SOL    HW216635   1.841   1.263   8.996 -0.5672  1.1313  1.2094
 1668SOL     OW16636   1.471   4.175   4.792  0.8739 -0.1975 -0.3746
 1668SOL    HW116637   1.378   4.192   4.777  0.7481 -0.4398  0.1388
 1668SOL    HW216638   1.510   4.198   4.708  2.3297  0.8816  0.6161
 1669SOL     OW16639   1.517   1.689   2.447 -0.1635  0.5466  0.7282
 1669SOL    HW116640   1.483   1.642   2.371  0.7039  2.2909 -0.7209
 1669SOL    HW216641   1.568   1.617   2.485 -0.1252  1.0798  1.6851
 1670SOL     OW16642   1.123   0.969   8.235 -0.0800 -0.3845  0.4897
 1670SOL    HW116643   1.065   1.037   8.200  0.7799 -0.3398 -0.8850
 1670SOL    HW216644   1.110   0.968   8.330 -0.9868 -0.5222  0.3614
 1671SOL     OW16645   1.213   2.096   6.298  0.0889 -0.0954  0.0467
 1671SOL    HW116646   1.142   2.082   6.235 -0.2466  1.2582  0.1276
 1671SOL    HW216647   1.241   2.184   6.274  0.7848 -0.5968 -0.9889
 1672SOL     OW16648   1.815   1.109   4.382 -0.0820  0.2208  0.2396
 1672SOL    HW116649   1.772   1.026   4.402 -1.8543  1.1782  0.3760
 1672SOL    HW216650   1.784   1.158   4.458 -0.2790  4.1046 -2.3327
 1673SOL     OW16651   1.175   2.472   3.924  0.6426 -0.1758 -0.1207
 1673SOL    HW116652   1.238   2.399   3.920  0.6045 -0.2799  1.2427
 1673SOL    HW216653   1.204   2.519   3.846 -0.6156 -1.4853 -1.3748
 1674SOL     OW16654   2.030   1.388  15.179 -0.1592 -0.8059  0.0126
 1674SOL    HW116655   2.074   1.368  15.262  1.1149 -0.1955 -0.5263
 1674SOL    HW216656   1.994   1.476  15.189 -1.0067 -1.2477  0.9411
 1675SOL     OW16657   4.177   0.678   4.761 -0.1374  0.1263 -0.1793
 1675SOL    HW116658   4.224   0.705   4.840  1.7641 -0.2450 -1.1915
 1675SOL    HW216659   4.083   0.673   4.779 -0.2382  0.0571 -0.7144
 1676SOL     OW16660   4.163   0.226  13.657  0.5174 -0.2856  0.1709
 1676SOL    HW116661   4.145   0.152  13.600  1.7861  0.6368 -1.4440
 1676SOL    HW216662   4.128   0.295  13.601 -1.0964  0.7602  2.5103
 1677SOL     OW16663   0.511   3.801   9.987  0.4468  0.0157  0.2510
 1677SOL    HW116664   0.474   3.803   9.899  2.3275 -2.6255 -0.6023
 1677SOL    HW216665   0.445   3.860  10.023  0.5971 -0.5126  1.3910
 1678SOL     OW16666   2.400   1.454   7.987 -0.2935  0.2225  0.4902
 1678SOL    HW116667   2.371   1.363   7.988  0.3357  0.0044 -4.0718
 1678SOL    HW216668   2.494   1.445   7.978 -0.6002 -0.6708 -1.7692
 1679SOL     OW16669   2.396   0.462   0.703  0.4007 -0.5132 -0.0978
 1679SOL    HW116670   2.490   0.463   0.687  0.7465  0.6448  1.9114
 1679SOL    HW216671   2.393   0.556   0.722 -0.8514 -0.8608  1.5059
 1680SOL     OW16672   4.705   4.089   2.884 -0.6442 -0.7119  0.1748
 1680SOL    HW116673   4.725   4.180   2.908 -0.6353 -0.6533 -0.0586
 1680SOL    HW216674   4.610   4.087   2.896 -0.6951  0.0437 -0.1034
 1681SOL     OW16675   1.865   1.290  11.130 -0.1309  0.3580  0.2718
 1681SOL    HW116676   1.931   1.225  11.156  1.5306  0.9710 -2.3181
 1681SOL    HW216677   1.855   1.270  11.037  0.1992  2.4459 -0.2010
 1682SOL     OW16678   4.523   2.823   3.705  0.1240 -0.4367  0.3418
 1682SOL    HW116679   4.527   2.856   3.795 -0.3268  0.5089  0.0130
 1682SOL    HW216680   4.615   2.805   3.686  0.3735  2.3028 -1.0958
 1683SOL     OW16681   2.764   2.150   5.859  0.3286  0.1875 -0.6166
 1683SOL    HW116682   2.759   2.071   5.914  2.1095 -1.0238 -2.1953
 1683SOL    HW216683   2.711   2.125   5.783  1.7917  0.3767 -1.6976
 1684SOL     OW16684   2.864   0.429   9.608  0.5984  0.4279  0.2688
 1684SOL    HW116685   2.864   0.467   9.520 -0.9965  1.9376  0.9365
 1684SOL    HW216686   2.788   0.466   9.653 -0.4252 -1.2351 -0.0956
 1685SOL     OW16687   1.847   1.150   2.714  0.2739  0.9075  0.2128
 1685SOL    HW116688   1.837   1.109   2.799 -2.7230  1.5907  0.1709
 1685SOL    HW216689   1.835   1.241   2.741 -1.3386  1.0453 -0.9470
 1686SOL     OW16690   4.271   0.019   9.499  0.1628  0.3966  0.4907
 1686SOL    HW116691   4.356   4.738   9.537 -0.3147 -0.8545  0.8455
 1686SOL    HW216692   4.246   0.086   9.563  0.8867  0.1539  1.0234
 1687SOL     OW16693   3.331   1.506   1.283  0.4395  0.0152  0.0616
 1687SOL    HW116694   3.381   1.588   1.291 -0.8099  1.0245 -2.4654
 1687SOL    HW216695   3.284   1.514   1.200  1.3566 -2.3632 -0.6864
 1688SOL     OW16696   3.615   2.217   3.007  0.1322 -0.0961 -0.1197
 1688SOL    HW116697   3.539   2.261   2.969 -0.0030  0.8790  1.2587
 1688SOL    HW216698   3.634   2.279   3.078  1.0011 -0.0958 -0.3489
 1689SOL     OW16699   0.516   2.295  11.907 -0.8829  0.3444  0.0722
 1689SOL    HW116700   0.555   2.283  11.820  1.9712 -2.5892  1.7539
 1689SOL    HW216701   0.595   2.311  11.959 -1.5265  0.4282  1.0195
 1690SOL     OW16702   0.215   1.467   5.431 -0.7824  0.5436 -0.4970
 1690SOL    HW116703   0.177   1.450   5.517  0.8236 -0.2041  0.0673
 1690SOL    HW216704   0.234   1.561   5.438 -1.3409  0.6120  0.1489
 1691SOL     OW16705   0.076   2.310  11.638 -0.2941  0.8059  0.5097
 1691SOL    HW116706   0.138   2.245  11.606  1.0853  1.0951  2.5977
 1691SOL    HW216707   0.120   2.389  11.605  0.4592  0.5215  0.8197
 1692SOL     OW16708   4.025   3.011   0.330  0.6555  0.5042 -0.4842
 1692SOL    HW116709   3.985   2.938   0.377  2.9305 -0.2166  0.3088
 1692SOL    HW216710   4.095   2.970   0.280  0.7094 -0.5834  0.4873
 1693SOL     OW16711   2.763   2.737  11.047  0.3808  0.5204  0.3843
 1693SOL    HW116712   2.853   2.744  11.014  0.3326  3.0994  0.8119
 1693SOL    HW216713   2.768   2.779  11.133  1.5323  1.7611 -0.2796
 1694SOL     OW16714   3.958   2.185   8.404  0.9307  0.0120  0.1435
 1694SOL    HW116715   3.941   2.146   8.319 -0.0104  0.6144  0.0520
 1694SOL    HW216716   3.956   2.279   8.386 -1.3385  0.3948  2.2815
 1695SOL     OW16717   1.379   1.439   3.879  0.3548 -0.2876  0.0083
 1695SOL    HW116718   1.407   1.526   3.850  0.9802 -0.7957 -0.9082
 1695SOL    HW216719   1.377   1.460   3.972  0.1424  1.8188 -0.4700
 1696SOL     OW16720   0.018   0.650   1.911 -0.2338 -0.4088 -0.1027
 1696SOL    HW116721   4.665   0.642   1.891 -0.5868  3.3215  0.1604
 1696SOL    HW216722   0.059   0.618   1.831 -0.2363 -0.4313 -0.0951
 1697SOL     OW16723   3.958   3.095   7.702 -0.0928 -0.6176 -0.0919
 1697SOL    HW116724   3.873   3.140   7.697  1.8498  3.3018  2.0258
 1697SOL    HW216725   3.993   3.104   7.614  1.0404 -2.1127  0.2116
 1698SOL     OW16726   2.688   0.602   3.197 -0.3895  0.2655  0.1084
 1698SOL    HW116727   2.693   0.598   3.101  0.2462  1.9224  0.0827
 1698SOL    HW216728   2.780   0.599   3.219 -0.1633  0.3315 -0.8012
 1699SOL     OW16729   4.382   1.284   7.809 -0.0628 -0.5118 -0.2889
 1699SOL    HW116730   4.324   1.360   7.808  0.2202 -0.2941 -0.1064
 1699SOL    HW216731   4.318   1.215   7.788  2.2651 -3.5116  2.4320
 1700SOL     OW16732   2.051   4.707   5.964  0.6158  0.2336 -0.6322
 1700SOL    HW116733   1.987   4.728   5.896  0.9547 -1.8302 -1.5986
 1700SOL    HW216734   2.115   4.664   5.907  0.9723  1.2030 -0.9635
 1701SOL     OW16735   3.787   3.166   9.195 -0.2336 -0.6185  0.6542
 1701SOL    HW116736   3.783   3.078   9.232  2.2304 -1.7226 -1.7060
 1701SOL    HW216737   3.770   3.149   9.102 -0.1105  0.2878  0.4680
 1702SOL     OW16738   0.388   2.491   2.129 -0.3026 -0.3192  0.1073
 1702SOL    HW116739   0.389   2.541   2.211 -1.4138 -0.0198 -0.0715
 1702SOL    HW216740   0.295   2.471   2.127  0.3650 -3.4847  0.5009
 1703SOL     OW16741   2.708   2.999   2.940  0.4684  0.0620  0.4619
 1703SOL    HW116742   2.680   2.930   2.881 -0.7920  0.6244  0.3922
 1703SOL    HW216743   2.687   2.951   3.020 -0.6541 -1.8308 -0.9780
 1704SOL     OW16744   3.978   1.577   5.300 -0.5517  0.2328 -0.6443
 1704SOL    HW116745   4.016   1.497   5.336  1.6667  0.6358 -2.0357
 1704SOL    HW216746   3.997   1.652   5.357 -0.2139 -0.9309  0.7518
 1705SOL     OW16747   2.973   1.054  10.818  0.6084 -1.2549 -1.0015
 1705SOL    HW116748   2.989   1.084  10.907 -2.3761  0.1236 -0.9257
 1705SOL    HW216749   2.937   0.965  10.828 -1.3778 -0.4389 -0.8566
 1706SOL     OW16750   3.663   0.332   9.885  0.0975  0.1210 -0.6496
 1706SOL    HW116751   3.736   0.317   9.825 -0.6204  1.1180 -1.7781
 1706SOL    HW216752   3.656   0.428   9.892  1.0734  0.0540  1.4605
 1707SOL     OW16753   1.935   1.284  14.528 -0.0858 -0.0318  0.0579
 1707SOL    HW116754   1.877   1.240  14.590 -1.7500  1.9435 -0.0955
 1707SOL    HW216755   1.888   1.367  14.537 -1.8982 -1.1582  0.9904
 1708SOL     OW16756   0.125   1.731   9.021 -0.4863  0.1184  0.2098
 1708SOL    HW116757   0.068   1.750   9.096 -0.4985 -0.0359  0.2398
 1708SOL    HW216758   0.064   1.680   8.967 -0.4110 -0.6980  0.8815
 1709SOL     OW16759   1.578   0.991   1.424 -0.1414  0.5338  0.0184
 1709SOL    HW116760   1.569   0.896   1.436  1.4577  0.6422  1.9697
 1709SOL    HW216761   1.623   1.004   1.341 -2.5602 -1.4036 -1.6136
 1710SOL     OW16762   0.149   4.026   3.217 -0.0889  0.0203 -0.1189
 1710SOL    HW116763   0.206   4.001   3.145  1.8046 -3.3607  2.5951
 1710SOL    HW216764   0.143   3.947   3.271  1.1468  0.6873  0.9861
 1711SOL     OW16765   1.770   4.590   8.909  0.7229 -0.2069 -0.4131
 1711SOL    HW116766   1.846   4.547   8.869  2.7303 -0.0291  3.1596
 1711SOL    HW216767   1.738   4.639   8.834  0.8854  1.4131  0.5704
 1712SOL     OW16768   1.216   2.788   5.233  0.1637  0.2884 -0.0516
 1712SOL    HW116769   1.132   2.753   5.205 -0.1308  1.2509 -0.3796
 1712SOL    HW216770   1.279   2.736   5.183  1.2579  0.6520  0.9316
 1713SOL     OW16771   0.350   3.553  12.533  0.1032 -0.1005 -0.8626
 1713SOL    HW116772   0.337   3.606  12.612 -0.5526  2.0647 -2.4260
 1713SOL    HW216773   0.318   3.469  12.564  0.1535 -0.5608 -2.0440
 1714SOL     OW16774   1.674   0.166  11.808  0.1942  0.3377  0.6915
 1714SOL    HW116775   1.736   0.157  11.880 -1.2277  1.7173  2.0912
 1714SOL    HW216776   1.692   0.256  11.781 -1.1673 -0.4278 -2.8009
 1715SOL     OW16777   1.038   2.092   5.560  0.0495 -0.1209 -0.2126
 1715SOL    HW116778   1.083   2.065   5.639 -1.9778 -0.5101  0.8012
 1715SOL    HW216779   0.959   2.132   5.595 -0.5766  0.4718 -2.2590
 1716SOL     OW16780   0.831   0.498   7.687  0.1613  0.2629 -0.2925
 1716SOL    HW116781   0.831   0.534   7.776  1.7176  0.0740 -0.2106
 1716SOL    HW216782   0.898   0.557   7.653 -0.5861  0.4402 -1.4487
 1717SOL     OW16783   2.568   0.225   6.742  0.3835 -0.6359  0.8188
 1717SOL    HW116784   2.527   0.189   6.820 -1.1526 -0.2653  0.1659
 1717SOL    HW216785   2.645   0.169   6.735 -0.1108 -1.3927  1.4518
 1718SOL     OW16786   4.107   1.408   4.003  0.2463 -0.3065 -0.0982
 1718SOL    HW116787   4.109   1.314   4.020 -1.1812 -0.1178  1.1072
 1718SOL    HW216788   4.200   1.427   4.008 -0.2674  1.8732  1.0831
 1719SOL     OW16789   2.568   0.372   3.293  0.2313 -0.0971  0.6915
 1719SOL    HW116790   2.477   0.365   3.262  0.5153  0.7174 -0.3244
 1719SOL    HW216791   2.594   0.455   3.253  1.4084 -1.3521 -1.1079
 1720SOL     OW16792   4.029   1.116   8.298  0.1192  0.1786  0.1301
 1720SOL    HW116793   3.971   1.145   8.227 -1.0980 -5.3675 -1.1411
 1720SOL    HW216794   4.035   1.198   8.346 -0.3041 -0.7015  1.6987
 1721SOL     OW16795   3.079   0.002   1.773 -0.1330  0.9385  0.7604
 1721SOL    HW116796   3.096   0.034   1.684 -0.1923  0.5128  0.5967
 1721SOL    HW216797   3.145   4.673   1.766 -1.9691 -0.6540 -0.8124
 1722SOL     OW16798   0.493   1.054  16.538 -0.0011  0.3973  0.4399
 1722SOL    HW116799   0.469   1.142  16.508 -0.2181  0.5572  1.0756
 1722SOL    HW216800   0.468   1.001  16.463  0.1523  0.0574  0.6294
 1723SOL     OW16801   0.131   0.160   9.485 -0.1068 -0.1787 -0.3463
 1723SOL    HW116802   0.214   0.141   9.441 -0.4134 -0.7898 -0.6708
 1723SOL    HW216803   0.175   0.169   9.569 -0.0248  2.5093 -0.6987
 1724SOL     OW16804   2.725   3.120   9.388  0.3277  0.2571  0.5779
 1724SOL    HW116805   2.704   3.064   9.313  0.4313  0.4980  0.3685
 1724SOL    HW216806   2.748   3.047   9.446 -0.3641  0.0013  0.5331
 1725SOL     OW16807   2.490   3.894  12.377 -0.1796  0.4026  0.1080
 1725SOL    HW116808   2.521   3.951  12.447  2.2515  0.0852 -0.6969
 1725SOL    HW216809   2.446   3.828  12.431 -0.4503  0.4021 -0.1155
 1726SOL     OW16810   3.679   3.277   4.625  0.4507 -0.4220 -0.1328
 1726SOL    HW116811   3.693   3.333   4.702  1.4799  1.2424 -1.5225
 1726SOL    HW216812   3.690   3.192   4.667  0.6094 -1.2164 -1.7711
 1727SOL     OW16813   2.537   1.833   6.409 -0.0286 -0.2957 -0.5312
 1727SOL    HW116814   2.504   1.780   6.336 -1.3219  0.7738 -0.7277
 1727SOL    HW216815   2.457   1.878   6.438 -0.2424 -1.5132  0.7636
 1728SOL     OW16816   1.805   2.184   7.001  0.0374  0.0408  0.0178
 1728SOL    HW116817   1.859   2.263   7.009  1.0578 -0.6278 -0.3423
 1728SOL    HW216818   1.810   2.153   7.092  0.5493  0.1290  0.0180
 1729SOL     OW16819   1.059   3.798  12.588  0.4198  0.3072  0.0138
 1729SOL    HW116820   0.991   3.736  12.614  0.0874  1.4822  1.9729
 1729SOL    HW216821   1.108   3.741  12.530  1.3471  2.0643 -0.9265
 1730SOL     OW16822   4.702   4.121   7.762 -0.0247  0.1331 -0.5882
 1730SOL    HW116823   4.731   4.166   7.683 -0.8500 -1.0769 -1.5714
 1730SOL    HW216824   4.608   4.111   7.748  0.2571  1.1530 -3.1899
 1731SOL     OW16825   2.984   4.351   7.101  0.0496  0.0747  0.4451
 1731SOL    HW116826   2.965   4.398   7.020 -0.9149  1.6981  1.5929
 1731SOL    HW216827   3.054   4.295   7.068 -0.6195  0.5998 -1.8535
 1732SOL     OW16828   1.288   2.784   3.982 -0.6754 -0.5245  0.4528
 1732SOL    HW116829   1.318   2.872   4.007 -0.2410  0.0778 -2.2060
 1732SOL    HW216830   1.294   2.788   3.887  2.6674  0.2315  0.6964
 1733SOL     OW16831   1.070   0.240   3.902 -0.1982 -0.0026  0.0213
 1733SOL    HW116832   0.987   0.250   3.948  0.4370  0.6369  1.0357
 1733SOL    HW216833   1.083   0.329   3.870 -0.4212 -0.5331 -1.5337
 1734SOL     OW16834   0.047   0.218   9.162 -0.2473 -0.5350  0.1494
 1734SOL    HW116835   0.138   0.195   9.179  0.2888  2.1830  0.9712
 1734SOL    HW216836   0.064   0.233   9.069 -4.0492  0.8819 -0.3219
 1735SOL     OW16837   1.446   1.563   4.638 -0.0488 -0.4638 -0.9860
 1735SOL    HW116838   1.399   1.599   4.713 -1.4700  0.9018 -2.5082
 1735SOL    HW216839   1.520   1.536   4.691  0.6514 -0.0304 -1.7395
 1736SOL     OW16840   3.634   2.333   6.060  0.2943  0.3763  0.4991
 1736SOL    HW116841   3.629   2.271   6.132  0.1851  1.3798  1.3475
 1736SOL    HW216842   3.717   2.299   6.028  0.7567  1.4367  0.5674
 1737SOL     OW16843   3.044   4.414   3.818 -0.0972  0.5020  0.1291
 1737SOL    HW116844   3.044   4.441   3.726  0.9411  1.6439  0.4629
 1737SOL    HW216845   3.027   4.503   3.848  0.6299  1.2969 -1.7920
 1738SOL     OW16846   2.354   0.058   3.355  0.0155 -0.0267  0.1395
 1738SOL    HW116847   2.398   0.070   3.271  1.0757 -0.0721  0.6856
 1738SOL    HW216848   2.263   0.051   3.324  1.3838 -0.9235 -3.6709
 1739SOL     OW16849   2.639   4.079   0.220  0.4881 -0.4079 -0.2460
 1739SOL    HW116850   2.657   4.102   0.311 -0.1250 -0.0221 -0.2271
 1739SOL    HW216851   2.656   3.985   0.227 -1.1822 -0.6900 -0.0361
 1740SOL     OW16852   3.798   4.730   4.349 -0.6891  0.1233  0.3615
 1740SOL    HW116853   3.823   4.638   4.338  1.3937  0.5987  1.0494
 1740SOL    HW216854   3.861   0.044   4.301 -2.2472  0.5569 -1.1487
 1741SOL     OW16855   4.007   2.913   0.743 -0.0501  0.1717  0.2517
 1741SOL    HW116856   4.008   2.901   0.838  0.6461 -1.6398  0.0281
 1741SOL    HW216857   4.094   2.950   0.727 -0.0299  0.0629  0.1082
 1742SOL     OW16858   1.409   4.573  11.084 -0.4634  0.0185  0.4584
 1742SOL    HW116859   1.377   4.599  11.170  0.6727 -1.8514  1.4442
 1742SOL    HW216860   1.454   4.492  11.107 -0.5190  0.3205  1.6189
 1743SOL     OW16861   1.275   4.666   8.839 -0.5222 -0.3008  0.3887
 1743SOL    HW116862   1.246   0.000   8.786 -3.0835 -2.1384 -0.7946
 1743SOL    HW216863   1.292   4.601   8.771  0.9029 -0.8021  1.2248
 1744SOL     OW16864   0.914   0.142   5.831 -0.0036  0.1377 -0.7660
 1744SOL    HW116865   0.822   0.128   5.853  0.8270 -2.0800  1.3363
 1744SOL    HW216866   0.954   0.111   5.912  2.5344 -0.4670 -2.2250
 1745SOL     OW16867   4.592   0.723   7.121  0.2428 -0.3088  0.1907
 1745SOL    HW116868   4.640   0.671   7.056 -0.4582 -1.5690  0.6620
 1745SOL    HW216869   4.639   0.805   7.111  2.6198 -1.9560 -2.2371
 1746SOL     OW16870   0.606   1.194  15.886  0.1383 -0.2411  0.3234
 1746SOL    HW116871   0.532   1.232  15.838  1.4357  1.0058 -0.7130
 1746SOL    HW216872   0.675   1.261  15.881  0.6017 -0.8299 -1.1359
 1747SOL     OW16873   0.294   4.327   6.332 -0.3067 -0.5387 -0.3935
 1747SOL    HW116874   0.268   4.415   6.306  1.2950 -0.3212 -1.2209
 1747SOL    HW216875   0.213   4.278   6.318 -1.9739  2.0203  0.2254
 1748SOL     OW16876   1.067   0.838   4.763 -0.1407 -0.1683 -0.4375
 1748SOL    HW116877   1.004   0.766   4.764 -0.5400  0.1664 -0.9341
 1748SOL    HW216878   1.009   0.901   4.719 -0.9109 -0.7953 -0.3285
 1749SOL     OW16879   3.012   4.572   4.588 -0.3122  0.3002 -0.1333
 1749SOL    HW116880   3.007   4.478   4.607  1.2756  0.2942  0.2883
 1749SOL    HW216881   3.101   4.584   4.554  0.1844  1.2495  1.5399
 1750SOL     OW16882   0.406   0.444  11.795  0.0283 -0.0310  0.1457
 1750SOL    HW116883   0.368   0.415  11.713 -0.4435  2.5144 -0.5367
 1750SOL    HW216884   0.463   0.369  11.816 -0.4588 -0.3211  0.4266
 1751SOL     OW16885   3.566   3.460  16.511 -0.5169 -0.0276  0.2523
 1751SOL    HW116886   3.622   3.385  16.529 -1.1327 -1.1405 -2.4698
 1751SOL    HW216887   3.637   3.510  16.471 -0.0446 -0.8906  0.0196
 1752SOL     OW16888   0.963   0.616  15.324  0.0770  0.2858  0.3852
 1752SOL    HW116889   1.001   0.676  15.260  0.1181 -0.4691 -0.2895
 1752SOL    HW216890   0.901   0.681  15.358 -0.3498  1.1949 -2.1327
 1753SOL     OW16891   2.711   2.789   1.207  0.2665 -0.2231 -0.2049
 1753SOL    HW116892   2.632   2.841   1.189  0.5227  1.1873  2.6396
 1753SOL    HW216893   2.690   2.700   1.179 -2.2468  0.3254 -0.1230
 1754SOL     OW16894   3.252   2.628   9.021  0.3110  1.3420 -0.7185
 1754SOL    HW116895   3.198   2.677   8.959 -0.0871  0.4301 -1.0966
 1754SOL    HW216896   3.311   2.578   8.965  2.9966 -0.2511  3.6119
 1755SOL     OW16897   3.240   2.636   4.671 -0.0741  0.2971  0.0811
 1755SOL    HW116898   3.291   2.657   4.749  1.2995  0.8529 -0.9736
 1755SOL    HW216899   3.161   2.604   4.716  0.0173 -2.3020 -1.6254
 1756SOL     OW16900   4.342   2.118  13.101  0.0021  0.4400  0.3628
 1756SOL    HW116901   4.397   2.145  13.028 -0.5911 -0.5298 -0.4431
 1756SOL    HW216902   4.291   2.199  13.104  0.7591  0.9503 -0.7788
 1757SOL     OW16903   3.259   0.324  17.333 -0.0382  0.0945 -0.5754
 1757SOL    HW116904   3.214   0.409  17.332 -0.7437 -0.2920 -1.1034
 1757SOL    HW216905   3.236   0.284  17.417  1.2586  1.3879  0.4146
 1758SOL     OW16906   3.540   0.770   2.454 -0.1686  0.4143  0.2881
 1758SOL    HW116907   3.591   0.840   2.495  0.5395 -0.5235  1.0038
 1758SOL    HW216908   3.485   0.826   2.400 -2.8076 -1.9473  0.4970
 1759SOL     OW16909   2.835   0.864   8.297 -0.0129 -0.0224  0.3264
 1759SOL    HW116910   2.926   0.841   8.313  0.6001  2.1920  0.0572
 1759SOL    HW216911   2.794   0.874   8.383  0.2598  0.4350  0.4034
 1760SOL     OW16912   3.434   3.154   3.173  0.2519  0.3796  0.1801
 1760SOL    HW116913   3.355   3.193   3.212  0.5907  1.9056 -0.6453
 1760SOL    HW216914   3.401   3.065   3.165 -0.4501  0.6989 -0.4870
 1761SOL     OW16915   3.426   2.411   9.217 -0.4833 -0.3450  0.3742
 1761SOL    HW116916   3.462   2.359   9.288  0.1963 -0.1817  0.1513
 1761SOL    HW216917   3.333   2.408   9.240 -0.7085 -0.8760 -0.5862
 1762SOL     OW16918   1.975   2.639  12.963  0.3260  0.2453  0.1297
 1762SOL    HW116919   1.912   2.571  12.989 -2.1428  1.9675 -1.4076
 1762SOL    HW216920   2.022   2.648  13.046 -1.4497 -0.4270  1.2118
 1763SOL     OW16921   2.277   4.309   5.455  0.6350 -0.4024  0.2028
 1763SOL    HW116922   2.242   4.310   5.366  3.4245 -3.5285 -0.9472
 1763SOL    HW216923   2.308   4.396   5.480  1.1178 -0.1082 -1.3998
 1764SOL     OW16924   0.613   2.186  12.591 -0.2807  0.4463 -0.3726
 1764SOL    HW116925   0.536   2.159  12.641 -1.4792  2.3966 -1.1618
 1764SOL    HW216926   0.672   2.119  12.625 -0.3970 -0.3958 -1.8463
 1765SOL     OW16927   1.033   2.340   3.475 -0.0232  0.2796  0.1617
 1765SOL    HW116928   0.962   2.282   3.451  1.4171 -0.7883 -1.5700
 1765SOL    HW216929   1.109   2.288   3.449 -0.1101  0.9094 -1.3752
 1766SOL     OW16930   3.969   0.315   7.724 -0.2331 -0.4038 -0.5597
 1766SOL    HW116931   4.058   0.320   7.687 -0.5226  1.5007 -0.9523
 1766SOL    HW216932   3.925   0.359   7.652 -2.1826 -0.2729  0.7318
 1767SOL     OW16933   4.550   2.154  12.922  0.1264 -0.2544 -0.1129
 1767SOL    HW116934   4.625   2.170  12.979  1.3564  1.0458 -2.1200
 1767SOL    HW216935   4.600   2.095  12.866 -0.4723 -0.5553 -0.3306
 1768SOL     OW16936   4.574   3.872  12.336 -0.1685 -0.3884  0.9766
 1768SOL    HW116937   4.627   3.920  12.272  0.3903 -2.0389  0.2052
 1768SOL    HW216938   4.546   3.940  12.398  0.8139  3.1074 -2.3998
 1769SOL     OW16939   0.676   0.786   4.277 -0.0377 -0.1324 -0.0646
 1769SOL    HW116940   0.755   0.763   4.229  1.1681  1.2279  1.2602
 1769SOL    HW216941   0.608   0.786   4.209 -0.0697  0.7175 -0.0380
 1770SOL     OW16942   3.133   2.059   0.573  0.6504 -0.0070  0.3865
 1770SOL    HW116943   3.177   2.106   0.644 -1.0421  2.7113 -0.3522
 1770SOL    HW216944   3.095   2.121   0.510 -1.8291 -1.9115  0.0051
 1771SOL     OW16945   2.743   2.491   3.245  0.0946  0.0519 -0.2178
 1771SOL    HW116946   2.816   2.554   3.253  0.9254 -0.9007 -0.2723
 1771SOL    HW216947   2.787   2.407   3.230  0.1957  0.0129  0.2990
 1772SOL     OW16948   2.169   2.499   4.031 -0.2937 -0.5810 -0.0179
 1772SOL    HW116949   2.145   2.552   4.107 -2.6426 -0.3785 -0.9109
 1772SOL    HW216950   2.097   2.437   4.024  1.0326 -2.3724  2.0466
 1773SOL     OW16951   0.868   4.649  10.668  0.3201  0.2237 -0.1639
 1773SOL    HW116952   0.835   4.650  10.758  2.5234 -0.2407  0.6531
 1773SOL    HW216953   0.952   4.694  10.675 -0.1126  0.8909  0.7492
 1774SOL     OW16954   1.201   4.300   5.672 -0.0655 -0.4241  0.2934
 1774SOL    HW116955   1.249   4.308   5.590  2.6172  1.2003  2.0211
 1774SOL    HW216956   1.265   4.324   5.739  0.0906  0.2946 -0.1129
 1775SOL     OW16957   4.272   0.147   3.908 -0.5928  0.2579  0.1369
 1775SOL    HW116958   4.285   0.240   3.887  3.0111  0.1455  1.7538
 1775SOL    HW216959   4.348   0.124   3.962  0.5138 -2.1628 -2.4932
 1776SOL     OW16960   1.088   0.152   7.790 -0.1294 -0.6840  0.1536
 1776SOL    HW116961   1.109   0.193   7.874  3.4427 -1.2097 -0.4638
 1776SOL    HW216962   1.155   0.083   7.785 -0.0545 -0.5665 -0.4704
 1777SOL     OW16963   3.693   4.068   1.296 -0.1408  0.5691  0.3676
 1777SOL    HW116964   3.724   3.990   1.342  0.8910  0.5651 -0.3291
 1777SOL    HW216965   3.685   4.124   1.373 -1.9720 -0.2150  0.7483
 1778SOL     OW16966   0.064   2.166   4.699  0.8540 -0.7528  0.3683
 1778SOL    HW116967   0.010   2.089   4.718 -1.7753  1.3864  1.5072
 1778SOL    HW216968   4.733   2.222   4.668  0.9899 -1.4036 -1.1462
 1779SOL     OW16969   1.534   0.717   9.981  0.3503  0.3075  0.3247
 1779SOL    HW116970   1.568   0.805   9.963  2.4586 -0.9600 -1.9891
 1779SOL    HW216971   1.577   0.668   9.911  0.9703  1.1842  0.0924
 1780SOL     OW16972   1.347   3.891   3.978  0.3223 -0.0828 -0.0424
 1780SOL    HW116973   1.274   3.841   4.013 -0.4080 -0.5685 -2.2746
 1780SOL    HW216974   1.370   3.949   4.050 -0.2085 -1.2888  1.0923
 1781SOL     OW16975   3.891   2.149   6.377 -0.2684  0.2129  0.6860
 1781SOL    HW116976   3.878   2.054   6.368 -0.4213  0.3073 -0.0466
 1781SOL    HW216977   3.835   2.163   6.454 -2.4438  0.7518 -0.9809
 1782SOL     OW16978   4.465   2.526  11.864  0.1258 -0.4083 -0.4052
 1782SOL    HW116979   4.417   2.608  11.858 -0.9135 -0.8961  1.2564
 1782SOL    HW216980   4.479   2.504  11.772  1.1579  2.3077 -0.9050
 1783SOL     OW16981   1.988   0.395  16.707  0.3030 -0.4980 -0.0814
 1783SOL    HW116982   1.976   0.304  16.735 -0.1837 -1.1587 -2.3972
 1783SOL    HW216983   1.896   0.421  16.708  0.9829  2.0410 -1.8279
 1784SOL     OW16984   2.687   2.160   7.303 -0.1473  0.0803  0.1796
 1784SOL    HW116985   2.662   2.138   7.393 -0.4827 -1.5769 -0.3203
 1784SOL    HW216986   2.728   2.243   7.327  1.1663 -0.9196  1.4064
 1785SOL     OW16987   2.465   0.081  13.716 -0.0309  0.4114  0.3750
 1785SOL    HW116988   2.401   0.049  13.780  1.5570 -1.4815  1.0243
 1785SOL    HW216989   2.415   0.120  13.645  1.8756 -0.9786 -1.7414
 1786SOL     OW16990   2.805   1.415   3.672  0.2421 -0.1629 -0.1753
 1786SOL    HW116991   2.726   1.427   3.619  0.5838 -0.0453 -0.6551
 1786SOL    HW216992   2.864   1.377   3.607 -1.1166 -0.7742 -1.0524
 1787SOL     OW16993   2.655   0.417   7.209 -0.9817  0.4446 -0.0856
 1787SOL    HW116994   2.705   0.358   7.153  0.6712  2.3882 -0.7057
 1787SOL    HW216995   2.667   0.366   7.289 -2.2867  1.7913  0.9816
 1788SOL     OW16996   1.163   3.462   9.012 -0.3031  0.4986  0.5308
 1788SOL    HW116997   1.076   3.457   9.053  0.4483 -1.7310  1.8248
 1788SOL    HW216998   1.183   3.555   9.019 -0.1005  0.6506 -2.0355
 1789SOL     OW16999   2.178   1.307   1.746 -0.2124  0.2431 -0.7639
 1789SOL    HW117000   2.120   1.265   1.810 -1.3969  2.4931 -0.3590
 1789SOL    HW217001   2.248   1.242   1.744 -0.5788 -0.1179 -1.9086
 1790SOL     OW17002   0.984   4.553   6.092 -0.0296 -0.0480 -0.3595
 1790SOL    HW117003   0.954   4.644   6.094 -0.2462 -0.1246 -0.0644
 1790SOL    HW217004   1.041   4.562   6.016 -0.5890 -0.2866 -0.7993
 1791SOL     OW17005   0.286   1.755  11.486 -0.1187 -0.1042 -0.4811
 1791SOL    HW117006   0.254   1.799  11.407 -1.4024 -0.3323 -0.0963
 1791SOL    HW217007   0.217   1.780  11.548  0.4783 -0.5796  0.3669
 1792SOL     OW17008   2.665   0.468   8.261  0.5817 -0.1612  0.4149
 1792SOL    HW117009   2.737   0.414   8.293  0.1024 -0.5002  0.9151
 1792SOL    HW217010   2.615   0.467   8.342 -1.1502 -2.5909 -0.6911
 1793SOL     OW17011   3.974   2.161  12.891  0.0072  0.0756 -0.1696
 1793SOL    HW117012   3.894   2.166  12.942  0.3968  2.7395  0.1929
 1793SOL    HW217013   3.967   2.085  12.833 -1.9209 -1.2926  1.8697
 1794SOL     OW17014   4.574   0.111  15.366 -0.2616  0.0672  0.1335
 1794SOL    HW117015   4.565   0.049  15.294 -2.3475  2.0345 -1.2849
 1794SOL    HW217016   4.605   0.048  15.432  0.7314  0.2091 -0.1941
 1795SOL     OW17017   4.056   0.997   3.920 -1.1249  0.6055  0.4197
 1795SOL    HW117018   4.099   0.990   3.834 -1.7317 -0.1850  0.1823
 1795SOL    HW217019   4.103   1.073   3.954 -1.0298 -0.5463  2.8387
 1796SOL     OW17020   0.567   0.413   9.366 -0.3199  0.1722 -0.1346
 1796SOL    HW117021   0.576   0.318   9.364  0.3688  0.2388 -0.0212
 1796SOL    HW217022   0.510   0.426   9.441 -1.2853 -0.6589 -0.7251
 1797SOL     OW17023   1.520   4.084   6.573 -0.3805 -0.0128 -0.0062
 1797SOL    HW117024   1.437   4.104   6.530 -0.4927 -0.0992  0.1678
 1797SOL    HW217025   1.512   4.101   6.667 -0.6342 -0.8777  0.1239
 1798SOL     OW17026   0.818   2.421   8.199 -0.0582 -0.3718 -0.2536
 1798SOL    HW117027   0.797   2.448   8.110  1.8132  2.7671  0.2734
 1798SOL    HW217028   0.733   2.391   8.233  1.4569  0.4249  4.2354
 1799SOL     OW17029   2.288   2.588   3.479 -0.1062  0.1713  0.1302
 1799SOL    HW117030   2.369   2.579   3.429 -0.8497 -0.6084 -0.9419
 1799SOL    HW217031   2.291   2.680   3.505 -0.8913 -0.3515  2.0843
 1800SOL     OW17032   2.773   0.543   4.604  0.0018  0.3675 -0.0350
 1800SOL    HW117033   2.787   0.545   4.509 -0.8635  2.7775 -0.1088
 1800SOL    HW217034   2.729   0.458   4.597  1.2135 -0.2289 -0.4387
 1801SOL     OW17035   2.925   3.810   3.830 -0.0936  0.2921  0.4639
 1801SOL    HW117036   2.865   3.767   3.891 -0.6433 -0.6459 -0.7383
 1801SOL    HW217037   2.975   3.870   3.884  0.1172  1.6998 -1.3078
 1802SOL     OW17038   0.969   0.630   2.879  0.1963 -0.2112  0.0796
 1802SOL    HW117039   0.974   0.621   2.974 -0.0652 -3.6036 -0.2390
 1802SOL    HW217040   1.020   0.710   2.866 -1.1018  0.2993 -1.7699
 1803SOL     OW17041   3.423   3.857   7.428 -0.9189  0.3781 -0.8114
 1803SOL    HW117042   3.442   3.934   7.375 -2.5047  0.5638 -1.1112
 1803SOL    HW217043   3.479   3.796   7.380 -1.6888 -0.7776 -0.2394
 1804SOL     OW17044   3.502   2.548  17.051 -0.1998  0.4207 -1.0052
 1804SOL    HW117045   3.572   2.539  16.986  1.2502  1.4371  0.4281
 1804SOL    HW217046   3.443   2.478  17.022 -1.4670  0.2231  2.0363
 1805SOL     OW17047   4.531   4.187   6.681 -0.3572 -0.0875  0.0587
 1805SOL    HW117048   4.436   4.191   6.679 -0.3490 -1.7514 -3.6931
 1805SOL    HW217049   4.560   4.278   6.678 -0.2696 -0.2357 -4.1461
 1806SOL     OW17050   3.302   4.616   3.712  0.0701  0.0367 -0.0048
 1806SOL    HW117051   3.251   4.686   3.753 -1.9783 -0.9031 -0.9436
 1806SOL    HW217052   3.236   4.548   3.700  0.5198 -0.2822 -0.6225
 1807SOL     OW17053   4.550   2.711   5.908  0.0907 -0.5552  0.4346
 1807SOL    HW117054   4.543   2.703   6.003  2.9485  1.0526  0.7549
 1807SOL    HW217055   4.642   2.724   5.886 -0.1093  1.1501  0.5969
 1808SOL     OW17056   4.488   1.105   9.934  0.2828  0.5799 -0.7888
 1808SOL    HW117057   4.422   1.165   9.968 -1.8810 -2.0734 -0.3095
 1808SOL    HW217058   4.440   1.024   9.915  0.9806 -0.1561  0.6528
 1809SOL     OW17059   0.576   0.857  16.981 -0.4481 -0.4706  0.0137
 1809SOL    HW117060   0.631   0.823  17.052  0.6966  0.4705 -0.4268
 1809SOL    HW217061   0.515   0.906  17.035  2.2272  1.3911  1.3475
 1810SOL     OW17062   3.967   0.522   7.226 -0.0683  0.4180 -0.4292
 1810SOL    HW117063   3.961   0.581   7.302  0.0526 -0.5405  0.3155
 1810SOL    HW217064   4.049   0.476   7.241 -0.4204  0.1860  0.7433
 1811SOL     OW17065   0.807   3.628   0.510  0.0912  0.8678 -0.2338
 1811SOL    HW117066   0.857   3.547   0.515 -0.3882  0.5437 -0.7544
 1811SOL    HW217067   0.786   3.638   0.603 -0.9944 -0.6335 -0.3342
 1812SOL     OW17068   4.511   0.622   2.531 -0.1086  0.4549 -0.1759
 1812SOL    HW117069   4.597   0.583   2.545 -0.3231 -0.3905 -1.1928
 1812SOL    HW217070   4.448   0.550   2.528  0.0898  0.2440  0.7573
 1813SOL     OW17071   1.932   1.551   8.573  0.0791  0.2280 -0.3512
 1813SOL    HW117072   1.854   1.593   8.608  1.2974 -1.1824  4.0769
 1813SOL    HW217073   1.902   1.469   8.535  0.8359 -0.3127  0.2106
 1814SOL     OW17074   1.951   3.616   4.322  0.4724  0.3407 -0.1562
 1814SOL    HW117075   2.021   3.552   4.334  1.7881  2.0764  1.4182
 1814SOL    HW217076   1.988   3.704   4.328  1.5831 -0.1783  0.6392
 1815SOL     OW17077   0.858   2.209   4.224  0.0732  0.5097  0.3017
 1815SOL    HW117078   0.834   2.193   4.133 -1.7823  1.3802  0.6376
 1815SOL    HW217079   0.951   2.228   4.223  0.7518 -2.4354  4.3695
 1816SOL     OW17080   3.025   2.589   8.314 -0.2230  0.0882  0.6103
 1816SOL    HW117081   3.035   2.559   8.224 -0.9377  1.1938  0.1559
 1816SOL    HW217082   2.929   2.594   8.316 -0.3659 -2.9388  2.2100
 1817SOL     OW17083   0.860   2.114   4.488  0.4133 -0.1045 -0.0917
 1817SOL    HW117084   0.870   2.155   4.402  1.6929 -1.5299 -0.6078
 1817SOL    HW217085   0.932   2.052   4.480 -0.4376 -0.9638 -1.0324
 1818SOL     OW17086   1.515   4.561   7.087 -0.0086 -0.3062 -0.4992
 1818SOL    HW117087   1.565   4.482   7.103 -0.2545 -0.4857 -0.6246
 1818SOL    HW217088   1.512   4.593   7.178 -0.3683 -0.9390 -0.2888
 1819SOL     OW17089   2.250   1.872   6.499 -0.3996 -0.1103  0.3375
 1819SOL    HW117090   2.218   1.795   6.547 -1.3180  0.6572  0.9717
 1819SOL    HW217091   2.174   1.875   6.441 -1.3057  0.4781  1.5431
 1820SOL     OW17092   2.799   3.620  16.146 -0.2393 -0.2907 -0.0523
 1820SOL    HW117093   2.816   3.553  16.213  1.0537  1.2101  1.1168
 1820SOL    HW217094   2.802   3.570  16.064 -0.6876  0.3729 -0.4710
 1821SOL     OW17095   4.676   3.970   5.856 -0.3035  0.4631 -0.0060
 1821SOL    HW117096   4.720   4.032   5.914 -2.3587  1.4784  0.4336
 1821SOL    HW217097   4.703   3.894   5.909 -0.3532  0.1640 -0.4093
 1822SOL     OW17098   2.702   2.643  14.326 -0.3643 -0.1390 -0.5262
 1822SOL    HW117099   2.628   2.619  14.270  0.1329 -2.0185 -0.3727
 1822SOL    HW217100   2.738   2.558  14.350 -0.9102 -0.5201 -1.0620
 1823SOL     OW17101   2.716   0.675  15.432 -0.9368  0.2443  0.0763
 1823SOL    HW117102   2.792   0.694  15.488 -1.1050 -0.6194  0.5880
 1823SOL    HW217103   2.678   0.602  15.480  1.5461  0.0625  1.7682
 1824SOL     OW17104   3.387   3.927   6.235 -0.2836 -0.2525 -0.4888
 1824SOL    HW117105   3.405   3.845   6.281  2.2050  0.7789  0.3778
 1824SOL    HW217106   3.364   3.983   6.309 -0.8885  1.1369 -1.7253
 1825SOL     OW17107   1.240   0.567   4.996  0.2620 -1.1469 -0.1071
 1825SOL    HW117108   1.183   0.530   5.063 -2.0650 -0.6911 -1.8514
 1825SOL    HW217109   1.280   0.641   5.043 -0.4114  0.7569 -2.5069
 1826SOL     OW17110   1.849   4.669  12.603  0.0061 -0.7098  0.0035
 1826SOL    HW117111   1.817   4.596  12.656 -4.0569  0.8038 -0.3846
 1826SOL    HW217112   1.908   4.711  12.665 -2.1149  2.7265 -0.2944
 1827SOL     OW17113   0.981   2.060   7.876  0.5358  0.4301 -0.4655
 1827SOL    HW117114   1.054   2.020   7.925 -0.8374 -1.3787  0.1325
 1827SOL    HW217115   0.901   2.015   7.903 -1.0676  3.2614 -0.5968
 1828SOL     OW17116   3.467   0.569  16.143  0.6888 -0.1008  0.4016
 1828SOL    HW117117   3.443   0.552  16.234 -0.8068  2.4772  0.4773
 1828SOL    HW217118   3.378   0.561  16.109  1.9190  3.3505 -3.6879
 1829SOL     OW17119   3.010   4.247   0.662 -0.1500 -1.0510  0.1013
 1829SOL    HW117120   2.975   4.262   0.574  1.2325  0.5443 -0.1799
 1829SOL    HW217121   3.103   4.262   0.642 -0.9643  4.4612  0.5761
 1830SOL     OW17122   2.677   4.261   3.189 -0.2346  0.2590  0.3069
 1830SOL    HW117123   2.705   4.222   3.106  1.0746  0.4734  0.6390
 1830SOL    HW217124   2.583   4.251   3.174  0.3422 -1.6087 -2.1554
 1831SOL     OW17125   3.877   2.395   7.766  0.4153 -0.2214 -0.6642
 1831SOL    HW117126   3.794   2.430   7.798  1.8114  0.1482  2.5618
 1831SOL    HW217127   3.857   2.301   7.767  0.0214 -0.1337  0.9743
 1832SOL     OW17128   4.184   1.462   7.793 -0.1231 -0.1083  0.5424
 1832SOL    HW117129   4.091   1.462   7.771  0.1626  0.4810 -0.6698
 1832SOL    HW217130   4.194   1.519   7.869 -0.0432  1.6489 -0.7893
 1833SOL     OW17131   0.232   4.670  10.393  0.1024 -0.7464 -0.0117
 1833SOL    HW117132   0.245   4.596  10.333 -0.1419 -1.5385  0.9103
 1833SOL    HW217133   0.204   0.001  10.336  0.8599 -0.1908  0.3154
 1834SOL     OW17134   3.958   1.502   3.795  0.2945  0.1342  0.4655
 1834SOL    HW117135   3.918   1.415   3.801 -1.6041  1.0364  1.0812
 1834SOL    HW217136   4.024   1.503   3.864  0.7881  2.8560 -0.0391
 1835SOL     OW17137   2.951   0.280   1.924  0.2979  0.1283 -0.3005
 1835SOL    HW117138   2.859   0.285   1.898  0.5297 -1.4027 -1.3913
 1835SOL    HW217139   2.983   0.193   1.899 -1.3601 -0.4626 -0.3968
 1836SOL     OW17140   2.535   2.654   6.811  0.4252  0.3902 -0.5178
 1836SOL    HW117141   2.505   2.744   6.827  0.0431  0.3821 -1.1842
 1836SOL    HW217142   2.522   2.631   6.719 -1.0306 -0.8555  0.0056
 1837SOL     OW17143   4.649   3.291   2.861 -0.3007  0.2011  0.2334
 1837SOL    HW117144   4.637   3.200   2.888  1.4257 -0.3915 -1.0136
 1837SOL    HW217145   4.732   3.307   2.906 -0.0239  0.3073 -0.3096
 1838SOL     OW17146   1.281   0.849  16.661 -0.3100  0.1532 -0.1945
 1838SOL    HW117147   1.360   0.809  16.625  0.9038  1.3208  1.1557
 1838SOL    HW217148   1.238   0.861  16.577  1.1708  0.7692 -0.8557
 1839SOL     OW17149   3.710   1.778  11.581 -0.0933 -0.4609  0.1032
 1839SOL    HW117150   3.694   1.864  11.544  1.8599 -0.8213 -1.5781
 1839SOL    HW217151   3.798   1.765  11.546  0.2697 -0.0157  0.8551
 1840SOL     OW17152   4.264   1.375   4.322  0.2207  0.1345  0.2476
 1840SOL    HW117153   4.334   1.368   4.388 -2.1366 -1.4684  2.6004
 1840SOL    HW217154   4.214   1.297   4.346 -1.4180  0.2964 -2.7220
 1841SOL     OW17155   1.381   0.458   2.298 -0.0124 -0.5412  0.0332
 1841SOL    HW117156   1.429   0.388   2.343  1.7509  1.3730  1.1273
 1841SOL    HW217157   1.313   0.475   2.363 -2.0321 -3.7687 -1.2492
 1842SOL     OW17158   4.115   0.044  13.471  0.0753  0.4074  0.3261
 1842SOL    HW117159   4.198   4.738  13.460 -0.8134 -0.7103 -1.6359
 1842SOL    HW217160   4.054   4.718  13.505  0.2871  0.3257  0.5438
 1843SOL     OW17161   1.639   2.535   4.256 -0.3170 -0.8027 -0.2517
 1843SOL    HW117162   1.553   2.512   4.289 -0.6408 -0.0319 -0.5671
 1843SOL    HW217163   1.621   2.530   4.162 -0.3849  1.3164 -0.3450
 1844SOL     OW17164   3.339   0.328   7.525 -0.0285 -0.0578 -0.5213
 1844SOL    HW117165   3.333   0.325   7.429  1.4962 -0.5013 -0.6168
 1844SOL    HW217166   3.264   0.275   7.551 -1.6605  2.0401 -0.9380
 1845SOL     OW17167   3.256   2.006   7.833 -0.0139  0.0839 -0.5378
 1845SOL    HW117168   3.297   2.089   7.856 -0.5204 -0.0264  0.8223
 1845SOL    HW217169   3.257   1.964   7.920  0.4665  3.0719  0.8883
 1846SOL     OW17170   3.573   4.478   9.082  0.3735 -0.1205  0.1815
 1846SOL    HW117171   3.520   4.432   9.017  3.1030 -2.7169 -0.1721
 1846SOL    HW217172   3.610   4.544   9.024  0.7521 -1.5118 -1.1567
 1847SOL     OW17173   3.867   2.783  10.303 -0.3623 -0.2892 -0.3049
 1847SOL    HW117174   3.837   2.867  10.340 -1.7891 -1.1445  0.4615
 1847SOL    HW217175   3.890   2.821  10.218 -0.2936 -0.1801 -0.2392
 1848SOL     OW17176   0.043   0.002   4.170 -0.2490 -0.0874  0.0023
 1848SOL    HW117177   0.053   0.065   4.242 -3.5825 -0.5528  0.8855
 1848SOL    HW217178   0.069   4.659   4.207 -2.5845 -1.2299 -0.8834
 1849SOL     OW17179   3.158   0.790   7.046 -0.4102 -0.1464 -0.3314
 1849SOL    HW117180   3.181   0.787   7.139 -0.7740  2.0309 -0.1777
 1849SOL    HW217181   3.140   0.883   7.036  0.6185  0.1872  0.9907
 1850SOL     OW17182   2.422   3.536   2.948  0.4265  0.0613  0.3941
 1850SOL    HW117183   2.454   3.482   3.020  1.6818 -0.7878 -0.7894
 1850SOL    HW217184   2.507   3.549   2.905  0.0876  1.7572  0.2753
 1851SOL     OW17185   2.681   4.492  17.683 -0.0002  0.4711 -0.3172
 1851SOL    HW117186   2.621   4.455  17.618  1.3379  1.8426 -2.3559
 1851SOL    HW217187   2.681   4.585  17.660  2.2001  0.5728  0.0700
 1852SOL     OW17188   1.808   3.401   7.795  0.4741 -0.7554 -0.5344
 1852SOL    HW117189   1.803   3.326   7.737  0.6932 -0.7593 -0.5458
 1852SOL    HW217190   1.824   3.352   7.875  0.4815 -1.1687 -0.7924
 1853SOL     OW17191   3.074   3.442   5.684  0.1730 -0.0669 -0.2363
 1853SOL    HW117192   3.074   3.537   5.692 -2.6789 -0.1997  1.7300
 1853SOL    HW217193   2.998   3.416   5.736 -1.5518  1.3032 -2.0875
 1854SOL     OW17194   1.528   3.835   3.267  0.1478 -0.1228 -0.3247
 1854SOL    HW117195   1.566   3.748   3.280 -2.2072 -1.4100 -1.9142
 1854SOL    HW217196   1.437   3.825   3.295  0.7811 -1.3644  1.3349
 1855SOL     OW17197   0.529   1.336   3.045 -0.1224 -0.1670  0.3085
 1855SOL    HW117198   0.510   1.242   3.046  0.4430 -0.2797  0.1871
 1855SOL    HW217199   0.480   1.370   2.971  0.3203 -2.4573 -1.0619
 1856SOL     OW17200   3.648   3.228  10.780  0.0364  0.5943 -0.5936
 1856SOL    HW117201   3.692   3.167  10.840  0.2274 -0.3695 -1.7142
 1856SOL    HW217202   3.577   3.248  10.841 -2.0562 -0.9394 -2.5274
 1857SOL     OW17203   0.204   4.518   1.751  0.7065  0.0846 -0.4739
 1857SOL    HW117204   0.207   4.569   1.670  4.0654  0.2260 -0.2522
 1857SOL    HW217205   0.117   4.536   1.787  0.1253 -1.2543 -1.2036
 1858SOL     OW17206   0.448   2.787   9.212 -0.8809 -0.3751 -0.4728
 1858SOL    HW117207   0.403   2.866   9.181  0.8657  1.9017  2.7531
 1858SOL    HW217208   0.374   2.730   9.232 -1.3226 -0.0987 -1.3517
 1859SOL     OW17209   3.418   1.483   4.887 -0.4569 -0.1111  0.1816
 1859SOL    HW117210   3.380   1.524   4.809 -1.5146  1.2756  1.4201
 1859SOL    HW217211   3.389   1.393   4.875  0.6617 -0.9229  3.3780
 1860SOL     OW17212   0.814   3.487   6.472  0.5528  0.1137 -0.0843
 1860SOL    HW117213   0.787   3.404   6.432 -0.4090  0.8204 -0.9032
 1860SOL    HW217214   0.785   3.544   6.400  0.7027  0.2041 -0.0716
 1861SOL     OW17215   2.008   1.223   6.678  0.3380 -0.4053 -0.5328
 1861SOL    HW117216   2.063   1.293   6.643  0.4836  0.2849  1.0601
 1861SOL    HW217217   1.962   1.198   6.598 -0.4576  4.0813 -1.5077
 1862SOL     OW17218   0.616   1.896  16.711 -0.1498 -0.4063 -0.0049
 1862SOL    HW117219   0.533   1.849  16.713 -0.9012  0.9243  0.3229
 1862SOL    HW217220   0.608   1.977  16.660 -2.3681 -1.0738 -0.7421
 1863SOL     OW17221   1.815   2.475  13.072  0.0714  0.3888  0.1952
 1863SOL    HW117222   1.830   2.426  13.153  0.8840  0.0756 -0.1502
 1863SOL    HW217223   1.735   2.522  13.098 -1.1220 -0.4999 -1.8933
 1864SOL     OW17224   4.542   3.029  13.408  0.4123 -0.7864 -0.2829
 1864SOL    HW117225   4.581   3.113  13.385 -0.4088  0.3115  2.3170
 1864SOL    HW217226   4.477   3.009  13.340 -1.1345 -1.8048  1.4870
 1865SOL     OW17227   0.298   1.207   5.605 -0.0980 -0.1065  0.4789
 1865SOL    HW117228   0.289   1.220   5.510 -0.5983  1.3796  0.7306
 1865SOL    HW217229   0.207   1.216   5.634 -0.2082  0.7922 -0.1339
 1866SOL     OW17230   2.323   2.310   3.370  0.3560  0.2038  0.4704
 1866SOL    HW117231   2.250   2.340   3.315  2.5432  3.3032 -0.7838
 1866SOL    HW217232   2.305   2.371   3.442  0.4572  1.2308 -0.3725
 1867SOL     OW17233   2.594   1.186   5.673 -0.2696 -0.1524 -0.1312
 1867SOL    HW117234   2.515   1.136   5.654 -0.3084 -0.6524  1.3212
 1867SOL    HW217235   2.662   1.141   5.624  0.2554 -0.3890  0.8085
 1868SOL     OW17236   0.914   3.493   9.083  0.3379  0.1223  0.2464
 1868SOL    HW117237   0.867   3.526   9.006  0.0103  0.9367  0.7972
 1868SOL    HW217238   0.839   3.452   9.128  2.3961 -2.1315  1.5966
 1869SOL     OW17239   1.192   2.645   6.075 -0.1245 -0.1599  0.1300
 1869SOL    HW117240   1.160   2.703   6.144  1.2358 -1.2168  1.6208
 1869SOL    HW217241   1.111   2.606   6.043  0.3374 -0.8039 -0.2429
 1870SOL     OW17242   0.011   3.492   3.602 -0.1858  0.4234  0.4172
 1870SOL    HW117243   4.728   3.585   3.599  0.2034  0.5413  1.0544
 1870SOL    HW217244   0.002   3.479   3.696  0.6209 -2.0903  0.1495
 1871SOL     OW17245   0.803   2.205   3.350  0.0339 -0.3763 -0.4952
 1871SOL    HW117246   0.835   2.268   3.286  0.2713 -0.4569 -0.4537
 1871SOL    HW217247   0.726   2.185   3.297 -1.4019 -2.2713  2.3221
 1872SOL     OW17248   3.143   1.175   1.609 -0.1052 -0.3436  0.2584
 1872SOL    HW117249   3.109   1.140   1.691  1.8571 -1.6225  0.5237
 1872SOL    HW217250   3.179   1.257   1.643  0.8049 -0.8548  0.5570
 1873SOL     OW17251   0.055   3.818   3.994 -0.3164 -0.6485  0.0902
 1873SOL    HW117252   0.116   3.806   4.067  0.7934 -0.9818 -0.9039
 1873SOL    HW217253   0.016   3.904   4.011  1.4386  0.0849  0.4148
 1874SOL     OW17254   3.694   0.539   8.592  0.0538 -0.3784  0.4324
 1874SOL    HW117255   3.719   0.551   8.684 -0.5097  3.4339  0.0641
 1874SOL    HW217256   3.768   0.490   8.556  0.7228  0.3111  0.8662
 1875SOL     OW17257   2.568   3.814   7.765  0.1761 -0.1567 -0.1061
 1875SOL    HW117258   2.510   3.801   7.690 -0.8592  1.0821  0.4946
 1875SOL    HW217259   2.582   3.908   7.766  1.7014 -0.3616 -1.8204
 1876SOL     OW17260   3.779   4.131   3.831 -0.1384  0.0535 -0.0464
 1876SOL    HW117261   3.792   4.189   3.755 -1.7712 -0.1354 -0.4746
 1876SOL    HW217262   3.793   4.196   3.900 -0.1351  0.4164 -0.3908
 1877SOL     OW17263   0.649   2.675  11.369 -0.3936 -0.5199  0.0278
 1877SOL    HW117264   0.723   2.638  11.419  0.8418  2.0689  0.1148
 1877SOL    HW217265   0.677   2.647  11.282 -0.2280  1.1446 -0.4514
 1878SOL     OW17266   3.612   1.998   5.997  0.2332 -0.0272  0.3469
 1878SOL    HW117267   3.523   2.026   6.019  0.1440 -0.1361  0.1300
 1878SOL    HW217268   3.629   1.935   6.067  3.3516  1.5577  1.0055
 1879SOL     OW17269   3.033   1.968   1.148  0.0317  0.2229 -0.5184
 1879SOL    HW117270   3.128   1.953   1.158  0.1509  0.9347 -0.6024
 1879SOL    HW217271   3.007   1.881   1.118  0.0258  0.0603 -0.0404
 1880SOL     OW17272   2.734   3.639  10.750  0.9481  0.1754 -0.3012
 1880SOL    HW117273   2.829   3.625  10.749  0.8361 -0.7620  1.5638
 1880SOL    HW217274   2.728   3.686  10.667 -0.4691 -0.1711 -0.3913
 1881SOL     OW17275   2.980   0.522   3.225  0.3071 -0.1965  0.4244
 1881SOL    HW117276   3.041   0.488   3.160  0.1432  0.7365 -0.2263
 1881SOL    HW217277   2.924   0.448   3.247 -1.9150  1.5385  0.5644
 1882SOL     OW17278   2.372   0.830   1.166  0.1438 -0.4997 -0.2466
 1882SOL    HW117279   2.439   0.839   1.233  0.5820 -0.6055 -0.6709
 1882SOL    HW217280   2.292   0.805   1.212 -0.5876 -0.5530 -1.5399
 1883SOL     OW17281   3.672   4.450   4.989 -0.1950  0.3727  0.4162
 1883SOL    HW117282   3.702   4.435   4.900  1.5697 -0.1688  1.0985
 1883SOL    HW217283   3.753   4.418   5.029 -0.8549 -1.2241  0.4889
 1884SOL     OW17284   3.271   3.360   5.851 -0.3727  0.6943 -0.1249
 1884SOL    HW117285   3.215   3.403   5.786  0.1411  0.4263 -0.7496
 1884SOL    HW217286   3.202   3.312   5.898 -1.1439  0.7576 -1.1894
 1885SOL     OW17287   4.364   3.526   2.905  0.1545 -0.1176 -0.8642
 1885SOL    HW117288   4.307   3.600   2.882 -0.3513 -0.0472  0.6403
 1885SOL    HW217289   4.392   3.498   2.818  3.1322  2.0237 -0.6139
 1886SOL     OW17290   0.951   2.617   8.310 -0.1517 -0.0186 -0.0091
 1886SOL    HW117291   1.017   2.644   8.247  1.7998 -1.9737  1.1851
 1886SOL    HW217292   0.902   2.541   8.278  0.5282  0.5664 -2.4202
 1887SOL     OW17293   1.947   0.903   3.948 -0.2304  0.0710 -0.0535
 1887SOL    HW117294   1.874   0.960   3.923 -0.1267  0.5009  0.5984
 1887SOL    HW217295   1.892   0.836   3.989  0.7720 -1.0229 -0.5315
 1888SOL     OW17296   1.891   1.121   5.830 -0.6762 -0.1744  0.2793
 1888SOL    HW117297   1.971   1.140   5.879 -0.1922  0.2147 -0.6510
 1888SOL    HW217298   1.851   1.207   5.815  0.8907  0.5193  0.1125
 1889SOL     OW17299   0.651   4.368  14.714  0.2374 -0.5362  0.2287
 1889SOL    HW117300   0.709   4.307  14.669 -0.3116  0.6355 -2.0659
 1889SOL    HW217301   0.712   4.423  14.764  0.5862 -1.9731  1.3910
 1890SOL     OW17302   0.082   4.566   5.904 -0.1329 -0.5740  0.4140
 1890SOL    HW117303   0.128   4.648   5.924 -0.3330 -0.0798 -1.1559
 1890SOL    HW217304   0.018   4.558   5.975 -1.7477  0.7842 -0.9011
 1891SOL     OW17305   0.601   3.921   2.782 -0.6573 -0.3953 -0.3640
 1891SOL    HW117306   0.611   3.928   2.877 -0.4244  0.3284 -0.4397
 1891SOL    HW217307   0.506   3.932   2.774 -0.4503  0.4443 -1.6731
 1892SOL     OW17308   3.788   1.152   7.860  1.0694  0.0437  0.4265
 1892SOL    HW117309   3.700   1.118   7.848  1.2860 -0.5069  0.3714
 1892SOL    HW217310   3.797   1.150   7.956 -0.1621 -1.3084  0.5122
 1893SOL     OW17311   3.412   1.772   5.636 -0.2017 -0.5911  0.4585
 1893SOL    HW117312   3.401   1.715   5.559  0.5448 -0.8755  0.5661
 1893SOL    HW217313   3.370   1.717   5.702 -2.5287  1.7955  0.9301
 1894SOL     OW17314   2.978   0.973   6.630 -0.3876 -0.3867 -0.4712
 1894SOL    HW117315   2.890   1.005   6.649 -0.0236 -0.0924  0.7112
 1894SOL    HW217316   2.969   0.878   6.639  1.1466 -0.6282 -1.3613
 1895SOL     OW17317   4.312   4.420  10.374  0.2432  0.1273  0.1468
 1895SOL    HW117318   4.315   4.509  10.338  2.6185 -0.1817 -0.3886
 1895SOL    HW217319   4.374   4.418  10.447 -0.2977 -3.1995  0.4710
 1896SOL     OW17320   0.526   3.843  10.435 -0.4319 -0.0272  0.1709
 1896SOL    HW117321   0.539   3.886  10.519 -2.3904 -0.5221  0.7096
 1896SOL    HW217322   0.434   3.856  10.413  0.0241 -0.6243 -2.1516
 1897SOL     OW17323   0.912   2.626   6.309  0.5481  0.4573  0.3047
 1897SOL    HW117324   0.949   2.703   6.265  1.9338  0.1198  0.8749
 1897SOL    HW217325   0.960   2.560   6.259 -0.6409  0.6968 -1.1646
 1898SOL     OW17326   2.265   1.370   9.275 -0.4136  0.0276  0.0797
 1898SOL    HW117327   2.258   1.442   9.213 -0.6007  1.1892  1.4568
 1898SOL    HW217328   2.213   1.397   9.350 -0.5120  1.3707 -0.4834
 1899SOL     OW17329   3.378   4.372  10.604 -0.0871 -0.5723 -0.0824
 1899SOL    HW117330   3.288   4.399  10.583  0.2499  0.5525 -0.0971
 1899SOL    HW217331   3.429   4.452  10.587 -0.1853 -0.4002  0.4267
 1900SOL     OW17332   0.630   4.583   5.629 -0.3890  0.3694  0.5636
 1900SOL    HW117333   0.652   4.543   5.713  0.2122  0.6375  0.5336
 1900SOL    HW217334   0.545   4.624   5.649 -0.9805 -0.5700 -0.0083
 1901SOL     OW17335   1.492   0.901   2.118 -0.1438 -0.6992 -0.3009
 1901SOL    HW117336   1.476   0.845   2.042 -2.0397 -0.7534  0.1436
 1901SOL    HW217337   1.586   0.894   2.135  0.1624 -1.9133 -2.4758
 1902SOL     OW17338   3.721   2.648   0.578 -0.6020 -0.0634 -0.3770
 1902SOL    HW117339   3.746   2.692   0.659  0.6729  0.3981 -1.0111
 1902SOL    HW217340   3.660   2.582   0.610  0.0057 -1.1549 -1.4371
 1903SOL     OW17341   4.499   1.701   5.303  0.2973  0.0024 -0.1055
 1903SOL    HW117342   4.511   1.661   5.217 -0.8239 -0.9304  0.1774
 1903SOL    HW217343   4.434   1.770   5.286  1.9797  1.7000  0.3599
 1904SOL     OW17344   2.266   3.160  13.950 -0.1836 -0.4028 -0.0525
 1904SOL    HW117345   2.186   3.169  14.002  0.5222 -0.4801  1.0592
 1904SOL    HW217346   2.320   3.225  13.996 -0.1244 -0.5814  0.1294
 1905SOL     OW17347   3.511   4.445   7.010 -0.3217  0.3101  0.4604
 1905SOL    HW117348   3.519   4.513   7.077 -0.6140  2.0446 -1.2631
 1905SOL    HW217349   3.560   4.476   6.934  1.3537  3.2971  2.7265
 1906SOL     OW17350   4.531   3.581   8.374 -0.3089 -0.3814  0.3241
 1906SOL    HW117351   4.446   3.571   8.332 -0.4815 -0.9309  0.7927
 1906SOL    HW217352   4.588   3.611   8.303 -1.0346 -0.4163 -0.2642
 1907SOL     OW17353   1.923   3.531  11.721 -0.1550  0.2140 -0.2182
 1907SOL    HW117354   1.902   3.542  11.814  0.0050 -0.0181 -0.1552
 1907SOL    HW217355   1.995   3.595  11.716 -0.6125  0.8203  0.8207
 1908SOL     OW17356   3.894   2.717   2.726 -0.2628  0.0112  0.1102
 1908SOL    HW117357   3.921   2.712   2.818  0.6856  4.7238  0.0767
 1908SOL    HW217358   3.978   2.733   2.683 -1.5362 -0.5621 -2.5483
 1909SOL     OW17359   0.559   0.948  12.149  0.1089 -0.2289 -0.9302
 1909SOL    HW117360   0.505   0.920  12.222 -0.8681 -0.9212 -1.9137
 1909SOL    HW217361   0.592   1.024  12.197  1.7475 -1.3324 -0.3026
 1910SOL     OW17362   1.233   3.805   8.178 -0.4923 -0.0565  0.0931
 1910SOL    HW117363   1.151   3.840   8.144 -0.2739  1.3685  1.0444
 1910SOL    HW217364   1.288   3.823   8.102 -1.4427 -0.7328 -0.7609
 1911SOL     OW17365   3.807   1.297   7.579 -0.1087  0.1306  0.0535
 1911SOL    HW117366   3.744   1.367   7.588  0.2351  0.8211 -2.8263
 1911SOL    HW217367   3.816   1.265   7.669 -2.5511  0.5349  0.4304
 1912SOL     OW17368   3.007   4.129  13.165  0.0349  0.4877 -0.0646
 1912SOL    HW117369   3.063   4.152  13.239  1.1050 -2.0104 -0.1167
 1912SOL    HW217370   2.961   4.058  13.210 -0.4889  0.2163 -1.0115
 1913SOL     OW17371   2.137   1.936  16.942  0.2874 -0.1445  0.0031
 1913SOL    HW117372   2.123   1.996  17.015  0.1825 -0.4152  0.2085
 1913SOL    HW217373   2.233   1.935  16.947  0.3899 -2.6051 -2.2813
 1914SOL     OW17374   4.734   4.273   3.909 -0.8037 -0.0133 -0.0902
 1914SOL    HW117375   0.013   4.309   3.823 -0.6004 -2.6806 -1.1769
 1914SOL    HW217376   4.668   4.336   3.936 -0.6649 -0.2620  0.8229
 1915SOL     OW17377   1.972   1.473   7.913 -0.2946 -0.5260 -0.1983
 1915SOL    HW117378   1.884   1.498   7.941 -0.2978 -0.9414  0.1542
 1915SOL    HW217379   1.950   1.415   7.841  1.7335  0.7348 -1.8211
 1916SOL     OW17380   1.108   4.564  16.628 -0.0682 -0.4276  0.0117
 1916SOL    HW117381   1.041   4.496  16.631  0.1353 -0.5716  1.2565
 1916SOL    HW217382   1.184   4.517  16.594 -0.5355 -1.1594 -0.0047
 1917SOL     OW17383   4.605   4.213   7.049  0.2516 -0.4720  0.2933
 1917SOL    HW117384   4.540   4.150   7.079  0.8445 -1.7692 -1.1628
 1917SOL    HW217385   4.565   4.299   7.065  1.3206 -0.1605  1.3061
 1918SOL     OW17386   1.907   1.138   1.512  0.6595 -0.4862 -0.0535
 1918SOL    HW117387   1.967   1.181   1.451  0.9826  0.7215  1.1196
 1918SOL    HW217388   1.937   1.167   1.598  0.4262  1.3902 -0.6085
 1919SOL     OW17389   0.082   4.034   2.654  0.5095 -0.5528 -0.3872
 1919SOL    HW117390   0.035   4.083   2.722  0.6123 -2.4234  1.0404
 1919SOL    HW217391   0.064   4.099   2.585  1.2877 -1.7573 -1.7125
 1920SOL     OW17392   0.681   0.744  12.039  0.0900 -0.2999  0.0075
 1920SOL    HW117393   0.672   0.831  12.078 -1.4920 -0.7334  0.5836
 1920SOL    HW217394   0.632   0.749  11.957 -0.5383 -2.1360  0.2666
 1921SOL     OW17395   0.316   0.290   3.095  0.1028 -0.0113 -0.3916
 1921SOL    HW117396   0.260   0.249   3.028  0.2626 -1.9859  0.6553
 1921SOL    HW217397   0.368   0.354   3.047  1.0670 -0.4859  0.0152
 1922SOL     OW17398   1.297   4.148  15.512  0.0373  0.0094  0.3326
 1922SOL    HW117399   1.359   4.093  15.559 -0.6366 -0.2725  0.9062
 1922SOL    HW217400   1.292   4.085  15.440  1.2202  0.9146 -0.5453
 1923SOL     OW17401   0.586   3.939   4.440  0.0001  0.0624  0.1991
 1923SOL    HW117402   0.577   3.869   4.504  0.6452  0.0792  0.3103
 1923SOL    HW217403   0.656   3.992   4.477 -0.5920 -0.3637  1.9178
 1924SOL     OW17404   3.118   0.059  14.166  0.0401 -0.0887  1.1049
 1924SOL    HW117405   3.180   0.047  14.093  0.3799  3.1251  0.8697
 1924SOL    HW217406   3.042   0.089  14.116  1.5263 -0.1209 -1.1632
 1925SOL     OW17407   0.338   4.211   7.884 -0.6309 -0.4871 -0.3103
 1925SOL    HW117408   0.408   4.239   7.943  0.6143  0.6925 -2.3334
 1925SOL    HW217409   0.327   4.124   7.922  0.5715 -0.4997  0.0077
 1926SOL     OW17410   3.837   0.623   7.872  0.7401 -0.7646  0.4775
 1926SOL    HW117411   3.888   0.547   7.899  0.3621 -0.0538  3.1520
 1926SOL    HW217412   3.769   0.617   7.939  1.1689 -1.7599  0.8218
 1927SOL     OW17413   3.555   1.748   7.189 -0.3015 -0.1823 -0.2348
 1927SOL    HW117414   3.586   1.756   7.279 -0.1329  2.1506 -0.4960
 1927SOL    HW217415   3.483   1.812   7.190 -0.8566 -0.8338  1.1129
 1928SOL     OW17416   4.353   4.196  11.927 -0.6027  0.1129 -0.1616
 1928SOL    HW117417   4.448   4.196  11.911 -0.3564  1.3231  1.3397
 1928SOL    HW217418   4.317   4.246  11.853 -0.1404  1.4396  0.5154
 1929SOL     OW17419   3.964   3.930   8.517 -0.2536 -0.1383 -0.3585
 1929SOL    HW117420   3.964   3.930   8.613  0.8667  2.6127 -0.3733
 1929SOL    HW217421   3.901   4.001   8.503  0.8433  0.6662 -1.1062
 1930SOL     OW17422   1.470   2.512  10.085  0.2571 -0.5128 -0.5008
 1930SOL    HW117423   1.561   2.544  10.090 -0.5308  1.6477 -0.1017
 1930SOL    HW217424   1.448   2.541  10.173 -1.3916  2.2711 -1.8221
 1931SOL     OW17425   4.733   2.429   5.121  0.7388 -0.2534  0.0523
 1931SOL    HW117426   0.062   2.451   5.183 -0.5067  2.3625  0.5146
 1931SOL    HW217427   0.017   2.347   5.079  0.3747 -0.1763 -0.3132
 1932SOL     OW17428   2.652   1.274  17.323  0.2698 -0.6570 -0.1895
 1932SOL    HW117429   2.583   1.221  17.364 -0.2874  0.4230  0.2604
 1932SOL    HW217430   2.594   1.349  17.311  1.0147 -0.1132 -0.4267
 1933SOL     OW17431   0.938   3.634   3.720  0.4738  0.5497 -0.1962
 1933SOL    HW117432   1.004   3.583   3.673  0.2462  0.4182 -0.3723
 1933SOL    HW217433   0.895   3.575   3.782  0.4005  0.2382 -0.5494
 1934SOL     OW17434   4.639   1.167   3.903 -0.2996  0.2253 -0.1647
 1934SOL    HW117435   4.707   1.130   3.959  1.0186 -1.7634 -3.0985
 1934SOL    HW217436   4.662   1.129   3.819  2.1704  0.7307  0.2918
 1935SOL     OW17437   3.077   2.215   5.493  0.0403 -0.0232  0.1497
 1935SOL    HW117438   3.080   2.153   5.420  2.0092  1.5579 -1.1111
 1935SOL    HW217439   3.048   2.301   5.461 -1.4433  0.0649  1.8012
 1936SOL     OW17440   0.619   3.297   4.115 -0.2270  0.3672  0.0126
 1936SOL    HW117441   0.687   3.230   4.115 -1.3299 -0.7395  2.5157
 1936SOL    HW217442   0.676   3.373   4.127 -0.2900  0.3510  0.3957
 1937SOL     OW17443   3.840   0.006   7.799 -0.4523  0.3094  0.7830
 1937SOL    HW117444   3.874   4.663   7.764  0.2443  0.4021  1.2458
 1937SOL    HW217445   3.921   0.055   7.810 -0.3365  0.8451 -2.3810
 1938SOL     OW17446   2.501   2.431   8.293 -0.0222  0.2601  0.2405
 1938SOL    HW117447   2.439   2.400   8.359  1.0963 -0.7242  0.8380
 1938SOL    HW217448   2.472   2.520   8.273 -2.8814 -0.8003 -0.2401
 1939SOL     OW17449   1.673   3.321   5.211 -0.3320 -0.2208 -0.2949
 1939SOL    HW117450   1.674   3.395   5.150 -1.7304  2.8923  3.4445
 1939SOL    HW217451   1.698   3.242   5.161 -0.5094  2.2347 -4.2923
 1940SOL     OW17452   0.821   3.207   7.866 -0.2812  0.4306  0.4721
 1940SOL    HW117453   0.880   3.185   7.794 -1.5593 -0.0011 -0.4314
 1940SOL    HW217454   0.733   3.187   7.836  0.1316  1.5440 -1.5119
 1941SOL     OW17455   3.527   3.264   8.140  1.1973 -0.1375  0.0783
 1941SOL    HW117456   3.616   3.293   8.121  1.1118  1.0257  1.4379
 1941SOL    HW217457   3.473   3.314   8.078  0.3550  2.5124  2.9714
 1942SOL     OW17458   3.201   3.186  12.310  0.1570  0.1570  0.5065
 1942SOL    HW117459   3.124   3.229  12.348  0.4176  1.2808 -0.2378
 1942SOL    HW217460   3.262   3.244  12.355  1.2746  0.8785 -1.9522
 1943SOL     OW17461   1.598   2.763   7.005  0.3340 -0.3144 -0.7932
 1943SOL    HW117462   1.658   2.728   7.069 -1.7386 -1.3867  0.5684
 1943SOL    HW217463   1.556   2.682   6.977  2.4083 -2.2236  1.7256
 1944SOL     OW17464   0.313   2.225   9.572  0.0671 -0.4594 -0.1609
 1944SOL    HW117465   0.230   2.200   9.531  0.7498 -1.8149 -0.6769
 1944SOL    HW217466   0.382   2.207   9.508 -0.5330 -0.0856 -0.9225
 1945SOL     OW17467   0.309   2.321   8.601  0.2770  0.3381 -0.6465
 1945SOL    HW117468   0.341   2.327   8.691  1.6505 -2.1789 -0.9802
 1945SOL    HW217469   0.386   2.351   8.553 -1.1794  1.1580 -2.5054
 1946SOL     OW17470   1.207   1.885  12.967 -0.2795  0.0199 -1.1528
 1946SOL    HW117471   1.296   1.895  12.933 -0.5308  1.6424 -1.3348
 1946SOL    HW217472   1.161   1.925  12.893 -0.6467  0.7099 -0.5601
 1947SOL     OW17473   1.305   1.723   5.633  0.1844  0.1112 -0.4060
 1947SOL    HW117474   1.259   1.685   5.708 -1.2026 -1.0566 -1.8447
 1947SOL    HW217475   1.238   1.731   5.565  1.5409  0.9484 -1.6269
 1948SOL     OW17476   3.187   1.941  13.268 -0.0982 -0.2828  0.1629
 1948SOL    HW117477   3.198   1.850  13.238  1.6803 -0.3377  0.9779
 1948SOL    HW217478   3.126   1.963  13.197  1.5628 -1.1288 -1.5278
 1949SOL     OW17479   2.690   1.008   6.619 -0.0968 -0.9119 -0.4101
 1949SOL    HW117480   2.681   1.024   6.713 -3.3718 -0.5131 -0.7876
 1949SOL    HW217481   2.618   1.053   6.575  1.9696 -0.8127 -3.7039
 1950SOL     OW17482   0.712   3.156   9.245 -1.0272 -0.3669 -0.3409
 1950SOL    HW117483   0.729   3.244   9.212 -0.4072 -0.5319 -0.4574
 1950SOL    HW217484   0.640   3.110   9.201 -1.5143  0.0609  0.0043
 1951SOL     OW17485   2.100   4.396   1.779 -0.6419 -0.2087 -0.0949
 1951SOL    HW117486   2.082   4.314   1.826  1.2983  0.3464  1.5781
 1951SOL    HW217487   2.099   4.458   1.852 -2.5628 -0.5380  0.1611
 1952SOL     OW17488   0.625   0.168   8.161  0.2915 -0.4334 -0.5036
 1952SOL    HW117489   0.592   0.095   8.212  0.0042 -0.2715 -0.4584
 1952SOL    HW217490   0.709   0.182   8.204 -0.7720  0.2017  1.3376
 1953SOL     OW17491   0.449   4.416  17.410 -0.4202  0.0322  0.0280
 1953SOL    HW117492   0.450   4.485  17.477 -1.3243 -0.6080  0.6910
 1953SOL    HW217493   0.359   4.427  17.380 -0.7264 -0.9350  0.6062
 1954SOL     OW17494   1.695   3.287   3.347 -0.3811  0.0758  0.2032
 1954SOL    HW117495   1.698   3.255   3.437  1.3093 -1.7072 -0.4655
 1954SOL    HW217496   1.634   3.223   3.310  0.5520  0.6394 -2.2629
 1955SOL     OW17497   0.479   3.982   8.103  0.0394  0.4341 -0.0339
 1955SOL    HW117498   0.557   3.931   8.084 -1.3803 -0.2532 -3.9673
 1955SOL    HW217499   0.513   4.039   8.172 -0.5215  0.7371 -0.0037
 1956SOL     OW17500   1.759   2.083  11.911 -0.3665 -0.0178 -0.3513
 1956SOL    HW117501   1.699   2.132  11.854  0.3596 -0.7252 -1.7487
 1956SOL    HW217502   1.840   2.081  11.861  1.1001 -0.6647  2.0630
 1957SOL     OW17503   3.811   1.873   3.573  0.7414  0.3269  0.2402
 1957SOL    HW117504   3.723   1.843   3.553  1.3391 -2.6753  2.0401
 1957SOL    HW217505   3.799   1.880   3.667  1.5484 -1.0256  0.4474
 1958SOL     OW17506   2.279   0.358   3.543 -0.4866  0.0307 -0.1238
 1958SOL    HW117507   2.374   0.356   3.531 -0.3220 -0.7125  1.2811
 1958SOL    HW217508   2.271   0.436   3.598  2.7279  0.5110 -0.2956
 1959SOL     OW17509   1.562   0.612   2.636  0.1814 -0.6817  0.1196
 1959SOL    HW117510   1.620   0.632   2.709  1.0026 -0.0144 -0.7168
 1959SOL    HW217511   1.614   0.553   2.583  0.6100  0.2201 -0.4621
 1960SOL     OW17512   1.998   2.622  12.423  0.1883 -0.0934 -0.2672
 1960SOL    HW117513   2.070   2.685  12.422 -1.1085  1.3479 -1.7887
 1960SOL    HW217514   1.993   2.596  12.515 -1.9528  3.2701  0.5622
 1961SOL     OW17515   2.984   1.979   6.514  0.1663 -0.0006 -0.1282
 1961SOL    HW117516   3.013   2.062   6.475  2.0504 -0.5393  0.0917
 1961SOL    HW217517   2.928   2.016   6.582 -1.0766  1.7323 -2.1205
 1962SOL     OW17518   1.079   4.522   4.976  0.1245 -0.3499 -0.4124
 1962SOL    HW117519   1.132   4.558   4.905 -0.0447  0.1640 -0.2760
 1962SOL    HW217520   1.105   4.578   5.049  0.3475  0.1568 -0.8768
 1963SOL     OW17521   2.525   3.357   2.575  0.3414 -0.5343 -0.0653
 1963SOL    HW117522   2.515   3.271   2.615  0.7603 -0.6563 -0.2220
 1963SOL    HW217523   2.556   3.332   2.488 -0.6440 -2.0090  0.0075
 1964SOL     OW17524   1.640   1.710   5.386 -0.2453  0.3971 -0.1221
 1964SOL    HW117525   1.649   1.671   5.473  3.2314 -0.0522 -0.6730
 1964SOL    HW217526   1.560   1.759   5.401  0.4213  0.9135  1.7914
 1965SOL     OW17527   1.053   0.708   8.478 -0.3725 -0.4466 -0.4364
 1965SOL    HW117528   0.985   0.702   8.545 -0.2694 -0.4442 -0.3293
 1965SOL    HW217529   1.006   0.751   8.407 -0.4646  0.8943  0.4486
 1966SOL     OW17530   4.065   3.423   4.530 -0.1142 -0.7338  0.4691
 1966SOL    HW117531   3.972   3.415   4.511  0.1946 -1.2277 -0.7913
 1966SOL    HW217532   4.101   3.471   4.456 -0.2533  2.9107  2.7498
 1967SOL     OW17533   0.008   3.210   2.134  0.3256  0.2020 -0.1393
 1967SOL    HW117534   0.072   3.262   2.085 -1.1725 -1.7812 -4.2427
 1967SOL    HW217535   4.676   3.259   2.095 -0.1314 -0.2069  0.1786
 1968SOL     OW17536   1.952   3.075   8.687 -0.1453  0.0218 -0.7115
 1968SOL    HW117537   1.867   3.052   8.725 -0.8352  3.7840  0.0224
 1968SOL    HW217538   1.975   3.159   8.727  1.2883 -0.9874  0.5959
 1969SOL     OW17539   2.424   0.628   5.724 -0.3853  0.5237  0.1462
 1969SOL    HW117540   2.406   0.658   5.635  1.7099  1.0152 -0.1151
 1969SOL    HW217541   2.500   0.687   5.726 -1.4735  1.9375 -0.3863
 1970SOL     OW17542   1.976   0.892   1.940  0.9326 -0.0193 -0.0419
 1970SOL    HW117543   2.021   0.852   1.866 -0.1462  0.2078 -0.8362
 1970SOL    HW217544   2.024   0.867   2.018 -2.1287 -0.2270  1.7801
 1971SOL     OW17545   1.878   1.220  14.950 -0.8661  1.0691 -0.3701
 1971SOL    HW117546   1.928   1.295  14.983  0.6968 -0.5313  0.9204
 1971SOL    HW217547   1.938   1.180  14.887  1.6785  0.9950  2.0436
 1972SOL     OW17548   0.549   0.423  14.480  0.0884 -0.5508  0.0180
 1972SOL    HW117549   0.516   0.513  14.481  0.8388 -0.2662 -1.2338
 1972SOL    HW217550   0.642   0.446  14.484 -0.2214  0.9278 -1.2749
 1973SOL     OW17551   0.414   3.545   8.280 -0.4491 -0.0287 -0.0786
 1973SOL    HW117552   0.446   3.470   8.229  1.1523 -1.6603  3.3127
 1973SOL    HW217553   0.323   3.535   8.251 -0.9349 -1.3315  1.8722
 1974SOL     OW17554   3.968   1.105   6.685  0.2037  0.1403  0.2794
 1974SOL    HW117555   4.011   1.190   6.695 -0.0550 -0.2282  4.2564
 1974SOL    HW217556   3.880   1.117   6.719  0.2180  2.1190 -0.4106
 1975SOL     OW17557   3.179   0.804   1.610 -0.2960  1.2758 -0.0053
 1975SOL    HW117558   3.240   0.821   1.682 -0.7050 -0.4412  0.7557
 1975SOL    HW217559   3.096   0.802   1.658 -1.3106  5.9794 -1.5527
 1976SOL     OW17560   0.980   0.423  11.746 -0.1533  0.0536 -0.5815
 1976SOL    HW117561   1.021   0.374  11.675 -0.2203 -0.9420  0.0582
 1976SOL    HW217562   1.032   0.389  11.819  1.4743  1.0899 -1.2705
 1977SOL     OW17563   0.235   3.650   8.671 -0.4370 -0.4835 -0.3832
 1977SOL    HW117564   0.315   3.602   8.650 -0.7023 -0.5097 -1.3209
 1977SOL    HW217565   0.244   3.713   8.599  0.6119  0.1398  0.2939
 1978SOL     OW17566   2.113   1.062   5.972  0.0296 -0.2397 -0.6593
 1978SOL    HW117567   2.134   1.004   5.898 -0.0490  0.3426 -1.1323
 1978SOL    HW217568   2.098   0.999   6.043  1.8270  0.0262 -0.0572
 1979SOL     OW17569   4.619   1.935   2.416 -0.3711 -0.3509  0.2284
 1979SOL    HW117570   4.538   1.954   2.464 -0.0543  3.2245 -0.6051
 1979SOL    HW217571   4.675   1.922   2.493  0.3656  0.0705 -0.2412
 1980SOL     OW17572   0.874   3.177   3.330  0.3313  0.4342 -0.3734
 1980SOL    HW117573   0.833   3.231   3.398  0.3153  1.5809 -1.2838
 1980SOL    HW217574   0.871   3.242   3.260 -1.5568  3.3610  2.3863
 1981SOL     OW17575   0.148   0.615   4.119 -0.3114  0.1384  0.0009
 1981SOL    HW117576   0.110   0.619   4.031  2.0695 -1.2243 -1.0741
 1981SOL    HW217577   0.233   0.580   4.095  0.6500  1.9795  0.7032
 1982SOL     OW17578   4.110   0.412  16.615 -0.3490 -0.3642 -0.2072
 1982SOL    HW117579   4.029   0.361  16.622  1.2673 -2.6113  1.8173
 1982SOL    HW217580   4.114   0.451  16.702 -1.9005  1.3719 -0.9189
 1983SOL     OW17581   1.682   0.303   8.713  0.0859  0.1518 -0.2340
 1983SOL    HW117582   1.603   0.352   8.738 -0.9788 -1.0711 -1.1914
 1983SOL    HW217583   1.743   0.328   8.782  0.7012  1.3334 -1.2047
 1984SOL     OW17584   2.341   0.486  14.794  0.5751 -0.7286  0.0453
 1984SOL    HW117585   2.294   0.569  14.791  0.3067 -0.8160  1.9269
 1984SOL    HW217586   2.318   0.439  14.714  2.0169 -0.6331 -0.4345
 1985SOL     OW17587   0.379   4.707   4.912  0.5018 -0.0528  0.4266
 1985SOL    HW117588   0.372   4.685   5.005 -1.8783  2.9909  0.9878
 1985SOL    HW217589   0.463   0.013   4.911 -0.3151  1.4955  3.7941
 1986SOL     OW17590   3.856   0.032  15.123  0.1251  0.0826 -0.0351
 1986SOL    HW117591   3.834   0.123  15.102  0.5288  0.1972  0.0368
 1986SOL    HW217592   3.924   0.008  15.060 -0.3038 -2.2049  0.3878
 1987SOL     OW17593   1.472   1.922  12.811 -0.5418 -0.0739  0.0166
 1987SOL    HW117594   1.449   1.867  12.737  3.7178 -1.8649  0.0102
 1987SOL    HW217595   1.565   1.899  12.819 -1.0403 -1.8372  0.8438
 1988SOL     OW17596   1.101   1.278  15.327 -0.1284 -0.9056 -0.5042
 1988SOL    HW117597   1.168   1.283  15.396  0.3761 -0.8934 -0.9938
 1988SOL    HW217598   1.087   1.373  15.321 -0.9586 -0.8951  1.4784
 1989SOL     OW17599   1.991   3.240   5.480 -0.1275  0.1395  0.0770
 1989SOL    HW117600   1.949   3.180   5.419  1.3644 -1.9836  1.1504
 1989SOL    HW217601   2.078   3.232   5.443  0.5275 -2.6546  2.2168
 1990SOL     OW17602   0.846   2.350   6.289  0.1204  0.4968  0.4935
 1990SOL    HW117603   0.866   2.258   6.273  0.1668  0.1246  2.8049
 1990SOL    HW217604   0.886   2.362   6.375 -0.0579  4.2448  0.0637
 1991SOL     OW17605   0.504   0.861  12.873  0.0233 -0.3737  0.6647
 1991SOL    HW117606   0.441   0.862  12.944  0.8414  1.6216  1.3421
 1991SOL    HW217607   0.520   0.954  12.862  2.7245 -0.8405  0.6479
 1992SOL     OW17608   1.906   3.102   0.883 -0.2908  0.1865 -0.1720
 1992SOL    HW117609   1.815   3.076   0.866  0.0446  0.2546 -2.1189
 1992SOL    HW217610   1.885   3.163   0.953 -1.7244  0.3800 -0.7596
 1993SOL     OW17611   1.129   3.026   3.488 -0.0520 -0.3193 -0.2535
 1993SOL    HW117612   1.034   3.017   3.497  0.0391 -0.3500  0.6610
 1993SOL    HW217613   1.132   3.079   3.408 -1.2342  1.1051  0.6448
 1994SOL     OW17614   3.786   3.582  10.795 -0.4040 -0.4476 -0.4154
 1994SOL    HW117615   3.694   3.606  10.809  0.2440  2.3933 -1.1549
 1994SOL    HW217616   3.828   3.596  10.880  0.5159  2.7682 -1.4054
 1995SOL     OW17617   4.123   1.649  14.487  0.3947 -0.2096  0.1465
 1995SOL    HW117618   4.182   1.689  14.551  0.7855  1.3074 -1.1584
 1995SOL    HW217619   4.162   1.688  14.408  0.3427 -3.2616 -1.4108
 1996SOL     OW17620   1.039   3.929   4.322  0.0631  0.3410 -0.3266
 1996SOL    HW117621   1.029   4.019   4.291  1.4755  0.8119  0.5843
 1996SOL    HW217622   0.963   3.888   4.279 -1.0198  0.0459  1.8434
 1997SOL     OW17623   1.975   0.254  16.068  0.0002 -0.4901  0.8999
 1997SOL    HW117624   1.918   0.192  16.021 -0.1973  0.7349 -0.4845
 1997SOL    HW217625   2.054   0.250  16.015 -1.3294 -2.5695 -0.9684
 1998SOL     OW17626   1.992   0.415   6.507  0.2713  0.2854  0.2893
 1998SOL    HW117627   2.014   0.470   6.432 -0.3628  1.6950  1.1518
 1998SOL    HW217628   1.925   0.358   6.468  0.6561  0.4735 -0.6677
 1999SOL     OW17629   3.572   3.496   6.442 -0.8627  0.1000 -0.0721
 1999SOL    HW117630   3.514   3.430   6.479  0.0951 -0.4449  0.4600
 1999SOL    HW217631   3.506   3.559   6.412 -1.8156 -0.0478  1.7116
 2000SOL     OW17632   4.089   3.692  10.139 -0.3718  0.2127  0.1803
 2000SOL    HW117633   4.172   3.730  10.167 -1.0682  0.4275  1.9988
 2000SOL    HW217634   4.047   3.680  10.224 -0.9594 -1.6062 -0.3722
 2001SOL     OW17635   0.760   1.955  11.808  0.2074 -0.4343 -0.5804
 2001SOL    HW117636   0.757   2.039  11.763 -2.7093 -0.1627  0.1169
 2001SOL    HW217637   0.849   1.959  11.842  0.1399  0.4930 -0.5198
 2002SOL     OW17638   4.070   0.370   9.205 -0.2132  0.1699  0.0788
 2002SOL    HW117639   4.144   0.310   9.197  1.0791  1.8295 -0.4014
 2002SOL    HW217640   4.031   0.365   9.118 -0.8041  0.7882  0.2970
 2003SOL     OW17641   1.422   3.072   9.221  0.4545 -0.2737  0.3924
 2003SOL    HW117642   1.335   3.034   9.209  0.1932  0.2875  0.5185
 2003SOL    HW217643   1.412   3.165   9.199 -0.5017 -0.8060 -1.3830
 2004SOL     OW17644   1.415   1.816   0.915 -0.0706 -0.1179 -0.3961
 2004SOL    HW117645   1.456   1.811   1.002 -1.1738  0.2373  0.1445
 2004SOL    HW217646   1.446   1.902   0.889  0.1804 -0.0777  0.0311
 2005SOL     OW17647   2.532   0.781   5.093  0.0683 -0.3640 -0.2017
 2005SOL    HW117648   2.620   0.755   5.120 -0.4376 -3.2229 -1.2699
 2005SOL    HW217649   2.527   0.876   5.099  1.6347 -0.2806 -0.0502
 2006SOL     OW17650   1.006   2.959  13.906 -0.3415 -0.0824 -0.6820
 2006SOL    HW117651   1.050   3.040  13.879 -0.5993  0.5989  0.9366
 2006SOL    HW217652   1.062   2.894  13.863 -0.3057 -0.6697  0.2666
 2007SOL     OW17653   3.937   4.389  12.057  0.2336 -0.4675  0.0414
 2007SOL    HW117654   3.952   4.298  12.030 -0.5787 -0.5368 -0.1618
 2007SOL    HW217655   3.843   4.380  12.070 -0.2439 -0.1843 -3.1406
 2008SOL     OW17656   3.464   2.995  13.862  0.1959  0.2015  0.2968
 2008SOL    HW117657   3.460   2.932  13.934 -0.8984  0.1891  0.2158
 2008SOL    HW217658   3.372   3.005  13.837  0.9618 -3.0170 -3.6922
 2009SOL     OW17659   1.698   3.325  16.702 -0.0422 -0.1187  0.3652
 2009SOL    HW117660   1.680   3.242  16.658  1.9412  1.3578 -3.1725
 2009SOL    HW217661   1.731   3.298  16.788  0.0397  2.3117  1.1016
 2010SOL     OW17662   1.524   0.203   5.934 -0.9561 -0.3433  0.0088
 2010SOL    HW117663   1.541   0.274   5.873  0.5211 -1.3123 -0.7397
 2010SOL    HW217664   1.545   0.256   6.011 -0.6414  0.4740 -0.6444
 2011SOL     OW17665   0.743   2.114   1.707 -0.2851  0.6061 -0.5329
 2011SOL    HW117666   0.660   2.080   1.740 -1.0199  3.6785  0.7970
 2011SOL    HW217667   0.802   2.045   1.739 -0.4174  0.6887 -0.1098
 2012SOL     OW17668   0.293   1.005   5.323 -0.2935 -0.0427  0.2500
 2012SOL    HW117669   0.298   0.985   5.230 -1.8857 -0.5351  0.2786
 2012SOL    HW217670   0.255   1.091   5.310  3.1987  1.5804  0.8043
 2013SOL     OW17671   2.353   2.541   6.079 -0.3394 -0.5864  0.1373
 2013SOL    HW117672   2.293   2.490   6.133 -0.6823 -1.1351 -0.7559
 2013SOL    HW217673   2.424   2.558   6.140  1.3504 -0.8945 -1.7153
 2014SOL     OW17674   4.266   1.623   3.037  0.2144 -0.2943 -0.2296
 2014SOL    HW117675   4.196   1.563   3.012 -0.4726 -0.2200  1.5374
 2014SOL    HW217676   4.228   1.708   3.016 -0.0572 -0.1880  0.7013
 2015SOL     OW17677   4.152   4.484   3.871  0.0951 -0.2922  0.4077
 2015SOL    HW117678   4.210   4.534   3.929 -0.8134  1.0074  0.1965
 2015SOL    HW217679   4.218   4.444   3.815 -0.9196 -2.0533  0.4672
 2016SOL     OW17680   3.039   1.734  15.528  0.6043  0.3111 -0.1946
 2016SOL    HW117681   3.099   1.674  15.573  1.1892  1.1179  0.1020
 2016SOL    HW217682   2.968   1.671  15.519 -0.0156  1.1551 -1.1519
 2017SOL     OW17683   2.365   1.114   1.696 -0.3138  0.2231  0.1137
 2017SOL    HW117684   2.390   1.056   1.624 -0.1154 -0.1104  0.4486
 2017SOL    HW217685   2.453   1.139   1.724 -1.5114  1.4855  2.7575
 2018SOL     OW17686   2.186   1.631  11.587 -0.2962  0.7204  0.3391
 2018SOL    HW117687   2.116   1.667  11.532 -0.0696 -0.6346 -0.8276
 2018SOL    HW217688   2.218   1.708  11.634 -0.1396  0.6882  0.2856
 2019SOL     OW17689   0.528   1.466   4.851  0.1300 -0.1458 -0.7245
 2019SOL    HW117690   0.482   1.472   4.767 -1.5831 -0.5172  0.2040
 2019SOL    HW217691   0.604   1.523   4.838 -0.4880  0.5752 -1.2006
 2020SOL     OW17692   3.627   2.800  15.929  0.0995 -0.4106  0.1783
 2020SOL    HW117693   3.591   2.863  15.867  2.1352 -1.2296 -1.8587
 2020SOL    HW217694   3.682   2.755  15.865  2.2749  1.2506  0.9020
 2021SOL     OW17695   1.194   2.548   6.471  0.1541 -0.2663 -0.2147
 2021SOL    HW117696   1.118   2.494   6.494 -2.1917  1.9991 -2.6767
 2021SOL    HW217697   1.194   2.607   6.546 -0.6859  0.5340 -0.8431
 2022SOL     OW17698   1.178   4.670   3.661  0.1944 -0.3890 -0.2983
 2022SOL    HW117699   1.170   4.576   3.648  0.8578 -0.1477 -2.3888
 2022SOL    HW217700   1.098   4.696   3.616  0.6675  1.7042  0.0432
 2023SOL     OW17701   4.667   4.616  14.586 -0.8743  0.2910  0.0943
 2023SOL    HW117702   4.694   4.678  14.518 -0.3986  0.7757  0.7310
 2023SOL    HW217703   0.011   4.601  14.629 -0.6278 -1.9667 -1.1871
 2024SOL     OW17704   1.402   0.803   2.965 -0.1512 -0.4598  0.3716
 2024SOL    HW117705   1.450   0.727   2.932  1.2857  1.7002 -2.5537
 2024SOL    HW217706   1.462   0.871   2.933 -0.2272 -0.7421 -0.3501
 2025SOL     OW17707   2.956   0.717  12.461  0.7836 -0.2681 -0.8249
 2025SOL    HW117708   2.907   0.790  12.423  1.8224 -0.0623 -1.7674
 2025SOL    HW217709   3.003   0.684  12.384 -0.7600  0.7512 -2.2273
 2026SOL     OW17710   1.572   1.050   8.601  0.9223  1.2820  0.0948
 2026SOL    HW117711   1.652   1.005   8.573 -1.0715 -1.5155 -1.1181
 2026SOL    HW217712   1.572   1.134   8.555 -2.0753  0.3265 -1.6215
 2027SOL     OW17713   4.182   4.426   5.041  0.6806 -0.0198 -0.0036
 2027SOL    HW117714   4.167   4.498   4.980 -0.1073  0.8365  1.2058
 2027SOL    HW217715   4.249   4.372   4.999 -0.0319 -0.2025 -0.8988
 2028SOL     OW17716   3.633   2.666   4.537  0.4406 -0.2922 -0.3343
 2028SOL    HW117717   3.728   2.656   4.528  0.9398  0.0242  4.5445
 2028SOL    HW217718   3.610   2.758   4.548 -2.4985 -1.4932  3.7269
 2029SOL     OW17719   4.178   2.218  17.040  0.0039 -0.1084  0.0938
 2029SOL    HW117720   4.107   2.162  17.073 -0.6236  0.1697 -0.7764
 2029SOL    HW217721   4.224   2.235  17.122 -1.1072  0.0106  0.6984
 2030SOL     OW17722   0.710   4.055   4.688 -0.2526  0.3004 -0.1671
 2030SOL    HW117723   0.718   4.127   4.750 -1.4687 -0.7917  1.2639
 2030SOL    HW217724   0.621   4.024   4.706 -0.1506 -0.5236 -1.0765
 2031SOL     OW17725   4.591   1.867   6.583  0.6950  0.0286  0.3085
 2031SOL    HW117726   4.589   1.853   6.488 -3.2666  2.5219  0.0344
 2031SOL    HW217727   4.632   1.791   6.625  1.1664  0.3165  0.3752
 2032SOL     OW17728   3.083   3.854  12.224 -0.8298  0.0786  0.0111
 2032SOL    HW117729   3.096   3.759  12.227  0.5177  0.2483 -0.4514
 2032SOL    HW217730   3.128   3.868  12.141 -1.4257 -0.2570 -0.3712
 2033SOL     OW17731   4.664   3.302   7.915 -0.3522  0.1115 -0.1254
 2033SOL    HW117732   4.595   3.261   7.863 -1.0109  0.7263  0.2608
 2033SOL    HW217733   4.738   3.269   7.864  0.1161  0.1694  0.5255
 2034SOL     OW17734   0.892   4.317   9.495  0.0255 -0.0776 -0.2860
 2034SOL    HW117735   0.854   4.357   9.573 -0.4249 -1.3122  0.1379
 2034SOL    HW217736   0.977   4.360   9.486 -0.9041  1.0527 -3.5190
 2035SOL     OW17737   0.101   2.136  12.278  0.5139  0.3044  0.0272
 2035SOL    HW117738   0.140   2.050  12.287  3.1152  1.5236  0.3643
 2035SOL    HW217739   0.164   2.168  12.213 -1.0728 -0.4386 -1.8899
 2036SOL     OW17740   4.686   1.610   8.872 -0.3981  0.5569  0.2877
 2036SOL    HW117741   4.678   1.515   8.870 -0.6472  0.6195 -1.5060
 2036SOL    HW217742   4.599   1.636   8.902 -0.0050  2.1417  0.0749
 2037SOL     OW17743   2.137   3.826   1.888 -0.6305  0.1367  0.1019
 2037SOL    HW117744   2.187   3.811   1.968 -0.4404  2.2005  0.3688
 2037SOL    HW217745   2.171   3.909   1.853 -3.0712  0.6218 -1.1837
 2038SOL     OW17746   2.082   1.783   3.193 -0.3194  0.3737  0.2180
 2038SOL    HW117747   2.002   1.771   3.245 -1.6967  3.0242 -1.2860
 2038SOL    HW217748   2.060   1.734   3.114  0.9862  1.5130 -0.8527
 2039SOL     OW17749   2.667   4.085   2.301  0.5881  0.3847  0.5995
 2039SOL    HW117750   2.659   4.096   2.206 -0.1531  0.8815  0.7208
 2039SOL    HW217751   2.589   4.131   2.334  0.3481  1.1644 -1.0656
 2040SOL     OW17752   1.189   3.147   0.642 -0.0531  0.3254  0.6227
 2040SOL    HW117753   1.270   3.119   0.686  0.2183  1.9786  1.2095
 2040SOL    HW217754   1.211   3.131   0.550 -1.9041  0.6468  0.1296
 2041SOL     OW17755   2.830   1.354   1.825  0.1062 -0.0814 -0.1415
 2041SOL    HW117756   2.889   1.428   1.808 -2.0176  1.9693  1.2424
 2041SOL    HW217757   2.864   1.335   1.912  0.1843 -0.4774 -0.2612
 2042SOL     OW17758   3.704   2.946  17.249 -0.0020 -1.2164 -0.0432
 2042SOL    HW117759   3.636   3.007  17.275  1.3336 -0.5812  1.9462
 2042SOL    HW217760   3.759   2.931  17.326  0.0691  1.2009  0.3481
 2043SOL     OW17761   0.950   3.240   7.619  0.7357  0.3332  0.6129
 2043SOL    HW117762   1.011   3.176   7.657  1.7004  0.7319 -0.2561
 2043SOL    HW217763   0.978   3.245   7.527  1.0229 -0.2724  0.6640
 2044SOL     OW17764   3.268   4.551   5.974  0.2501 -0.2173 -0.1648
 2044SOL    HW117765   3.342   4.490   5.965 -0.4626 -0.9235 -1.1737
 2044SOL    HW217766   3.269   4.566   6.069 -0.5478  0.1461 -0.2118
 2045SOL     OW17767   3.926   1.213   8.715  0.1715  0.4613 -0.3799
 2045SOL    HW117768   4.017   1.183   8.709  0.2667  0.1034  2.6599
 2045SOL    HW217769   3.884   1.128   8.731  0.6338  0.1555 -0.8096
 2046SOL     OW17770   0.758   3.098   2.256  0.1421 -0.3569 -0.1079
 2046SOL    HW117771   0.680   3.145   2.226 -0.1571  0.8929  2.7240
 2046SOL    HW217772   0.820   3.125   2.188 -0.4373  1.5138  0.1050
 2047SOL     OW17773   4.643   3.450  17.367 -0.0531 -0.1950 -0.0263
 2047SOL    HW117774   4.633   3.544  17.378  2.0291  0.1122 -0.7826
 2047SOL    HW217775   4.550   3.429  17.371  0.0716 -1.1801 -2.4198
 2048SOL     OW17776   3.449   1.583   6.940 -0.1044  0.0864  0.1582
 2048SOL    HW117777   3.485   1.671   6.944  3.0148 -1.0012 -3.2550
 2048SOL    HW217778   3.355   1.600   6.936 -0.0321  0.4375 -0.0494
 2049SOL     OW17779   1.364   0.744   7.255  0.1454  0.1548  0.1003
 2049SOL    HW117780   1.327   0.823   7.294 -2.0582 -1.4353  1.2415
 2049SOL    HW217781   1.330   0.685   7.322  1.5136 -0.3502  0.3390
 2050SOL     OW17782   2.846   1.110  16.655 -0.1303  0.6057 -0.0285
 2050SOL    HW117783   2.923   1.063  16.624 -0.9114 -0.0176 -1.0359
 2050SOL    HW217784   2.795   1.125  16.575  0.1436  2.1887  0.0909
 2051SOL     OW17785   0.528   4.533   6.802  0.6534  0.4962  0.6014
 2051SOL    HW117786   0.488   4.608   6.847  0.2358  1.1915 -0.9363
 2051SOL    HW217787   0.461   4.494   6.747  1.2358  0.8683 -0.3680
 2052SOL     OW17788   3.799   4.338   2.700  0.0776 -0.1862  0.3137
 2052SOL    HW117789   3.731   4.404   2.709  1.6735  1.4300  0.5851
 2052SOL    HW217790   3.755   4.253   2.700 -0.9011  0.3215 -0.2669
 2053SOL     OW17791   2.550   1.894   4.075  0.0883 -0.0044  0.0162
 2053SOL    HW117792   2.587   1.833   4.012  3.1079  0.2546  1.5283
 2053SOL    HW217793   2.634   1.935   4.096 -1.4275  3.4360 -0.6304
 2054SOL     OW17794   0.105   2.174   8.190  0.0102  0.4185  0.0748
 2054SOL    HW117795   0.123   2.267   8.173 -1.1145  0.4563 -0.9370
 2054SOL    HW217796   0.135   2.162   8.280  1.4116 -2.0182 -0.7153
 2055SOL     OW17797   2.570   3.137   2.722  0.4694  0.0400  0.0637
 2055SOL    HW117798   2.546   3.142   2.815 -0.4687  2.3744 -0.3136
 2055SOL    HW217799   2.664   3.135   2.742  0.5038 -0.0602 -0.1110
 2056SOL     OW17800   2.831   4.688   8.038 -0.5163  0.1975  0.1739
 2056SOL    HW117801   2.810   4.624   8.106  0.8570 -1.5089 -1.0289
 2056SOL    HW217802   2.890   0.005   8.089 -0.5704 -1.4764  2.1313
 2057SOL     OW17803   2.875   2.249   3.265 -0.1326 -0.1816 -0.1290
 2057SOL    HW117804   2.848   2.161   3.291  1.0465 -0.1221  1.2343
 2057SOL    HW217805   2.958   2.259   3.310 -0.0393 -0.1064 -0.3180
 2058SOL     OW17806   4.137   0.741  15.606 -0.2422 -0.8940 -0.5784
 2058SOL    HW117807   4.202   0.684  15.566 -0.6326 -0.8220 -1.3149
 2058SOL    HW217808   4.099   0.675  15.663  1.7204 -0.1626  1.5799
 2059SOL     OW17809   1.563   4.486   5.286 -0.1060  0.0569 -0.2464
 2059SOL    HW117810   1.593   4.576   5.304  1.2381 -0.0936 -1.7164
 2059SOL    HW217811   1.468   4.502   5.287 -0.2109 -0.5937  0.1932
 2060SOL     OW17812   3.581   0.936  17.735  0.0544  0.4911 -0.1611
 2060SOL    HW117813   3.491   0.968  17.727 -0.7313 -1.6266  0.0896
 2060SOL    HW217814   3.553   0.868   0.040 -0.6362  1.5993  0.7277
 2061SOL     OW17815   3.825   4.457   2.322 -0.3109  0.0033  0.2204
 2061SOL    HW117816   3.773   4.377   2.329  1.2471 -1.1391 -1.0988
 2061SOL    HW217817   3.765   4.515   2.276 -0.7120 -1.4413 -1.0608
 2062SOL     OW17818   2.896   0.852   1.253 -0.4025  0.5077  0.3888
 2062SOL    HW117819   2.895   0.902   1.335  0.9250 -0.7003  1.1380
 2062SOL    HW217820   2.965   0.788   1.273 -1.3664 -1.0080 -1.1852
 2063SOL     OW17821   3.473   4.263   8.908  0.7153  0.3767 -0.4418
 2063SOL    HW117822   3.499   4.205   8.979 -2.1662 -0.9431 -0.4770
 2063SOL    HW217823   3.414   4.210   8.854 -1.8791  0.7145  2.0418
 2064SOL     OW17824   3.198   1.556  17.577 -0.1561  0.1184 -0.4879
 2064SOL    HW117825   3.109   1.591  17.571 -0.9707 -1.0560  4.4503
 2064SOL    HW217826   3.179   1.468  17.543 -1.2918  0.4018 -0.5896
 2065SOL     OW17827   0.818   2.517   4.123 -0.3348  0.3043  0.1409
 2065SOL    HW117828   0.838   2.436   4.077  1.4415  1.2706 -0.7573
 2065SOL    HW217829   0.903   2.556   4.143  0.6387 -1.3044 -0.8855
 2066SOL     OW17830   1.487   3.616   1.154  0.0169 -0.2435  0.3534
 2066SOL    HW117831   1.453   3.639   1.067  1.2329 -0.6351 -0.2289
 2066SOL    HW217832   1.402   3.601   1.196 -0.8588 -0.9365 -1.6559
 2067SOL     OW17833   2.547   1.061   5.041 -0.1758  0.1841 -0.0495
 2067SOL    HW117834   2.608   1.112   4.987 -1.2971 -0.8869 -2.3672
 2067SOL    HW217835   2.545   1.107   5.124 -0.7828  0.3089 -0.1371
 2068SOL     OW17836   3.118   0.723   1.352  0.2020  0.0365 -0.5470
 2068SOL    HW117837   3.103   0.629   1.365  2.1674 -0.4947 -2.1997
 2068SOL    HW217838   3.148   0.753   1.437 -3.0423  1.8660 -0.0353
 2069SOL     OW17839   1.406   1.452   4.163 -0.2837  0.0667 -0.6435
 2069SOL    HW117840   1.366   1.392   4.225  0.2572  0.7922  0.3919
 2069SOL    HW217841   1.499   1.429   4.171 -0.6456 -1.9719 -2.4266
 2070SOL     OW17842   4.095   4.360   4.478  0.4272 -0.2363 -0.2211
 2070SOL    HW117843   4.057   4.430   4.531  1.1287  0.3715 -0.5113
 2070SOL    HW217844   4.053   4.383   4.395  0.8648 -1.2686 -0.7339
 2071SOL     OW17845   0.840   1.729   1.942  0.0917 -0.1718 -0.0828
 2071SOL    HW117846   0.762   1.675   1.931 -0.1743 -0.2545  2.1422
 2071SOL    HW217847   0.837   1.774   1.858 -1.9934  2.4528  1.3773
 2072SOL     OW17848   3.183   1.591   6.865 -0.1112  0.2082 -0.0476
 2072SOL    HW117849   3.187   1.503   6.830  2.4866  0.1568  0.3647
 2072SOL    HW217850   3.187   1.639   6.782  0.4081  0.6427  0.2334
 2073SOL     OW17851   1.129   3.904   4.929 -0.0609  0.1311  0.0430
 2073SOL    HW117852   1.045   3.898   4.883 -0.2931 -0.0005  0.4846
 2073SOL    HW217853   1.104   3.962   5.001 -1.2663 -2.4499  1.6703
 2074SOL     OW17854   3.195   3.109  15.347 -0.1933 -0.4117 -0.1875
 2074SOL    HW117855   3.279   3.066  15.362 -0.4971 -0.6932  0.7166
 2074SOL    HW217856   3.202   3.164  15.269  2.1649  1.8102  1.6299
 2075SOL     OW17857   3.355   0.737   3.508 -0.7136 -0.6225 -0.3538
 2075SOL    HW117858   3.433   0.786   3.482  0.1615 -2.5366 -1.3203
 2075SOL    HW217859   3.338   0.698   3.422 -1.9112 -0.0063 -0.3985
 2076SOL     OW17860   1.507   2.996   8.535 -0.9054  0.3954 -0.5035
 2076SOL    HW117861   1.488   2.962   8.623 -0.7724  0.7744 -0.3267
 2076SOL    HW217862   1.551   3.080   8.549  2.7484 -1.9109  1.6596
 2077SOL     OW17863   0.799   2.967   2.685  0.1445 -0.2420 -0.5519
 2077SOL    HW117864   0.751   3.049   2.684 -0.1123 -0.4012 -1.0180
 2077SOL    HW217865   0.835   2.965   2.597 -0.1087  2.8930 -0.7018
 2078SOL     OW17866   1.426   4.426   7.629 -0.0727  0.2850  0.3356
 2078SOL    HW117867   1.468   4.458   7.709  1.2865 -0.2713 -0.1577
 2078SOL    HW217868   1.386   4.345   7.661  0.8037 -0.0561  0.5707
 2079SOL     OW17869   2.415   4.536   6.402  0.5032 -0.5879 -0.4896
 2079SOL    HW117870   2.341   4.483   6.432 -0.6679  0.3848 -1.6471
 2079SOL    HW217871   2.488   4.475   6.394  0.1670 -1.0591  0.0478
 2080SOL     OW17872   0.197   3.722   5.710  0.0129  0.4796 -0.0056
 2080SOL    HW117873   0.235   3.670   5.639 -0.5626 -2.9300  2.1606
 2080SOL    HW217874   0.204   3.807   5.667  1.3064 -0.1876 -1.1218
 2081SOL     OW17875   4.062   3.261   3.624 -0.4100  0.0771 -0.1702
 2081SOL    HW117876   4.080   3.355   3.632  0.7299 -0.2245  0.8805
 2081SOL    HW217877   4.056   3.245   3.718  3.1821 -1.3411 -0.2013
 2082SOL     OW17878   0.824   0.794   2.289 -0.3373  0.5380  0.2682
 2082SOL    HW117879   0.893   0.860   2.284 -0.3889  0.7139  1.9164
 2082SOL    HW217880   0.859   0.715   2.329 -2.3050 -0.1056  0.7042
 2083SOL     OW17881   3.599   2.269  15.029  0.1063 -0.2617  0.4797
 2083SOL    HW117882   3.649   2.249  14.950  0.0311 -0.2138  0.4206
 2083SOL    HW217883   3.654   2.219  15.090 -1.7121 -1.6499  0.9740
 2084SOL     OW17884   0.132   0.390   5.213  0.2505  0.3360  0.3260
 2084SOL    HW117885   0.189   0.313   5.212 -0.6561 -0.2946 -1.2011
 2084SOL    HW217886   0.156   0.426   5.128  1.3286  0.6280  0.7503
 2085SOL     OW17887   3.283   3.370  16.653  0.4250  0.0857 -0.2821
 2085SOL    HW117888   3.208   3.311  16.638 -1.0341  1.7279  0.6220
 2085SOL    HW217889   3.276   3.379  16.748 -1.6377  0.1221 -0.4313
 2086SOL     OW17890   3.280   4.709   7.851  0.4050 -0.5064 -0.1131
 2086SOL    HW117891   3.344   4.673   7.788 -0.4720 -2.4367  0.1155
 2086SOL    HW217892   3.195   4.670   7.832  0.1827 -0.3126  0.5134
 2087SOL     OW17893   2.696   2.451   6.616  0.2090  0.3935 -0.4805
 2087SOL    HW117894   2.787   2.424   6.601 -0.1869 -0.9294 -0.4892
 2087SOL    HW217895   2.698   2.538   6.657 -0.4309 -0.2511  0.9247
 2088SOL     OW17896   1.149   3.785  10.901 -0.3138 -0.2675 -0.4813
 2088SOL    HW117897   1.162   3.742  10.816  0.7382 -1.2949  0.2087
 2088SOL    HW217898   1.061   3.821  10.887 -1.3244 -2.6026 -0.0656
 2089SOL     OW17899   1.594   0.303   7.000  0.2287  0.4387  0.0780
 2089SOL    HW117900   1.571   0.288   6.908  1.4139  0.0776 -0.1643
 2089SOL    HW217901   1.689   0.291   6.999  0.1864  0.2089 -1.9315
 2090SOL     OW17902   0.556   3.767  16.449  0.1129  0.2299  0.3960
 2090SOL    HW117903   0.523   3.764  16.359 -0.8318  0.0596  0.7460
 2090SOL    HW217904   0.542   3.675  16.471  1.2061  0.2298  1.0988
 2091SOL     OW17905   4.192   2.303  13.811 -0.2882  0.3829  0.6249
 2091SOL    HW117906   4.195   2.226  13.755 -0.1913  1.5764 -0.9902
 2091SOL    HW217907   4.173   2.367  13.743 -0.2672  1.0225  1.2184
 2092SOL     OW17908   2.670   1.513   0.872  0.0968 -0.8576 -0.2180
 2092SOL    HW117909   2.693   1.437   0.818 -1.0008 -0.8672 -0.6596
 2092SOL    HW217910   2.758   1.552   0.863 -0.9243  1.8348  1.5221
 2093SOL     OW17911   1.254   4.016   8.952 -0.5486 -0.3434 -0.4229
 2093SOL    HW117912   1.210   4.050   9.030  0.8726 -1.5742  0.9260
 2093SOL    HW217913   1.242   4.090   8.894 -0.1343  2.5674  3.2069
 2094SOL     OW17914   2.058   0.758   1.246 -0.1018 -0.5687  0.4730
 2094SOL    HW117915   2.060   0.853   1.237  1.9788 -0.7209 -0.8746
 2094SOL    HW217916   1.964   0.742   1.253 -0.3400  0.1065 -1.2270
 2095SOL     OW17917   1.449   0.009   6.735  0.3139  0.2722  0.1614
 2095SOL    HW117918   1.364   4.729   6.697  0.2893  1.3253 -0.3266
 2095SOL    HW217919   1.442   0.104   6.746 -1.3768  0.3641 -1.7756
 2096SOL     OW17920   4.167   1.324   6.749  0.2644  0.5408 -0.2022
 2096SOL    HW117921   4.174   1.417   6.771 -1.0999  0.0675  2.2060
 2096SOL    HW217922   4.204   1.323   6.660  0.4924 -3.3077 -0.0640
 2097SOL     OW17923   1.916   0.566  12.853  0.3681 -0.1822  0.0048
 2097SOL    HW117924   1.823   0.565  12.833  0.0216 -1.2430  1.6111
 2097SOL    HW217925   1.949   0.498  12.794  1.5937  1.0229 -0.6793
 2098SOL     OW17926   0.979   3.685   5.932 -0.1494  0.6129  0.3796
 2098SOL    HW117927   0.936   3.603   5.910 -1.0817  0.9918  0.7708
 2098SOL    HW217928   1.038   3.691   5.857  0.1392  0.1677  0.5735
 2099SOL     OW17929   2.572   2.955   8.822 -0.7566  0.0756 -0.3276
 2099SOL    HW117930   2.618   2.892   8.878  1.5112  1.0710 -1.0776
 2099SOL    HW217931   2.481   2.937   8.844 -0.6231  1.2977  1.3223
 2100SOL     OW17932   1.298   2.583   2.550 -0.1376 -0.1296  0.3782
 2100SOL    HW117933   1.241   2.512   2.578  0.9345 -1.0468  0.2569
 2100SOL    HW217934   1.372   2.530   2.518  0.4241  1.7061 -1.4003
 2101SOL     OW17935   4.489   3.029   8.294 -0.1958  0.0594  0.2570
 2101SOL    HW117936   4.417   2.993   8.347 -1.5080  0.8938 -0.9462
 2101SOL    HW217937   4.533   2.951   8.261 -2.2684 -1.9841  2.3077
 2102SOL     OW17938   0.567   3.607   7.809  0.3320 -0.3713 -0.0918
 2102SOL    HW117939   0.612   3.540   7.758 -1.2718 -1.3781 -0.1765
 2102SOL    HW217940   0.520   3.661   7.745 -1.9244 -1.2362  0.8394
 2103SOL     OW17941   0.119   3.887   6.446  0.3982  0.2717 -0.0708
 2103SOL    HW117942   0.209   3.863   6.422 -0.4755 -2.4283 -0.6253
 2103SOL    HW217943   0.096   3.801   6.482  0.9267  0.0621 -0.2157
 2104SOL     OW17944   3.911   1.952   1.801 -0.5256  0.2263  0.0725
 2104SOL    HW117945   3.961   2.000   1.734 -2.1224  2.6490  0.6012
 2104SOL    HW217946   3.963   1.872   1.795 -1.7027 -0.5429  0.1724
 2105SOL     OW17947   4.383   0.474   4.715 -0.4141 -0.1802 -0.7180
 2105SOL    HW117948   4.450   0.483   4.783 -0.0600  0.1975 -1.1146
 2105SOL    HW217949   4.303   0.459   4.765  2.7382 -2.4873  3.6632
 2106SOL     OW17950   0.941   0.253   5.346  0.2932  0.6410  0.0163
 2106SOL    HW117951   0.914   0.316   5.413  0.1236 -1.3834  1.8444
 2106SOL    HW217952   0.975   0.187   5.406  1.3708 -1.5303 -3.0026
 2107SOL     OW17953   0.168   0.622  11.183 -0.0213 -0.1782 -0.0647
 2107SOL    HW117954   0.232   0.610  11.114 -3.0214 -0.7170 -2.7815
 2107SOL    HW217955   0.198   0.705  11.221 -0.9492 -0.0893  0.4828
 2108SOL     OW17956   3.081   1.322  13.252  0.6534 -0.2472 -0.2758
 2108SOL    HW117957   3.086   1.368  13.336  3.8067  0.2721 -0.7215
 2108SOL    HW217958   3.116   1.238  13.280 -0.4114 -0.2185  1.1273
 2109SOL     OW17959   1.855   4.186  16.871  0.4014  0.3597  0.4511
 2109SOL    HW117960   1.853   4.229  16.957 -0.9621 -0.0759  0.6405
 2109SOL    HW217961   1.881   4.099  16.900 -1.5561 -1.2999 -2.7714
 2110SOL     OW17962   1.411   2.734  10.570  0.1770 -0.2565  0.3170
 2110SOL    HW117963   1.350   2.778  10.629  0.3656  1.2085 -0.5990
 2110SOL    HW217964   1.487   2.789  10.589  0.4719 -0.8820  0.9875
 2111SOL     OW17965   3.048   3.272   5.212  0.2981 -0.3171 -0.5416
 2111SOL    HW117966   3.069   3.328   5.137  0.1529 -0.8937 -1.0096
 2111SOL    HW217967   3.090   3.319   5.285  0.0290 -1.3545  0.2764
 2112SOL     OW17968   1.423   2.658   2.276  0.2794  0.1030 -0.5640
 2112SOL    HW117969   1.392   2.571   2.301  0.1393  0.3286  0.0525
 2112SOL    HW217970   1.510   2.660   2.316  0.5692  2.6710 -1.3104
 2113SOL     OW17971   1.991   0.142   8.811 -0.0036 -0.7400  0.4691
 2113SOL    HW117972   1.904   0.157   8.775  0.2326 -0.1702  0.1322
 2113SOL    HW217973   1.976   0.070   8.871 -1.1025 -0.5001  0.4846
 2114SOL     OW17974   3.310   3.534   7.350 -0.2142 -0.4113 -0.4445
 2114SOL    HW117975   3.243   3.490   7.298 -1.6070 -1.0112  1.9055
 2114SOL    HW217976   3.256   3.552   7.427  0.9818  1.4723 -0.0296
 2115SOL     OW17977   0.397   2.017  13.225 -0.1774 -0.0425  0.4499
 2115SOL    HW117978   0.430   2.097  13.266 -0.4986 -0.1693  0.9642
 2115SOL    HW217979   0.316   2.048  13.184  0.5933 -0.5834 -1.4610
 2116SOL     OW17980   4.381   0.885  14.878  0.1017  0.1793 -0.3931
 2116SOL    HW117981   4.413   0.829  14.807 -1.9415  1.4519 -2.3057
 2116SOL    HW217982   4.334   0.948  14.824  1.2098 -0.1008 -1.6872
 2117SOL     OW17983   1.725   4.665  13.341  0.0812  0.1914 -0.2206
 2117SOL    HW117984   1.803   4.719  13.353  1.2110 -1.3100 -0.7937
 2117SOL    HW217985   1.675   4.697  13.416  0.8100  3.5571 -1.1574
 2118SOL     OW17986   3.433   1.611   5.384  0.1140 -0.5368 -0.0466
 2118SOL    HW117987   3.528   1.602   5.372  0.2880 -1.1460  1.8088
 2118SOL    HW217988   3.405   1.654   5.304 -0.2429  0.3476  0.5525
 2119SOL     OW17989   1.175   1.890   7.944  0.5090  0.2414  0.1595
 2119SOL    HW117990   1.240   1.917   8.009  0.9787 -0.1907 -0.1299
 2119SOL    HW217991   1.139   1.815   7.990 -0.0091  0.3222 -0.1130
 2120SOL     OW17992   1.443   3.800   4.883  0.1632 -0.0053  0.2894
 2120SOL    HW117993   1.370   3.857   4.905 -1.4885 -2.6591  1.6747
 2120SOL    HW217994   1.415   3.732   4.822  0.4275  0.0238  0.1350
 2121SOL     OW17995   3.318   1.896   7.217 -1.1323 -0.0665 -0.1916
 2121SOL    HW117996   3.270   1.815   7.235  0.3133 -0.8579  0.1335
 2121SOL    HW217997   3.254   1.956   7.254 -1.2525  0.5980 -1.4609
 2122SOL     OW17998   4.118   0.087   4.678 -0.1881 -0.2594 -0.8883
 2122SOL    HW117999   4.164   0.121   4.602  1.5421  0.0477  0.3062
 2122SOL    HW218000   4.059   0.159   4.700  0.5926  0.5655 -1.5041
 2123SOL     OW18001   1.750   3.938   8.147  0.3739  0.1085 -0.2659
 2123SOL    HW118002   1.816   3.943   8.078 -0.3977 -2.1404 -1.1429
 2123SOL    HW218003   1.796   3.899   8.222 -2.1552 -0.6136  0.9144
 2124SOL     OW18004   3.649   4.044   7.313 -0.2334  0.1015  0.1774
 2124SOL    HW118005   3.673   4.032   7.405  1.3218  0.2464 -0.1931
 2124SOL    HW218006   3.733   4.080   7.283 -0.5844  2.1765  1.6521
 2125SOL     OW18007   4.082   0.069  12.909  0.1984 -0.2363 -0.7737
 2125SOL    HW118008   4.063   4.727  12.953 -0.4646  0.9661  1.1778
 2125SOL    HW218009   4.101   0.125  12.984  0.3500 -2.4474  0.8292
 2126SOL     OW18010   3.136   3.714   5.706  0.1424  0.3412 -0.0340
 2126SOL    HW118011   3.182   3.729   5.623 -0.0707 -0.9946 -0.3939
 2126SOL    HW218012   3.159   3.793   5.756  0.2689  1.1258 -1.3192
 2127SOL     OW18013   3.775   0.107  10.261 -0.0704 -0.1924  0.0337
 2127SOL    HW118014   3.727   0.108  10.344  1.8648 -2.0988  1.1844
 2127SOL    HW218015   3.701   0.101  10.200  0.1018 -2.0195 -0.0159
 2128SOL     OW18016   1.774   3.506   6.890  0.3556 -0.1883 -0.7130
 2128SOL    HW118017   1.690   3.541   6.861  0.2049  1.7721  2.1330
 2128SOL    HW218018   1.752   3.419   6.925 -1.5866  0.9794  0.9632
 2129SOL     OW18019   4.716   2.237   8.767 -0.6258 -0.0677  0.4234
 2129SOL    HW118020   4.693   2.297   8.696  0.6807 -0.7929 -0.6140
 2129SOL    HW218021   0.005   2.292   8.840  0.2622 -1.6793  1.2769
 2130SOL     OW18022   3.872   2.876  17.464 -0.3410  0.0795 -0.1889
 2130SOL    HW118023   3.815   2.837  17.531  3.1015 -2.6142  1.1331
 2130SOL    HW218024   3.909   2.801  17.420 -1.5615  0.8773 -2.5760
 2131SOL     OW18025   4.244   0.612  13.183 -0.3160  0.0833  0.2826
 2131SOL    HW118026   4.185   0.561  13.128 -4.0390  3.2415  1.3424
 2131SOL    HW218027   4.295   0.553  13.239  1.1620  1.3599  0.2955
 2132SOL     OW18028   4.315   4.411   1.711 -0.1830 -0.0685 -0.5569
 2132SOL    HW118029   4.391   4.365   1.676 -0.1589 -0.5381  0.1043
 2132SOL    HW218030   4.305   4.374   1.799  0.3307 -1.1749 -0.9566
 2133SOL     OW18031   4.578   4.247  17.373 -0.6009  0.2168 -0.6695
 2133SOL    HW118032   4.592   4.290  17.458 -1.9740 -1.9289  0.6489
 2133SOL    HW218033   4.483   4.231  17.377 -0.1711 -1.5587  2.6737
 2134SOL     OW18034   3.229   2.154   4.314 -0.6451  0.1154  0.0907
 2134SOL    HW118035   3.259   2.063   4.320 -2.0886 -0.3949 -0.6635
 2134SOL    HW218036   3.233   2.185   4.405  1.9008 -1.5284  0.5418
 2135SOL     OW18037   1.452   2.371   6.092  0.0923  0.0900  0.1574
 2135SOL    HW118038   1.425   2.352   6.002  0.5111 -1.3878  0.3491
 2135SOL    HW218039   1.368   2.359   6.136 -0.6054 -0.6944 -1.3936
 2136SOL     OW18040   2.235   1.240   6.408 -0.2726  0.1730 -0.3631
 2136SOL    HW118041   2.278   1.276   6.486  1.0112 -4.4193  1.0517
 2136SOL    HW218042   2.229   1.147   6.426 -0.6951 -0.1819 -2.3706
 2137SOL     OW18043   0.056   2.160  10.077  0.1767  0.0316  0.0027
 2137SOL    HW118044   0.104   2.158   9.994 -0.5768 -1.3722 -0.3862
 2137SOL    HW218045   4.728   2.226  10.066 -0.0226  0.2257  2.2612
 2138SOL     OW18046   3.144   0.363   3.495 -0.6879  0.2561  0.1578
 2138SOL    HW118047   3.123   0.296   3.430 -1.7926  0.2623  0.5044
 2138SOL    HW218048   3.181   0.316   3.569 -0.2144  0.1773 -0.1327
 2139SOL     OW18049   2.677   3.723   3.953 -0.1334  0.2720  0.3066
 2139SOL    HW118050   2.635   3.778   4.020  3.4583 -0.0255  2.7975
 2139SOL    HW218051   2.609   3.711   3.887  2.0544 -2.0246 -1.5203
 2140SOL     OW18052   3.603   4.696   7.547  0.2102 -1.2767 -0.0687
 2140SOL    HW118053   3.599   4.733   7.635  0.5716  1.0989 -1.0600
 2140SOL    HW218054   3.684   4.647   7.532 -1.1140 -3.1983 -0.9937
 2141SOL     OW18055   2.826   1.539   8.795 -0.2049  0.2576  0.7027
 2141SOL    HW118056   2.817   1.445   8.815  0.9487 -0.1696 -0.8479
 2141SOL    HW218057   2.774   1.539   8.715 -0.5906  1.3780  0.9610
 2142SOL     OW18058   2.399   1.089   4.013  0.0220  0.0137  0.5016
 2142SOL    HW118059   2.320   1.139   4.032  0.0831 -0.2941  1.5586
 2142SOL    HW218060   2.364   1.032   3.945 -1.0255  0.3148  0.7970
 2143SOL     OW18061   4.052   0.836   0.511  0.9424 -0.3018 -0.5058
 2143SOL    HW118062   4.108   0.817   0.436 -2.0252 -1.1212 -2.5162
 2143SOL    HW218063   3.973   0.787   0.487  2.4190 -2.6498 -0.5293
 2144SOL     OW18064   2.440   2.172   4.464 -0.1264  0.0701 -1.1071
 2144SOL    HW118065   2.375   2.242   4.472  0.2143  0.0942  1.4415
 2144SOL    HW218066   2.411   2.128   4.384  2.8542 -2.1808 -0.9470
 2145SOL     OW18067   2.547   3.305  15.869 -0.2877 -0.1364  0.4072
 2145SOL    HW118068   2.539   3.279  15.777  0.1532 -1.8975  0.8689
 2145SOL    HW218069   2.473   3.260  15.909 -0.0345 -0.6835  0.2583
 2146SOL     OW18070   0.091   2.478   8.564  0.1909  0.1854 -0.1112
 2146SOL    HW118071   0.117   2.557   8.610 -1.0755 -0.5730  1.8855
 2146SOL    HW218072   0.169   2.422   8.561 -0.1588 -0.3792  1.8010
 2147SOL     OW18073   1.830   3.425   3.132  0.5438  0.1584 -0.2165
 2147SOL    HW118074   1.766   3.367   3.173 -1.1091  0.4746 -2.3245
 2147SOL    HW218075   1.889   3.434   3.207 -1.6773  1.0169  1.4676
 2148SOL     OW18076   1.054   2.242   5.207 -0.0483  0.1114 -0.4643
 2148SOL    HW118077   1.062   2.229   5.113 -0.7965 -1.1806 -0.3504
 2148SOL    HW218078   1.081   2.157   5.245 -1.2656 -0.4638 -0.9062
 2149SOL     OW18079   4.460   0.053   0.348 -0.4453 -0.2355  0.3940
 2149SOL    HW118080   4.386   4.739   0.318 -1.5177  2.1906 -1.3442
 2149SOL    HW218081   4.450   0.121   0.282  1.7240  0.6599  1.0095
 2150SOL     OW18082   4.469   3.713   9.093  0.2247  0.2366 -0.0391
 2150SOL    HW118083   4.455   3.704   9.187 -2.5858  0.6057 -0.4133
 2150SOL    HW218084   4.564   3.725   9.097  0.2423  0.1052 -0.0733
 2151SOL     OW18085   3.660   1.920   7.820 -0.1287  0.7911  0.3247
 2151SOL    HW118086   3.732   1.872   7.861 -0.8839 -0.3955  0.2580
 2151SOL    HW218087   3.623   1.854   7.761  1.5485 -0.4242  0.6240
 2152SOL     OW18088   2.929   2.873  16.049  0.3160  0.0018  0.3831
 2152SOL    HW118089   2.934   2.777  16.049 -1.3894 -0.0951 -1.6535
 2152SOL    HW218090   2.904   2.888  15.957 -1.3864  1.4642  1.0947
 2153SOL     OW18091   1.091   0.797   1.866 -0.3515  0.9086  0.1382
 2153SOL    HW118092   1.009   0.810   1.915 -0.6307 -2.1611  0.4852
 2153SOL    HW218093   1.059   0.747   1.791  0.8161 -0.3200  0.4706
 2154SOL     OW18094   2.745   3.687   2.966  0.0815  0.0324 -0.3717
 2154SOL    HW118095   2.684   3.746   2.921  0.8953  1.8078  0.8535
 2154SOL    HW218096   2.755   3.619   2.899  1.4744 -0.7638  0.6462
 2155SOL     OW18097   3.456   1.697   4.110 -0.1801 -0.1734  0.3020
 2155SOL    HW118098   3.431   1.606   4.092 -1.5429 -0.0740  1.6134
 2155SOL    HW218099   3.477   1.731   4.023  0.3528 -1.7637 -0.1964
 2156SOL     OW18100   3.240   2.341   7.831 -0.3739  1.1300  0.1206
 2156SOL    HW118101   3.288   2.397   7.892  1.5439 -1.5731  1.0728
 2156SOL    HW218102   3.313   2.315   7.775  1.3555  0.3833  2.7456
 2157SOL     OW18103   0.967   0.739   0.815 -0.6824 -0.0916 -0.1799
 2157SOL    HW118104   0.952   0.664   0.758 -2.2252 -0.9555  1.3725
 2157SOL    HW218105   0.886   0.788   0.807 -0.9583 -0.5212 -0.0135
 2158SOL     OW18106   4.018   1.658  17.493  0.1676  0.2315  0.0691
 2158SOL    HW118107   4.016   1.740  17.444 -1.0520 -0.2218 -0.6397
 2158SOL    HW218108   4.105   1.626  17.470 -0.3247 -1.2221  0.2016
 2159SOL     OW18109   1.427   0.559   4.164  0.1452  0.5976  0.3969
 2159SOL    HW118110   1.498   0.573   4.227  0.7716 -0.4978 -0.0596
 2159SOL    HW218111   1.357   0.620   4.186  0.5013  1.4161 -0.6791
 2160SOL     OW18112   0.373   1.781   5.779 -0.4234 -0.4030  0.2972
 2160SOL    HW118113   0.335   1.832   5.708  1.0734 -1.1032 -0.9951
 2160SOL    HW218114   0.464   1.799   5.758 -1.4084  1.1436 -2.6307
 2161SOL     OW18115   1.287   4.120   6.427 -0.1675  1.1445  0.3290
 2161SOL    HW118116   1.274   4.188   6.361  1.9152  2.0591  0.8664
 2161SOL    HW218117   1.221   4.053   6.409  0.7614 -0.0046  1.1876
 2162SOL     OW18118   2.766   0.634   9.404 -0.6571  0.2166 -0.5814
 2162SOL    HW118119   2.684   0.649   9.452 -0.6683  1.8939 -1.1227
 2162SOL    HW218120   2.769   0.708   9.344 -1.0209  0.3629 -0.4241
 2163SOL     OW18121   3.194   0.552   2.465 -0.0191  0.1991 -0.2633
 2163SOL    HW118122   3.167   0.513   2.382  0.8859 -1.0139  0.0161
 2163SOL    HW218123   3.103   0.570   2.490  0.1050  1.1106 -0.4704
 2164SOL     OW18124   0.147   2.017   3.656  0.1474  0.2785 -0.4932
 2164SOL    HW118125   0.060   1.999   3.620 -0.8901  0.5082  1.8823
 2164SOL    HW218126   0.112   2.078   3.721  1.8013 -1.0819  1.6445
 2165SOL     OW18127   3.909   3.403   8.362 -0.0893 -0.4253  0.3743
 2165SOL    HW118128   3.961   3.322   8.360 -1.4979 -1.2558 -1.9382
 2165SOL    HW218129   3.904   3.419   8.457 -2.1151  0.9355  0.0377
 2166SOL     OW18130   0.421   1.805   5.056  0.1911 -0.1577  0.0316
 2166SOL    HW118131   0.389   1.723   5.092  0.2833 -0.4829 -0.6464
 2166SOL    HW218132   0.347   1.817   4.996  0.7664 -1.2646 -0.8853
 2167SOL     OW18133   4.618   2.658   7.407 -0.2500 -0.2198 -0.1936
 2167SOL    HW118134   4.544   2.620   7.360 -1.1180  0.6737  0.4606
 2167SOL    HW218135   4.676   2.695   7.340  0.1030  0.7011  0.6313
 2168SOL     OW18136   4.003   2.591  17.640  0.0068  0.0656 -0.0490
 2168SOL    HW118137   3.934   2.572  17.577  0.8158  2.7037 -1.7488
 2168SOL    HW218138   3.979   2.530  17.709  0.4304 -0.5675 -0.4510
 2169SOL     OW18139   4.679   3.589   3.867 -0.4004  0.2774  0.4460
 2169SOL    HW118140   4.724   3.659   3.915  0.5622 -0.6635  0.9159
 2169SOL    HW218141   4.598   3.631   3.838 -0.5461 -2.0709 -2.5299
 2170SOL     OW18142   2.757   3.809  12.893  0.2369  0.0601 -0.4736
 2170SOL    HW118143   2.736   3.820  12.801 -2.7157  0.7261  0.2700
 2170SOL    HW218144   2.851   3.792  12.898  0.2094  0.8596  2.9675
 2171SOL     OW18145   2.113   3.658   6.695  0.1265  0.2893 -0.1880
 2171SOL    HW118146   2.057   3.676   6.770  1.6122 -0.6411  1.1619
 2171SOL    HW218147   2.134   3.567   6.715  2.8433  1.1985  1.0336
 2172SOL     OW18148   4.714   2.216   5.478  0.3513 -0.0306  0.0621
 2172SOL    HW118149   4.641   2.278   5.476  0.6679  0.2316 -3.2638
 2172SOL    HW218150   4.691   2.167   5.557 -0.0706  0.8297  0.4763
 2173SOL     OW18151   3.995   3.929   6.432 -0.3927  0.0644 -0.7005
 2173SOL    HW118152   3.956   3.963   6.352 -2.8429 -0.9309  0.0595
 2173SOL    HW218153   3.992   3.836   6.411  0.0755 -0.2835  0.7713
 2174SOL     OW18154   2.408   3.434   6.516  0.3229  0.0314  0.2001
 2174SOL    HW118155   2.488   3.384   6.496  1.3900  0.8883  2.2452
 2174SOL    HW218156   2.414   3.452   6.610  1.4708 -0.3817  0.2086
 2175SOL     OW18157   0.245   2.685   7.843  0.3115  0.5028  0.1125
 2175SOL    HW118158   0.309   2.688   7.772  1.1938 -2.0398  0.8031
 2175SOL    HW218159   0.174   2.628   7.812  0.6033 -1.8247  3.6578
 2176SOL     OW18160   2.465   2.541  15.131  0.2803  0.4150  0.1180
 2176SOL    HW118161   2.440   2.603  15.199 -0.9919 -0.1397  0.1481
 2176SOL    HW218162   2.379   2.503  15.114  1.0435 -1.7422  1.0246
 2177SOL     OW18163   1.274   0.150   5.798  0.4203  0.4818  0.0325
 2177SOL    HW118164   1.364   0.159   5.829  0.9345 -0.5179 -1.1953
 2177SOL    HW218165   1.282   0.186   5.709  0.3874  0.5024  0.0379
 2178SOL     OW18166   0.376   0.036  11.681  0.0714 -0.5389 -0.1931
 2178SOL    HW118167   0.422   0.119  11.686  0.7432 -0.9436  0.4167
 2178SOL    HW218168   0.429   4.725  11.742  1.4334  1.8518  0.6051
 2179SOL     OW18169   3.528   1.023   4.952 -0.0021  1.1110 -0.1656
 2179SOL    HW118170   3.615   1.060   4.962 -0.0780  0.8043  1.7124
 2179SOL    HW218171   3.471   1.093   4.922 -0.7547  0.1373 -1.0095
 2180SOL     OW18172   0.594   1.984   7.320 -0.3154 -0.0653  1.1282
 2180SOL    HW118173   0.539   2.039   7.375  0.8092  1.8393  0.3218
 2180SOL    HW218174   0.563   1.897   7.348  2.3483 -1.4345 -0.1521
 2181SOL     OW18175   1.633   4.048   9.414  0.2933  0.5488  0.1120
 2181SOL    HW118176   1.684   3.986   9.465  1.1790  1.4970  0.3878
 2181SOL    HW218177   1.541   4.037   9.437 -0.0738  2.4670 -0.3509
 2182SOL     OW18178   2.434   3.294   1.055  0.1558 -0.1467 -0.4398
 2182SOL    HW118179   2.410   3.359   0.989 -0.6086 -0.9703 -0.9754
 2182SOL    HW218180   2.345   3.285   1.087  0.8345 -1.2590  1.1160
 2183SOL     OW18181   0.567   4.359  13.651  0.1577 -0.5743  0.0932
 2183SOL    HW118182   0.592   4.403  13.570 -2.8424 -1.0805 -1.1398
 2183SOL    HW218183   0.473   4.344  13.635 -0.4098  0.6158  2.4370
 2184SOL     OW18184   3.072   3.537   8.499  0.2944 -0.0185 -0.3261
 2184SOL    HW118185   3.128   3.463   8.526 -0.0657 -0.7615 -1.5981
 2184SOL    HW218186   3.008   3.493   8.444 -0.9297 -0.2841  1.3094
 2185SOL     OW18187   2.641   3.999   4.093  0.7949  0.1213 -0.6086
 2185SOL    HW118188   2.685   4.083   4.103  2.2855 -1.1426  3.2647
 2185SOL    HW218189   2.652   3.948   4.173  2.5010  2.3591  0.5730
 2186SOL     OW18190   0.696   4.021   4.053  0.3645 -0.5438 -0.2816
 2186SOL    HW118191   0.635   3.949   4.066 -0.1575  0.0614  0.5415
 2186SOL    HW218192   0.773   3.971   4.026  1.9242  1.0296  1.1961
 2187SOL     OW18193   1.222   2.364   6.239 -0.2965  0.2739 -0.3089
 2187SOL    HW118194   1.231   2.452   6.202 -2.0803 -0.3989 -2.3509
 2187SOL    HW218195   1.153   2.366   6.305 -0.8581  0.3406 -0.8963
 2188SOL     OW18196   3.132   0.168  16.335  0.0888 -0.6003  0.2642
 2188SOL    HW118197   3.166   0.232  16.273 -0.1404 -1.1780 -0.4633
 2188SOL    HW218198   3.210   0.119  16.361 -1.6431 -2.8690  1.1470
 2189SOL     OW18199   4.695   3.477   6.723  0.3129 -0.9385 -0.0636
 2189SOL    HW118200   4.601   3.460   6.715 -0.5345  3.6453  0.2442
 2189SOL    HW218201   4.700   3.568   6.694 -2.1581 -1.8724 -3.3425
 2190SOL     OW18202   1.678   4.247   2.405 -0.2781  1.0080  0.2809
 2190SOL    HW118203   1.761   4.294   2.404  0.6216 -0.5267  2.6264
 2190SOL    HW218204   1.616   4.313   2.437 -1.5676 -0.5922  1.1186
 2191SOL     OW18205   2.825   0.574  14.385 -0.2805 -0.4538  0.0739
 2191SOL    HW118206   2.778   0.646  14.426 -1.2478 -0.4497 -1.0269
 2191SOL    HW218207   2.854   0.542  14.470 -1.4043 -1.2603  0.1490
 2192SOL     OW18208   0.468   1.222   5.795  0.1949  0.1435 -0.3356
 2192SOL    HW118209   0.415   1.229   5.715  1.2603 -1.3357 -1.1751
 2192SOL    HW218210   0.448   1.133   5.825 -1.0209  0.6807  0.4286
 2193SOL     OW18211   3.607   2.807  15.446  0.6189  0.0344  0.0163
 2193SOL    HW118212   3.686   2.799  15.394  2.0387  1.2095  1.9737
 2193SOL    HW218213   3.588   2.728  15.497 -0.3854 -0.3315 -0.9256
 2194SOL     OW18214   1.628   1.301  16.148  0.7078 -0.2769 -0.4083
 2194SOL    HW118215   1.710   1.305  16.098  0.2959 -0.2989 -1.0899
 2194SOL    HW218216   1.567   1.293  16.075  0.4238 -1.0736 -0.0886
 2195SOL     OW18217   1.553   0.862   1.754 -0.2033  0.2893 -0.8062
 2195SOL    HW118218   1.564   0.778   1.710  1.2447 -0.1001  0.3070
 2195SOL    HW218219   1.477   0.834   1.806 -0.0046  0.3583 -0.4788
 2196SOL     OW18220   0.572   0.058   2.906  0.2489  0.1035 -0.6577
 2196SOL    HW118221   0.539   0.061   2.995 -0.2277  2.0447 -0.9196
 2196SOL    HW218222   0.602   4.707   2.901 -0.2089 -0.1858  1.7817
 2197SOL     OW18223   1.189   4.420   3.065  0.7937 -0.0396  0.3503
 2197SOL    HW118224   1.264   4.364   3.049 -0.6767 -1.5781 -1.1581
 2197SOL    HW218225   1.146   4.375   3.138  1.6418 -0.0673  0.8341
 2198SOL     OW18226   3.599   1.067   4.126  0.0130 -0.1271 -0.3119
 2198SOL    HW118227   3.686   1.041   4.095  0.5256 -0.0388  1.0494
 2198SOL    HW218228   3.614   1.156   4.159 -0.7476  0.6016 -1.9156
 2199SOL     OW18229   4.382   4.243   4.325  0.3065 -0.0777  0.0803
 2199SOL    HW118230   4.408   4.224   4.235 -0.4843 -3.1541  0.4908
 2199SOL    HW218231   4.290   4.263   4.306 -0.0107 -0.1036  1.5422
 2200SOL     OW18232   1.341   2.445   9.875 -0.5075 -0.0256 -1.2992
 2200SOL    HW118233   1.388   2.470   9.954 -0.9929  2.4639 -1.7969
 2200SOL    HW218234   1.402   2.464   9.803  0.0801  1.0303 -0.5298
 2201SOL     OW18235   4.277   0.972   5.418 -0.1268 -0.5076 -0.2254
 2201SOL    HW118236   4.200   0.938   5.372 -0.7596 -1.9841  1.9577
 2201SOL    HW218237   4.248   1.026   5.492  1.7015  0.7824 -0.4476
 2202SOL     OW18238   1.864   1.767   3.365 -0.1143 -0.2454 -0.0817
 2202SOL    HW118239   1.922   1.750   3.439  0.0736 -1.5795 -0.5338
 2202SOL    HW218240   1.839   1.679   3.339  2.1188  0.1454 -3.6883
 2203SOL     OW18241   2.725   0.381   1.797  0.3870  0.1267  0.2129
 2203SOL    HW118242   2.639   0.343   1.816  0.3893 -1.0229 -2.0806
 2203SOL    HW218243   2.708   0.469   1.828 -0.9209 -0.2939  0.6890
 2204SOL     OW18244   4.141   4.629   2.137 -0.1677  0.1611  0.2094
 2204SOL    HW118245   4.055   4.672   2.138 -1.7150 -2.9525  3.1888
 2204SOL    HW218246   4.126   4.555   2.196 -0.8859 -0.0612 -0.2453
 2205SOL     OW18247   2.543   2.071   3.829 -0.0441  0.0747  0.3718
 2205SOL    HW118248   2.572   2.036   3.745 -2.4647 -4.2307  1.3420
 2205SOL    HW218249   2.579   2.006   3.890  0.2041  0.3997  0.5730
 2206SOL     OW18250   2.723   2.968  17.536 -0.1588 -0.0275  0.2100
 2206SOL    HW118251   2.682   2.889  17.499 -0.3808  0.0092  0.3765
 2206SOL    HW218252   2.811   2.930  17.536  0.3522  1.1706  0.9756
 2207SOL     OW18253   2.554   2.314   8.061  0.2963  0.1244  0.4728
 2207SOL    HW118254   2.535   2.358   8.144 -0.9757  0.1871  0.1402
 2207SOL    HW218255   2.468   2.289   8.029 -0.6241  1.5437  1.8330
 2208SOL     OW18256   1.076   1.677  16.669  0.0898 -0.6533 -0.2210
 2208SOL    HW118257   1.162   1.714  16.688 -0.2800 -0.7845  1.7802
 2208SOL    HW218258   1.090   1.585  16.694  2.9818  0.3308  1.7376
 2209SOL     OW18259   3.846   0.549   8.810  0.0313 -0.1539  0.0631
 2209SOL    HW118260   3.934   0.554   8.772  0.0636 -0.7850  0.0549
 2209SOL    HW218261   3.854   0.612   8.881  1.4095 -0.7380  0.4259
 2210SOL     OW18262   4.500   3.398   1.081  0.3411 -0.2647  0.2003
 2210SOL    HW118263   4.410   3.421   1.105  0.6229  1.6407 -0.5811
 2210SOL    HW218264   4.548   3.452   1.144 -0.5189 -0.5875  1.1460
 2211SOL     OW18265   0.947   4.343  16.964  0.2550  0.2765  0.6480
 2211SOL    HW118266   0.903   4.347  17.049 -0.5018 -0.5124  0.2836
 2211SOL    HW218267   0.975   4.434  16.952 -1.7542  0.8199  0.0898
 2212SOL     OW18268   3.148   0.732   5.484 -0.6978 -1.0127  0.2671
 2212SOL    HW118269   3.118   0.768   5.567 -1.1124 -1.4660  0.3111
 2212SOL    HW218270   3.214   0.797   5.460 -1.0081 -0.9509 -0.4128
 2213SOL     OW18271   0.812   2.688   9.601  0.3529 -0.5800 -0.2425
 2213SOL    HW118272   0.904   2.713   9.606  0.3367 -0.4986 -0.3556
 2213SOL    HW218273   0.792   2.712   9.511 -0.9266 -0.7573 -0.0110
 2214SOL     OW18274   0.735   1.961   2.121  0.0122  0.1166 -0.1263
 2214SOL    HW118275   0.766   1.878   2.085 -1.0807  0.6104 -2.2094
 2214SOL    HW218276   0.641   1.943   2.128 -0.4714  2.6473 -0.1724
 2215SOL     OW18277   0.835   0.995   5.362  0.1671 -0.1090 -0.0312
 2215SOL    HW118278   0.918   0.954   5.338  0.1528 -1.1761  1.7459
 2215SOL    HW218279   0.802   0.928   5.421  2.0146 -0.1277  0.9832
 2216SOL     OW18280   1.132   2.772   5.504  0.1739  0.2297 -0.4522
 2216SOL    HW118281   1.201   2.817   5.552  0.4067 -1.4938  0.8160
 2216SOL    HW218282   1.176   2.749   5.422  0.3513  0.3284 -0.3829
 2217SOL     OW18283   1.040   2.120   7.610 -0.0982  0.2543 -0.0150
 2217SOL    HW118284   1.008   2.085   7.692  0.1750 -0.1159 -0.0674
 2217SOL    HW218285   1.127   2.141   7.645  0.4473 -1.6600 -0.2179
 2218SOL     OW18286   4.233   3.932   7.815 -0.1389 -0.1207  0.2188
 2218SOL    HW118287   4.198   3.968   7.897 -3.1780 -0.3226 -1.0176
 2218SOL    HW218288   4.239   3.843   7.851  0.8586 -0.0345  0.2830
 2219SOL     OW18289   2.724   3.516   5.937 -0.1546 -0.0573  0.1282
 2219SOL    HW118290   2.745   3.538   5.846  1.8054 -1.6875  0.1997
 2219SOL    HW218291   2.659   3.583   5.960 -0.4486 -0.9350  1.8275
 2220SOL     OW18292   0.999   3.413  17.273  0.8103  0.3143  0.0273
 2220SOL    HW118293   1.057   3.392  17.346  0.2639 -1.6478 -0.1255
 2220SOL    HW218294   0.944   3.478  17.317  2.1380  2.2794 -1.1953
 2221SOL     OW18295   3.964   1.654   6.677 -0.7412 -0.1119 -0.4809
 2221SOL    HW118296   3.894   1.608   6.723 -0.7003  0.5852  0.2603
 2221SOL    HW218297   3.944   1.628   6.587  2.0771 -0.8376 -0.9078
 2222SOL     OW18298   2.712   4.148   0.473  0.0934  0.5874 -0.0526
 2222SOL    HW118299   2.722   4.070   0.527  1.9354  0.1562 -1.0099
 2222SOL    HW218300   2.676   4.206   0.540  1.1022  0.7258  0.3562
 2223SOL     OW18301   1.111   1.233   4.934 -0.1385 -0.1368  0.0714
 2223SOL    HW118302   1.056   1.164   4.971  0.4419  0.8872  2.8069
 2223SOL    HW218303   1.103   1.310   4.990 -1.4265  0.7065 -1.2749
 2224SOL     OW18304   1.351   3.594   3.389 -0.2590 -0.0345 -0.3297
 2224SOL    HW118305   1.445   3.577   3.380  0.0631  1.2793  0.4949
 2224SOL    HW218306   1.327   3.606   3.297 -0.1307 -2.5239 -0.6853
 2225SOL     OW18307   1.275   0.629   0.170  0.3130 -0.0047  0.1635
 2225SOL    HW118308   1.220   0.628   0.092  3.9960  0.5038 -2.4354
 2225SOL    HW218309   1.213   0.658   0.237  0.4533  1.2099 -0.2266
 2226SOL     OW18310   3.520   0.715   6.038 -0.0091 -0.5965  0.3127
 2226SOL    HW118311   3.531   0.720   5.943  2.5091  0.1501  0.6458
 2226SOL    HW218312   3.506   0.809   6.048 -1.5927 -0.9768  1.6211
 2227SOL     OW18313   1.126   0.884   2.909  0.4011 -0.0105 -0.4619
 2227SOL    HW118314   1.212   0.865   2.945  0.5663  2.2550  0.3312
 2227SOL    HW218315   1.133   0.973   2.876 -1.1158  0.2850 -0.0247
 2228SOL     OW18316   2.346   4.090   7.915 -0.3631 -0.1489 -0.6777
 2228SOL    HW118317   2.334   4.049   8.001 -1.8110 -0.0883 -0.8422
 2228SOL    HW218318   2.328   4.016   7.857  2.9223 -1.2236 -0.3176
 2229SOL     OW18319   1.250   0.434   2.997 -0.1443 -0.1095  0.0950
 2229SOL    HW118320   1.175   0.465   3.048  0.8288  2.7761 -0.2164
 2229SOL    HW218321   1.242   0.341   3.019 -0.5047 -0.2807 -0.7852
 2230SOL     OW18322   1.736   0.663  16.326  0.4118 -0.2587  0.4473
 2230SOL    HW118323   1.815   0.612  16.343 -0.5713 -0.5869  3.9060
 2230SOL    HW218324   1.740   0.721  16.402  0.4623  1.5503 -0.9242
 2231SOL     OW18325   2.151   4.211  16.393  0.7754 -0.3378 -0.5270
 2231SOL    HW118326   2.086   4.280  16.394  0.5343 -0.5663 -0.4779
 2231SOL    HW218327   2.095   4.147  16.437  1.8923 -2.0339 -1.5382
 2232SOL     OW18328   4.568   1.143   1.215  0.1281 -0.3388 -0.1519
 2232SOL    HW118329   4.577   1.202   1.140  2.2067 -3.7680 -2.5915
 2232SOL    HW218330   4.553   1.071   1.155 -2.3266 -0.4299  0.5796
 2233SOL     OW18331   4.436   0.040   3.114 -0.3540 -0.2871 -0.6688
 2233SOL    HW118332   4.470   0.036   3.203  1.7944 -0.7634 -1.4954
 2233SOL    HW218333   4.428   0.136   3.112  0.4685 -0.1775  1.3083
 2234SOL     OW18334   4.605   0.056  15.725 -0.5059  0.0471  0.2615
 2234SOL    HW118335   4.600   0.007  15.644  2.2414  0.1153  0.0589
 2234SOL    HW218336   4.584   4.725  15.786  1.1648  1.3248  2.3498
 2235SOL     OW18337   3.563   3.935   3.542 -0.1987  0.5504 -0.0432
 2235SOL    HW118338   3.526   3.991   3.474  0.4195 -0.1153 -0.9075
 2235SOL    HW218339   3.566   3.853   3.493 -1.3024  0.6111 -0.2244
 2236SOL     OW18340   3.582   2.054   5.346 -0.4353 -0.7304 -0.2729
 2236SOL    HW118341   3.495   2.066   5.385 -0.0179  1.0859  0.0836
 2236SOL    HW218342   3.595   2.141   5.309 -0.2743  0.1713  1.9304
 2237SOL     OW18343   2.785   0.618   1.515 -0.0634 -0.4722 -0.5338
 2237SOL    HW118344   2.741   0.655   1.591 -0.6795  0.7391 -1.4835
 2237SOL    HW218345   2.876   0.627   1.540 -0.3943 -1.0553  0.8462
 2238SOL     OW18346   0.115   1.348  14.741 -0.2627  0.3789 -0.0850
 2238SOL    HW118347   0.036   1.308  14.704 -0.5205  0.1338  0.7300
 2238SOL    HW218348   0.165   1.268  14.758 -0.5707  0.3629  0.7252
 2239SOL     OW18349   1.685   0.932   8.242 -0.1158 -0.2895 -0.0191
 2239SOL    HW118350   1.767   0.937   8.291  1.7985 -2.7058 -2.9994
 2239SOL    HW218351   1.718   0.901   8.157 -2.4272 -0.1874 -0.9407
 2240SOL     OW18352   3.308   0.783   6.395  0.1175  0.0408  0.3088
 2240SOL    HW118353   3.253   0.843   6.345  1.4766 -0.8351 -2.1984
 2240SOL    HW218354   3.348   0.844   6.457  0.4311  1.1468 -0.9926
 2241SOL     OW18355   1.949   2.976   2.910 -0.3196 -0.1326  0.9018
 2241SOL    HW118356   1.976   3.062   2.876 -0.3699 -0.0357  1.1096
 2241SOL    HW218357   1.894   2.947   2.836 -0.8097 -1.1046  1.6484
 2242SOL     OW18358   0.291   4.050   4.392 -0.4916 -0.4375  0.4243
 2242SOL    HW118359   0.228   4.052   4.463 -1.4517  1.2930 -0.4752
 2242SOL    HW218360   0.365   4.002   4.430  0.4736  0.8842  0.2283
 2243SOL     OW18361   0.355   3.906   5.333  0.0368  0.6327 -0.6464
 2243SOL    HW118362   0.393   3.994   5.330  0.8813  0.2619 -1.0597
 2243SOL    HW218363   0.301   3.904   5.412  2.0194 -3.4741  0.6615
 2244SOL     OW18364   3.995   1.380   8.913  0.1373  0.4177 -0.1175
 2244SOL    HW118365   3.992   1.468   8.875 -0.6386  0.5299  0.2011
 2244SOL    HW218366   3.941   1.322   8.859  1.9279 -1.7414  0.4184
 2245SOL     OW18367   4.573   0.365   4.533 -0.6228  0.0152  0.3536
 2245SOL    HW118368   4.612   0.452   4.540  1.3843 -0.7189 -1.4138
 2245SOL    HW218369   4.497   0.374   4.589  1.2798  0.2588  2.8834
 2246SOL     OW18370   0.074   1.977   6.333 -0.4760 -0.2207  0.5401
 2246SOL    HW118371   0.130   1.907   6.366 -0.1705  0.1347  0.7674
 2246SOL    HW218372   4.730   1.932   6.322 -0.5234 -0.0737  0.3026
 2247SOL     OW18373   3.055   3.531   6.065 -0.6444 -0.0222 -0.1205
 2247SOL    HW118374   2.994   3.512   6.137 -1.4607 -2.4652 -1.4659
 2247SOL    HW218375   3.026   3.621   6.051  0.5372  0.5850  1.2877
 2248SOL     OW18376   0.803   4.715   3.854  0.4783 -0.4375  0.3555
 2248SOL    HW118377   0.801   0.070   3.860 -1.6247 -0.2774 -2.6367
 2248SOL    HW218378   0.765   4.695   3.939 -0.9712  0.0114 -0.1723
 2249SOL     OW18379   2.799   4.359   6.899  0.5242 -0.0922 -0.2441
 2249SOL    HW118380   2.833   4.273   6.922  3.0600  1.0402  0.3096
 2249SOL    HW218381   2.724   4.368   6.957  0.5947  2.6575 -0.5722
 2250SOL     OW18382   0.339   1.294  13.093  0.2416 -0.0696  0.2762
 2250SOL    HW118383   0.364   1.292  13.185 -2.0021 -0.7457  0.8743
 2250SOL    HW218384   0.340   1.204  13.061 -0.3972 -0.5119  1.5273
 2251SOL     OW18385   0.744   3.005   3.949 -0.1730 -0.1903 -0.1247
 2251SOL    HW118386   0.713   3.010   4.040  1.9708 -1.1980  0.6486
 2251SOL    HW218387   0.829   2.962   3.956 -0.2815 -0.0712  1.8991
 2252SOL     OW18388   3.439   3.426   2.605 -0.0123  0.4527 -0.0158
 2252SOL    HW118389   3.502   3.486   2.644 -1.0540  2.5760 -1.6164
 2252SOL    HW218390   3.497   3.393   2.536 -0.7128 -0.4609 -0.1728
 2253SOL     OW18391   1.926   1.942   8.110  0.2712  0.0122 -0.3950
 2253SOL    HW118392   1.947   2.012   8.171 -0.1351  0.0351 -0.2841
 2253SOL    HW218393   1.885   1.880   8.170 -0.6350  2.0195  1.0299
 2254SOL     OW18394   1.357   1.014   0.317  0.7223 -0.2142 -0.6415
 2254SOL    HW118395   1.303   0.936   0.330 -0.8711  0.9456 -0.3563
 2254SOL    HW218396   1.400   1.009   0.402  0.1869  1.1831 -0.2869
 2255SOL     OW18397   3.359   4.166   0.436  0.3747 -0.6018 -0.1427
 2255SOL    HW118398   3.329   4.160   0.345 -0.4475 -0.0755  0.0959
 2255SOL    HW218399   3.414   4.089   0.443  0.0266 -1.0429 -2.1549
 2256SOL     OW18400   2.306   1.161   4.912 -0.1317  0.0819 -0.5472
 2256SOL    HW118401   2.384   1.116   4.946 -1.0885  0.1050  1.6458
 2256SOL    HW218402   2.335   1.251   4.897 -1.2714  0.5211 -0.0914
 2257SOL     OW18403   1.971   1.918   4.280 -0.2801 -0.0040  0.3327
 2257SOL    HW118404   1.972   1.948   4.371 -1.2935  1.7724 -0.2322
 2257SOL    HW218405   2.027   1.983   4.237 -0.2697 -0.5541 -0.4931
 2258SOL     OW18406   3.117   1.717   7.461 -0.1371 -0.2280  0.1474
 2258SOL    HW118407   3.060   1.723   7.385 -0.0882  1.2165  0.2395
 2258SOL    HW218408   3.085   1.789   7.515 -0.4587  0.6961 -1.2768
 2259SOL     OW18409   2.868   4.696   5.029  0.5489  0.0156  0.3575
 2259SOL    HW118410   2.853   4.729   4.941 -0.1675 -2.9293 -0.6160
 2259SOL    HW218411   2.842   4.605   5.021  0.8898  0.2547 -3.2987
 2260SOL     OW18412   0.256   1.518   3.142  0.0323  0.8406  0.1273
 2260SOL    HW118413   0.206   1.509   3.061  0.6520  0.8091 -0.2489
 2260SOL    HW218414   0.186   1.538   3.204 -0.0142 -0.2940  0.4395
 2261SOL     OW18415   3.830   2.544  17.429 -0.0221 -0.4473 -0.0778
 2261SOL    HW118416   3.766   2.588  17.373  0.7476 -1.0880 -1.4462
 2261SOL    HW218417   3.799   2.455  17.411 -1.9828  0.5258 -1.5528
 2262SOL     OW18418   4.398   3.556  17.586  0.0900 -0.4936 -0.1829
 2262SOL    HW118419   4.305   3.566  17.565 -0.1724  0.0570  1.1947
 2262SOL    HW218420   4.414   3.478  17.534 -0.0833  0.4467 -1.6439
 2263SOL     OW18421   2.963   0.172   6.522 -0.4876  0.2203  0.0103
 2263SOL    HW118422   2.914   0.226   6.584 -0.2505 -0.9404  1.2173
 2263SOL    HW218423   2.892   0.114   6.495  1.0086 -2.0119  0.8932
 2264SOL     OW18424   4.645   1.896   9.556  0.2571  0.3930  0.5882
 2264SOL    HW118425   4.621   1.892   9.649 -1.5820  1.2598  0.1604
 2264SOL    HW218426   4.635   1.803   9.536  2.1505 -0.1220  2.0673
 2265SOL     OW18427   2.066   4.094   1.627 -0.1563  0.2719 -0.0111
 2265SOL    HW118428   2.028   4.123   1.710  0.1125  1.8011 -0.4282
 2265SOL    HW218429   2.009   4.141   1.566  0.0231 -0.0767 -0.4492
 2266SOL     OW18430   0.419   2.909   5.595 -0.2823 -0.1122 -0.2048
 2266SOL    HW118431   0.434   2.816   5.578  1.2415 -0.1580  1.2979
 2266SOL    HW218432   0.478   2.946   5.529  0.4984 -0.3304  0.3580
 2267SOL     OW18433   1.432   3.341   6.746  0.4645  0.4258  0.0621
 2267SOL    HW118434   1.480   3.338   6.829  2.2567 -1.6258 -1.0304
 2267SOL    HW218435   1.475   3.270   6.698  0.2208  0.0904  0.3437
 2268SOL     OW18436   3.159   1.413   7.751 -0.3960 -0.3462  0.0787
 2268SOL    HW118437   3.194   1.384   7.667  1.1114  1.1660  0.1755
 2268SOL    HW218438   3.190   1.503   7.763  2.6062 -1.0914 -2.0929
 2269SOL     OW18439   2.473   4.624   6.706  0.0039  0.1483  0.4330
 2269SOL    HW118440   2.451   4.664   6.622  0.6286 -1.3803 -0.4504
 2269SOL    HW218441   2.441   4.687   6.771 -4.1216 -1.0801 -0.3709
 2270SOL     OW18442   2.483   4.108   9.649  0.6705  0.2722 -0.6771
 2270SOL    HW118443   2.500   4.055   9.726 -0.2540  2.4637  1.0274
 2270SOL    HW218444   2.471   4.039   9.584 -1.4718 -0.4931  0.5307
 2271SOL     OW18445   0.892   2.501   5.455  0.0072 -0.5360 -0.3732
 2271SOL    HW118446   0.831   2.444   5.408 -0.6640  0.6806 -0.9566
 2271SOL    HW218447   0.944   2.545   5.388  0.3457  0.3812  0.5060
 2272SOL     OW18448   3.300   0.114   9.168  0.2076 -0.0034  0.3396
 2272SOL    HW118449   3.347   0.056   9.227  0.7301  1.2581  1.1628
 2272SOL    HW218450   3.333   0.077   9.086 -1.4078 -1.5577  0.3788
 2273SOL     OW18451   4.150   1.993   3.862  0.0127  0.5083 -0.6005
 2273SOL    HW118452   4.172   1.900   3.869 -1.2301  0.2652 -0.0503
 2273SOL    HW218453   4.123   2.010   3.772 -1.0409  0.4755 -0.2859
 2274SOL     OW18454   0.752   2.289   5.991  0.9392  0.3628 -0.1893
 2274SOL    HW118455   0.753   2.272   6.085 -0.1923 -0.1200 -0.2652
 2274SOL    HW218456   0.681   2.352   5.977 -1.4874 -2.0218  1.2790
 2275SOL     OW18457   3.263   1.209   4.400 -0.2710 -0.0846 -0.1411
 2275SOL    HW118458   3.245   1.206   4.306 -0.5484  1.1859 -0.1362
 2275SOL    HW218459   3.200   1.279   4.417 -0.8188 -0.1961 -1.6804
 2276SOL     OW18460   0.542   0.845   3.391 -0.5017 -0.0190  0.3404
 2276SOL    HW118461   0.457   0.885   3.368  0.3271  1.8431  0.4949
 2276SOL    HW218462   0.558   0.911   3.458  1.9208 -2.1402  1.8164
 2277SOL     OW18463   1.553   2.475   2.760 -0.5065  0.3753 -0.1994
 2277SOL    HW118464   1.473   2.423   2.772  1.0312 -1.6007  1.4232
 2277SOL    HW218465   1.527   2.554   2.807  0.7883  0.5439  0.2170
 2278SOL     OW18466   3.877   1.487  14.859  0.4403 -0.6485 -0.7329
 2278SOL    HW118467   3.921   1.403  14.866  0.1048 -1.0243 -3.0817
 2278SOL    HW218468   3.953   1.544  14.860  0.9393 -1.2352 -3.8745
 2279SOL     OW18469   0.779   3.743   6.608  0.0156  0.2359  0.1910
 2279SOL    HW118470   0.844   3.783   6.666  0.4144  0.7445 -0.6082
 2279SOL    HW218471   0.831   3.671   6.573  1.8220  1.1881  0.9635
 2280SOL     OW18472   1.615   2.474   8.098  0.5592  0.1606 -0.0438
 2280SOL    HW118473   1.658   2.390   8.112 -0.0990 -0.1432  0.1836
 2280SOL    HW218474   1.556   2.473   8.174  0.4185 -1.4771 -0.1724
 2281SOL     OW18475   0.025   0.446   4.293  0.0811  0.2664 -0.1470
 2281SOL    HW118476   4.734   0.498   4.367 -1.2835 -1.0346  0.1985
 2281SOL    HW218477   0.066   0.523   4.253  0.0587  0.3856  0.0579
 2282SOL     OW18478   0.169   3.281   2.639 -0.2146 -0.6480 -0.3787
 2282SOL    HW118479   0.159   3.369   2.605 -0.1603 -0.1544  0.8992
 2282SOL    HW218480   0.143   3.301   2.729 -0.2618 -0.3892 -0.4524
 2283SOL     OW18481   1.151   1.068   8.498 -0.0762  0.2287 -0.3940
 2283SOL    HW118482   1.080   1.107   8.547  0.5117 -1.5318  1.8398
 2283SOL    HW218483   1.206   1.045   8.572  0.6107 -0.4355 -1.1066
 2284SOL     OW18484   0.807   2.137   5.309  0.0127 -0.2104 -0.2001
 2284SOL    HW118485   0.819   2.044   5.326 -2.3308 -0.6977 -1.3089
 2284SOL    HW218486   0.893   2.170   5.281  0.8258 -0.7997  1.6566
 2285SOL     OW18487   1.324   4.655   8.451 -0.3091  0.6305 -0.3538
 2285SOL    HW118488   1.381   4.626   8.522 -0.7621  0.2158 -0.1574
 2285SOL    HW218489   1.323   0.009   8.468  0.8906  0.2947  1.5708
 2286SOL     OW18490   1.604   3.152   6.095 -0.2282 -0.2710 -0.1805
 2286SOL    HW118491   1.628   3.137   6.004 -2.5767  2.8465 -1.3383
 2286SOL    HW218492   1.635   3.243   6.097  0.7084 -0.5989  0.1611
 2287SOL     OW18493   3.451   2.621   4.018  0.1372 -0.1648 -0.6369
 2287SOL    HW118494   3.385   2.679   3.980 -0.5857 -0.6035 -0.0397
 2287SOL    HW218495   3.456   2.659   4.105  0.0809  0.3240 -0.8490
 2288SOL     OW18496   2.500   3.862   9.524  0.2735 -0.4580  0.6469
 2288SOL    HW118497   2.555   3.814   9.586  1.1848 -0.1934  0.0372
 2288SOL    HW218498   2.463   3.790   9.474 -1.0337  1.5715 -1.2794
 2289SOL     OW18499   0.187   3.401   2.017  0.3967 -0.0299 -0.2085
 2289SOL    HW118500   0.210   3.487   2.052  1.5263 -0.5178  0.2401
 2289SOL    HW218501   0.127   3.428   1.947 -0.3569  0.8534  0.7815
 2290SOL     OW18502   3.673   2.805   0.317 -0.0710 -0.0900  0.3732
 2290SOL    HW118503   3.681   2.745   0.390  4.7456 -1.0086 -0.9019
 2290SOL    HW218504   3.755   2.791   0.270 -0.0366  0.7701  0.1643
 2291SOL     OW18505   1.486   1.504  12.434 -0.3503 -0.1741 -0.2177
 2291SOL    HW118506   1.457   1.525  12.345  0.3604  1.1851 -0.1262
 2291SOL    HW218507   1.579   1.525  12.435 -0.4728  0.4539 -1.5940
 2292SOL     OW18508   1.429   1.173   2.128  0.2631  0.2891  0.5552
 2292SOL    HW118509   1.441   1.227   2.050 -2.2744  0.1515  0.0498
 2292SOL    HW218510   1.459   1.086   2.101 -2.7683 -0.6440  0.0709
 2293SOL     OW18511   1.860   1.276   8.719 -0.3207  0.0444  0.0726
 2293SOL    HW118512   1.818   1.252   8.636 -1.6209  0.5435  0.5900
 2293SOL    HW218513   1.794   1.266   8.787  0.7300 -1.9785  0.7896
 2294SOL     OW18514   1.296   1.363   6.139  0.7892  0.0800 -0.6863
 2294SOL    HW118515   1.332   1.372   6.228  3.0236 -1.5711 -1.4278
 2294SOL    HW218516   1.212   1.408   6.143  0.8374 -0.0251  1.7093
 2295SOL     OW18517   3.476   2.057   3.358  0.1300 -0.6774 -0.1120
 2295SOL    HW118518   3.553   2.101   3.394 -2.3956 -0.5008  5.1986
 2295SOL    HW218519   3.405   2.121   3.355  0.5625 -0.1778  0.1957
 2296SOL     OW18520   3.713   1.426  16.999  0.1364  0.2794  0.1247
 2296SOL    HW118521   3.638   1.436  16.941 -0.3963 -1.8042  0.4618
 2296SOL    HW218522   3.763   1.505  16.980  0.7741 -0.2432 -0.3845
 2297SOL     OW18523   2.994   1.357   5.384  0.2970 -0.5776 -0.4809
 2297SOL    HW118524   3.055   1.406   5.328  1.4812  1.3540  2.5380
 2297SOL    HW218525   3.025   1.269   5.360  1.2250 -0.5549  0.6429
 2298SOL     OW18526   1.119   3.547   0.926 -0.0716 -0.5448  0.2341
 2298SOL    HW118527   1.211   3.521   0.928  0.1161  0.0640 -0.3327
 2298SOL    HW218528   1.077   3.479   0.874  0.5551  0.0101 -1.0114
 2299SOL     OW18529   1.234   1.728   8.598 -0.3205 -0.2085  0.1954
 2299SOL    HW118530   1.167   1.796   8.603  0.4029  0.5141 -0.0519
 2299SOL    HW218531   1.269   1.745   8.510 -3.1517  3.8285 -0.1328
 2300SOL     OW18532   3.386   3.231   6.777 -0.5356  0.5459 -0.8650
 2300SOL    HW118533   3.343   3.262   6.697 -1.1346 -0.9042 -1.1124
 2300SOL    HW218534   3.388   3.313   6.826  0.9267 -1.1791  1.9988
 2301SOL     OW18535   3.212   3.546   2.501  1.0185 -0.4041 -0.1544
 2301SOL    HW118536   3.134   3.491   2.507 -0.5151  1.7869  0.2459
 2301SOL    HW218537   3.244   3.514   2.585  2.4064  1.8511  0.1673
 2302SOL     OW18538   3.532   4.594   3.566 -0.3941  0.2190 -0.4720
 2302SOL    HW118539   3.517   4.500   3.560  1.8800 -0.0333 -2.3631
 2302SOL    HW218540   3.455   4.632   3.608 -2.2784 -1.7608 -2.1381
 2303SOL     OW18541   4.492   1.110  14.714  0.1401 -0.0399 -0.2454
 2303SOL    HW118542   4.534   1.097  14.799  0.0266 -1.8478 -0.4479
 2303SOL    HW218543   4.497   1.021  14.678  0.7433 -0.3025  0.4894
 2304SOL     OW18544   1.910   1.224  17.376 -0.5649  0.1337 -0.6870
 2304SOL    HW118545   1.861   1.169  17.437  0.0980  1.1592  0.7762
 2304SOL    HW218546   1.929   1.156  17.311 -1.2066 -1.0929  0.3951
 2305SOL     OW18547   3.395   2.934   1.512  0.1160 -0.3199  0.1077
 2305SOL    HW118548   3.351   2.896   1.587  0.3882 -0.3383  0.2589
 2305SOL    HW218549   3.472   2.877   1.507  0.2541 -0.0683 -0.6737
 2306SOL     OW18550   4.613   4.092  15.902 -0.6576 -0.0819 -0.2330
 2306SOL    HW118551   4.668   4.136  15.966 -1.5323  0.0297  0.4346
 2306SOL    HW218552   4.604   4.164  15.840  0.8139 -0.0026 -0.3498
 2307SOL     OW18553   2.182   4.086  12.478  0.2313  0.8605  0.6702
 2307SOL    HW118554   2.182   4.078  12.573 -2.1295 -0.3327  0.5793
 2307SOL    HW218555   2.219   4.172  12.459  2.5034 -0.4530 -0.8448
 2308SOL     OW18556   1.232   1.965  16.942  1.0346  0.2004  0.0648
 2308SOL    HW118557   1.140   1.980  16.920  0.9399 -0.3740  0.0846
 2308SOL    HW218558   1.220   1.885  16.993  2.3224  1.1941  1.9372
 2309SOL     OW18559   3.273   2.975   9.009 -0.3095  0.1854  0.1429
 2309SOL    HW118560   3.228   3.058   9.024  0.2045  0.3202  0.9069
 2309SOL    HW218561   3.207   2.927   8.959 -1.6236  1.4892  0.6550
 2310SOL     OW18562   4.417   2.317   8.838 -0.1468 -0.3664  0.1208
 2310SOL    HW118563   4.464   2.385   8.887  2.1712 -1.4669 -0.5691
 2310SOL    HW218564   4.478   2.283   8.772  1.0497  0.9377  0.5449
 2311SOL     OW18565   2.825   2.854   2.617  0.3908  0.2274 -0.1437
 2311SOL    HW118566   2.732   2.835   2.630 -0.0261  0.0200 -3.3528
 2311SOL    HW218567   2.859   2.764   2.619 -0.9315 -0.2225  1.6616
 2312SOL     OW18568   1.513   1.395   7.185  0.0194  0.1578  0.1209
 2312SOL    HW118569   1.495   1.336   7.111  0.7450 -0.4528  0.4339
 2312SOL    HW218570   1.602   1.372   7.212 -0.1221  0.1373  0.5695
 2313SOL     OW18571   2.563   3.490  10.211 -0.5318  0.2739 -0.3083
 2313SOL    HW118572   2.601   3.571  10.177 -1.4621  0.0628 -1.8470
 2313SOL    HW218573   2.486   3.484  10.155  0.1991 -2.0116 -1.0834
 2314SOL     OW18574   1.062   2.973  14.420  0.4676 -0.2060 -0.0693
 2314SOL    HW118575   1.059   3.051  14.363 -1.2068 -1.4078 -1.6407
 2314SOL    HW218576   1.054   2.903  14.356 -1.6705 -0.0498  0.0316
 2315SOL     OW18577   3.751   0.841   7.392 -0.4792  0.3428  0.4668
 2315SOL    HW118578   3.733   0.813   7.482 -0.5804 -0.1880  0.2768
 2315SOL    HW218579   3.844   0.819   7.390 -0.3559  0.6343  3.1071
 2316SOL     OW18580   4.383   3.878   4.807  0.2048 -0.0845  0.7181
 2316SOL    HW118581   4.349   3.791   4.788 -0.6925 -0.1371  2.5557
 2316SOL    HW218582   4.306   3.929   4.782 -0.4323 -0.7666  1.3126
 2317SOL     OW18583   2.945   1.991  16.930 -0.0599 -0.3112  0.1651
 2317SOL    HW118584   3.017   1.999  16.866  0.3243 -0.8147  0.5368
 2317SOL    HW218585   2.915   1.903  16.906 -0.4870 -0.0807 -0.1454
 2318SOL     OW18586   3.019   1.589   8.102 -0.4393  0.6302 -0.3514
 2318SOL    HW118587   3.099   1.617   8.148  0.3316 -1.0218 -0.6808
 2318SOL    HW218588   3.019   1.661   8.038 -1.8506 -0.4955 -1.6101
 2319SOL     OW18589   0.333   4.689   5.661 -0.8737  0.1278  0.4433
 2319SOL    HW118590   0.268   4.713   5.594  1.1676 -0.7044 -1.8094
 2319SOL    HW218591   0.367   0.031   5.696 -0.9671  0.6023 -0.5708
 2320SOL     OW18592   3.988   4.078   3.156 -0.0086  0.1827  0.6185
 2320SOL    HW118593   3.945   4.037   3.081  0.3583 -2.0134  1.6155
 2320SOL    HW218594   3.938   4.049   3.232  0.2059  0.0455  0.7082
 2321SOL     OW18595   3.682   2.975  14.527  0.0585  0.0778  0.0757
 2321SOL    HW118596   3.678   3.043  14.459  0.3277  0.4746  0.4575
 2321SOL    HW218597   3.600   2.926  14.526 -0.6988  1.3234  0.0071
 2322SOL     OW18598   2.005   2.789   9.048  0.1887 -0.0927  0.2684
 2322SOL    HW118599   2.060   2.775   9.125 -0.0469  1.7906  0.7803
 2322SOL    HW218600   1.967   2.872   9.076 -0.6153 -0.2210 -0.4515
 2323SOL     OW18601   0.466   3.492   8.842  0.0830 -0.0560 -0.1804
 2323SOL    HW118602   0.451   3.399   8.859  0.5547  0.0002  0.5657
 2323SOL    HW218603   0.506   3.493   8.755  0.7323  0.5438  0.1213
 2324SOL     OW18604   0.118   3.640  17.310  0.3424 -0.5162 -0.0719
 2324SOL    HW118605   0.081   3.612  17.226 -0.2666  0.8883 -0.2651
 2324SOL    HW218606   0.040   3.664  17.361  1.1771  0.6297  0.6573
 2325SOL     OW18607   2.643   2.742   3.522 -0.2209  0.3187  0.2761
 2325SOL    HW118608   2.599   2.684   3.459  0.0028  1.6583 -1.0972
 2325SOL    HW218609   2.674   2.676   3.584  0.2724  1.3551  1.1330
 2326SOL     OW18610   0.776   0.872   7.672 -0.1259  0.0995  0.2615
 2326SOL    HW118611   0.819   0.952   7.641  0.1949 -0.0248  0.3878
 2326SOL    HW218612   0.688   0.894   7.641  0.2767  1.1317 -0.1746
 2327SOL     OW18613   2.429   1.512   8.522 -0.4121  0.3313 -0.4485
 2327SOL    HW118614   2.421   1.458   8.443  1.0826  1.5198 -1.4197
 2327SOL    HW218615   2.340   1.546   8.528 -1.0402 -1.6796  1.6297
 2328SOL     OW18616   2.187   1.242   4.027 -0.1504  0.2208  0.6330
 2328SOL    HW118617   2.142   1.223   4.110 -2.0617  2.1519  0.0470
 2328SOL    HW218618   2.113   1.269   3.973 -0.9919 -1.1561  1.0750
 2329SOL     OW18619   0.770   4.655   8.197 -0.0056 -0.1954  0.6068
 2329SOL    HW118620   0.703   4.665   8.130 -0.0739  0.3030  0.7423
 2329SOL    HW218621   0.725   4.600   8.261  1.7798 -1.7915  0.4936
 2330SOL     OW18622   0.264   0.449  15.873  0.1403 -0.1257  0.0136
 2330SOL    HW118623   0.336   0.509  15.854 -0.2429 -0.0740 -1.2944
 2330SOL    HW218624   0.282   0.372  15.819  0.6109  0.2612 -0.3845
 2331SOL     OW18625   1.870   0.794   6.052  0.0903  0.8595 -0.0844
 2331SOL    HW118626   1.797   0.781   5.992 -0.5273 -1.4601  1.1771
 2331SOL    HW218627   1.807   0.805   6.123 -0.0672 -2.9711  0.3680
 2332SOL     OW18628   0.972   1.560   3.257  0.1466 -0.0133 -0.6128
 2332SOL    HW118629   0.908   1.537   3.190 -1.1840  1.4541  0.1546
 2332SOL    HW218630   1.055   1.554   3.209 -0.7164 -1.5379 -1.9297
 2333SOL     OW18631   0.775   3.416   5.444  0.0991 -0.0676 -0.2729
 2333SOL    HW118632   0.779   3.510   5.460 -2.1310  0.4998 -3.0075
 2333SOL    HW218633   0.864   3.406   5.410 -0.6850  1.7033 -2.8828
 2334SOL     OW18634   2.353   4.297   2.054 -0.2271  0.8149  0.1750
 2334SOL    HW118635   2.350   4.344   2.138 -1.5947  1.1137 -0.0324
 2334SOL    HW218636   2.350   4.373   1.996  1.8517 -0.9575 -2.2550
 2335SOL     OW18637   4.450   3.488   3.623  0.3538 -0.1274 -0.3829
 2335SOL    HW118638   4.482   3.436   3.696  3.0929  1.9206 -0.1210
 2335SOL    HW218639   4.476   3.438   3.546  0.6702 -0.0881 -0.3017
 2336SOL     OW18640   3.315   2.666   6.086  0.2988 -0.3775 -0.2786
 2336SOL    HW118641   3.389   2.717   6.118  1.4437 -0.4986 -2.7553
 2336SOL    HW218642   3.353   2.579   6.096 -2.2026 -1.2378  1.5646
 2337SOL     OW18643   1.073   1.031  15.230  0.4304  0.2109 -0.2528
 2337SOL    HW118644   1.082   1.126  15.235 -1.7117  0.4150 -0.1904
 2337SOL    HW218645   1.052   1.017  15.322 -0.4544  0.0698 -0.4766
 2338SOL     OW18646   2.790   1.188   3.841  0.0604  0.2583 -0.2423
 2338SOL    HW118647   2.768   1.278   3.816 -1.5317  0.1772  0.8357
 2338SOL    HW218648   2.882   1.181   3.814 -0.0939  1.3431 -1.0195
 2339SOL     OW18649   0.813   1.387   7.677  0.1620  0.2089  0.5629
 2339SOL    HW118650   0.765   1.432   7.746 -0.2416  0.2447  0.2614
 2339SOL    HW218651   0.786   1.299   7.702 -2.3408  0.4463 -1.3363
 2340SOL     OW18652   3.666   2.281  14.527  0.4806 -0.5209  0.5309
 2340SOL    HW118653   3.701   2.282  14.438 -0.3110  1.2728  0.2372
 2340SOL    HW218654   3.619   2.364  14.530  2.1450  0.3751  1.7342
 2341SOL     OW18655   4.262   2.806   5.937  0.1556  0.3860 -0.3575
 2341SOL    HW118656   4.239   2.898   5.933 -0.2718  0.3047  0.2172
 2341SOL    HW218657   4.339   2.801   5.994  0.3379  2.5220 -0.4422
 2342SOL     OW18658   3.494   0.243   2.127  0.1852 -0.0648  0.2718
 2342SOL    HW118659   3.510   0.317   2.068 -2.6839 -0.2363 -0.7438
 2342SOL    HW218660   3.412   0.206   2.093  0.6540  0.6274 -1.6040
 2343SOL     OW18661   2.409   2.657   5.839  0.7111 -0.4025 -0.1324
 2343SOL    HW118662   2.326   2.694   5.808 -0.5424 -1.8315  1.4753
 2343SOL    HW218663   2.365   2.606   5.908  1.0881  0.8835  1.0607
 2344SOL     OW18664   1.448   2.557   6.855  0.2629  0.3923 -0.0697
 2344SOL    HW118665   1.529   2.522   6.817  0.6185 -0.9287  1.9317
 2344SOL    HW218666   1.386   2.488   6.834  1.9019 -0.2282 -2.8246
 2345SOL     OW18667   0.422   0.232   2.127 -0.2991  0.8934  0.4182
 2345SOL    HW118668   0.349   0.290   2.106  0.0287  1.4917  0.9182
 2345SOL    HW218669   0.480   0.234   2.051 -0.1253 -0.4701  0.5148
 2346SOL     OW18670   2.229   3.457   8.388 -0.2218 -0.2368 -0.1067
 2346SOL    HW118671   2.269   3.384   8.437 -1.2493 -1.2332 -0.7490
 2346SOL    HW218672   2.138   3.428   8.381 -0.1668 -0.5335  0.3659
 2347SOL     OW18673   1.287   3.944  15.358  0.6894 -0.7147 -0.0484
 2347SOL    HW118674   1.361   3.941  15.297  0.9780 -0.5391  0.2954
 2347SOL    HW218675   1.218   3.917  15.297  1.2015 -1.4430 -0.2937
 2348SOL     OW18676   2.769   0.986   3.038 -0.0664 -0.5109  0.6406
 2348SOL    HW118677   2.731   0.967   3.124 -0.8699 -0.5551  0.2750
 2348SOL    HW218678   2.736   1.076   3.045 -0.6302 -0.7346  0.7849
 2349SOL     OW18679   2.101   1.348   1.449  0.2010  0.1769 -0.3503
 2349SOL    HW118680   2.164   1.348   1.521  1.0667 -1.7628 -1.1058
 2349SOL    HW218681   2.152   1.381   1.375  0.6973  2.0687  0.8282
 2350SOL     OW18682   3.638   1.799   6.177  0.0800  0.2796 -0.5371
 2350SOL    HW118683   3.710   1.805   6.240  0.1507  0.5935 -0.6503
 2350SOL    HW218684   3.570   1.766   6.236  1.2989 -1.9695 -0.3558
 2351SOL     OW18685   0.228   3.999   9.275  0.7135  0.2655  0.1343
 2351SOL    HW118686   0.314   3.958   9.264  0.6228  0.5478 -1.6116
 2351SOL    HW218687   0.193   3.924   9.323  0.1945  1.2395  1.2808
 2352SOL     OW18688   2.343   3.428   1.416 -0.3286  0.1284  0.0225
 2352SOL    HW118689   2.288   3.461   1.345  0.5775  0.4028 -0.5378
 2352SOL    HW218690   2.391   3.508   1.436  1.8651 -0.8905 -1.1810
 2353SOL     OW18691   4.343   2.297  11.963 -0.1301  0.1641  0.2826
 2353SOL    HW118692   4.422   2.351  11.966  0.4699 -0.6440 -1.2893
 2353SOL    HW218693   4.309   2.307  11.875  0.4368  0.2216  0.0677
 2354SOL     OW18694   4.553   2.252   4.624  0.1862 -0.1829  0.4476
 2354SOL    HW118695   4.538   2.309   4.549 -2.2649  0.8470  1.7251
 2354SOL    HW218696   4.478   2.194   4.612  0.8737 -1.2355  1.2106
 2355SOL     OW18697   2.975   4.319   2.538 -0.0848 -0.0655  0.9528
 2355SOL    HW118698   2.880   4.327   2.527  0.2341 -0.2732 -2.0222
 2355SOL    HW218699   3.008   4.241   2.494 -2.1853  0.1253 -0.9308
 2356SOL     OW18700   0.276   0.426  16.360  0.1953 -0.2402  0.1391
 2356SOL    HW118701   0.296   0.513  16.324 -1.1719  0.2028  0.4691
 2356SOL    HW218702   0.334   0.377  16.301 -0.2607 -0.1514 -0.3777
 2357SOL     OW18703   3.861   0.823   9.748  0.3682  0.2120 -0.4357
 2357SOL    HW118704   3.838   0.869   9.667  2.2693  0.6435 -0.7138
 2357SOL    HW218705   3.945   0.790   9.719 -0.1819 -0.5173 -1.2082
 2358SOL     OW18706   3.840   0.047   8.564 -0.4991  0.1150 -0.0109
 2358SOL    HW118707   3.907   4.721   8.583 -1.4587 -0.0531  2.7016
 2358SOL    HW218708   3.802   0.083   8.644 -1.0284 -1.3149  0.3795
 2359SOL     OW18709   1.556   0.136   5.091  0.1105  0.2970  0.3734
 2359SOL    HW118710   1.498   0.066   5.065 -0.6454  0.9118  0.4089
 2359SOL    HW218711   1.606   0.091   5.160  0.0743 -0.7918 -0.3303
 2360SOL     OW18712   2.402   0.442   7.144 -0.4333 -0.1180  0.3375
 2360SOL    HW118713   2.491   0.435   7.178 -0.7021  0.4081  1.1387
 2360SOL    HW218714   2.362   0.362   7.179  1.0086 -0.4958  1.0886
 2361SOL     OW18715   1.707   0.450  11.834  0.0571  0.6577  0.4489
 2361SOL    HW118716   1.772   0.494  11.888  0.8278 -0.2879  0.2795
 2361SOL    HW218717   1.629   0.462  11.889 -1.0443 -0.6580 -0.8015
 2362SOL     OW18718   0.789   3.942   1.785  0.5121  0.1119 -0.2041
 2362SOL    HW118719   0.871   3.951   1.737  0.1324  0.4033 -0.7861
 2362SOL    HW218720   0.787   4.032   1.816  1.9449  0.0597  0.0438
 2363SOL     OW18721   3.865   1.700   1.943 -0.1987  0.4193  0.4712
 2363SOL    HW118722   3.833   1.664   1.860 -1.0390  1.6977  0.2443
 2363SOL    HW218723   3.959   1.703   1.925  0.0905 -0.7942  1.6847
 2364SOL     OW18724   1.319   1.862  15.839  0.0112  0.0235  0.4416
 2364SOL    HW118725   1.388   1.798  15.849  0.2255 -0.0922 -1.7129
 2364SOL    HW218726   1.343   1.929  15.774  1.2225 -1.1350 -0.3034
 2365SOL     OW18727   0.115   4.309   3.224 -0.0849  0.0362  0.1592
 2365SOL    HW118728   0.021   4.296   3.213  0.0422  0.0455 -0.9621
 2365SOL    HW218729   0.150   4.232   3.180 -0.6144  0.4500 -0.9773
 2366SOL     OW18730   1.070   4.036   9.966  0.8261 -0.3326  0.2706
 2366SOL    HW118731   0.991   4.011  10.014 -0.2196  0.5584 -0.9902
 2366SOL    HW218732   1.047   4.127   9.951 -0.0554 -0.0916  3.1061
 2367SOL     OW18733   0.132   4.532   5.356  0.8096  0.2449 -0.2393
 2367SOL    HW118734   0.072   4.571   5.292 -0.6076 -1.9632 -0.2466
 2367SOL    HW218735   0.132   4.603   5.421 -2.4494 -0.5904  0.7058
 2368SOL     OW18736   4.659   1.339   7.766  0.4023 -1.0163  0.3073
 2368SOL    HW118737   4.566   1.318   7.761  0.2824 -0.2689 -0.6099
 2368SOL    HW218738   4.695   1.253   7.786 -2.5275 -2.4515 -0.5462
 2369SOL     OW18739   2.455   1.503   5.392  0.5273 -0.2222 -0.7436
 2369SOL    HW118740   2.429   1.488   5.483 -1.7572 -1.7925 -1.6269
 2369SOL    HW218741   2.419   1.421   5.357  0.4948 -0.8118  0.6692
 2370SOL     OW18742   2.834   0.310   3.261  0.7452  0.0051  0.2952
 2370SOL    HW118743   2.818   0.220   3.290 -0.0285 -0.0918 -0.4126
 2370SOL    HW218744   2.740   0.327   3.264  0.8887  0.9983 -1.0839
 2371SOL     OW18745   2.108   4.146  16.730  0.5373 -0.1300 -0.0860
 2371SOL    HW118746   2.186   4.174  16.683  1.5626 -3.3558 -0.3039
 2371SOL    HW218747   2.094   4.229  16.775 -0.1453 -0.9978  1.3283
 2372SOL     OW18748   1.504   1.809  16.541  0.0420 -0.4953  0.0661
 2372SOL    HW118749   1.521   1.858  16.461  0.3481 -1.1584 -0.2783
 2372SOL    HW218750   1.520   1.720  16.509 -0.5263 -0.3119 -0.7186
 2373SOL     OW18751   1.999   0.563   7.817 -0.5442 -0.1143 -0.3257
 2373SOL    HW118752   2.079   0.604   7.851 -0.4211  1.0271 -1.9885
 2373SOL    HW218753   2.043   0.480   7.797 -0.8603  0.2438 -2.5216
 2374SOL     OW18754   2.352   1.506   4.597  0.4458 -0.4264 -0.1878
 2374SOL    HW118755   2.314   1.465   4.519  0.0793  0.1037 -0.2859
 2374SOL    HW218756   2.404   1.567   4.545 -2.5927  3.3473  1.2085
 2375SOL     OW18757   4.273   3.209   4.258 -0.0817  0.5769 -0.3615
 2375SOL    HW118758   4.183   3.229   4.283 -0.2124 -0.0578 -0.3369
 2375SOL    HW218759   4.286   3.115   4.271 -1.0860  0.4543 -0.2637
 2376SOL     OW18760   1.211   2.826   3.708 -0.2368 -0.0628  0.1199
 2376SOL    HW118761   1.142   2.772   3.744 -1.0050 -1.2663 -3.1476
 2376SOL    HW218762   1.180   2.823   3.617  2.6513  1.0548 -0.9181
 2377SOL     OW18763   2.126   0.657   4.783  0.4730 -0.5706  0.0913
 2377SOL    HW118764   2.216   0.688   4.797  1.4115 -2.6981 -1.2434
 2377SOL    HW218765   2.090   0.722   4.723  0.2238  0.1475  1.0042
 2378SOL     OW18766   0.907   0.305   9.422 -0.0425 -0.2724 -0.5729
 2378SOL    HW118767   0.863   0.390   9.426  0.5013 -0.0497  0.9759
 2378SOL    HW218768   0.992   0.320   9.463 -0.0726  0.6221 -0.8441
 2379SOL     OW18769   4.092   4.226   9.073  0.5350  0.5658 -0.7245
 2379SOL    HW118770   4.174   4.275   9.070  0.1032  1.3557  0.3908
 2379SOL    HW218771   4.118   4.140   9.108 -1.9661  0.0515 -0.1018
 2380SOL     OW18772   3.278   1.144  15.256 -0.1273 -0.3603  0.0690
 2380SOL    HW118773   3.211   1.149  15.189 -1.4235  0.8358  1.4610
 2380SOL    HW218774   3.219   1.125  15.328  0.1378  1.9059  0.8962
 2381SOL     OW18775   1.247   3.049   4.123 -0.1055 -0.0569  0.1476
 2381SOL    HW118776   1.321   3.067   4.064  2.1298 -1.0753  2.6283
 2381SOL    HW218777   1.291   3.078   4.202  0.4902 -1.0537  0.1842
 2382SOL     OW18778   3.012   4.399   4.825  0.5390  0.2423  0.2761
 2382SOL    HW118779   3.048   4.399   4.913 -0.2658  2.8655  0.5978
 2382SOL    HW218780   2.934   4.453   4.838  0.1462 -0.4661  0.8909
 2383SOL     OW18781   0.584   1.483   5.590 -0.0120 -0.1056  0.7904
 2383SOL    HW118782   0.536   1.481   5.672 -0.6623 -2.1322  0.3587
 2383SOL    HW218783   0.603   1.389   5.589 -1.8813 -0.4537 -1.5980
 2384SOL     OW18784   1.684   4.492   7.519  0.4624  0.0242  0.0262
 2384SOL    HW118785   1.615   4.460   7.577 -0.8274  1.5053 -0.6925
 2384SOL    HW218786   1.695   4.409   7.472  0.3830 -1.5008  2.7090
 2385SOL     OW18787   0.094   0.841   5.114 -0.5671 -0.0302 -0.0248
 2385SOL    HW118788   0.065   0.893   5.189  0.9803 -1.2580  1.4203
 2385SOL    HW218789   0.012   0.796   5.096 -1.1217  0.5592  1.0718
 2386SOL     OW18790   2.194   0.013  16.753 -0.0607  0.1896 -0.0773
 2386SOL    HW118791   2.107   0.043  16.780 -0.3543  0.0944 -0.9048
 2386SOL    HW218792   2.190   0.002  16.658 -1.1009  0.9767 -0.1276
 2387SOL     OW18793   0.321   3.928   5.967 -0.0058  0.2831  0.4266
 2387SOL    HW118794   0.233   3.914   5.932 -0.3544 -0.4917  1.6156
 2387SOL    HW218795   0.332   4.023   5.957 -2.0756  0.6778  1.9478
 2388SOL     OW18796   1.111   0.427  15.431 -0.0576 -0.0606 -0.2546
 2388SOL    HW118797   1.173   0.460  15.366 -0.5152  2.8134  0.7941
 2388SOL    HW218798   1.038   0.483  15.405  0.4243  0.4934 -0.4170
 2389SOL     OW18799   3.819   0.419   2.774 -0.1366 -0.2493  0.2578
 2389SOL    HW118800   3.750   0.406   2.709 -2.2735  1.0427  2.2602
 2389SOL    HW218801   3.792   0.494   2.828  0.4373 -0.0980  0.3396
 2390SOL     OW18802   1.955   0.037  13.137  0.0553  0.8020 -0.5308
 2390SOL    HW118803   1.996   4.696  13.168 -2.0095 -0.0686 -0.1297
 2390SOL    HW218804   1.953   0.027  13.042  0.3091 -1.0669 -0.3503
 2391SOL     OW18805   1.321   3.988   3.001 -0.2901  0.2418 -0.5348
 2391SOL    HW118806   1.241   3.959   3.045  0.6781  0.4602  1.3573
 2391SOL    HW218807   1.346   4.066   3.049 -1.1866 -0.1234  0.5132
 2392SOL     OW18808   2.086   4.085   3.988  0.3384  0.4790 -0.1336
 2392SOL    HW118809   2.138   4.163   3.972  0.9732  0.1550  0.3956
 2392SOL    HW218810   2.095   4.069   4.082  0.7990 -0.5539 -0.3599
 2393SOL     OW18811   4.160   4.737   0.994 -0.5233  0.1349 -0.0565
 2393SOL    HW118812   4.249   0.019   0.966 -0.6618  0.8632  0.0940
 2393SOL    HW218813   4.116   0.002   0.909 -1.4908 -2.6260  0.2760
 2394SOL     OW18814   1.212   3.634  12.854  0.1942  0.1303  0.5417
 2394SOL    HW118815   1.149   3.589  12.797  0.4892  0.2567  0.1210
 2394SOL    HW218816   1.205   3.574  12.928 -0.8941  0.9473  1.1009
 2395SOL     OW18817   3.333   3.652  10.660 -0.0474 -0.0837 -0.9643
 2395SOL    HW118818   3.309   3.745  10.655 -1.2614 -0.3604 -0.3897
 2395SOL    HW218819   3.270   3.615  10.598 -1.5168  3.0877 -1.3886
 2396SOL     OW18820   2.944   2.201   6.821 -0.4323 -0.0532  0.2824
 2396SOL    HW118821   2.898   2.244   6.893 -1.1091 -2.2206  1.1688
 2396SOL    HW218822   2.876   2.191   6.755 -1.1044 -2.4420  1.3289
 2397SOL     OW18823   1.724   0.558   6.431  0.1994 -0.0454  0.3101
 2397SOL    HW118824   1.661   0.486   6.428  0.2817 -0.0803 -0.6192
 2397SOL    HW218825   1.789   0.503   6.387  0.0560 -2.3392  2.9560
 2398SOL     OW18826   0.007   4.678   9.824  0.1091 -0.6258  0.1412
 2398SOL    HW118827   0.075   4.611   9.837 -0.7500 -1.3846  0.7264
 2398SOL    HW218828   4.670   4.626   9.844 -0.6704 -0.7176 -3.0761
 2399SOL     OW18829   0.623   2.478  12.722 -0.4564  0.2118 -0.6617
 2399SOL    HW118830   0.577   2.451  12.801 -0.7360  0.3319 -0.7850
 2399SOL    HW218831   0.635   2.394  12.678 -1.8620 -0.3825  0.1067
 2400SOL     OW18832   4.462   2.129   4.279  0.2908  0.8301  0.3645
 2400SOL    HW118833   4.469   2.074   4.201  0.8727 -0.6362  1.4682
 2400SOL    HW218834   4.373   2.126   4.313 -0.1781  2.0080 -0.7109
 2401SOL     OW18835   2.371   3.161   7.582 -0.5482  0.2819 -0.1007
 2401SOL    HW118836   2.294   3.193   7.630  0.5491  1.4347  0.9114
 2401SOL    HW218837   2.431   3.233   7.602  0.5725 -0.8567  0.6791
 2402SOL     OW18838   1.534   2.373  16.042 -0.2444 -0.0550 -0.1075
 2402SOL    HW118839   1.439   2.384  16.038 -0.1307 -0.0931 -2.5771
 2402SOL    HW218840   1.545   2.333  16.129  2.4762 -0.7517 -0.7624
 2403SOL     OW18841   1.524   4.137   9.150  0.3004 -0.3572 -0.0126
 2403SOL    HW118842   1.488   4.212   9.196 -0.2435  1.8448 -4.0243
 2403SOL    HW218843   1.579   4.099   9.219  1.5492  0.1659 -0.7228
 2404SOL     OW18844   2.027   2.446  14.811 -0.5466  0.2782 -0.0089
 2404SOL    HW118845   1.996   2.536  14.824 -1.8542  0.0172 -1.1806
 2404SOL    HW218846   2.030   2.444  14.715 -0.8451 -1.0569  0.0015
 2405SOL     OW18847   2.186   0.226  13.791 -0.1390 -0.0134  0.2951
 2405SOL    HW118848   2.203   0.180  13.874 -0.3668 -2.3700 -0.9555
 2405SOL    HW218849   2.116   0.165  13.765 -1.1228  1.3916 -0.3141
 2406SOL     OW18850   0.237   3.868   4.176 -0.7146 -0.7512 -0.1511
 2406SOL    HW118851   0.203   3.919   4.250  1.3272 -0.1882  0.4266
 2406SOL    HW218852   0.317   3.833   4.216 -1.4165 -0.3249  1.6418
 2407SOL     OW18853   3.714   0.837  10.063 -0.2215  0.2932 -0.0730
 2407SOL    HW118854   3.715   0.748  10.028 -0.5294 -0.1327  0.9942
 2407SOL    HW218855   3.660   0.867   9.990  1.6051  1.4891 -0.9125
 2408SOL     OW18856   2.797   0.355   6.650 -0.1257 -0.2813  0.1677
 2408SOL    HW118857   2.766   0.412   6.720  1.6994  2.9583 -1.6415
 2408SOL    HW218858   2.714   0.308   6.644 -0.5615  0.1988  2.7355
 2409SOL     OW18859   4.388   3.722   7.457 -0.1596  0.4026 -0.5612
 2409SOL    HW118860   4.327   3.662   7.415  2.0060 -2.1153 -0.1009
 2409SOL    HW218861   4.458   3.661   7.482 -2.0596 -0.7536  2.0582
 2410SOL     OW18862   2.286   4.423   4.372  0.1729 -0.7438 -0.6095
 2410SOL    HW118863   2.264   4.511   4.403  1.0311 -0.0193 -2.0171
 2410SOL    HW218864   2.244   4.428   4.286 -0.4494 -0.9701 -0.3165
 2411SOL     OW18865   3.457   4.447   2.955 -0.1081 -0.0431  0.2556
 2411SOL    HW118866   3.447   4.461   2.860 -1.4437 -0.0950  0.3892
 2411SOL    HW218867   3.367   4.423   2.976 -0.2122  0.6310  0.5779
 2412SOL     OW18868   2.947   1.566   6.428  0.3035 -0.1884  0.8675
 2412SOL    HW118869   2.956   1.622   6.505 -0.4913  0.8497  0.2174
 2412SOL    HW218870   2.959   1.477   6.461 -0.3663 -0.2906  0.8399
 2413SOL     OW18871   1.976   2.355  14.540 -0.0002 -0.0107 -0.3086
 2413SOL    HW118872   2.059   2.350  14.493 -0.0530  0.6251 -0.4621
 2413SOL    HW218873   1.949   2.263  14.534  0.8432 -0.3084  0.4413
 2414SOL     OW18874   2.881   4.085   6.935 -0.1070  0.2142  0.1785
 2414SOL    HW118875   2.918   4.012   6.983  0.2958  0.0368 -0.4016
 2414SOL    HW218876   2.805   4.047   6.890 -0.0229  1.1658 -0.7733
 2415SOL     OW18877   1.375   2.063   1.939 -0.4108 -0.4537  0.3815
 2415SOL    HW118878   1.408   1.985   1.894 -0.0878 -1.0667  1.7059
 2415SOL    HW218879   1.309   2.031   2.000 -1.4421 -1.6802 -1.3846
 2416SOL     OW18880   1.019   0.794   5.400  0.0335 -0.4880 -0.0201
 2416SOL    HW118881   1.098   0.740   5.397  1.4296  1.5737 -0.0635
 2416SOL    HW218882   0.956   0.724   5.378 -0.5740  0.0068  0.1336
 2417SOL     OW18883   4.554   4.462  14.968 -0.5954 -0.0021 -0.0586
 2417SOL    HW118884   4.632   4.406  14.970 -0.6864 -0.1430 -0.4805
 2417SOL    HW218885   4.511   4.411  15.037  0.4266  0.6189  1.0563
 2418SOL     OW18886   4.432   0.369   1.781 -0.3834 -0.3371  0.0134
 2418SOL    HW118887   4.379   0.318   1.842  0.8014 -0.3517  1.0201
 2418SOL    HW218888   4.489   0.303   1.743 -0.1704  0.2120 -0.6256
 2419SOL     OW18889   4.491   4.402  16.180  0.1938 -0.3979  0.2409
 2419SOL    HW118890   4.447   4.388  16.096  0.6765 -0.0802 -0.0665
 2419SOL    HW218891   4.544   4.479  16.159 -0.4690 -0.3072 -1.0880
 2420SOL     OW18892   3.541   3.858  14.588  0.3579  0.4696  0.2180
 2420SOL    HW118893   3.450   3.880  14.567 -0.2065 -0.0330  2.1466
 2420SOL    HW218894   3.557   3.773  14.545 -1.5786  0.1300  0.1567
 2421SOL     OW18895   2.521   1.053  17.554 -0.5911 -0.2470  0.1160
 2421SOL    HW118896   2.478   1.092  17.479  0.0032  0.1276 -0.0264
 2421SOL    HW218897   2.550   0.973  17.510 -3.0502 -1.9701  1.6613
 2422SOL     OW18898   0.976   4.521   8.654 -0.1577 -0.0638 -0.6941
 2422SOL    HW118899   0.928   4.456   8.604 -0.2437  0.8057 -1.7401
 2422SOL    HW218900   1.057   4.473   8.671 -0.4528 -0.8296 -1.4636
 2423SOL     OW18901   2.117   3.590   2.405 -0.7478  0.2084 -0.3384
 2423SOL    HW118902   2.089   3.578   2.495 -0.3557  2.4210  0.0823
 2423SOL    HW218903   2.079   3.514   2.361 -1.4195 -0.1389  0.8562
 2424SOL     OW18904   3.392   3.100   4.922 -0.1247  0.0011 -0.1938
 2424SOL    HW118905   3.475   3.065   4.890 -0.4763  0.9675 -2.1480
 2424SOL    HW218906   3.386   3.061   5.009  0.2668 -0.7494 -0.5059
 2425SOL     OW18907   1.290   0.492   7.763 -0.1596  0.6072 -0.9968
 2425SOL    HW118908   1.369   0.522   7.807 -0.9396  1.4013 -0.1371
 2425SOL    HW218909   1.321   0.417   7.713 -2.4229 -0.4517 -0.7901
 2426SOL     OW18910   0.874   2.153   5.814 -0.0189  0.6440 -0.1311
 2426SOL    HW118911   0.811   2.163   5.743 -0.6629  2.2345  0.6618
 2426SOL    HW218912   0.835   2.218   5.873  1.2850  1.9794 -0.7515
 2427SOL     OW18913   1.356   3.364   0.223  0.1715 -0.1516 -0.4815
 2427SOL    HW118914   1.319   3.330   0.141 -0.4808  0.6944 -0.5369
 2427SOL    HW218915   1.373   3.281   0.268 -1.4340 -0.4340 -0.4022
 2428SOL     OW18916   1.821   2.402   9.758  0.1517  0.4312 -0.0968
 2428SOL    HW118917   1.897   2.460   9.749 -2.2234  3.2909 -1.7187
 2428SOL    HW218918   1.789   2.436   9.841  0.2023 -1.3514  0.6552
 2429SOL     OW18919   2.926   3.362   8.369  0.2660 -0.2059 -0.0711
 2429SOL    HW118920   2.963   3.275   8.358 -2.7407 -1.5764  0.5120
 2429SOL    HW218921   2.887   3.367   8.282 -0.1784 -2.3044  0.0072
 2430SOL     OW18922   3.589   2.584   3.759 -0.1395  0.2570 -0.2543
 2430SOL    HW118923   3.578   2.602   3.853  1.3174 -0.1754 -0.0007
 2430SOL    HW218924   3.520   2.641   3.724 -0.8471 -0.6743 -0.3563
 2431SOL     OW18925   2.189   0.000   8.635 -0.1806 -0.0619  0.1809
 2431SOL    HW118926   2.104   0.044   8.645 -1.3842 -2.1659 -0.9094
 2431SOL    HW218927   2.246   0.077   8.638 -1.4052  0.8464  0.0004
 2432SOL     OW18928   3.683   4.572  15.191 -0.0802 -0.1313 -0.4170
 2432SOL    HW118929   3.736   4.648  15.167  2.5251 -0.5973  3.8940
 2432SOL    HW218930   3.759   4.516  15.210 -0.1452  0.5162  1.6970
 2433SOL     OW18931   3.928   3.278   1.937 -0.0426  0.0738  0.1591
 2433SOL    HW118932   3.970   3.334   1.872 -1.9425 -0.7387 -1.7924
 2433SOL    HW218933   4.001   3.262   1.997 -0.5867 -1.1976  0.4817
 2434SOL     OW18934   4.301   2.771   2.155 -0.4197  0.8471  0.4600
 2434SOL    HW118935   4.376   2.831   2.155  0.2853 -0.0203 -2.6825
 2434SOL    HW218936   4.230   2.828   2.124  0.7982  1.7364 -0.6691
 2435SOL     OW18937   1.455   3.388   3.062 -0.5261 -0.0691  0.0753
 2435SOL    HW118938   1.477   3.306   3.017  0.9836  0.5352 -0.2693
 2435SOL    HW218939   1.449   3.363   3.155 -0.3627  1.7229  0.5580
 2436SOL     OW18940   2.987   0.003   7.148  0.1040 -0.2863 -0.2460
 2436SOL    HW118941   3.016   4.679   7.213  0.6633 -0.8576 -1.0682
 2436SOL    HW218942   2.995   4.705   7.061 -0.5315 -0.3225 -0.2895
 2437SOL     OW18943   1.022   1.471   5.476 -0.6842 -0.0847  0.7796
 2437SOL    HW118944   1.082   1.411   5.521  1.6905  1.5508 -0.2388
 2437SOL    HW218945   0.963   1.405   5.439 -0.4761  0.5375 -0.6370
 2438SOL     OW18946   4.221   1.083  10.203  0.0329 -0.2835 -0.9654
 2438SOL    HW118947   4.274   1.004  10.210 -1.8004 -1.2511  1.9092
 2438SOL    HW218948   4.274   1.135  10.264 -0.4615  0.0672 -0.8314
 2439SOL     OW18949   1.753   2.765  15.799  0.3999 -0.0421  0.0165
 2439SOL    HW118950   1.739   2.676  15.834  0.9388 -0.6339 -1.2670
 2439SOL    HW218951   1.723   2.759  15.708  0.0156  1.3100  0.0560
 2440SOL     OW18952   2.289   1.988   3.872  0.3789  0.4495  0.4779
 2440SOL    HW118953   2.223   2.055   3.854  0.4790  0.1367 -1.1090
 2440SOL    HW218954   2.366   2.046   3.871  0.3939  0.4326  0.6544
 2441SOL     OW18955   2.078   0.736  12.021 -0.4483  0.4384 -0.2797
 2441SOL    HW118956   2.073   0.816  11.969  0.7342  0.5049 -0.2990
 2441SOL    HW218957   2.101   0.779  12.103  0.0226 -0.5083  0.0949
 2442SOL     OW18958   0.857   1.749  12.808 -0.5099 -0.1657  0.4925
 2442SOL    HW118959   0.913   1.693  12.754 -1.6265 -2.7285  1.9750
 2442SOL    HW218960   0.853   1.693  12.885 -1.3114 -0.4558  0.2449
 2443SOL     OW18961   2.355   4.149   1.652  0.3375  0.2610 -0.4384
 2443SOL    HW118962   2.404   4.118   1.728 -0.8300 -0.6191 -0.0556
 2443SOL    HW218963   2.265   4.119   1.665 -0.0721  1.8158  0.2793
 2444SOL     OW18964   3.448   0.961   6.103 -0.2449  0.2830  0.2622
 2444SOL    HW118965   3.487   1.009   6.030  3.2537 -2.6516  0.2240
 2444SOL    HW218966   3.476   1.007   6.182  2.2621 -1.6066  0.4783
 2445SOL     OW18967   3.359   2.495   8.043  0.3563  0.1701  0.0580
 2445SOL    HW118968   3.406   2.556   8.099  0.2089 -0.3622  0.7638
 2445SOL    HW218969   3.274   2.537   8.058 -0.1564 -1.0811  0.6856
 2446SOL     OW18970   2.443   1.348   5.834  0.2138  0.0379  0.3287
 2446SOL    HW118971   2.487   1.273   5.795  0.6275  1.1765 -1.4385
 2446SOL    HW218972   2.375   1.375   5.772 -1.1405 -1.0722  1.3469
 2447SOL     OW18973   0.429   1.090   2.960 -0.6500  0.0823 -0.3366
 2447SOL    HW118974   0.339   1.077   2.932 -0.7406 -0.1847  0.0768
 2447SOL    HW218975   0.476   1.074   2.879  2.8465  2.3351  1.2337
 2448SOL     OW18976   2.368   2.501  17.308 -0.6663  0.1815 -0.6601
 2448SOL    HW118977   2.397   2.588  17.336 -0.6753 -0.2978  0.8355
 2448SOL    HW218978   2.447   2.457  17.276 -0.0856  0.3840  0.4974
 2449SOL     OW18979   0.250   1.157  12.287 -0.3883 -0.6286  0.0126
 2449SOL    HW118980   0.167   1.111  12.271  0.2264 -1.4141 -0.9106
 2449SOL    HW218981   0.242   1.231  12.227 -2.3738 -0.8929 -0.0615
 2450SOL     OW18982   3.205   1.344   7.201 -0.1031 -0.4002  0.0496
 2450SOL    HW118983   3.292   1.383   7.207  1.3868 -3.6089 -0.6572
 2450SOL    HW218984   3.176   1.413   7.141  0.0925  0.9124  1.4739
 2451SOL     OW18985   1.594   0.624   8.588 -0.2596  0.2232  0.3935
 2451SOL    HW118986   1.615   0.673   8.667  1.2474  1.1065 -0.5738
 2451SOL    HW218987   1.499   0.638   8.587 -0.1732  0.8016  0.5358
 2452SOL     OW18988   0.926   1.004   6.236  0.4038 -0.0210  0.1657
 2452SOL    HW118989   0.950   1.084   6.190 -0.9104  0.7965  0.9025
 2452SOL    HW218990   0.964   1.021   6.323 -0.7237 -4.7235  1.5840
 2453SOL     OW18991   3.319   4.525   7.253 -0.2957  0.6422 -0.4120
 2453SOL    HW118992   3.406   4.535   7.291 -0.6362 -0.6977  0.7228
 2453SOL    HW218993   3.327   4.434   7.225  0.5495  0.2408  1.1378
 2454SOL     OW18994   0.468   0.619   3.678  0.2369  0.6632 -0.4068
 2454SOL    HW118995   0.454   0.547   3.739  0.1901  1.1914  0.2069
 2454SOL    HW218996   0.561   0.627   3.657  0.6346  0.8490  1.4530
 2455SOL     OW18997   1.210   3.650   8.453  0.1467  0.6358  0.8881
 2455SOL    HW118998   1.184   3.567   8.414  1.8357  0.7740 -0.5446
 2455SOL    HW218999   1.203   3.697   8.370  0.4417  0.0181  0.5188
 2456SOL     OW19000   1.152   4.112   7.480 -0.2248 -0.2798  0.5386
 2456SOL    HW119001   1.120   4.027   7.448 -0.0934  0.8823 -2.6523
 2456SOL    HW219002   1.081   4.170   7.453 -1.5429 -1.5686  1.2350
 2457SOL     OW19003   3.632   4.191  14.978  0.6921 -0.0189  0.1899
 2457SOL    HW119004   3.566   4.227  15.036  0.4325 -0.3655  0.1091
 2457SOL    HW219005   3.596   4.211  14.892  1.9648  1.8379  0.0974
 2458SOL     OW19006   0.624   1.812   7.617  0.0125 -0.6086 -0.2078
 2458SOL    HW119007   0.573   1.892   7.629  1.8410  0.3161  1.4375
 2458SOL    HW219008   0.710   1.842   7.588 -0.3819  0.4142 -0.3118
 2459SOL     OW19009   1.234   1.980   4.314 -0.3469 -0.0825 -0.2944
 2459SOL    HW119010   1.191   2.037   4.252 -0.1449 -1.8955 -2.0831
 2459SOL    HW219011   1.288   1.932   4.251  2.0475 -0.4720  2.0076
 2460SOL     OW19012   2.615   0.639   7.585 -0.2864  0.2637 -0.2828
 2460SOL    HW119013   2.536   0.602   7.546  0.6722 -1.8036 -0.2842
 2460SOL    HW219014   2.604   0.649   7.679  1.1749 -1.8960  0.1130
 2461SOL     OW19015   0.554   2.572   7.752 -0.1483 -0.6705  0.8822
 2461SOL    HW119016   0.525   2.660   7.726 -0.1422 -0.5505  1.2824
 2461SOL    HW219017   0.636   2.566   7.702  0.4980  3.1035  1.5068
 2462SOL     OW19018   1.734   1.769   8.626  0.2326  0.3999 -0.3827
 2462SOL    HW119019   1.640   1.755   8.632  0.7982 -3.6741 -0.9755
 2462SOL    HW219020   1.753   1.795   8.716 -0.8685  0.2876 -0.1248
 2463SOL     OW19021   0.309   3.316   5.351  0.1452 -0.0478 -0.1017
 2463SOL    HW119022   0.226   3.355   5.378  0.2178  0.3846 -0.4972
 2463SOL    HW219023   0.375   3.336   5.417 -1.7511  0.6851  1.5613
 2464SOL     OW19024   0.162   3.958  16.819 -0.0209  0.4143  0.2045
 2464SOL    HW119025   0.081   3.910  16.799  1.0150 -1.7216  1.1298
 2464SOL    HW219026   0.138   4.051  16.820 -0.6348  0.2781 -1.1887
 2465SOL     OW19027   2.387   3.230   4.719  0.4068 -0.4500  0.9687
 2465SOL    HW119028   2.397   3.185   4.635 -0.9036 -0.3710  0.7706
 2465SOL    HW219029   2.478   3.260   4.723  0.5989 -1.1537  1.7547
 2466SOL     OW19030   1.899   2.150   3.089  0.5492 -0.2019  0.1400
 2466SOL    HW119031   1.970   2.098   3.051  0.4184 -0.6304  0.4758
 2466SOL    HW219032   1.901   2.108   3.175 -1.2849 -0.4879  0.0280
 2467SOL     OW19033   1.968   3.806   4.674  0.0593  0.2645  0.7308
 2467SOL    HW119034   2.062   3.802   4.655 -0.5928 -0.8243 -2.2888
 2467SOL    HW219035   1.936   3.872   4.613  0.5221 -1.6466 -1.6118
 2468SOL     OW19036   4.586   3.090   6.567 -0.2771  0.1573  0.0739
 2468SOL    HW119037   4.588   2.996   6.586 -0.2875  0.0243 -0.5950
 2468SOL    HW219038   4.531   3.128   6.635 -0.6568  0.1087 -0.2091
 2469SOL     OW19039   4.591   0.461   3.607  0.5968 -0.0669  0.8330
 2469SOL    HW119040   4.594   0.547   3.648  0.8330  0.3415 -0.0261
 2469SOL    HW219041   4.686   0.445   3.604  0.4868 -0.2706 -1.9537
 2470SOL     OW19042   4.383   1.091   8.237 -0.3225 -0.1986  0.1223
 2470SOL    HW119043   4.433   1.032   8.181 -0.1974  0.8617 -0.8770
 2470SOL    HW219044   4.301   1.043   8.252 -1.3077  1.7759  1.0001
 2471SOL     OW19045   1.579   3.200   2.450  0.0715 -0.0826  0.6811
 2471SOL    HW119046   1.622   3.232   2.371 -1.6449  2.2255  0.6852
 2471SOL    HW219047   1.605   3.263   2.517 -0.2028  0.5475  0.1988
 2472SOL     OW19048   1.038   0.497  16.259 -0.1549  0.1252 -0.0951
 2472SOL    HW119049   1.068   0.446  16.184  1.5413 -2.4767  2.3644
 2472SOL    HW219050   1.049   0.436  16.332 -0.9703 -0.3833 -0.3851
 2473SOL     OW19051   0.771   3.233   8.313  0.5395 -0.1621 -0.3809
 2473SOL    HW119052   0.857   3.192   8.308  1.2156  1.4123 -1.5999
 2473SOL    HW219053   0.750   3.241   8.406 -0.5882 -0.2490 -0.6310
 2474SOL     OW19054   0.583   3.811   5.828 -0.0597  0.0336 -0.0763
 2474SOL    HW119055   0.627   3.743   5.878 -1.7579  0.2232  1.6885
 2474SOL    HW219056   0.508   3.841   5.879 -0.1458  1.7143 -1.1826
 2475SOL     OW19057   1.157   0.464   6.708  0.2599 -0.0030  0.4010
 2475SOL    HW119058   1.138   0.382   6.754 -0.0153 -0.9087 -1.3302
 2475SOL    HW219059   1.130   0.525   6.777 -0.4508  0.3209 -0.1506
 2476SOL     OW19060   1.093   1.321   6.792 -0.4399  0.5506 -0.2994
 2476SOL    HW119061   1.050   1.391   6.743  1.0687 -0.0371 -2.4770
 2476SOL    HW219062   1.041   1.244   6.769  0.5613 -0.5631  1.1974
 2477SOL     OW19063   4.514   0.487   1.188 -0.6819  0.9062  0.0956
 2477SOL    HW119064   4.514   0.483   1.092  1.1613 -0.8129  0.1665
 2477SOL    HW219065   4.606   0.500   1.211 -1.1425  0.1447  2.3582
 2478SOL     OW19066   3.808   4.087  16.370  0.0079 -1.2306  0.1565
 2478SOL    HW119067   3.714   4.106  16.369 -0.2205 -2.5256 -1.8465
 2478SOL    HW219068   3.825   4.059  16.280 -0.2608  3.0495 -1.2243
 2479SOL     OW19069   4.409   1.134  10.382  0.0183 -0.2494 -0.1680
 2479SOL    HW119070   4.476   1.086  10.333  0.8994 -0.1914  0.9684
 2479SOL    HW219071   4.389   1.067  10.447 -0.4258  0.7969  0.7809
 2480SOL     OW19072   0.721   0.645   9.315 -0.6114  0.3105  0.4373
 2480SOL    HW119073   0.814   0.634   9.337 -0.8527  0.8727  1.7772
 2480SOL    HW219074   0.684   0.557   9.320 -1.5449  0.6054 -1.3036
 2481SOL     OW19075   2.053   4.376   5.737 -0.0464 -0.5416  0.3668
 2481SOL    HW119076   2.084   4.466   5.733  2.7889 -1.5429 -0.2315
 2481SOL    HW219077   2.006   4.378   5.820  1.0460  0.1565  0.9682
 2482SOL     OW19078   1.473   2.606  10.329 -0.3499  0.8937  0.0035
 2482SOL    HW119079   1.410   2.633  10.396 -1.2352  0.7494 -0.7760
 2482SOL    HW219080   1.556   2.635  10.368 -0.4399  0.0603  0.8161
 2483SOL     OW19081   4.301   0.624   5.155  0.2742 -0.3488  0.5811
 2483SOL    HW119082   4.232   0.623   5.222 -0.6385  0.2487 -0.3560
 2483SOL    HW219083   4.365   0.688   5.188  0.6358 -0.2604 -0.3082
 2484SOL     OW19084   1.751   2.350   5.438  0.4704 -0.5011  0.6296
 2484SOL    HW119085   1.813   2.422   5.452  1.5315 -1.4885  0.9509
 2484SOL    HW219086   1.770   2.302   5.519 -0.1222 -0.0043  1.0650
 2485SOL     OW19087   1.841   2.596   8.266 -0.1098  0.0256  0.0845
 2485SOL    HW119088   1.828   2.552   8.350  2.0499 -1.3319 -0.2965
 2485SOL    HW219089   1.755   2.621   8.232 -0.4198  1.0807  1.6411
 2486SOL     OW19090   4.331   3.142   3.135 -0.0195 -0.0802  0.1246
 2486SOL    HW119091   4.249   3.161   3.091  1.0069 -0.0568 -1.7843
 2486SOL    HW219092   4.373   3.227   3.146 -0.9892 -0.0075  3.3360
 2487SOL     OW19093   2.685   1.520   5.100  0.1342 -0.3843 -0.1260
 2487SOL    HW119094   2.612   1.580   5.116  1.4885  1.4203 -0.7160
 2487SOL    HW219095   2.668   1.503   5.007  2.4005  1.0525 -0.8016
 2488SOL     OW19096   3.096   0.151   3.321  0.3217 -0.0292  0.3974
 2488SOL    HW119097   3.037   0.154   3.246  1.2075 -1.6774 -0.3782
 2488SOL    HW219098   3.144   0.068   3.317 -0.6083 -0.4993 -1.0341
 2489SOL     OW19099   4.383   1.041   1.934 -0.0362 -0.3214  0.8590
 2489SOL    HW119100   4.434   1.035   2.015  1.5009 -0.9070 -0.1411
 2489SOL    HW219101   4.347   1.129   1.946  0.5001  0.1238 -0.8210
 2490SOL     OW19102   4.107   4.393  17.169  0.6458  0.2576 -0.1898
 2490SOL    HW119103   4.196   4.360  17.182  0.1166 -0.5686  1.3526
 2490SOL    HW219104   4.108   4.478  17.126  3.8589 -0.2163 -1.0264
 2491SOL     OW19105   2.758   0.812   2.540  0.4045  0.1341 -0.1820
 2491SOL    HW119106   2.756   0.881   2.607  2.5981 -0.7130  0.7447
 2491SOL    HW219107   2.665   0.803   2.521  0.3776 -0.2353  0.1315
 2492SOL     OW19108   2.119   3.880  16.702 -0.1079  0.0563  0.0680
 2492SOL    HW119109   2.093   3.968  16.676 -1.4157 -0.5580 -0.7328
 2492SOL    HW219110   2.186   3.854  16.639 -0.6125  0.2105 -0.5274
 2493SOL     OW19111   0.109   2.972   8.422  0.3766  0.0885 -0.1311
 2493SOL    HW119112   0.173   3.027   8.376  1.3111 -2.4848 -1.8505
 2493SOL    HW219113   0.048   2.937   8.358  3.3610  1.3041 -3.6413
 2494SOL     OW19114   2.894   2.580   3.614 -0.0083 -0.3265  0.6153
 2494SOL    HW119115   2.833   2.526   3.563 -0.8906 -0.2148  1.5493
 2494SOL    HW219116   2.890   2.554   3.706  0.0241  0.1744  0.7568
 2495SOL     OW19117   3.275   2.604  14.213 -0.1975 -0.4803 -0.1429
 2495SOL    HW119118   3.223   2.598  14.293 -0.1193 -0.8089 -0.1164
 2495SOL    HW219119   3.270   2.512  14.186 -1.3127 -0.7722  1.0526
 2496SOL     OW19120   2.376   0.455   2.072 -0.5094  0.4129 -0.7586
 2496SOL    HW119121   2.455   0.412   2.041  0.8870  2.1901  0.2797
 2496SOL    HW219122   2.360   0.510   1.996 -0.6872  3.4628  1.4504
 2497SOL     OW19123   2.029   2.612   9.308  0.1441 -0.2923 -0.5981
 2497SOL    HW119124   1.950   2.665   9.311  0.6832  0.7139 -4.0040
 2497SOL    HW219125   1.997   2.540   9.363  0.4075 -2.2310 -2.9433
 2498SOL     OW19126   0.558   1.611   0.137 -0.1242 -0.2853  0.7138
 2498SOL    HW119127   0.511   1.680   0.183  1.2645  1.6131 -0.7006
 2498SOL    HW219128   0.633   1.609   0.197  0.6291  0.6971 -0.2019
 2499SOL     OW19129   3.018   0.640   6.278  0.6129 -0.0237  0.2022
 2499SOL    HW119130   2.963   0.717   6.268  0.7692 -0.1271 -1.4493
 2499SOL    HW219131   2.999   0.612   6.368  1.3603  0.4822  0.5106
 2500SOL     OW19132   0.561   3.855  12.902 -0.2047  0.1280  0.5401
 2500SOL    HW119133   0.607   3.860  12.986 -0.0851  3.3181  0.2580
 2500SOL    HW219134   0.479   3.895  12.930 -0.7024 -0.0202 -0.7468
 2501SOL     OW19135   0.270   3.221   5.675  0.2379  0.1776 -0.1768
 2501SOL    HW119136   0.345   3.210   5.734  0.8873  0.3039 -0.9835
 2501SOL    HW219137   0.241   3.131   5.663  1.1862 -0.2480  0.7009
 2502SOL     OW19138   3.203   0.844  15.168  0.4254 -0.0986  0.5564
 2502SOL    HW119139   3.109   0.843  15.146  0.6694 -1.3320 -0.4251
 2502SOL    HW219140   3.205   0.924  15.220  0.3982  1.0370 -1.1777
 2503SOL     OW19141   2.378   2.287   4.108 -0.0376 -0.1696  0.0471
 2503SOL    HW119142   2.447   2.320   4.166 -1.1164 -0.5139  1.5153
 2503SOL    HW219143   2.311   2.354   4.098 -0.1914 -0.3357 -0.0259
 2504SOL     OW19144   2.670   0.454   5.463 -0.1990 -0.2842  0.4559
 2504SOL    HW119145   2.730   0.406   5.407  0.2375 -0.9519  1.4884
 2504SOL    HW219146   2.613   0.499   5.401 -0.2128  0.4246  0.9792
 2505SOL     OW19147   2.029   1.494  11.269  0.3132  0.1429  0.0954
 2505SOL    HW119148   1.944   1.452  11.256  1.0047 -1.7005  1.4661
 2505SOL    HW219149   2.042   1.559  11.201 -3.9623 -0.2177 -1.0820
 2506SOL     OW19150   1.368   4.229   3.950  0.1408 -1.0125 -0.1346
 2506SOL    HW119151   1.412   4.224   4.035  0.9662 -2.0742 -0.6265
 2506SOL    HW219152   1.279   4.243   3.981 -0.0871 -1.7177 -0.4657
 2507SOL     OW19153   3.012   1.118   2.154 -0.4210  0.2186  0.1277
 2507SOL    HW119154   2.967   1.062   2.217 -0.2562 -2.7275 -2.4019
 2507SOL    HW219155   2.995   1.205   2.190 -1.5910  0.1293 -0.2052
 2508SOL     OW19156   4.430   0.453  16.277  0.1096 -0.3076 -0.0133
 2508SOL    HW119157   4.424   0.523  16.342  0.7681  0.7127 -1.0363
 2508SOL    HW219158   4.523   0.446  16.254  0.3080  0.7244  0.4811
 2509SOL     OW19159   4.219   1.399   9.056 -0.0239 -0.4169  0.1236
 2509SOL    HW119160   4.267   1.456   9.115 -3.2374  1.3040  1.0536
 2509SOL    HW219161   4.204   1.450   8.976  1.3073 -0.9930 -0.4947
 2510SOL     OW19162   2.320   4.324  12.522  0.5400 -0.3511  0.8316
 2510SOL    HW119163   2.231   4.353  12.539  1.1424  1.6042  0.6203
 2510SOL    HW219164   2.360   4.398  12.476 -0.0531 -0.6460 -0.1512
 2511SOL     OW19165   2.732   2.330   4.071  0.4091 -0.0901  0.1806
 2511SOL    HW119166   2.750   2.243   4.106 -1.3540  0.8803  3.4284
 2511SOL    HW219167   2.681   2.361   4.145 -1.6012  0.0783 -1.2876
 2512SOL     OW19168   2.586   0.324   4.213  0.2885 -0.0556 -0.0160
 2512SOL    HW119169   2.641   0.315   4.135 -0.0829 -1.6012 -0.0946
 2512SOL    HW219170   2.574   0.234   4.242  1.4072 -0.2942 -0.2947
 2513SOL     OW19171   3.428   1.304   2.957  0.2300  0.3190 -0.0484
 2513SOL    HW119172   3.408   1.382   2.905  0.3212  0.7148  0.5089
 2513SOL    HW219173   3.347   1.257   2.975 -0.4367  1.7342  0.6013
 2514SOL     OW19174   3.851   0.307   0.852  0.0083  0.1922  0.2452
 2514SOL    HW119175   3.802   0.366   0.795  2.2602  0.9248 -0.9221
 2514SOL    HW219176   3.844   0.225   0.802 -2.0932 -0.4402  1.5803
 2515SOL     OW19177   1.875   2.926   7.099  0.1414  0.4434  0.0394
 2515SOL    HW119178   1.837   2.991   7.159 -0.3680  0.7200 -0.5925
 2515SOL    HW219179   1.955   2.971   7.073  0.5314 -0.5886 -0.5458
 2516SOL     OW19180   4.459   3.762  13.335 -0.1906  0.3480 -0.2148
 2516SOL    HW119181   4.405   3.764  13.415 -0.2401  2.8416 -0.3283
 2516SOL    HW219182   4.459   3.856  13.319  1.9292  0.0715 -1.7014
 2517SOL     OW19183   1.567   1.155  11.537  0.0481 -0.8615 -0.0101
 2517SOL    HW119184   1.484   1.114  11.562  0.7064 -1.7948  0.6527
 2517SOL    HW219185   1.624   1.084  11.508  1.9193  1.0634 -1.0703
 2518SOL     OW19186   4.065   4.488   1.107 -0.1843  0.3671 -0.3965
 2518SOL    HW119187   4.126   4.556   1.079  1.9103 -0.8880  1.0246
 2518SOL    HW219188   4.013   4.542   1.166  0.5874  0.3482  0.3026
 2519SOL     OW19189   2.420   1.847   7.122  0.3539 -0.1667  0.5037
 2519SOL    HW119190   2.392   1.773   7.175  2.0494  0.2354  1.9560
 2519SOL    HW219191   2.338   1.870   7.078 -0.2327 -0.3624  1.5169
 2520SOL     OW19192   3.581   1.524   3.239  0.4510 -0.6077  0.6717
 2520SOL    HW119193   3.595   1.499   3.148  1.8674  1.7488  0.2288
 2520SOL    HW219194   3.592   1.619   3.228  1.7167 -0.9870 -1.2663
 2521SOL     OW19195   4.203   2.899   5.327  0.2362  0.7599  0.3901
 2521SOL    HW119196   4.216   2.809   5.296  1.5013  1.9318 -2.4073
 2521SOL    HW219197   4.277   2.934   5.278  0.2063 -0.0664 -0.2496
 2522SOL     OW19198   2.032   2.881   9.804 -0.4354 -0.1452  0.4369
 2522SOL    HW119199   2.050   2.928   9.885  1.0904  0.7019 -0.3761
 2522SOL    HW219200   2.034   2.789   9.830 -1.0495 -1.0905 -2.8029
 2523SOL     OW19201   3.736   2.129   7.440 -0.0920 -0.4303  0.1660
 2523SOL    HW119202   3.696   2.108   7.355 -2.5044  0.7830  0.9937
 2523SOL    HW219203   3.828   2.134   7.415 -0.2684 -1.7237 -0.7615
 2524SOL     OW19204   0.177   2.637   9.142 -0.0568 -0.6876  0.5138
 2524SOL    HW119205   0.123   2.610   9.217 -0.6656  0.7578  0.5938
 2524SOL    HW219206   0.126   2.708   9.103  0.5441 -1.1459 -1.0739
 2525SOL     OW19207   2.311   4.481  15.800 -0.2394  0.9047 -0.6704
 2525SOL    HW119208   2.398   4.483  15.760  0.2980 -1.0794  0.4324
 2525SOL    HW219209   2.283   4.400  15.758 -0.6134  1.0000 -0.6056
 2526SOL     OW19210   0.142   3.037   2.531 -0.0683 -0.2917 -0.4501
 2526SOL    HW119211   0.117   3.092   2.456 -0.2550  0.5992  0.2709
 2526SOL    HW219212   0.147   3.105   2.597 -1.5454 -1.1305  0.5473
 2527SOL     OW19213   1.106   0.635   9.121  0.0653  0.2136 -0.7342
 2527SOL    HW119214   1.160   0.569   9.078  1.4391 -0.2278  1.6446
 2527SOL    HW219215   1.026   0.630   9.068 -0.8158 -3.3153  0.9145
 2528SOL     OW19216   1.050   3.200  14.552  0.5542 -0.1638 -0.0842
 2528SOL    HW119217   1.051   3.108  14.525  2.6161 -0.8196  2.3376
 2528SOL    HW219218   1.075   3.201  14.644  2.6856 -0.8605 -0.6634
 2529SOL     OW19219   0.787   1.683  16.602 -0.0094 -0.0971  0.5313
 2529SOL    HW119220   0.878   1.680  16.631  0.4154 -0.0460 -0.8409
 2529SOL    HW219221   0.750   1.758  16.649  0.1470 -0.2479  0.8921
 2530SOL     OW19222   0.003   3.392   0.030  0.2670  0.0811  0.5123
 2530SOL    HW119223   4.709   3.480   0.047  1.8126  0.7456  0.1934
 2530SOL    HW219224   0.045   3.406  17.703 -0.1875 -0.3346  0.2249
 2531SOL     OW19225   1.916   1.080   6.475  0.1763  0.6955  0.3812
 2531SOL    HW119226   1.823   1.063   6.486  0.3834  0.4142  1.7291
 2531SOL    HW219227   1.942   0.990   6.455 -1.6180 -0.6113  3.9116
 2532SOL     OW19228   1.372   0.732   1.920  0.0010 -0.4429  0.4173
 2532SOL    HW119229   1.357   0.647   1.961  0.3584 -0.8509 -0.3033
 2532SOL    HW219230   1.284   0.760   1.898 -0.0110 -1.1891 -0.4882
 2533SOL     OW19231   2.052   2.755   8.374 -0.1307  0.0358  0.6637
 2533SOL    HW119232   1.971   2.706   8.356  0.2115  0.0933 -1.0728
 2533SOL    HW219233   2.081   2.708   8.452  1.3870 -1.3027 -0.7072
 2534SOL     OW19234   2.484   1.910   6.091 -0.2088  0.1856  0.0095
 2534SOL    HW119235   2.485   1.816   6.109  0.2062  0.0886 -0.5373
 2534SOL    HW219236   2.391   1.928   6.104  0.1679  1.4236  1.0970
 2535SOL     OW19237   3.945   1.572   8.583 -0.3608 -0.2751  0.3370
 2535SOL    HW119238   3.865   1.610   8.619 -1.2757 -3.7554  2.0744
 2535SOL    HW219239   4.000   1.625   8.641 -0.0139 -0.8284  0.5155
 2536SOL     OW19240   0.189   4.368  17.388 -0.1005 -0.6661 -0.2824
 2536SOL    HW119241   0.152   4.308  17.452  0.3514 -0.0322  0.5632
 2536SOL    HW219242   0.131   4.343  17.315  0.7111 -0.4671 -0.9987
 2537SOL     OW19243   4.020   1.128   6.123 -0.4007 -0.1787  0.1364
 2537SOL    HW119244   4.000   1.157   6.034 -1.2518 -0.4646  0.2269
 2537SOL    HW219245   3.942   1.073   6.136 -0.9414  0.3098 -1.0729
 2538SOL     OW19246   2.659   1.511   4.787  0.0205 -0.2117  0.3722
 2538SOL    HW119247   2.674   1.493   4.694  3.5250  2.0661  0.4811
 2538SOL    HW219248   2.651   1.606   4.790 -0.4197 -0.2089 -0.8760
 2539SOL     OW19249   3.261   0.747  11.396 -0.5415 -0.4326 -0.2467
 2539SOL    HW119250   3.216   0.826  11.425 -0.2640 -0.6525  0.8010
 2539SOL    HW219251   3.263   0.763  11.302  0.7493 -0.2788 -0.1944
 2540SOL     OW19252   2.853   4.337   3.397  0.5946  0.0038  0.6664
 2540SOL    HW119253   2.817   4.254   3.428 -1.6907  0.6139 -0.4048
 2540SOL    HW219254   2.790   4.340   3.325 -0.3933 -1.6221  1.4635
 2541SOL     OW19255   0.989   2.134   6.162  0.1102 -0.6103  0.1624
 2541SOL    HW119256   0.999   2.075   6.087 -1.6428  0.0281 -0.5742
 2541SOL    HW219257   0.909   2.093   6.196 -1.2044  0.1179 -2.0630
 2542SOL     OW19258   3.024   0.109   2.452 -0.3176  0.9160 -0.5353
 2542SOL    HW119259   3.081   0.089   2.527  2.1023  2.2677 -2.0267
 2542SOL    HW219260   2.999   0.017   2.440 -0.4169  0.8981 -0.2151
 2543SOL     OW19261   2.715   2.147  16.839  0.3048  0.0037 -0.6183
 2543SOL    HW119262   2.696   2.178  16.928  2.2825 -2.5918  0.7343
 2543SOL    HW219263   2.792   2.093  16.857  1.1481  1.2269 -0.5668
 2544SOL     OW19264   3.931   0.236   6.253 -0.1248  0.1319  0.2995
 2544SOL    HW119265   3.930   0.325   6.219 -1.6609  0.2641  0.6910
 2544SOL    HW219266   3.908   0.189   6.173 -1.9017  0.8524  0.3743
 2545SOL     OW19267   1.263   3.401  12.534  0.0418 -0.3205 -0.5817
 2545SOL    HW119268   1.228   3.481  12.493  2.1317  1.5105  1.2539
 2545SOL    HW219269   1.198   3.398  12.604  0.7657  3.1102  0.2449
 2546SOL     OW19270   1.839   4.454  15.463 -0.2145 -0.6848 -0.6368
 2546SOL    HW119271   1.822   4.365  15.495  1.1120 -0.6664  0.1198
 2546SOL    HW219272   1.750   4.485  15.444  0.0736  1.3002  1.2831
 2547SOL     OW19273   2.416   2.730   4.839  0.0005 -0.3301  0.1145
 2547SOL    HW119274   2.489   2.787   4.862 -0.0589 -0.0801 -0.3255
 2547SOL    HW219275   2.383   2.687   4.918 -1.0817  0.0895 -0.0974
 2548SOL     OW19276   2.106   3.045   7.051  0.1282  0.1235  0.8504
 2548SOL    HW119277   2.126   3.138   7.046 -0.2980  0.1866  0.3775
 2548SOL    HW219278   2.179   3.010   7.000 -0.1038  2.4938 -1.0880
 2549SOL     OW19279   1.960   2.075   3.351 -0.0531  0.2989  0.2847
 2549SOL    HW119280   2.027   2.072   3.419 -1.2500 -1.6319  1.3905
 2549SOL    HW219281   1.909   2.003   3.387  0.4943  0.6238  1.6849
 2550SOL     OW19282   3.260   3.053   2.928  0.1392  0.4580  0.1491
 2550SOL    HW119283   3.185   3.034   2.871 -0.1601  3.7694 -0.6184
 2550SOL    HW219284   3.329   3.072   2.865  1.2285 -2.3927  0.4963
 2551SOL     OW19285   3.130   0.340   6.394 -0.1278 -0.2582  0.2133
 2551SOL    HW119286   3.088   0.413   6.440 -2.5568 -2.0093  0.7394
 2551SOL    HW219287   3.083   0.269   6.439 -0.3171 -0.2770 -0.0175
 2552SOL     OW19288   3.425   2.391   9.633 -0.3896  0.1047  0.4597
 2552SOL    HW119289   3.464   2.355   9.554  2.3524  1.4500  1.2307
 2552SOL    HW219290   3.367   2.315   9.644 -1.8446  0.9398 -1.4129
 2553SOL     OW19291   1.934   1.513   7.163 -0.1323  0.1940 -0.7202
 2553SOL    HW119292   1.947   1.560   7.080 -1.8679  1.0345 -0.4941
 2553SOL    HW219293   2.013   1.459   7.169 -0.7033 -0.7750 -1.7843
 2554SOL     OW19294   4.137   4.071  13.616 -0.4548  0.3328  0.0269
 2554SOL    HW119295   4.078   4.057  13.542 -0.2763 -1.9949  0.3372
 2554SOL    HW219296   4.167   4.159  13.594 -0.6921  0.3044 -0.4138
 2555SOL     OW19297   2.547   3.020  16.996 -0.3207  0.5645  0.0036
 2555SOL    HW119298   2.618   3.057  16.945  2.0541 -1.7540  1.6438
 2555SOL    HW219299   2.600   2.965  17.053 -1.2242 -0.9864 -0.6483
 2556SOL     OW19300   1.763   3.468  14.476  0.1695  0.1331 -1.1006
 2556SOL    HW119301   1.787   3.532  14.409  2.1165  0.0798 -0.4635
 2556SOL    HW219302   1.843   3.479  14.527 -0.3790  0.7286 -0.3691
 2557SOL     OW19303   1.105   3.883   1.186 -0.1441  1.0229  0.2295
 2557SOL    HW119304   1.137   3.922   1.104 -1.3657  0.0837 -0.6888
 2557SOL    HW219305   1.160   3.917   1.256  0.9806  0.9053 -0.5938
 2558SOL     OW19306   2.420   0.444   7.530 -0.2419 -0.0893 -0.2237
 2558SOL    HW119307   2.350   0.447   7.465  0.2659  2.6213 -0.6327
 2558SOL    HW219308   2.437   0.350   7.523  0.0163 -0.1513  1.1659
 2559SOL     OW19309   3.445   3.350  10.924  0.2370 -0.3954  0.0812
 2559SOL    HW119310   3.435   3.278  10.986 -0.7358  0.0649  0.4592
 2559SOL    HW219311   3.370   3.329  10.868 -0.0716 -0.0281  0.3554
 2560SOL     OW19312   0.255   4.229   1.803  0.0762  0.0813 -0.6126
 2560SOL    HW119313   0.186   4.186   1.854  0.1399 -0.4616 -0.9926
 2560SOL    HW219314   0.233   4.322   1.804 -0.4780 -0.0525  0.0244
 2561SOL     OW19315   4.692   3.086  17.382 -0.2228 -0.0724  0.5200
 2561SOL    HW119316   0.009   3.160  17.362 -0.7963 -0.0869 -1.1466
 2561SOL    HW219317   4.634   3.123  17.448  0.7615  1.1753  0.6980
 2562SOL     OW19318   2.843   1.111   2.710 -0.6879 -0.1483  0.1981
 2562SOL    HW119319   2.921   1.103   2.655 -1.0257  0.1210 -0.3230
 2562SOL    HW219320   2.887   1.157   2.781  0.2900 -2.0642  0.8276
 2563SOL     OW19321   4.050   3.084   3.433  0.4371 -0.3910 -0.3030
 2563SOL    HW119322   4.067   3.006   3.486 -1.6168 -0.6655 -0.0451
 2563SOL    HW219323   4.054   3.159   3.491  2.9735  0.3050 -1.3510
 2564SOL     OW19324   2.241   1.724   5.663  0.0865  0.0729 -0.2574
 2564SOL    HW119325   2.334   1.748   5.659  0.1006  0.1594  0.4842
 2564SOL    HW219326   2.216   1.761   5.748  0.5674 -0.2513  0.0258
 2565SOL     OW19327   4.443   1.314   1.705 -0.2046 -0.3351 -0.2314
 2565SOL    HW119328   4.467   1.254   1.634 -3.9950  0.1747 -1.9468
 2565SOL    HW219329   4.522   1.367   1.718 -2.0319  2.3564 -0.0583
 2566SOL     OW19330   0.393   2.387   2.664  0.3184 -0.3786 -0.0945
 2566SOL    HW119331   0.374   2.475   2.696 -1.4551 -0.5146 -0.7982
 2566SOL    HW219332   0.383   2.339   2.746 -2.0358 -0.3144 -0.3452
 2567SOL     OW19333   1.047   2.355   0.654 -0.3204 -0.8011  0.3480
 2567SOL    HW119334   0.991   2.404   0.713 -0.0029  0.4297 -0.3558
 2567SOL    HW219335   1.116   2.326   0.713 -1.0756 -0.2382  1.4998
 2568SOL     OW19336   0.807   4.480   3.678 -0.0617  0.2893 -0.9504
 2568SOL    HW119337   0.797   4.414   3.747  0.7500  0.7812 -0.3703
 2568SOL    HW219338   0.825   4.558   3.730  1.8210 -0.6931 -0.1528
 2569SOL     OW19339   1.503   4.662   5.549  0.0138 -0.1370 -0.3647
 2569SOL    HW119340   1.491   0.015   5.529  1.6890 -0.1773 -1.4957
 2569SOL    HW219341   1.507   4.658   5.645  0.4868 -0.3179 -0.3932
 2570SOL     OW19342   2.651   4.371   6.351 -0.0823 -0.0372 -0.3621
 2570SOL    HW119343   2.741   4.339   6.359 -0.3453 -0.0586  2.3526
 2570SOL    HW219344   2.606   4.296   6.388  0.7629 -0.4869 -0.2358
 2571SOL     OW19345   2.179   3.909  10.401 -0.1374  0.4389  0.2719
 2571SOL    HW119346   2.191   3.815  10.389  0.4806  0.2992  2.0196
 2571SOL    HW219347   2.095   3.921  10.358 -0.2839 -1.4294  0.0620
 2572SOL     OW19348   4.647   2.616  15.479  0.3638  0.2187  0.0289
 2572SOL    HW119349   4.610   2.638  15.393 -0.2278 -0.1448  0.1917
 2572SOL    HW219350   4.728   2.668  15.473 -0.5176  1.4315 -1.2707
 2573SOL     OW19351   2.067   4.427   9.087  0.5597  0.5960 -0.7562
 2573SOL    HW119352   2.002   4.393   9.148 -1.0051 -1.5821 -3.6409
 2573SOL    HW219353   2.136   4.455   9.148  1.6656 -1.0397 -1.2568
 2574SOL     OW19354   4.097   1.639  14.870 -0.0331  0.0411  0.1168
 2574SOL    HW119355   4.188   1.610  14.858  0.1835  0.4137  0.8541
 2574SOL    HW219356   4.100   1.725  14.827  2.7296  0.9330  2.0868
 2575SOL     OW19357   1.744   3.239   3.651  0.6239  0.2763 -0.1320
 2575SOL    HW119358   1.654   3.238   3.684  1.2299 -3.3620  1.4246
 2575SOL    HW219359   1.780   3.178   3.716  0.7113 -0.0181 -0.4554
 2576SOL     OW19360   3.940   3.830   0.776  0.3541  0.2975 -0.0185
 2576SOL    HW119361   3.895   3.749   0.798  0.3361 -0.1774 -1.8281
 2576SOL    HW219362   4.025   3.814   0.817  0.4924 -0.3413 -0.5631
 2577SOL     OW19363   3.678   0.284   2.559  0.0170 -0.1637  0.1222
 2577SOL    HW119364   3.677   0.255   2.468  1.9727  2.1166 -0.6456
 2577SOL    HW219365   3.745   0.229   2.599  1.4554  1.2639 -0.3225
 2578SOL     OW19366   3.606   4.627   8.509 -0.2082  0.1616  0.1089
 2578SOL    HW119367   3.682   4.675   8.542 -1.6727  1.9301  0.8789
 2578SOL    HW219368   3.605   4.547   8.563 -1.2919  0.9993  1.3397
 2579SOL     OW19369   0.871   1.109   5.653 -0.1783  0.9840  0.1720
 2579SOL    HW119370   0.886   1.108   5.558  0.6331  0.8378  0.3000
 2579SOL    HW219371   0.891   1.018   5.676  0.3482  1.3606  1.2304
 2580SOL     OW19372   1.660   3.062   4.752 -0.2093  0.3153 -0.4272
 2580SOL    HW119373   1.602   3.139   4.749  1.4310  1.5288 -0.7843
 2580SOL    HW219374   1.690   3.053   4.662  1.6186  1.7541  0.0330
 2581SOL     OW19375   4.436   1.377   3.855 -0.0204  0.2906  0.0994
 2581SOL    HW119376   4.353   1.338   3.826  0.3513 -0.3270 -0.1351
 2581SOL    HW219377   4.491   1.299   3.866 -2.7816 -1.6770  0.0336
 2582SOL     OW19378   4.163   4.360   1.970  0.5221 -0.4030  0.4443
 2582SOL    HW119379   4.120   4.277   1.992  0.9279 -0.9407 -0.7417
 2582SOL    HW219380   4.084   4.414   1.968 -0.7813 -2.3282 -0.0958
 2583SOL     OW19381   3.930   3.474   5.332 -0.5797 -0.2913  0.1012
 2583SOL    HW119382   3.999   3.445   5.271 -1.4783 -0.4090 -0.8583
 2583SOL    HW219383   3.896   3.392   5.366  0.2784 -1.2078 -1.2196
 2584SOL     OW19384   2.910   4.151  16.003 -0.3173  0.2438  0.8210
 2584SOL    HW119385   2.929   4.075  16.059 -1.3828  0.1102  1.0010
 2584SOL    HW219386   2.931   4.223  16.062  0.1414  0.0186  0.9334
 2585SOL     OW19387   1.491   1.007   6.749  0.4566  0.4275  0.2290
 2585SOL    HW119388   1.469   0.919   6.779  0.1845 -0.4837 -2.6315
 2585SOL    HW219389   1.583   1.010   6.776  0.5125 -1.3745  0.1806
 2586SOL     OW19390   2.246   1.810   5.219 -0.3365 -0.0033  0.3637
 2586SOL    HW119391   2.194   1.829   5.297  0.9966  0.7710  1.0766
 2586SOL    HW219392   2.239   1.898   5.182 -2.4298 -0.0035  0.7724
 2587SOL     OW19393   1.015   1.222   3.245 -0.2236  0.3914  0.0682
 2587SOL    HW119394   1.096   1.250   3.287  0.2159 -0.6253 -0.0911
 2587SOL    HW219395   1.020   1.282   3.171  1.2878  1.0068  0.6627
 2588SOL     OW19396   2.705   3.496  11.327 -0.3163 -0.3320 -0.6367
 2588SOL    HW119397   2.629   3.445  11.353  0.6885 -2.4052 -1.7959
 2588SOL    HW219398   2.730   3.540  11.409  2.7367 -3.1867 -0.0394
 2589SOL     OW19399   3.480   4.203   7.130  0.3657 -0.3596 -0.3320
 2589SOL    HW119400   3.546   4.192   7.197  0.1026 -2.0028 -0.3454
 2589SOL    HW219401   3.500   4.279   7.075  1.2001 -1.3440 -1.3826
 2590SOL     OW19402   3.752   0.589   9.421  0.6457 -0.4286  0.0856
 2590SOL    HW119403   3.701   0.510   9.437  1.5861 -0.5307  2.5403
 2590SOL    HW219404   3.693   0.663   9.420  1.1337 -0.0526 -1.5054
 2591SOL     OW19405   1.955   0.498   7.342  0.2259  0.1743  0.3182
 2591SOL    HW119406   1.981   0.513   7.251  0.1280 -0.2304  0.2211
 2591SOL    HW219407   2.024   0.436   7.365  0.5545  0.7433  0.8646
 2592SOL     OW19408   4.004   4.521   7.053  0.3001 -0.1761  0.5478
 2592SOL    HW119409   4.061   4.572   6.996  0.0415 -1.7412 -1.0892
 2592SOL    HW219410   4.063   4.450   7.076 -0.6947 -0.3467  2.5646
 2593SOL     OW19411   3.358   0.073  12.705  0.2815  0.1760  0.4892
 2593SOL    HW119412   3.341   0.157  12.747 -0.0863  1.0097 -1.3603
 2593SOL    HW219413   3.304   0.070  12.626  1.2255  0.5500 -0.1563
 2594SOL     OW19414   2.598   2.384  17.266  0.1962 -0.1936 -0.0459
 2594SOL    HW119415   2.631   2.459  17.216  1.7940 -0.2322  0.9320
 2594SOL    HW219416   2.666   2.362  17.329  0.3377  2.8719  0.8593
 2595SOL     OW19417   0.198   3.140   1.904  0.3545  0.1708  0.4334
 2595SOL    HW119418   0.257   3.102   1.969  1.2150 -1.1220 -1.1010
 2595SOL    HW219419   0.221   3.224   1.943  0.3564 -0.0806  0.9787
 2596SOL     OW19420   3.625   0.629   4.647 -0.9557  0.0048 -0.3727
 2596SOL    HW119421   3.683   0.704   4.631 -0.4467 -0.4414 -0.6114
 2596SOL    HW219422   3.568   0.648   4.572 -1.3129 -2.9529 -0.8595
 2597SOL     OW19423   0.302   0.978   3.371  0.4611 -0.2047 -0.4938
 2597SOL    HW119424   0.277   1.063   3.336  0.3257  0.2938  0.8033
 2597SOL    HW219425   0.266   0.981   3.460  0.3077  2.7400 -0.6791
 2598SOL     OW19426   0.204   1.039   7.984  0.2424  0.4653  0.1799
 2598SOL    HW119427   0.197   0.955   8.028 -1.2378  0.0827 -0.8008
 2598SOL    HW219428   0.125   1.046   7.931 -0.0501  0.0900  0.5675
 2599SOL     OW19429   1.389   1.533  13.526 -0.0974 -0.1118 -0.2785
 2599SOL    HW119430   1.483   1.528  13.508  0.5070 -1.4095  3.0145
 2599SOL    HW219431   1.366   1.595  13.458  1.3924  0.4643 -0.2427
 2600SOL     OW19432   1.434   2.998   3.541 -0.3681  0.2617  0.3969
 2600SOL    HW119433   1.365   3.040   3.593 -1.5180 -1.0520 -0.0854
 2600SOL    HW219434   1.382   2.923   3.513 -0.5183 -0.0512  1.5213
 2601SOL     OW19435   2.920   0.586  12.897  0.2694 -0.5501  0.3339
 2601SOL    HW119436   3.013   0.596  12.918  0.7010 -1.7673 -0.9644
 2601SOL    HW219437   2.912   0.642  12.820  1.0850  0.2753  0.8554
 2602SOL     OW19438   2.377   0.628   1.867 -0.0404 -0.1280  0.0602
 2602SOL    HW119439   2.307   0.592   1.812  1.0592 -1.1664 -0.6607
 2602SOL    HW219440   2.441   0.664   1.806  0.4025  0.5140  0.8965
 2603SOL     OW19441   1.115   3.523   3.539  0.0513 -0.0145 -0.1462
 2603SOL    HW119442   1.110   3.578   3.461  0.6564  0.8626  0.4383
 2603SOL    HW219443   1.122   3.435   3.502  3.8591  0.3843 -0.3406
 2604SOL     OW19444   4.482   3.584   2.478 -0.5432  0.2968  0.0041
 2604SOL    HW119445   4.412   3.551   2.421 -1.0971  2.1094 -0.3559
 2604SOL    HW219446   4.489   3.515   2.544  1.5646 -0.0191 -0.5559
 2605SOL     OW19447   2.484   3.231   9.414 -0.2812  0.0506 -0.6569
 2605SOL    HW119448   2.574   3.207   9.393  0.6854 -0.1132  3.7075
 2605SOL    HW219449   2.439   3.148   9.434 -1.1685  0.5049 -0.7430
 2606SOL     OW19450   3.408   0.562   4.464  0.0687  0.1985 -0.5327
 2606SOL    HW119451   3.420   0.522   4.377  0.7579 -0.3628 -0.1771
 2606SOL    HW219452   3.395   0.480   4.512 -0.2362  1.2814  1.2211
 2607SOL     OW19453   4.455   3.274  15.265  0.1879  0.6687  0.1617
 2607SOL    HW119454   4.401   3.345  15.231 -1.9263 -1.1605 -0.2601
 2607SOL    HW219455   4.544   3.310  15.265  0.7042 -0.5897 -1.4599
 2608SOL     OW19456   3.240   2.979   3.590  0.6311  0.2993 -0.0642
 2608SOL    HW119457   3.283   2.990   3.675 -1.2506  1.2901  0.7615
 2608SOL    HW219458   3.286   2.904   3.554  1.1909  1.0838 -0.9768
 2609SOL     OW19459   4.282   3.361   1.922 -0.0654  0.1335 -0.1250
 2609SOL    HW119460   4.276   3.454   1.941 -0.2031  0.3335 -1.1463
 2609SOL    HW219461   4.212   3.312   1.966  2.3444 -2.7649  0.4685
 2610SOL     OW19462   0.097   0.244   2.001 -0.2764 -0.0267 -0.3928
 2610SOL    HW119463   0.099   0.218   1.909  1.9891 -0.3154 -0.2784
 2610SOL    HW219464   0.143   0.328   1.999 -1.3925  0.6256  1.4335
 2611SOL     OW19465   2.431   0.328   5.134  0.4366  0.3311  0.8992
 2611SOL    HW119466   2.447   0.411   5.179  0.1355  0.9235 -0.0844
 2611SOL    HW219467   2.358   0.350   5.075  0.1764 -0.5701  0.8836
 2612SOL     OW19468   0.891   0.416  13.188 -0.1379  0.3126  0.8251
 2612SOL    HW119469   0.889   0.468  13.108  2.1725 -0.8998 -0.0294
 2612SOL    HW219470   0.944   0.474  13.242  0.5888  1.7083 -1.4256
 2613SOL     OW19471   3.090   0.441   1.377 -0.0798  0.4277 -0.5535
 2613SOL    HW119472   3.173   0.399   1.396 -1.5446 -1.1352  2.4628
 2613SOL    HW219473   3.040   0.392   1.443 -0.1659 -1.4079 -1.9934
 2614SOL     OW19474   1.077   1.158   7.330  0.7908 -0.1790  0.0081
 2614SOL    HW119475   1.116   1.237   7.368  0.3070 -0.7028  1.6022
 2614SOL    HW219476   1.013   1.197   7.272 -0.6697  2.6902  3.5578
 2615SOL     OW19477   1.868   3.172  15.110 -0.0201 -0.1327  0.0714
 2615SOL    HW119478   1.897   3.174  15.019 -0.1418 -0.3473  0.0278
 2615SOL    HW219479   1.892   3.261  15.133  1.0889 -0.5511  0.5716
 2616SOL     OW19480   0.552   1.896   1.799  0.2871 -0.2075 -0.0730
 2616SOL    HW119481   0.480   1.833   1.809  0.2829  0.4390  3.8551
 2616SOL    HW219482   0.525   1.948   1.874  0.0690  0.6977 -0.7745
 2617SOL     OW19483   2.052   4.474  10.015 -0.3605 -0.0278 -0.7663
 2617SOL    HW119484   1.974   4.443   9.969 -0.3294  0.1710 -0.9491
 2617SOL    HW219485   2.103   4.393  10.007  1.4759  0.9373  1.0650
 2618SOL     OW19486   3.611   0.421  14.364 -0.5548 -0.5294 -0.1637
 2618SOL    HW119487   3.642   0.489  14.423  0.5627 -1.0402 -0.1729
 2618SOL    HW219488   3.667   0.427  14.287 -3.0912  0.8708 -1.8947
 2619SOL     OW19489   0.412   2.772   3.206 -0.0048  0.2101 -0.0106
 2619SOL    HW119490   0.430   2.862   3.233  0.6733  0.2125 -0.4818
 2619SOL    HW219491   0.490   2.758   3.152 -1.5025 -0.1256 -2.0791
 2620SOL     OW19492   2.480   0.553   5.280  0.1504  0.1454 -0.5901
 2620SOL    HW119493   2.426   0.582   5.354 -0.9141 -0.4963 -1.1299
 2620SOL    HW219494   2.479   0.637   5.234  0.6478  0.2593 -0.3938
 2621SOL     OW19495   0.433   0.608   8.133 -0.3620  0.0192 -0.3331
 2621SOL    HW119496   0.448   0.535   8.193  0.5249  1.9173  1.7575
 2621SOL    HW219497   0.525   0.621   8.110 -0.0385 -0.3720  0.6999
 2622SOL     OW19498   0.857   0.840   3.462 -0.5252 -0.5980  0.0983
 2622SOL    HW119499   0.940   0.882   3.439  0.1115 -1.9444 -0.0883
 2622SOL    HW219500   0.798   0.913   3.443  0.2258  0.1845  0.7583
 2623SOL     OW19501   1.670   0.789   2.808  0.5189  0.6376 -0.3569
 2623SOL    HW119502   1.735   0.806   2.740  0.4025  1.2089 -0.3196
 2623SOL    HW219503   1.613   0.866   2.811  2.4030  1.9710  0.7192
 2624SOL     OW19504   4.125   3.464   6.290 -0.3665  0.2359  0.3403
 2624SOL    HW119505   4.047   3.409   6.300 -2.0623  2.8368  1.2268
 2624SOL    HW219506   4.148   3.465   6.382  3.8445 -1.6572 -0.6725
 2625SOL     OW19507   4.527   0.697   3.096  0.0219  0.0708 -0.5765
 2625SOL    HW119508   4.509   0.630   3.030  0.1324 -0.8957  0.3852
 2625SOL    HW219509   4.565   0.643   3.165 -0.9523  0.0515 -0.0517
 2626SOL     OW19510   3.626   0.537  11.808 -0.6392  0.1378 -0.1253
 2626SOL    HW119511   3.577   0.475  11.861 -1.3619  0.2359 -0.6851
 2626SOL    HW219512   3.600   0.512  11.719  0.9911 -0.7928 -0.3474
 2627SOL     OW19513   2.589   2.506   7.050 -0.2809  0.2281 -0.2513
 2627SOL    HW119514   2.509   2.499   7.102  1.1055 -0.1892  1.8175
 2627SOL    HW219515   2.555   2.526   6.963  2.9301 -0.7243 -1.7290
 2628SOL     OW19516   4.254   1.734   5.496 -0.1195 -0.0062  0.1155
 2628SOL    HW119517   4.343   1.724   5.464 -0.7194  2.2261 -2.2391
 2628SOL    HW219518   4.207   1.763   5.418  0.6062 -0.2682 -0.4175
 2629SOL     OW19519   2.754   1.601   2.312 -0.9024  0.3531 -0.2689
 2629SOL    HW119520   2.677   1.607   2.368  0.2352  1.2595  1.2112
 2629SOL    HW219521   2.747   1.690   2.277 -1.2313  1.0169  1.5082
 2630SOL     OW19522   1.734   4.216   4.184  0.1037 -0.0073  0.0019
 2630SOL    HW119523   1.784   4.293   4.213 -0.3127  1.5102 -3.2903
 2630SOL    HW219524   1.644   4.248   4.176  0.0553 -0.2490 -0.3967
 2631SOL     OW19525   3.041   1.825   0.654 -0.0016 -0.2305  0.4397
 2631SOL    HW119526   3.075   1.913   0.641  1.8253 -0.9241  0.4988
 2631SOL    HW219527   3.120   1.785   0.692  1.6908  1.0172 -1.7099
 2632SOL     OW19528   3.465   1.300   9.707 -0.0729 -0.4065  0.1078
 2632SOL    HW119529   3.389   1.252   9.741  0.7862 -2.1211 -0.3792
 2632SOL    HW219530   3.540   1.263   9.753 -0.3677 -0.1927  0.7589
 2633SOL     OW19531   1.306   0.714  16.027 -0.7070  0.4318 -0.2606
 2633SOL    HW119532   1.254   0.758  16.094 -1.1573 -0.0655 -0.2824
 2633SOL    HW219533   1.345   0.788  15.980  2.1508 -2.1453 -2.0081
 2634SOL     OW19534   0.324   3.341  14.935  0.3539 -0.1255 -0.2214
 2634SOL    HW119535   0.271   3.415  14.907  1.9096  1.1855  0.2970
 2634SOL    HW219536   0.396   3.392  14.971 -1.0105  0.6664  1.3883
 2635SOL     OW19537   1.693   0.643   3.354 -0.1997  0.0142  0.3595
 2635SOL    HW119538   1.661   0.618   3.267  1.1404 -0.6697  0.0557
 2635SOL    HW219539   1.768   0.584   3.365  0.7301  1.3946  1.3669
 2636SOL     OW19540   0.681   1.387   6.602 -0.2891  0.0007  0.3930
 2636SOL    HW119541   0.676   1.406   6.696  0.4494 -0.1149  0.4605
 2636SOL    HW219542   0.753   1.445   6.576 -0.0572 -0.6669 -0.4558
 2637SOL     OW19543   0.736   4.483  14.957 -0.5871 -1.1854 -0.2883
 2637SOL    HW119544   0.762   4.508  15.045  0.4653  2.2672 -1.5674
 2637SOL    HW219545   0.753   4.566  14.913 -3.1079 -0.6915 -0.3232
 2638SOL     OW19546   0.671   0.158   9.411 -0.0243  0.6695  0.2331
 2638SOL    HW119547   0.677   0.128   9.502 -0.8248  1.9853  0.7120
 2638SOL    HW219548   0.756   0.200   9.398  0.0189  0.2059 -1.0100
 2639SOL     OW19549   1.524   1.196  12.348  0.0509  0.1759  0.7448
 2639SOL    HW119550   1.432   1.223  12.355 -0.1547  0.2689 -2.1474
 2639SOL    HW219551   1.571   1.278  12.333  2.3183 -1.4539 -1.1563
 2640SOL     OW19552   0.138   0.212   7.555 -0.4454 -0.3664  0.0448
 2640SOL    HW119553   0.206   0.148   7.573  0.0575  0.1666  0.0553
 2640SOL    HW219554   0.118   0.225   7.647 -0.1054  0.9482 -0.0658
 2641SOL     OW19555   1.751   1.360   1.775 -0.4073  0.7989  0.6536
 2641SOL    HW119556   1.719   1.278   1.736 -0.0159  1.4397 -0.9962
 2641SOL    HW219557   1.799   1.403   1.705 -0.9690 -0.5881 -0.5796
 2642SOL     OW19558   1.043   4.589  16.922  1.0704 -0.4579 -0.8849
 2642SOL    HW119559   1.098   4.590  16.844  2.0164  0.0501 -0.2157
 2642SOL    HW219560   1.003   4.677  16.919 -0.6073 -1.2471 -1.6738
 2643SOL     OW19561   3.332   3.834  10.984  0.0878 -0.3226  0.6379
 2643SOL    HW119562   3.384   3.759  10.956 -0.3954  0.1048 -1.3536
 2643SOL    HW219563   3.389   3.910  10.968 -0.3582 -0.1401 -0.0449
 2644SOL     OW19564   1.840   4.190   1.493 -0.4783  0.4897  0.2491
 2644SOL    HW119565   1.870   4.121   1.434 -0.3129  1.3385 -0.6648
 2644SOL    HW219566   1.806   4.139   1.566  0.0078  0.9907  0.8257
 2645SOL     OW19567   3.365   3.532   2.952 -0.0670  0.5531 -0.4023
 2645SOL    HW119568   3.410   3.514   2.869  0.1943  0.3697 -0.2206
 2645SOL    HW219569   3.303   3.460   2.949  2.2372 -1.4433  0.4014
 2646SOL     OW19570   2.837   1.802   9.170  0.2716 -0.6072  0.2135
 2646SOL    HW119571   2.896   1.737   9.208  3.2718  0.8514 -2.0222
 2646SOL    HW219572   2.783   1.742   9.118 -0.0973 -0.7833  0.7937
 2647SOL     OW19573   4.186   0.329   7.206  0.4894  0.4309 -0.5705
 2647SOL    HW119574   4.280   0.320   7.225  0.4273 -0.3999 -0.6628
 2647SOL    HW219575   4.180   0.301   7.115  2.3265  0.4464 -0.7070
 2648SOL     OW19576   0.420   3.105   4.957  0.1622 -0.1811 -0.2811
 2648SOL    HW119577   0.349   3.170   4.955  0.8500  0.5378 -1.3168
 2648SOL    HW219578   0.373   3.036   5.003  0.9150 -0.9593 -0.6854
 2649SOL     OW19579   2.356   0.510   4.041  0.4656  0.1207  0.2771
 2649SOL    HW119580   2.335   0.560   4.119  1.1572 -0.6309  0.9454
 2649SOL    HW219581   2.277   0.458   4.027  0.0649  0.8628 -0.2605
 2650SOL     OW19582   0.866   1.016   4.016 -0.0659  0.5343 -0.6392
 2650SOL    HW119583   0.899   1.057   4.097  0.6193 -0.6334 -0.3285
 2650SOL    HW219584   0.883   0.923   4.030 -0.5949  0.8211  1.9302
 2651SOL     OW19585   0.819   2.404   1.466 -0.0312  0.5891 -0.0162
 2651SOL    HW119586   0.884   2.473   1.452 -1.7377  1.8501 -1.8204
 2651SOL    HW219587   0.818   2.345   1.391  0.7819 -1.3289  1.4801
 2652SOL     OW19588   1.964   2.100   8.326 -0.6743 -0.1327 -0.5166
 2652SOL    HW119589   1.985   2.011   8.356  0.8069  0.6029  0.6444
 2652SOL    HW219590   1.956   2.149   8.408 -0.9611  2.0191 -1.8548
 2653SOL     OW19591   2.943   2.670  14.790 -0.0434  0.3902 -0.3931
 2653SOL    HW119592   2.952   2.757  14.828 -2.6478  1.1010 -1.3651
 2653SOL    HW219593   2.886   2.695  14.716  1.3167  1.7676 -0.9768
 2654SOL     OW19594   3.879   1.963   6.908 -0.2247  0.0977 -0.8640
 2654SOL    HW119595   3.869   1.886   6.964 -0.2011  0.4922 -0.3194
 2654SOL    HW219596   3.959   2.002   6.942 -0.5308  1.6732 -1.9760
 2655SOL     OW19597   3.574   2.914   1.828  0.6675  0.0564  0.2179
 2655SOL    HW119598   3.547   2.862   1.753  1.2875  1.1908 -0.7846
 2655SOL    HW219599   3.652   2.955   1.789  0.5380 -0.3495 -0.4568
 2656SOL     OW19600   2.665   3.806   8.534  0.0534 -0.0858 -0.2059
 2656SOL    HW119601   2.693   3.742   8.469 -1.4495 -0.3221 -0.6274
 2656SOL    HW219602   2.732   3.868   8.507  0.1095 -0.6979 -1.4908
 2657SOL     OW19603   4.198   4.630   6.872  0.4452 -0.5175  0.3426
 2657SOL    HW119604   4.185   4.691   6.799  0.8544 -1.2089 -0.3144
 2657SOL    HW219605   4.256   4.565   6.832  1.4872 -0.0710  1.1171
 2658SOL     OW19606   2.502   4.285   3.941 -0.1761 -0.7102 -0.3129
 2658SOL    HW119607   2.592   4.316   3.948 -0.6641  0.2612  1.4444
 2658SOL    HW219608   2.493   4.274   3.846  0.3007  0.7024 -0.5192
 2659SOL     OW19609   3.493   0.950   1.297  0.1714  1.0662  0.2340
 2659SOL    HW119610   3.413   1.000   1.311 -1.7038 -2.1580  0.8536
 2659SOL    HW219611   3.517   0.925   1.386  0.9600 -0.4897 -0.4139
 2660SOL     OW19612   4.118   1.079   3.408  0.4432  0.3676  0.3643
 2660SOL    HW119613   4.154   1.066   3.495  2.0997  1.8524 -0.0892
 2660SOL    HW219614   4.195   1.122   3.368 -0.6579  1.4426 -0.6155
 2661SOL     OW19615   4.152   1.052   0.193  0.3290  0.5536 -0.1651
 2661SOL    HW119616   4.111   1.108   0.127 -0.8862  0.4190  0.4721
 2661SOL    HW219617   4.107   1.073   0.275 -0.1624 -2.4372  0.3455
 2662SOL     OW19618   1.222   2.112   5.791 -0.4070  0.5752 -0.4768
 2662SOL    HW119619   1.222   2.193   5.842  1.2959  0.9525 -1.0947
 2662SOL    HW219620   1.205   2.050   5.862  2.6320  1.0561  0.6874
 2663SOL     OW19621   3.099   2.624  17.655 -0.3368  0.1362 -0.1118
 2663SOL    HW119622   3.088   2.530  17.668  1.0352 -0.0039  0.0137
 2663SOL    HW219623   3.127   2.645  17.745  0.6868 -1.4904 -0.0669
 2664SOL     OW19624   1.746   1.409   7.327 -0.1422  0.1165  0.0122
 2664SOL    HW119625   1.781   1.460   7.400 -1.3624 -1.1833  1.4929
 2664SOL    HW219626   1.805   1.441   7.258 -0.4318 -0.4693 -0.5052
 2665SOL     OW19627   4.542   3.218   4.504  0.5646 -0.1262  0.4146
 2665SOL    HW119628   4.523   3.170   4.423  0.5168  1.5471 -0.5636
 2665SOL    HW219629   4.454   3.227   4.539  0.2013  1.2350 -0.8303
 2666SOL     OW19630   4.590   4.534   8.968  0.6100  0.1903  0.2319
 2666SOL    HW119631   4.583   4.498   8.880 -0.5421  0.1422  0.3354
 2666SOL    HW219632   4.625   4.462   9.020 -2.5827 -2.4401 -1.2417
 2667SOL     OW19633   3.169   3.909   1.948  0.0215 -0.7436  0.7930
 2667SOL    HW119634   3.176   3.972   1.877  0.1284  0.6674  2.0571
 2667SOL    HW219635   3.235   3.953   2.002 -0.8179 -1.4368  2.3673
 2668SOL     OW19636   3.792   2.835   9.535  0.5607  0.4863  0.2600
 2668SOL    HW119637   3.766   2.844   9.627 -0.4035 -2.9825  0.3533
 2668SOL    HW219638   3.762   2.917   9.496  1.1445  0.4881 -0.1849
 2669SOL     OW19639   1.401   4.067   9.542 -0.3553 -0.1138 -0.1694
 2669SOL    HW119640   1.329   4.130   9.538  1.7128  2.1171 -2.6220
 2669SOL    HW219641   1.427   4.089   9.631 -0.6048 -1.7405  0.3100
 2670SOL     OW19642   0.949   1.334   1.997 -0.0934  0.2142  0.2771
 2670SOL    HW119643   0.970   1.240   2.002 -1.2936 -0.0298  0.7434
 2670SOL    HW219644   0.952   1.361   2.089 -0.1163  1.7952 -0.1878
 2671SOL     OW19645   2.149   1.170   8.967  0.4290 -0.0635 -0.0639
 2671SOL    HW119646   2.155   1.079   8.996 -0.4614 -0.1353 -0.0951
 2671SOL    HW219647   2.059   1.194   8.990  0.3723 -0.9631  0.6357
 2672SOL     OW19648   3.452   3.999   5.516 -0.0146  0.2374 -0.1641
 2672SOL    HW119649   3.529   3.998   5.459 -1.1958 -1.9299 -1.7148
 2672SOL    HW219650   3.502   4.018   5.595 -1.5541  3.2126  0.0892
 2673SOL     OW19651   1.797   3.249  12.404  0.5519  0.3649  0.2663
 2673SOL    HW119652   1.880   3.211  12.376  0.1060 -1.7859  1.9151
 2673SOL    HW219653   1.730   3.188  12.376  1.2878 -0.2777 -0.0881
 2674SOL     OW19654   3.415   2.824   5.863  0.3593 -0.2892  0.1718
 2674SOL    HW119655   3.381   2.734   5.859  1.3196 -0.5814 -1.1011
 2674SOL    HW219656   3.424   2.843   5.770  2.3221 -2.3936 -0.0601
 2675SOL     OW19657   3.982   1.023   1.776  0.3813 -0.1395 -0.0778
 2675SOL    HW119658   4.041   1.010   1.702  0.3891  2.4454 -0.5264
 2675SOL    HW219659   3.982   1.118   1.771  0.3827 -0.2017 -1.2101
 2676SOL     OW19660   3.997   4.568   3.670 -0.0452  0.3630  0.4699
 2676SOL    HW119661   3.994   4.652   3.716  1.7377 -0.4388  2.0092
 2676SOL    HW219662   4.045   4.517   3.735 -0.4499  0.3404  0.7554
 2677SOL     OW19663   2.570   2.799   2.606  0.2752  0.3332 -0.3524
 2677SOL    HW119664   2.527   2.737   2.666  0.4143 -0.2938 -0.9001
 2677SOL    HW219665   2.501   2.864   2.597  0.1986  0.1489 -1.0670
 2678SOL     OW19666   2.658   2.716   7.221 -0.0612 -0.2533 -0.0441
 2678SOL    HW119667   2.642   2.647   7.157  2.0754 -0.2999 -0.5203
 2678SOL    HW219668   2.737   2.759   7.187 -1.1128  1.6434 -0.0786
 2679SOL     OW19669   0.210   4.062   6.818 -0.1896  0.0915  0.5350
 2679SOL    HW119670   0.121   4.027   6.826  1.1236 -3.1748  0.8819
 2679SOL    HW219671   0.250   3.985   6.778  1.0044  1.8220 -1.6150
 2680SOL     OW19672   1.706   3.891   6.534 -0.1455 -0.3143 -0.2444
 2680SOL    HW119673   1.721   3.867   6.626 -0.9353  0.5344  0.1084
 2680SOL    HW219674   1.626   3.944   6.539  0.1541  0.1387 -0.3176
 2681SOL     OW19675   0.808   0.056   8.751 -0.0040  0.2050  0.5176
 2681SOL    HW119676   0.798   0.089   8.662 -0.6360 -0.7847  0.2160
 2681SOL    HW219677   0.871   4.726   8.732  0.2440  0.7313 -0.5903
 2682SOL     OW19678   4.571   3.623   7.680  0.2292 -0.1367  0.9268
 2682SOL    HW119679   4.512   3.629   7.754  0.6637 -0.9922  1.3454
 2682SOL    HW219680   4.608   3.711   7.692  0.5969 -0.0843 -0.5448
 2683SOL     OW19681   3.465   3.796   3.058  0.2576 -0.3715  0.4987
 2683SOL    HW119682   3.416   3.870   3.021  1.7927  2.0699  3.3594
 2683SOL    HW219683   3.454   3.732   2.988  2.3579 -0.5766  0.3594
 2684SOL     OW19684   1.402   4.178   8.625 -0.1395 -0.2811  0.1348
 2684SOL    HW119685   1.381   4.084   8.624  1.3871 -0.6490  3.2996
 2684SOL    HW219686   1.446   4.186   8.709  1.3318 -1.8891 -0.4796
 2685SOL     OW19687   0.613   3.395   6.745 -0.6457  0.2650  0.3768
 2685SOL    HW119688   0.573   3.432   6.666 -2.9083 -0.8166  0.9975
 2685SOL    HW219689   0.655   3.321   6.702  2.1082  0.8204  2.1421
 2686SOL     OW19690   0.737   0.717   0.530 -0.2298  0.0907 -0.8248
 2686SOL    HW119691   0.676   0.789   0.547 -0.5653 -1.3074  3.6878
 2686SOL    HW219692   0.674   0.648   0.511  0.3045 -0.6440  0.0861
 2687SOL     OW19693   2.866   4.109  15.463  0.2737 -0.5709  0.6351
 2687SOL    HW119694   2.902   4.196  15.446  2.1690 -1.5613 -0.4053
 2687SOL    HW219695   2.939   4.064  15.505  0.0662 -0.3573  1.2170
 2688SOL     OW19696   0.814   1.234   2.751  0.4033 -0.4453  0.3953
 2688SOL    HW119697   0.809   1.182   2.832  1.2406  0.3344  0.9375
 2688SOL    HW219698   0.884   1.185   2.708 -1.8626 -3.2681 -0.1178
 2689SOL     OW19699   0.425   1.430  17.208  0.9779  0.5229 -0.2499
 2689SOL    HW119700   0.461   1.376  17.279  1.0268  0.9933  0.0827
 2689SOL    HW219701   0.507   1.468  17.175 -0.9643  3.5000 -1.6406
 2690SOL     OW19702   4.107   2.046   3.256 -0.1401  0.2991  0.1445
 2690SOL    HW119703   4.196   2.078   3.273 -0.5990  1.7959 -0.2926
 2690SOL    HW219704   4.071   2.110   3.195 -1.0093 -0.2874  0.0367
 2691SOL     OW19705   4.669   2.470   2.129 -0.8260  0.0508  0.4564
 2691SOL    HW119706   4.674   2.465   2.034  1.2165 -1.2621  0.6243
 2691SOL    HW219707   4.575   2.464   2.144 -0.6541 -1.4774  0.9071
 2692SOL     OW19708   0.281   3.559   9.764 -0.2310 -1.1327  0.1856
 2692SOL    HW119709   0.288   3.464   9.772 -0.6177 -1.2317 -0.6625
 2692SOL    HW219710   0.186   3.572   9.756 -0.2361  0.1349  2.1282
 2693SOL     OW19711   3.771   0.565  12.042  0.1576  0.6826 -0.2757
 2693SOL    HW119712   3.813   0.645  12.011  0.8505  1.4746  2.8003
 2693SOL    HW219713   3.707   0.549  11.972 -0.7057 -0.6654  0.8174
 2694SOL     OW19714   4.280   0.381   1.525  0.6870 -0.3512 -0.1375
 2694SOL    HW119715   4.356   0.358   1.471  0.6254 -1.8848  0.4165
 2694SOL    HW219716   4.318   0.425   1.600  0.3310  1.3853 -0.9885
 2695SOL     OW19717   3.207   2.738   3.081 -0.2718  0.0121  0.2163
 2695SOL    HW119718   3.160   2.821   3.081 -1.5863 -0.7483 -0.4718
 2695SOL    HW219719   3.290   2.775   3.113 -0.9565  0.3834  1.5624
 2696SOL     OW19720   4.417   3.662   0.087  0.2143  0.4056  0.1517
 2696SOL    HW119721   4.389   3.598   0.021  1.8725 -0.2443  0.0779
 2696SOL    HW219722   4.510   3.643   0.081  0.3521  0.9988  0.4693
 2697SOL     OW19723   0.963   4.009  12.444 -0.9168 -0.0527 -0.8139
 2697SOL    HW119724   1.015   3.947  12.494 -0.2214  2.1562  1.1980
 2697SOL    HW219725   0.931   3.945  12.381  0.2181 -0.3953 -1.0336
 2698SOL     OW19726   0.126   2.670   8.745 -0.0502  0.1412  0.6588
 2698SOL    HW119727   0.156   2.714   8.824 -0.2843  0.0703  0.7863
 2698SOL    HW219728   0.037   2.644   8.769  0.3728 -1.5046  0.4386
 2699SOL     OW19729   2.927   0.414  16.442 -0.3956 -0.3922 -0.1022
 2699SOL    HW119730   2.957   0.431  16.353  0.2859  1.4764  0.4810
 2699SOL    HW219731   2.835   0.391  16.430 -0.6976  0.6488  0.2613
 2700SOL     OW19732   1.325   3.264   6.363  0.1756  0.4061 -0.0779
 2700SOL    HW119733   1.325   3.183   6.312  3.4436 -0.6333  1.5319
 2700SOL    HW219734   1.387   3.251   6.435  2.6976  1.2598 -2.1054
 2701SOL     OW19735   0.997   0.129  11.367 -0.1835 -0.0199  0.2673
 2701SOL    HW119736   0.902   0.138  11.356 -0.1175 -0.0145 -0.3265
 2701SOL    HW219737   1.015   0.196  11.432  0.6235  1.3366 -1.3407
 2702SOL     OW19738   3.844   1.817   6.349 -0.2655  0.0020  0.7388
 2702SOL    HW119739   3.878   1.732   6.379 -1.9973 -0.4069  1.5456
 2702SOL    HW219740   3.878   1.865   6.425  1.2283 -0.5929  0.4366
 2703SOL     OW19741   3.157   3.052   4.000 -0.2883 -0.2230  0.1380
 2703SOL    HW119742   3.071   3.047   3.959  0.6519 -1.2693 -1.7021
 2703SOL    HW219743   3.129   3.063   4.090  1.8045 -0.9358  0.8848
 2704SOL     OW19744   2.979   2.765   3.848  0.3316 -0.7163  0.8329
 2704SOL    HW119745   2.963   2.672   3.865  0.8946 -0.7612  1.1202
 2704SOL    HW219746   2.895   2.810   3.850  0.4981 -0.3301 -0.3673
 2705SOL     OW19747   4.333   3.691  10.629 -0.0627 -0.2465 -0.4176
 2705SOL    HW119748   4.337   3.780  10.663  0.5304 -0.2521 -0.4706
 2705SOL    HW219749   4.425   3.666  10.637 -0.2847 -1.6245 -2.1101
 2706SOL     OW19750   1.560   2.075   4.168 -0.2263 -0.5968 -0.4878
 2706SOL    HW119751   1.505   2.024   4.228  0.4997 -2.0665 -1.0752
 2706SOL    HW219752   1.639   2.089   4.220 -2.3103  1.7410  2.0194
 2707SOL     OW19753   1.419   4.077  17.290  0.5637 -0.6437 -0.5055
 2707SOL    HW119754   1.333   4.105  17.259  1.0881 -0.9098 -2.2135
 2707SOL    HW219755   1.393   4.033  17.370  0.1774 -0.9641 -0.8104
 2708SOL     OW19756   1.773   3.610  14.785 -0.2278 -0.0300  0.2979
 2708SOL    HW119757   1.866   3.612  14.763 -1.0962 -2.0505 -3.4822
 2708SOL    HW219758   1.739   3.682  14.732 -1.2510  0.0821  1.1124
 2709SOL     OW19759   3.994   3.332   3.877 -0.4928 -0.1707 -0.0673
 2709SOL    HW119760   3.923   3.321   3.940 -0.2075 -1.5541  0.0156
 2709SOL    HW219761   4.031   3.417   3.902  0.3550 -0.9982  1.4734
 2710SOL     OW19762   3.507   0.441   2.864 -0.0144 -0.0787 -0.7691
 2710SOL    HW119763   3.427   0.417   2.817 -0.7461 -1.6467  1.2594
 2710SOL    HW219764   3.542   0.501   2.798 -3.0319  1.6291 -0.8362
 2711SOL     OW19765   4.728   1.202   3.293  0.4064  0.0241 -0.3674
 2711SOL    HW119766   0.070   1.189   3.244  1.1510  1.0418  0.6106
 2711SOL    HW219767   4.725   1.108   3.312  1.8065  0.1916  0.7591
 2712SOL     OW19768   2.477   1.917   2.072 -0.3710  0.2651  0.0447
 2712SOL    HW119769   2.399   1.874   2.106 -1.3282  1.2451 -0.8842
 2712SOL    HW219770   2.457   1.933   1.980 -0.5016  0.2793  0.0749
 2713SOL     OW19771   1.918   3.037   9.155 -0.7461 -0.1676 -0.0020
 2713SOL    HW119772   1.843   3.094   9.137 -1.3483 -1.6155 -2.1503
 2713SOL    HW219773   1.969   3.094   9.211  1.0471 -2.0023  0.2277
 2714SOL     OW19774   3.922   1.771   2.199  0.0090 -0.0582 -0.9386
 2714SOL    HW119775   3.891   1.737   2.115 -0.5250 -0.1812 -0.6946
 2714SOL    HW219776   4.017   1.767   2.196  0.0925  1.8286 -0.8824
 2715SOL     OW19777   1.673   0.431   7.351  0.2110 -0.3126 -0.6283
 2715SOL    HW119778   1.768   0.440   7.354  0.2825 -0.5275 -2.0435
 2715SOL    HW219779   1.652   0.472   7.267  0.7230  1.5174  0.1309
 2716SOL     OW19780   4.727   1.303   4.452  0.2502  0.2363  0.1255
 2716SOL    HW119781   4.735   1.346   4.366  3.4545  1.5670  1.0894
 2716SOL    HW219782   0.049   1.230   4.457 -1.5358 -1.3770 -0.8429
 2717SOL     OW19783   2.737   2.511   4.872  0.6391 -0.4711 -0.1446
 2717SOL    HW119784   2.675   2.562   4.924  1.4412  0.8255 -0.4574
 2717SOL    HW219785   2.706   2.421   4.874 -0.6063 -0.0251  0.3362
 2718SOL     OW19786   2.667   2.008  12.613  0.0199 -0.1040  0.1044
 2718SOL    HW119787   2.716   2.090  12.607  0.3605 -0.3864 -0.8940
 2718SOL    HW219788   2.591   2.037  12.664 -0.5790 -0.6565 -0.4727
 2719SOL     OW19789   3.632   0.097   7.242  0.4905 -0.5097  0.1413
 2719SOL    HW119790   3.637   0.121   7.335 -1.8269  1.5995 -0.2674
 2719SOL    HW219791   3.716   0.058   7.220  2.0227  3.1589 -0.4716
 2720SOL     OW19792   3.591   0.596   2.643  0.5598 -0.1639 -0.4422
 2720SOL    HW119793   3.587   0.516   2.591 -1.2994 -0.1576 -0.3174
 2720SOL    HW219794   3.560   0.662   2.581  1.2020  1.5956  1.0888
 2721SOL     OW19795   0.747   0.412   1.786 -0.0357  0.6851 -0.1767
 2721SOL    HW119796   0.682   0.479   1.804  0.9121  1.3800  0.6270
 2721SOL    HW219797   0.691   0.351   1.737  0.3546  1.0318 -1.0643
 2722SOL     OW19798   4.176   1.138   8.971  0.1381  0.3537 -0.3727
 2722SOL    HW119799   4.188   1.160   8.879 -0.4439 -2.0052 -1.0024
 2722SOL    HW219800   4.170   1.223   9.015 -0.6951  0.9815 -1.7148
 2723SOL     OW19801   4.363   3.329   8.509 -0.1253  1.0249  0.1040
 2723SOL    HW119802   4.348   3.251   8.563  1.2555 -0.2625 -1.3486
 2723SOL    HW219803   4.432   3.291   8.453 -1.7215 -0.5527 -0.7968
 2724SOL     OW19804   1.377   1.575   0.829  0.6645 -0.0973  0.0417
 2724SOL    HW119805   1.393   1.668   0.842 -2.5367  0.3244  0.9352
 2724SOL    HW219806   1.460   1.541   0.795  1.6382  1.0650  1.2553
 2725SOL     OW19807   1.103   3.877  14.165  0.5767 -0.4466 -0.1841
 2725SOL    HW119808   1.160   3.826  14.108  0.5401 -0.1864 -0.4518
 2725SOL    HW219809   1.018   3.860  14.124  0.9536 -1.9554 -0.3278
 2726SOL     OW19810   1.181   4.215  11.533  0.8288 -0.4086 -0.2420
 2726SOL    HW119811   1.147   4.210  11.623  2.1227  0.5583  0.2961
 2726SOL    HW219812   1.223   4.129  11.534  2.7454  0.5097 -1.8864
 2727SOL     OW19813   3.338   0.606   9.306  0.4866 -0.2390 -0.1692
 2727SOL    HW119814   3.356   0.539   9.372 -0.0006 -0.8000 -0.6079
 2727SOL    HW219815   3.407   0.600   9.239  0.8475 -2.4895  0.4022
 2728SOL     OW19816   4.286   0.204   9.261 -0.3371 -0.1628  0.1438
 2728SOL    HW119817   4.289   0.148   9.339  0.4628  1.4346  1.2507
 2728SOL    HW219818   4.366   0.175   9.219 -1.0669 -2.5368  0.4007
 2729SOL     OW19819   2.725   0.279  14.218 -0.3952  0.2189 -0.4262
 2729SOL    HW119820   2.659   0.349  14.223 -0.9389 -0.3083 -0.2309
 2729SOL    HW219821   2.733   0.250  14.309  0.5155  2.9283  0.3616
 2730SOL     OW19822   1.021   0.069  16.583  0.1055  0.0891 -0.0481
 2730SOL    HW119823   1.073   4.734  16.611 -1.0443  0.0546  2.0319
 2730SOL    HW219824   1.026   0.108  16.670 -0.2792  0.9403 -0.4068
 2731SOL     OW19825   3.804   4.431   8.017 -0.8519 -0.3488 -0.8007
 2731SOL    HW119826   3.810   4.425   7.921 -1.2427  4.2365 -1.1375
 2731SOL    HW219827   3.711   4.451   8.028 -0.1765  2.1036  0.4059
 2732SOL     OW19828   1.445   1.929   3.902  0.6918 -0.3065  0.2905
 2732SOL    HW119829   1.471   1.874   3.976 -0.0973 -1.2693 -0.1432
 2732SOL    HW219830   1.502   2.003   3.923  0.1424  0.6351 -1.5441
 2733SOL     OW19831   1.493   4.702  12.485  0.2806 -0.0296 -0.0754
 2733SOL    HW119832   1.400   4.717  12.499  0.7420  1.8124  1.0367
 2733SOL    HW219833   1.520   0.012  12.562 -1.0460 -0.7319  0.8461
 2734SOL     OW19834   1.506   3.482  13.017 -0.0159  0.2018 -0.0250
 2734SOL    HW119835   1.482   3.492  12.924 -1.8571  4.0539  0.8667
 2734SOL    HW219836   1.593   3.520  13.008  0.3180 -0.5015  0.2944
 2735SOL     OW19837   0.411   0.203   4.096  0.5285  0.1136  0.2175
 2735SOL    HW119838   0.325   0.177   4.062  1.6684 -2.7375 -0.4809
 2735SOL    HW219839   0.396   0.252   4.177  3.2517  1.4269 -0.0653
 2736SOL     OW19840   0.618   2.641   7.425  0.5942 -0.1604 -0.2221
 2736SOL    HW119841   0.587   2.714   7.478 -1.2344 -0.8414 -0.3701
 2736SOL    HW219842   0.694   2.612   7.476  0.5861  0.8986  0.3821
 2737SOL     OW19843   0.885   4.540   4.121 -0.4266 -0.4710 -0.5390
 2737SOL    HW119844   0.951   4.604   4.094  1.9696 -2.3787  0.7695
 2737SOL    HW219845   0.913   4.518   4.210 -0.9986  2.7112  0.4140
 2738SOL     OW19846   4.733   3.085   4.625 -0.2186 -0.4932  0.4267
 2738SOL    HW119847   4.680   3.006   4.632 -0.3687 -0.4593 -0.2873
 2738SOL    HW219848   4.678   3.138   4.568  0.7173 -0.9335 -0.9059
 2739SOL     OW19849   4.460   4.454   3.535 -0.3710  0.0839 -0.6120
 2739SOL    HW119850   4.391   4.426   3.597 -0.6472 -1.4431 -1.5932
 2739SOL    HW219851   4.422   4.538   3.511 -0.4337  0.3362  0.3564
 2740SOL     OW19852   1.625   3.747   7.339  0.5294 -0.2749  0.5731
 2740SOL    HW119853   1.610   3.654   7.326 -1.3797  0.0575  0.3280
 2740SOL    HW219854   1.593   3.765   7.427  1.6815 -0.1197  0.9577
 2741SOL     OW19855   1.254   3.822   5.859  0.1278 -0.0610  0.3433
 2741SOL    HW119856   1.313   3.876   5.806 -0.5200  1.6837  1.4078
 2741SOL    HW219857   1.196   3.785   5.792  0.0296  0.3801  0.1866
 2742SOL     OW19858   2.227   1.996  10.561  0.0295 -0.1764 -0.6346
 2742SOL    HW119859   2.138   1.967  10.583  0.1266 -0.6566 -0.8982
 2742SOL    HW219860   2.207   2.074  10.509 -0.2120 -0.5712 -1.1342
 2743SOL     OW19861   1.298   1.082   6.037 -0.3111 -0.3329 -0.6406
 2743SOL    HW119862   1.287   1.023   6.111  1.5385 -2.7494 -2.2934
 2743SOL    HW219863   1.270   1.170   6.064  3.6662  0.0826  2.1062
 2744SOL     OW19864   1.486   3.125   2.916 -0.2793 -0.1180 -0.3859
 2744SOL    HW119865   1.565   3.160   2.874 -1.8965  1.8981 -1.7011
 2744SOL    HW219866   1.475   3.050   2.857 -2.3625 -0.7931  0.8806
 2745SOL     OW19867   3.108   1.097   1.887 -0.3520 -0.1443  0.3469
 2745SOL    HW119868   3.170   1.163   1.920  1.1700 -1.1084 -0.5620
 2745SOL    HW219869   3.053   1.087   1.965  0.0617  0.2454  0.6891
 2746SOL     OW19870   2.993   0.915  11.202  0.3081  0.0566 -0.0090
 2746SOL    HW119871   2.930   0.986  11.216 -1.9446 -1.9716  0.2574
 2746SOL    HW219872   2.945   0.845  11.247 -1.6508  0.1210 -1.9667
 2747SOL     OW19873   0.511   3.853  13.383 -0.3138  0.5044  0.5190
 2747SOL    HW119874   0.445   3.785  13.367  0.4710  0.3503 -2.1022
 2747SOL    HW219875   0.492   3.869  13.476 -0.1271 -0.0726  0.6572
 2748SOL     OW19876   2.415   0.068   5.366 -0.6682 -0.1962  0.2875
 2748SOL    HW119877   2.447   0.133   5.429  0.8593 -0.3342 -0.3528
 2748SOL    HW219878   2.424   0.112   5.281 -0.5502 -0.0891  0.3554
 2749SOL     OW19879   0.236   3.695  11.418 -0.2436  0.4516 -0.0421
 2749SOL    HW119880   0.240   3.613  11.467  1.6749  2.2289  2.7783
 2749SOL    HW219881   0.170   3.669  11.353 -1.8267  1.8066  1.0057
 2750SOL     OW19882   3.600   1.162   9.319 -0.2181  0.4479  0.3309
 2750SOL    HW119883   3.638   1.217   9.388 -1.0403 -0.9352  1.9102
 2750SOL    HW219884   3.510   1.194   9.329 -0.8653 -1.0878 -0.6198
 2751SOL     OW19885   0.750   0.427   5.479 -0.0214  0.1551 -0.0549
 2751SOL    HW119886   0.730   0.342   5.518  0.9764  0.1304  0.3996
 2751SOL    HW219887   0.740   0.475   5.562 -1.9243 -2.3297  1.1525
 2752SOL     OW19888   0.901   3.105  13.286 -0.8914 -0.8206  0.4544
 2752SOL    HW119889   0.835   3.056  13.335  1.3805 -1.6755  2.7171
 2752SOL    HW219890   0.967   3.085  13.353 -1.7098  2.1771  2.1496
 2753SOL     OW19891   3.566   3.731   9.446  0.0254 -0.0634  0.2890
 2753SOL    HW119892   3.490   3.677   9.467 -0.5200  1.0680  1.1748
 2753SOL    HW219893   3.622   3.716   9.521 -1.8633 -0.6479  1.5864
 2754SOL     OW19894   2.290   2.520   1.830  0.1399 -0.1665  0.5968
 2754SOL    HW119895   2.339   2.576   1.769 -0.9959  0.5735  0.3763
 2754SOL    HW219896   2.358   2.458   1.856 -1.0903 -1.6686  0.2098
 2755SOL     OW19897   4.379   0.322  15.158 -0.3428 -0.1265  0.3941
 2755SOL    HW119898   4.353   0.263  15.088 -1.8687  0.4126  0.5166
 2755SOL    HW219899   4.297   0.341  15.204  0.6178  0.2644  1.9399
 2756SOL     OW19900   1.545   2.132   3.525  0.5326  0.0241  0.1579
 2756SOL    HW119901   1.547   2.140   3.430 -0.0987  0.1392  0.1583
 2756SOL    HW219902   1.636   2.104   3.539  1.1067  1.4107 -0.8508
 2757SOL     OW19903   1.046   2.226  10.376 -0.0481  0.1775 -0.5831
 2757SOL    HW119904   1.048   2.214  10.281  0.2102 -1.4024 -0.3821
 2757SOL    HW219905   1.139   2.207  10.389 -0.2592 -0.1624  0.4810
 2758SOL     OW19906   0.782   1.891   3.106 -0.1275 -0.3476  0.0275
 2758SOL    HW119907   0.750   1.971   3.145  1.6477  0.4148 -0.0634
 2758SOL    HW219908   0.837   1.859   3.178  1.2847 -0.7215 -1.2021
 2759SOL     OW19909   1.436   1.541  16.190  0.0551  0.0168 -0.1641
 2759SOL    HW119910   1.511   1.598  16.209  0.3661  0.4730 -2.6786
 2759SOL    HW219911   1.471   1.452  16.183  0.5868  0.2411 -0.4522
 2760SOL     OW19912   4.059   0.466  10.657 -0.3977  0.1889 -0.5541
 2760SOL    HW119913   4.030   0.528  10.723  0.6532 -0.6876  0.7349
 2760SOL    HW219914   4.012   0.391  10.693  1.5870 -1.3282 -1.1389
 2761SOL     OW19915   1.390   3.079  17.288  0.0492 -0.4513  0.5952
 2761SOL    HW119916   1.294   3.073  17.296  0.3014 -4.1064  0.7620
 2761SOL    HW219917   1.400   3.159  17.236 -1.4309  0.9295  2.4480
 2762SOL     OW19918   2.640   3.563   9.202 -0.2012 -0.2616  0.1180
 2762SOL    HW119919   2.657   3.638   9.144 -1.3703  0.0124  0.1391
 2762SOL    HW219920   2.631   3.493   9.137 -0.7073  1.7979 -2.0378
 2763SOL     OW19921   4.575   1.841   6.317  0.5370 -0.6170 -0.4284
 2763SOL    HW119922   4.581   1.826   6.222 -1.2814 -1.4611 -0.4181
 2763SOL    HW219923   4.483   1.866   6.324  0.5457 -1.3941  2.5362
 2764SOL     OW19924   0.800   0.808   4.502  0.8168  0.4399  0.1926
 2764SOL    HW119925   0.774   0.825   4.412  0.2606 -2.7218 -0.2451
 2764SOL    HW219926   0.882   0.759   4.490  0.8757  1.2857 -2.6883
 2765SOL     OW19927   3.274   1.749   1.061 -0.2243  0.4554 -0.2246
 2765SOL    HW119928   3.189   1.711   1.041  0.4276 -0.1886 -1.7652
 2765SOL    HW219929   3.279   1.818   0.995  1.5498 -1.8130 -2.4705
 2766SOL     OW19930   0.185   2.003  16.444 -0.2153 -0.9015 -0.2717
 2766SOL    HW119931   0.233   2.085  16.445  0.8093 -1.5043  0.1802
 2766SOL    HW219932   0.248   1.930  16.442  2.6329  1.6168 -2.1534
 2767SOL     OW19933   3.295   1.363   6.405  0.0076  0.0096  0.2244
 2767SOL    HW119934   3.343   1.438   6.441 -1.2864  0.9989 -0.1309
 2767SOL    HW219935   3.254   1.325   6.482 -0.1977 -0.5557 -0.1696
 2768SOL     OW19936   1.504   1.156   4.047 -0.4545 -0.6831  0.4595
 2768SOL    HW119937   1.570   1.223   4.065  0.1845 -1.3107  0.4630
 2768SOL    HW219938   1.458   1.158   4.131 -4.7400 -0.6034 -1.8970
 2769SOL     OW19939   0.844   3.383   3.159  0.3264  0.3104 -0.3052
 2769SOL    HW119940   0.867   3.475   3.149  0.8343  0.3992  1.6413
 2769SOL    HW219941   0.822   3.370   3.067  2.3589  1.8605 -0.9940
 2770SOL     OW19942   1.623   0.649   7.164  0.3639  0.0845 -0.7257
 2770SOL    HW119943   1.682   0.723   7.155  1.5302 -0.5847  1.3642
 2770SOL    HW219944   1.553   0.675   7.225  0.8376  1.1001 -0.6198
 2771SOL     OW19945   3.908   0.312  15.035 -0.1534 -0.3001  0.8235
 2771SOL    HW119946   3.933   0.402  15.013  1.1747 -1.1506 -1.2077
 2771SOL    HW219947   3.844   0.301  14.965 -0.1927  0.9429  0.6754
 2772SOL     OW19948   4.500   1.968  12.419  0.4318  0.6814  0.1801
 2772SOL    HW119949   4.441   1.900  12.388  2.1795 -0.0950 -1.4306
 2772SOL    HW219950   4.588   1.931  12.420  0.4068  0.6224  0.1793
 2773SOL     OW19951   1.243   1.465  14.618 -0.4152 -0.0147  0.3461
 2773SOL    HW119952   1.188   1.521  14.562 -0.3916  1.2246  1.5513
 2773SOL    HW219953   1.176   1.399  14.634  0.5132 -0.7525  1.1482
 2774SOL     OW19954   1.297   0.997   3.165 -0.1465  0.2691  0.2503
 2774SOL    HW119955   1.354   0.927   3.135 -0.3873  0.3595 -0.4224
 2774SOL    HW219956   1.334   1.076   3.125  0.1076 -0.2765 -0.5788
 2775SOL     OW19957   4.658   4.340   2.634  0.2520 -0.0925 -0.2198
 2775SOL    HW119958   4.691   4.301   2.553  1.3578 -0.1584  0.2637
 2775SOL    HW219959   4.571   4.307   2.655  1.0082 -1.0773  1.3710
 2776SOL     OW19960   0.318   3.914   2.130 -0.6466  0.0241 -0.2513
 2776SOL    HW119961   0.403   3.929   2.089 -1.6223 -1.6405 -2.8590
 2776SOL    HW219962   0.346   3.869   2.210  0.9825  1.9348  0.2347
 2777SOL     OW19963   1.149   3.806   0.896 -0.1518 -0.9795 -0.1252
 2777SOL    HW119964   1.156   3.715   0.922  0.6025 -1.0523 -0.5912
 2777SOL    HW219965   1.054   3.805   0.887 -0.1592  0.0620 -0.2165
 2778SOL     OW19966   2.570   0.358   1.126 -0.4749  0.2668  0.2595
 2778SOL    HW119967   2.638   0.407   1.172 -2.1686  0.8460  2.1576
 2778SOL    HW219968   2.513   0.430   1.101  1.9754  2.0062 -0.2595
 2779SOL     OW19969   2.290   1.082  15.045  0.2657 -0.4377  0.2078
 2779SOL    HW119970   2.236   1.087  15.124  0.8391 -0.8605  0.6236
 2779SOL    HW219971   2.221   1.051  14.987  0.3827 -0.4191  0.0598
 2780SOL     OW19972   1.284   0.061   8.191 -0.1343 -0.2759 -0.2626
 2780SOL    HW119973   1.304   0.155   8.198  1.3488 -0.5807 -0.2710
 2780SOL    HW219974   1.239   0.045   8.274  0.1688  1.4616  0.2308
 2781SOL     OW19975   2.345   2.534   4.406  0.3814 -0.3529 -0.1909
 2781SOL    HW119976   2.308   2.620   4.385 -2.1344 -1.1773  0.8409
 2781SOL    HW219977   2.306   2.514   4.491  2.3648  1.0362  1.0431
 2782SOL     OW19978   3.730   0.730   8.143 -0.5168 -0.1049 -0.2985
 2782SOL    HW119979   3.660   0.668   8.165 -1.8644  0.9359 -1.5921
 2782SOL    HW219980   3.794   0.716   8.212  1.0676  0.6706 -1.6197
 2783SOL     OW19981   3.317   3.932  10.652  0.5459 -0.5585 -0.0322
 2783SOL    HW119982   3.292   3.990  10.724  3.6476 -0.2319  0.7971
 2783SOL    HW219983   3.364   3.997  10.599 -1.3789  0.3896 -0.5865
 2784SOL     OW19984   1.156   2.892  16.436  0.1674 -0.1926 -0.1946
 2784SOL    HW119985   1.062   2.909  16.432  0.0055 -0.8032  0.9927
 2784SOL    HW219986   1.148   2.819  16.498  1.5584 -0.5189 -0.3972
 2785SOL     OW19987   3.175   2.619   8.535  0.4031 -0.2751  0.1150
 2785SOL    HW119988   3.118   2.579   8.601 -0.2134  2.3453  1.1698
 2785SOL    HW219989   3.125   2.592   8.457  0.9946  1.4849 -0.8845
 2786SOL     OW19990   2.144   0.614   9.180  0.3541  0.1790 -0.3396
 2786SOL    HW119991   2.138   0.521   9.202 -1.5214  0.1446 -1.0348
 2786SOL    HW219992   2.054   0.632   9.206 -0.0769 -3.9088  0.9017
 2787SOL     OW19993   0.303   0.614   6.109  0.7432  0.0285  0.2585
 2787SOL    HW119994   0.289   0.607   6.014 -1.0466 -0.2551  0.5464
 2787SOL    HW219995   0.226   0.667   6.130  0.6527  0.0342 -0.0925
 2788SOL     OW19996   2.222   0.242   8.928  0.2085  0.3550  0.4168
 2788SOL    HW119997   2.149   0.203   8.880 -0.9801  2.4976  0.4873
 2788SOL    HW219998   2.265   0.298   8.862  2.2959 -2.6910 -0.8397
 2789SOL     OW19999   2.917   2.384   0.816  0.0945 -0.7287 -0.1560
 2789SOL    HW120000   2.964   2.320   0.870 -0.5221 -2.0534 -1.1921
 2789SOL    HW220001   2.825   2.378   0.839 -0.2361  2.4276 -0.6500
 2790SOL     OW20002   4.219   0.410   6.415  0.3204 -0.2306 -0.3155
 2790SOL    HW120003   4.280   0.472   6.455 -1.8759  0.2849  2.2312
 2790SOL    HW220004   4.231   0.443   6.326  1.5655 -1.4645 -0.6020
 2791SOL     OW20005   3.018   2.030   3.715 -0.7475 -0.5915 -0.2250
 2791SOL    HW120006   3.003   1.943   3.678  1.1389 -0.1262 -2.0502
 2791SOL    HW220007   3.093   2.015   3.773 -1.6198 -1.6025  0.6589
 2792SOL     OW20008   2.254   3.526   9.653  0.5111 -0.6841  0.0002
 2792SOL    HW120009   2.191   3.587   9.616  1.0155 -0.7489 -0.9810
 2792SOL    HW220010   2.278   3.479   9.573 -1.7819 -0.0156 -1.0558
 2793SOL     OW20011   0.760   0.227   8.397 -0.4291 -0.6149  0.8198
 2793SOL    HW120012   0.847   0.189   8.410 -0.9725 -1.1084  3.0111
 2793SOL    HW220013   0.748   0.285   8.472  1.4412  0.2969  0.4072
 2794SOL     OW20014   2.635   3.853   7.423 -0.5940 -0.0452  0.1387
 2794SOL    HW120015   2.704   3.918   7.424 -0.2520 -0.4170  0.8171
 2794SOL    HW220016   2.592   3.874   7.340 -1.5903 -1.0874  0.3777
 2795SOL     OW20017   3.088   0.727  14.921  0.2574  0.3635  0.2375
 2795SOL    HW120018   3.143   0.685  14.855 -0.4703 -1.5332  0.8394
 2795SOL    HW220019   3.002   0.687  14.909  1.0430 -1.9395  2.2623
 2796SOL     OW20020   2.954   4.256   5.996  0.2940  0.5887  0.0552
 2796SOL    HW120021   3.023   4.286   5.937  1.6065  0.4097  1.4833
 2796SOL    HW220022   2.884   4.318   5.975 -0.9627 -1.1256 -0.8031
 2797SOL     OW20023   0.811   3.851   9.011 -0.3235  0.5791  0.5769
 2797SOL    HW120024   0.877   3.865   8.943 -1.3398 -0.0742 -0.5463
 2797SOL    HW220025   0.764   3.778   8.970  2.0579  0.3892 -1.7949
 2798SOL     OW20026   3.362   3.264   7.641 -0.3427 -0.0762 -0.1478
 2798SOL    HW120027   3.310   3.342   7.623  0.2053  0.0425 -1.2198
 2798SOL    HW220028   3.448   3.289   7.607 -0.2856  0.5007  0.4226
 2799SOL     OW20029   4.493   0.202   6.344  0.3293  0.1042 -0.3973
 2799SOL    HW120030   4.503   0.223   6.251  0.1662 -2.6838 -1.0569
 2799SOL    HW220031   4.408   0.238   6.371  1.5335  1.8052  1.0682
 2800SOL     OW20032   0.626   1.050   4.988 -0.2042 -0.1000  0.0208
 2800SOL    HW120033   0.676   1.132   4.984  0.7583 -0.6155  1.4230
 2800SOL    HW220034   0.602   1.043   4.896  1.4674  0.1886 -0.4453
 2801SOL     OW20035   4.473   2.990  11.963 -0.2811 -0.0495  0.5775
 2801SOL    HW120036   4.472   3.054  12.033 -0.7046  1.2086 -0.5818
 2801SOL    HW220037   4.389   3.013  11.923  0.2937 -0.0393 -0.6317
 2802SOL     OW20038   2.507   3.663  16.476  0.0111  0.6472  0.2097
 2802SOL    HW120039   2.430   3.606  16.478  0.0722  0.4598 -2.1045
 2802SOL    HW220040   2.465   3.738  16.518 -2.0265  0.8641 -2.2039
 2803SOL     OW20041   2.727   2.817   2.045 -0.1056 -0.4469 -0.4476
 2803SOL    HW120042   2.733   2.872   1.967  0.2199  0.3790  0.1616
 2803SOL    HW220043   2.787   2.857   2.107 -0.0430  0.5007 -1.1212
 2804SOL     OW20044   0.473   4.188  14.790  0.0670 -0.4394 -0.5568
 2804SOL    HW120045   0.524   4.262  14.755 -1.6715  1.4179  0.8304
 2804SOL    HW220046   0.490   4.206  14.883  2.2311  0.6018 -1.1428
 2805SOL     OW20047   2.246   4.235   9.751 -0.2216  0.0020  0.1911
 2805SOL    HW120048   2.218   4.212   9.663  1.0287  0.0103 -0.2062
 2805SOL    HW220049   2.339   4.235   9.727  0.5939 -4.5351  3.3262
 2806SOL     OW20050   3.640   3.229   5.390 -0.0695 -0.3771  0.1608
 2806SOL    HW120051   3.662   3.285   5.316  0.0531 -0.6975 -0.0447
 2806SOL    HW220052   3.710   3.242   5.454 -1.6564 -0.6257  1.9671
 2807SOL     OW20053   1.553   3.639   2.921 -0.7374  1.0182 -0.0393
 2807SOL    HW120054   1.466   3.612   2.893  0.1690 -1.8940 -0.1097
 2807SOL    HW220055   1.579   3.563   2.973  0.5694  2.3120  1.2007
 2808SOL     OW20056   3.354   4.566  16.142 -0.7691  0.4000  0.5221
 2808SOL    HW120057   3.364   4.653  16.181 -0.8601  0.6379  0.0052
 2808SOL    HW220058   3.265   4.575  16.108 -0.5529 -0.7455 -0.3398
 2809SOL     OW20059   3.630   3.381   0.592 -0.0183  0.0670 -0.0200
 2809SOL    HW120060   3.628   3.469   0.553  1.3241  0.9287  1.8438
 2809SOL    HW220061   3.581   3.397   0.673 -2.1220 -2.8095 -0.7474
 2810SOL     OW20062   3.292   1.730  15.838 -0.3235  0.2111 -0.3072
 2810SOL    HW120063   3.301   1.777  15.921 -1.9922  1.3364 -0.7750
 2810SOL    HW220064   3.211   1.768  15.806 -0.6975  0.6720  1.1685
 2811SOL     OW20065   4.737   0.142  16.263  0.3398 -0.0045 -0.5447
 2811SOL    HW120066   0.027   0.155  16.353 -0.7180 -0.7186 -0.0891
 2811SOL    HW220067   4.729   0.232  16.233 -0.5967 -0.5929 -2.0334
 2812SOL     OW20068   2.336   2.801   2.380 -0.0107  0.4274  0.1654
 2812SOL    HW120069   2.379   2.810   2.295  1.1014 -1.1066  0.5467
 2812SOL    HW220070   2.328   2.885   2.424  0.5106  0.2723  0.5533
 2813SOL     OW20071   1.927   3.216   5.768  0.5070 -0.4736  0.5517
 2813SOL    HW120072   1.958   3.228   5.678  0.5854 -0.2826  0.6034
 2813SOL    HW220073   1.909   3.305   5.796 -2.3384 -0.3310 -1.8062
 2814SOL     OW20074   1.409   0.430  16.172 -0.6016 -0.0217  0.3393
 2814SOL    HW120075   1.423   0.497  16.105  0.8549  1.7864  2.4391
 2814SOL    HW220076   1.357   0.359  16.136  0.2670 -0.6231  0.2722
 2815SOL     OW20077   1.231   2.856  10.776  0.0122  0.1521  0.6084
 2815SOL    HW120078   1.230   2.839  10.870 -0.8954  0.1035  0.5935
 2815SOL    HW220079   1.147   2.822  10.745 -0.1314 -0.1137  1.2924
 2816SOL     OW20080   0.143   3.350  13.024 -0.0527 -0.0179 -0.2938
 2816SOL    HW120081   0.063   3.319  13.066 -0.3832  0.6502 -0.4382
 2816SOL    HW220082   0.206   3.278  13.034  0.3721  0.4010  0.0059
 2817SOL     OW20083   0.795   1.767   4.931  0.7895 -0.0739  0.3431
 2817SOL    HW120084   0.724   1.807   4.881 -0.6475 -1.1811  1.4964
 2817SOL    HW220085   0.854   1.842   4.939 -0.4030  1.0155 -1.1622
 2818SOL     OW20086   2.759   0.560   2.205 -0.3435  0.1847 -0.1006
 2818SOL    HW120087   2.719   0.522   2.283  4.0366 -0.1298  2.0002
 2818SOL    HW220088   2.852   0.555   2.229 -0.3552 -1.0130 -0.3464
 2819SOL     OW20089   1.465   2.681   2.951 -0.5983  0.1447 -0.0082
 2819SOL    HW120090   1.442   2.691   3.043 -1.0038  2.0793 -0.3354
 2819SOL    HW220091   1.528   2.753   2.945  0.7036 -0.9625  0.3555
 2820SOL     OW20092   0.732   3.195   6.610  0.3722  0.1642  0.5376
 2820SOL    HW120093   0.723   3.163   6.520 -0.0147  0.2052  0.5631
 2820SOL    HW220094   0.825   3.212   6.624  0.4540  0.1915 -0.0409
 2821SOL     OW20095   1.563   2.272   1.959  0.2994  0.1828  0.3633
 2821SOL    HW120096   1.648   2.231   1.974  0.6789  1.1663  0.8366
 2821SOL    HW220097   1.518   2.191   1.983  4.1781 -2.1290 -0.1200
 2822SOL     OW20098   3.384   2.558   5.618  0.2446 -0.7534  0.0435
 2822SOL    HW120099   3.459   2.557   5.679 -0.3994 -1.5879  0.8206
 2822SOL    HW220100   3.314   2.520   5.671  1.4034 -0.5846  1.7146
 2823SOL     OW20101   2.899   2.784   7.135 -0.3875  0.7712  0.0419
 2823SOL    HW120102   2.946   2.829   7.065  1.0717  0.3184  0.7505
 2823SOL    HW220103   2.952   2.706   7.146 -1.9688 -0.1844  0.9277
 2824SOL     OW20104   4.274   4.672   4.360 -0.1026 -0.2790  0.5148
 2824SOL    HW120105   4.235   4.738   4.418  1.5954 -0.9544  2.4365
 2824SOL    HW220106   4.355   4.673   4.411  0.5970  0.5251 -0.6239
 2825SOL     OW20107   2.306   2.513   9.569  0.0183 -0.9031 -0.1010
 2825SOL    HW120108   2.336   2.534   9.658 -1.1365  2.1514 -0.4260
 2825SOL    HW220109   2.382   2.463   9.540 -0.6207 -2.1123  0.3069
 2826SOL     OW20110   0.093   3.170   7.756  0.0981 -0.6112 -0.9819
 2826SOL    HW120111   0.141   3.128   7.827  1.2338  0.9543 -0.8119
 2826SOL    HW220112   0.046   3.093   7.724  1.2990 -0.8296 -2.2588
 2827SOL     OW20113   3.816   2.589  15.250  0.1975  0.1407 -0.2446
 2827SOL    HW120114   3.909   2.613  15.247  0.3013 -0.3912 -1.0976
 2827SOL    HW220115   3.779   2.653  15.189  1.8145  0.6933 -0.6444
 2828SOL     OW20116   0.266   1.177  13.791  0.1554 -0.0774  0.4025
 2828SOL    HW120117   0.187   1.164  13.739  0.0884 -2.5078  1.1246
 2828SOL    HW220118   0.271   1.273  13.799  2.9858 -0.4156  2.7835
 2829SOL     OW20119   0.257   4.571   9.517 -0.5891 -0.1146 -0.4479
 2829SOL    HW120120   0.214   4.488   9.536  0.8257 -0.4957  1.1453
 2829SOL    HW220121   0.244   4.579   9.423  1.7420 -0.2171 -0.7677
 2830SOL     OW20122   1.174   0.110   2.261 -0.0590  0.3222  0.1173
 2830SOL    HW120123   1.083   0.104   2.292 -0.2451 -1.7904 -0.7913
 2830SOL    HW220124   1.220   0.124   2.344 -1.0506  0.2541  0.6874
 2831SOL     OW20125   1.917   3.739   6.875  0.0949 -0.8525  0.1253
 2831SOL    HW120126   1.868   3.666   6.839  0.7453 -0.9597 -0.5348
 2831SOL    HW220127   1.846   3.803   6.872 -1.5388 -2.4248  4.9490
 2832SOL     OW20128   1.235   2.610  16.926 -0.1882 -0.3703  0.0153
 2832SOL    HW120129   1.296   2.566  16.986 -0.0299 -0.9312 -0.5551
 2832SOL    HW220130   1.293   2.661  16.870 -1.6900  1.0939 -0.1924
 2833SOL     OW20131   3.059   2.413   8.756 -0.3840  0.5017 -0.3384
 2833SOL    HW120132   3.114   2.392   8.832 -2.2174  2.9860  1.6743
 2833SOL    HW220133   3.061   2.328   8.712 -1.3523  0.7228 -0.8007
 2834SOL     OW20134   3.974   4.125   6.626 -0.3344  0.6338  0.1572
 2834SOL    HW120135   3.967   4.059   6.558  1.7737 -0.2819  0.8413
 2834SOL    HW220136   3.950   4.068   6.700 -0.7978 -1.6270 -1.7561
 2835SOL     OW20137   0.352   1.214   5.046  0.1080 -0.8788  0.1799
 2835SOL    HW120138   0.304   1.229   5.127 -0.0213 -1.8892  0.2949
 2835SOL    HW220139   0.434   1.264   5.042 -0.6940  0.3748 -0.4800
 2836SOL     OW20140   0.985   0.074   0.466 -0.9218  0.1458 -0.2265
 2836SOL    HW120141   1.010   4.730   0.428 -2.1113  0.0770 -0.8560
 2836SOL    HW220142   0.899   0.065   0.508 -1.0453 -0.0926 -0.5286
 2837SOL     OW20143   0.732   1.117   8.944  0.1066  0.5562  0.0326
 2837SOL    HW120144   0.661   1.077   8.994 -0.4714  0.6891 -0.6875
 2837SOL    HW220145   0.777   1.046   8.898 -0.8410 -1.1694  1.7979
 2838SOL     OW20146   4.388   3.651  12.438  0.2603  0.0586  0.3035
 2838SOL    HW120147   4.468   3.691  12.404 -0.8646  0.3410 -1.9859
 2838SOL    HW220148   4.417   3.562  12.417 -1.3844 -0.6170  0.8651
 2839SOL     OW20149   0.703   1.738  16.165  0.3179 -0.9087 -0.6163
 2839SOL    HW120150   0.772   1.673  16.181  0.6636 -0.1156  1.1212
 2839SOL    HW220151   0.703   1.754  16.071  0.2070  1.1618 -0.2553
 2840SOL     OW20152   3.084   3.824   9.901  0.0040 -0.2481 -0.0237
 2840SOL    HW120153   3.151   3.839   9.835  0.2405 -0.2308  0.2206
 2840SOL    HW220154   3.148   3.805   9.969 -0.2783  1.3004  0.6881
 2841SOL     OW20155   4.078   2.726  15.284 -0.4340 -0.2349  0.6720
 2841SOL    HW120156   4.169   2.746  15.306 -0.2661 -1.7456  1.3738
 2841SOL    HW220157   4.032   2.809  15.291  0.5166  0.5067 -1.7028
 2842SOL     OW20158   3.422   3.078   4.476 -0.5409 -0.2554 -0.3256
 2842SOL    HW120159   3.332   3.092   4.506  0.1071  1.8941  0.6000
 2842SOL    HW220160   3.462   3.044   4.556 -0.6812  0.0176 -0.1420
 2843SOL     OW20161   4.207   2.577  16.951 -1.1364 -0.3417  0.0960
 2843SOL    HW120162   4.286   2.567  16.898  0.0257 -1.5594  2.0469
 2843SOL    HW220163   4.221   2.668  16.977  0.4842  0.1551 -2.4849
 2844SOL     OW20164   0.968   3.127   9.583  0.3506  0.2897 -0.5482
 2844SOL    HW120165   0.912   3.193   9.624 -0.4857 -0.3807 -0.6141
 2844SOL    HW220166   1.057   3.151   9.609  0.2581 -0.0688  0.0938
 2845SOL     OW20167   0.783   1.472  17.755 -0.0342 -0.3587 -0.2892
 2845SOL    HW120168   0.689   1.458  17.741 -0.6521 -0.1207  3.3943
 2845SOL    HW220169   0.791   1.490   0.091 -1.6187 -2.7497  0.3315
 2846SOL     OW20170   1.910   3.091   5.287 -0.2368  0.4783  0.5116
 2846SOL    HW120171   1.828   3.048   5.261 -0.4632  0.8097  0.6790
 2846SOL    HW220172   1.961   3.056   5.214  0.8021  2.9500  0.0420
 2847SOL     OW20173   1.733   3.414   6.098  0.2507  0.0959 -0.0038
 2847SOL    HW120174   1.764   3.436   6.010 -0.1938 -1.3429 -0.5242
 2847SOL    HW220175   1.820   3.392   6.131 -0.1018 -0.5089  0.5098
 2848SOL     OW20176   3.044   3.666   3.269 -0.5633  1.0308  0.4170
 2848SOL    HW120177   3.019   3.591   3.323 -0.3276 -0.5346 -1.6440
 2848SOL    HW220178   3.134   3.669   3.300  0.3296 -1.3008 -1.9061
 2849SOL     OW20179   1.237   3.257   8.265 -0.0434 -1.0312  0.8046
 2849SOL    HW120180   1.311   3.240   8.207 -0.1115 -0.2534  0.4975
 2849SOL    HW220181   1.179   3.321   8.225  0.0092 -1.0732  0.6624
 2850SOL     OW20182   3.075   1.942   7.640 -0.0148 -0.2816  0.0422
 2850SOL    HW120183   2.994   1.928   7.689 -0.2838  0.5887 -0.1487
 2850SOL    HW220184   3.129   1.980   7.710  2.2681 -0.0721 -1.8199
 2851SOL     OW20185   4.423   0.130   8.439 -0.1838 -0.2251 -0.6548
 2851SOL    HW120186   4.442   0.124   8.345  1.0056  0.2999 -0.4493
 2851SOL    HW220187   4.333   0.099   8.432  0.0324 -1.1549  0.6784
 2852SOL     OW20188   1.234   2.852   7.842  0.3633  0.7650  0.2379
 2852SOL    HW120189   1.301   2.805   7.792  0.0544  0.1248  0.4202
 2852SOL    HW220190   1.173   2.781   7.864  0.4396  1.3096  2.2586
 2853SOL     OW20191   0.115   0.028   2.436  0.3963  0.6145  0.0464
 2853SOL    HW120192   0.094   4.676   2.452  0.3997 -0.2176 -4.7615
 2853SOL    HW220193   0.187   0.044   2.496  0.9029 -0.2099 -0.3466
 2854SOL     OW20194   0.779   1.116   3.362  0.0366 -0.1152 -0.3272
 2854SOL    HW120195   0.722   1.161   3.299  0.2443  0.2424 -0.2575
 2854SOL    HW220196   0.855   1.170   3.339 -0.0968 -0.1248 -0.7897
 2855SOL     OW20197   1.649   1.085   5.559 -0.6001  0.1674 -0.2015
 2855SOL    HW120198   1.593   1.071   5.635 -1.2886  1.1280 -0.5296
 2855SOL    HW220199   1.588   1.122   5.495 -3.5826  0.1450  2.6816
 2856SOL     OW20200   1.593   1.219   0.208  0.5113 -0.4783 -0.2443
 2856SOL    HW120201   1.624   1.187   0.123 -0.2012  0.7577 -0.9638
 2856SOL    HW220202   1.510   1.176   0.228  0.1211  0.6201  0.4591
 2857SOL     OW20203   3.954   2.603   4.612  0.0186 -0.8225  0.0635
 2857SOL    HW120204   3.957   2.535   4.544  0.4807 -1.6381  0.9097
 2857SOL    HW220205   4.048   2.610   4.631  0.7039 -1.3486 -3.1259
 2858SOL     OW20206   1.082   3.981   9.592  0.0923 -0.1398  0.0453
 2858SOL    HW120207   1.109   4.073   9.592 -2.0362  0.4933  2.5795
 2858SOL    HW220208   1.138   3.947   9.662 -0.3272  0.1607  0.5287
 2859SOL     OW20209   4.366   3.322   7.129 -0.0112  0.1458  0.1957
 2859SOL    HW120210   4.360   3.413   7.160  0.1527 -0.6478  2.5881
 2859SOL    HW220211   4.460   3.306   7.122  0.0120  0.5891 -0.5316
 2860SOL     OW20212   0.755   1.009   1.916 -0.0130 -0.0974 -0.0988
 2860SOL    HW120213   0.841   1.039   1.889  0.9511 -0.6023  2.3975
 2860SOL    HW220214   0.772   0.920   1.948  1.3467 -0.6328 -2.3113
 2861SOL     OW20215   2.960   2.973  14.903 -0.1816  0.3680  0.4394
 2861SOL    HW120216   3.009   2.935  14.975  0.0642  0.5401  0.3617
 2861SOL    HW220217   2.884   3.010  14.948 -0.7772 -1.6302  1.0912
 2862SOL     OW20218   1.732   3.963   6.838 -0.4510  0.0316  0.2705
 2862SOL    HW120219   1.638   3.975   6.851 -0.5296 -0.6952  0.4009
 2862SOL    HW220220   1.764   4.008   6.916  3.0030  1.2547 -1.8724
 2863SOL     OW20221   2.862   0.284   7.680 -0.0320 -0.2414  0.1073
 2863SOL    HW120222   2.923   0.292   7.607  0.9230 -2.2159  0.6832
 2863SOL    HW220223   2.873   0.197   7.717  1.1261 -0.3887 -0.5889
 2864SOL     OW20224   2.352   3.051   1.995 -0.0084 -0.0258  0.3445
 2864SOL    HW120225   2.380   3.092   1.914 -1.5033 -0.8518 -0.5811
 2864SOL    HW220226   2.290   2.981   1.975  3.4937 -2.9644 -0.3502
 2865SOL     OW20227   3.454   2.983  13.531 -0.0598  0.2602 -0.1035
 2865SOL    HW120228   3.439   2.998  13.625  0.8407  1.6294 -0.1816
 2865SOL    HW220229   3.373   2.944  13.497  0.0018  1.3968 -1.5467
 2866SOL     OW20230   0.746   4.520  17.610  0.2165  0.2747  0.5101
 2866SOL    HW120231   0.823   4.570  17.583 -1.3743  0.7254 -3.0879
 2866SOL    HW220232   0.683   4.559  17.550 -2.4239  0.4197  3.3541
 2867SOL     OW20233   3.009   4.332   5.311 -0.2564 -0.4009 -0.1090
 2867SOL    HW120234   3.017   4.293   5.398  1.6408 -0.0093 -0.0997
 2867SOL    HW220235   3.023   4.424   5.333 -0.8522 -0.0331 -1.2617
 2868SOL     OW20236   2.856   0.786   6.796 -0.9897 -0.1491  0.1090
 2868SOL    HW120237   2.764   0.762   6.780 -1.2293  1.3704 -0.7873
 2868SOL    HW220238   2.880   0.727   6.868  0.4283  0.0441 -0.2224
 2869SOL     OW20239   0.178   0.723  13.021  0.2445  0.6566 -0.1433
 2869SOL    HW120240   0.158   0.722  13.114  0.2921 -0.9818 -0.1490
 2869SOL    HW220241   0.223   0.639  13.016 -1.5186 -0.3635  1.1035
 2870SOL     OW20242   2.577   4.307   9.426  0.3936  0.1234 -0.2742
 2870SOL    HW120243   2.649   4.272   9.373 -0.1453 -0.9041 -0.3238
 2870SOL    HW220244   2.589   4.256   9.505 -1.7621 -2.5348 -1.6557
 2871SOL     OW20245   4.463   4.706   2.394 -0.0040  0.1821  0.1206
 2871SOL    HW120246   4.516   0.040   2.423  0.5370 -0.7442  1.4835
 2871SOL    HW220247   4.439   4.728   2.304  0.0123  1.2591  0.3861
 2872SOL     OW20248   1.413   2.516   7.363  0.5468 -0.1599 -0.2399
 2872SOL    HW120249   1.328   2.509   7.407 -0.1917  3.2050 -1.1388
 2872SOL    HW220250   1.375   2.517   7.275 -1.2885 -2.1338  0.5100
 2873SOL     OW20251   0.339   0.851  11.306 -0.2790 -0.3449  0.0707
 2873SOL    HW120252   0.419   0.811  11.272 -0.5068  0.3207 -1.2354
 2873SOL    HW220253   0.374   0.910  11.373  0.2405 -1.7249  1.0220
 2874SOL     OW20254   3.604   3.433   5.222  0.6781 -0.3325 -0.3559
 2874SOL    HW120255   3.596   3.391   5.137  0.4657  0.0659 -0.5355
 2874SOL    HW220256   3.659   3.509   5.202  1.4699 -0.8363 -0.1163
 2875SOL     OW20257   0.941   2.323   3.964 -0.2066  0.2326  0.4557
 2875SOL    HW120258   0.947   2.238   3.921 -0.7509  0.3814  0.0882
 2875SOL    HW220259   1.020   2.366   3.931  0.3131 -2.3917 -1.7391
 2876SOL     OW20260   4.088   3.652   7.546  0.0259  0.1400  0.2212
 2876SOL    HW120261   4.120   3.572   7.588 -0.7629  0.8013  2.0724
 2876SOL    HW220262   4.111   3.710   7.619  3.3368 -1.9411  0.8255
 2877SOL     OW20263   1.525   0.859   2.435  0.5696  0.1320 -0.3735
 2877SOL    HW120264   1.507   0.953   2.431  2.0982  0.4548  0.5322
 2877SOL    HW220265   1.591   0.861   2.504 -1.4365  0.5652  1.5759
 2878SOL     OW20266   1.604   0.605   1.633  0.3743 -0.2220  0.6582
 2878SOL    HW120267   1.619   0.580   1.724  0.4890 -2.2801  0.0734
 2878SOL    HW220268   1.645   0.536   1.581  2.7336  2.2707 -0.7632
 2879SOL     OW20269   4.587   4.463   6.479  0.3790  0.0500 -0.2335
 2879SOL    HW120270   4.554   4.544   6.440  1.0142  0.1057 -0.6536
 2879SOL    HW220271   4.623   4.489   6.564 -0.2725 -0.0678  0.0829
 2880SOL     OW20272   3.520   1.911   1.680 -0.2895 -0.0838  0.2951
 2880SOL    HW120273   3.559   1.913   1.592 -1.2866  1.0608 -0.1192
 2880SOL    HW220274   3.536   1.819   1.701  0.7834  0.6127  2.5728
 2881SOL     OW20275   0.111   0.815  14.730 -0.1442 -0.1083 -0.1685
 2881SOL    HW120276   0.092   0.731  14.771 -0.1922  0.3577  0.7648
 2881SOL    HW220277   0.078   0.880  14.793  2.6124  0.9216  0.2136
 2882SOL     OW20278   4.104   3.476  11.865 -0.4184 -0.0333 -0.8744
 2882SOL    HW120279   4.167   3.497  11.934 -0.5168 -0.6359 -0.6011
 2882SOL    HW220280   4.152   3.426  11.799 -0.1264 -0.8742 -0.0240
 2883SOL     OW20281   3.703   3.642   6.656  0.2324 -0.2338  0.2996
 2883SOL    HW120282   3.701   3.734   6.632 -1.9556 -0.6200 -1.0228
 2883SOL    HW220283   3.648   3.605   6.586 -2.0773  0.4720  1.7438
 2884SOL     OW20284   1.150   3.056   5.292 -0.1485 -0.0381  0.1695
 2884SOL    HW120285   1.160   2.967   5.258  0.1137  0.0209  0.0992
 2884SOL    HW220286   1.215   3.111   5.249 -0.5018  0.2058 -0.0503
 2885SOL     OW20287   0.425   3.121  11.443  0.0297 -0.2512  0.3076
 2885SOL    HW120288   0.479   3.065  11.387 -0.3491  1.5698 -1.8879
 2885SOL    HW220289   0.374   3.053  11.488 -0.6526  1.2901  1.8323
 2886SOL     OW20290   1.147   3.286   2.560 -0.2345 -0.5485  0.0151
 2886SOL    HW120291   1.156   3.244   2.646  0.2541 -0.0010  0.2352
 2886SOL    HW220292   1.176   3.376   2.576  1.8706 -1.0927 -0.7742
 2887SOL     OW20293   3.388   0.509   4.805 -0.0941 -0.0003 -0.3648
 2887SOL    HW120294   3.409   0.600   4.784 -1.4964  0.3320 -0.3279
 2887SOL    HW220295   3.426   0.456   4.736 -0.8584  1.5365 -1.9676
 2888SOL     OW20296   3.789   1.036   6.161 -0.6363 -0.1975 -0.1630
 2888SOL    HW120297   3.727   1.097   6.122 -0.4841 -1.5039 -2.4505
 2888SOL    HW220298   3.768   1.027   6.254 -0.0511 -0.5654 -0.0621
 2889SOL     OW20299   1.546   1.188   5.257  0.0732 -0.2294 -0.2387
 2889SOL    HW120300   1.566   1.281   5.246  2.0101 -0.4870  1.1683
 2889SOL    HW220301   1.629   1.152   5.225  0.5584  0.9858 -0.3405
 2890SOL     OW20302   1.905   2.027  16.477 -0.5733  0.1890  0.1089
 2890SOL    HW120303   1.965   2.100  16.497 -2.8071  1.3341  2.5335
 2890SOL    HW220304   1.920   1.969  16.551  0.1054  1.0074  0.6107
 2891SOL     OW20305   1.927   1.390   9.291 -0.3019  0.8656  0.1851
 2891SOL    HW120306   2.006   1.437   9.320  1.4610 -2.9016  1.4331
 2891SOL    HW220307   1.860   1.457   9.276 -1.5356 -0.0959  1.4233
 2892SOL     OW20308   0.698   4.315   8.862  0.2088  0.1786  0.2526
 2892SOL    HW120309   0.715   4.243   8.923  2.1557  0.6253  0.2245
 2892SOL    HW220310   0.668   4.266   8.785 -0.9556 -0.7464  1.2814
 2893SOL     OW20311   1.869   4.066  15.057 -0.0568 -0.0393 -0.6187
 2893SOL    HW120312   1.786   4.020  15.064 -0.4685  0.5291 -1.7235
 2893SOL    HW220313   1.842   4.158  15.048 -0.8463  0.0113  2.1845
 2894SOL     OW20314   0.242   2.986   2.946 -0.4329 -0.8535 -0.0213
 2894SOL    HW120315   0.323   2.941   2.923 -1.1968 -1.4273 -1.5307
 2894SOL    HW220316   0.176   2.953   2.885  1.2380 -2.3761 -0.9782
 2895SOL     OW20317   3.181   3.359   9.489 -0.7693  0.1775  0.4529
 2895SOL    HW120318   3.180   3.338   9.582 -0.7633 -1.5071  0.0807
 2895SOL    HW220319   3.089   3.347   9.465 -0.2847 -1.6335 -0.4871
 2896SOL     OW20320   2.863   3.050   4.937 -0.2947 -0.0230  0.3881
 2896SOL    HW120321   2.873   3.141   4.907 -3.1534 -0.2145 -1.0935
 2896SOL    HW220322   2.952   3.018   4.954  0.5419  1.6713 -0.7827
 2897SOL     OW20323   4.164   1.442  16.118  0.0368 -0.2321 -0.4401
 2897SOL    HW120324   4.245   1.492  16.131 -0.3701 -0.1244  1.7228
 2897SOL    HW220325   4.185   1.363  16.068  0.4801 -2.0877  2.7091
 2898SOL     OW20326   3.238   0.174   4.664 -0.5336  0.5138 -0.2596
 2898SOL    HW120327   3.247   0.167   4.569 -0.8082  0.5593 -0.2905
 2898SOL    HW220328   3.142   0.176   4.670 -0.5384 -0.6132  0.1155
 2899SOL     OW20329   2.771   2.531   8.401 -0.2760  0.2276 -0.5870
 2899SOL    HW120330   2.781   2.450   8.452  1.8797  0.0868 -1.2036
 2899SOL    HW220331   2.679   2.522   8.376 -0.1773 -4.0138  0.5374
 2900SOL     OW20332   0.753   0.495   2.813  0.3045 -0.3651 -0.2601
 2900SOL    HW120333   0.811   0.569   2.832  0.2652 -0.4590  0.2252
 2900SOL    HW220334   0.718   0.487   2.901 -0.8100 -0.6426 -0.7359
 2901SOL     OW20335   4.444   2.724   6.178  0.8039  0.0433  0.2407
 2901SOL    HW120336   4.407   2.807   6.208  1.2280 -0.6177  2.5484
 2901SOL    HW220337   4.472   2.687   6.262  0.4087  0.6343  0.6293
 2902SOL     OW20338   4.193   0.566  14.548 -0.3000  0.0480  0.0177
 2902SOL    HW120339   4.098   0.561  14.560 -0.5151  0.7082 -1.4228
 2902SOL    HW220340   4.206   0.594  14.458 -0.3881 -0.1979 -0.0717
 2903SOL     OW20341   2.085   1.932  16.687  0.3350  0.4026  0.4280
 2903SOL    HW120342   2.095   1.837  16.677  0.6187  0.3069  1.6132
 2903SOL    HW220343   2.094   1.935  16.782  1.4233 -1.3825  0.3803
 2904SOL     OW20344   2.914   1.045   7.336  0.6993  0.1245  0.3881
 2904SOL    HW120345   2.878   1.001   7.413  1.4867 -2.2084 -0.6096
 2904SOL    HW220346   3.003   1.011   7.333  1.2632  1.6597 -0.6025
 2905SOL     OW20347   3.949   4.486   7.738 -0.0195 -0.4193  0.1787
 2905SOL    HW120348   3.962   4.402   7.783 -1.6599  0.7345  2.7772
 2905SOL    HW220349   4.032   4.491   7.691  0.1817  0.7980  0.6689
 2906SOL     OW20350   0.356   3.909   5.061  0.6014 -0.4447  0.6664
 2906SOL    HW120351   0.263   3.917   5.039 -0.0261  0.5760  3.6180
 2906SOL    HW220352   0.354   3.903   5.157 -0.6965 -0.8969  0.6203
 2907SOL     OW20353   4.208   2.382   2.002  0.7507 -0.3702 -0.3688
 2907SOL    HW120354   4.227   2.441   1.929  1.3859  0.7542  0.7013
 2907SOL    HW220355   4.119   2.356   1.978 -0.4887  1.8248  1.8673
 2908SOL     OW20356   0.351   0.929   5.034  0.0549 -0.5853  0.4560
 2908SOL    HW120357   0.365   1.022   5.016 -0.6414 -0.7940 -1.1374
 2908SOL    HW220358   0.259   0.901   5.039  0.6749 -2.4492  1.6645
 2909SOL     OW20359   3.165   2.826   8.191 -0.5498 -0.2809 -0.0669
 2909SOL    HW120360   3.213   2.854   8.269 -0.8830 -1.7489  0.6791
 2909SOL    HW220361   3.112   2.754   8.227  0.0846 -2.0852 -2.7539
 2910SOL     OW20362   2.476   2.356   1.973  0.0999 -0.6929  0.1560
 2910SOL    HW120363   2.519   2.438   1.997  1.6864 -0.6045 -3.0634
 2910SOL    HW220364   2.544   2.303   1.932 -1.0504 -0.5566 -1.9517
 2911SOL     OW20365   0.207   3.341   7.594 -0.6486 -0.4334 -0.1075
 2911SOL    HW120366   0.178   3.411   7.651  0.3180 -0.6728  0.6788
 2911SOL    HW220367   0.152   3.271   7.628  0.5302 -0.7155  1.1877
 2912SOL     OW20368   2.436   3.893   5.584 -0.5523  0.1557 -0.4383
 2912SOL    HW120369   2.413   3.876   5.493  2.3860 -1.7375 -0.8415
 2912SOL    HW220370   2.458   3.804   5.613 -0.5847  0.5261  0.7272
 2913SOL     OW20371   2.238   4.537  14.383 -0.3810 -0.3047 -0.1006
 2913SOL    HW120372   2.199   4.512  14.467 -1.0144 -0.0278 -0.3102
 2913SOL    HW220373   2.213   4.458  14.334  0.9181 -0.4861 -0.4718
 2914SOL     OW20374   1.684   0.784   6.289  0.2702 -0.2486  0.0958
 2914SOL    HW120375   1.695   0.696   6.325  0.8891  0.4450  1.5970
 2914SOL    HW220376   1.685   0.831   6.372  0.3341  1.0819 -0.6717
 2915SOL     OW20377   1.738   1.704   7.268  0.3046  0.0118 -0.0033
 2915SOL    HW120378   1.693   1.627   7.302  1.1154 -1.0192 -1.3009
 2915SOL    HW220379   1.725   1.680   7.177  0.3004  0.1783 -0.0476
 2916SOL     OW20380   2.416   1.677   6.790  0.0708  0.3833 -0.1202
 2916SOL    HW120381   2.392   1.710   6.876 -1.9925  0.1334 -0.5926
 2916SOL    HW220382   2.331   1.683   6.747  1.1659  1.4754 -2.1340
 2917SOL     OW20383   4.146   1.385  14.516 -0.4177  0.1424  0.9566
 2917SOL    HW120384   4.053   1.366  14.503 -0.1584  1.0460 -2.3105
 2917SOL    HW220385   4.144   1.479  14.496  3.0000  0.1388  0.6130
 2918SOL     OW20386   3.128   3.574  12.313  0.0334  0.4870  0.2987
 2918SOL    HW120387   3.072   3.502  12.342  0.8463  0.5413  2.0183
 2918SOL    HW220388   3.212   3.540  12.343  0.8238 -0.4588 -3.0310
 2919SOL     OW20389   0.316   1.702  16.985 -0.1468 -0.0697 -0.1487
 2919SOL    HW120390   0.255   1.774  16.969 -1.3827 -0.9840  0.4691
 2919SOL    HW220391   0.378   1.751  17.039 -0.8368 -1.3178  1.7699
 2920SOL     OW20392   2.232   4.029  12.752 -0.5817  0.3512 -0.5283
 2920SOL    HW120393   2.208   4.110  12.795  1.2506  1.3881 -1.4234
 2920SOL    HW220394   2.328   4.021  12.755 -0.6963 -1.5487 -1.5481
 2921SOL     OW20395   0.616   1.563  12.596  0.3877  0.1547 -0.0914
 2921SOL    HW120396   0.707   1.531  12.595  0.1658 -0.5559  1.9876
 2921SOL    HW220397   0.623   1.655  12.569  1.5696  0.6111  1.6917
 2922SOL     OW20398   1.254   1.662   2.639 -0.0328 -0.2014 -0.5853
 2922SOL    HW120399   1.260   1.756   2.620  0.2932  0.1271  1.1412
 2922SOL    HW220400   1.328   1.651   2.698  1.1644  2.0457 -1.6499
 2923SOL     OW20401   3.754   0.952   9.244  0.1525  0.3014  0.3703
 2923SOL    HW120402   3.814   0.997   9.185  0.5875  0.5051  0.9636
 2923SOL    HW220403   3.710   1.029   9.280 -1.0955 -0.1850 -0.1374
 2924SOL     OW20404   4.013   3.924   2.319  0.0571 -0.1171  0.2034
 2924SOL    HW120405   4.014   3.986   2.392  1.0749  0.1105 -0.0034
 2924SOL    HW220406   3.972   3.844   2.352  0.0685 -0.4922 -0.6785
 2925SOL     OW20407   0.972   0.295   2.834  0.4155  0.2483  0.0399
 2925SOL    HW120408   0.921   0.374   2.817  0.4828  0.2398 -0.1919
 2925SOL    HW220409   0.985   0.272   2.742  2.4464  0.8787  0.1844
 2926SOL     OW20410   3.540   0.131   6.325 -0.1650 -0.6212  0.3306
 2926SOL    HW120411   3.608   0.065   6.337 -0.7026 -1.0384  1.0499
 2926SOL    HW220412   3.532   0.171   6.412 -1.8194 -0.7414  0.2386
 2927SOL     OW20413   3.778   0.752   5.175 -0.1954 -0.4097 -0.2840
 2927SOL    HW120414   3.722   0.823   5.208 -1.8919 -0.3438 -3.3487
 2927SOL    HW220415   3.791   0.790   5.088 -1.1485 -0.5607 -0.4931
 2928SOL     OW20416   3.478   0.520   9.749 -0.1269  0.6604  0.3332
 2928SOL    HW120417   3.566   0.556   9.763  1.4567 -2.6556 -1.0778
 2928SOL    HW220418   3.497   0.484   9.662 -0.4477  3.3763 -0.8385
 2929SOL     OW20419   3.896   3.028  13.145  0.1620  0.5990 -0.0409
 2929SOL    HW120420   3.811   3.072  13.152 -0.2658 -0.5000  1.6415
 2929SOL    HW220421   3.948   3.048  13.223  1.2583  2.2767 -1.1852
 2930SOL     OW20422   3.793   3.749   7.193  0.0563 -0.3387 -0.2420
 2930SOL    HW120423   3.879   3.771   7.227 -1.2187  1.0781  2.0739
 2930SOL    HW220424   3.741   3.754   7.273  0.7617  1.3219  0.0956
 2931SOL     OW20425   2.953   1.131   4.970  0.3926 -0.2846 -0.0967
 2931SOL    HW120426   2.873   1.169   4.935 -0.5428  1.0630  3.5439
 2931SOL    HW220427   3.007   1.210   4.977 -0.7750  0.7586 -2.6895
 2932SOL     OW20428   0.903   2.757  10.952  0.2566 -0.0191 -0.3190
 2932SOL    HW120429   0.996   2.762  10.977 -0.2248  0.6964  1.3213
 2932SOL    HW220430   0.919   2.770  10.859 -1.1405 -0.1727 -0.5716
 2933SOL     OW20431   1.687   1.302   6.311  0.3244 -0.2371 -0.0741
 2933SOL    HW120432   1.721   1.307   6.222 -0.0293 -1.0496 -0.2596
 2933SOL    HW220433   1.652   1.390   6.318  2.7047  0.9509 -3.0777
 2934SOL     OW20434   2.840   1.975   7.136 -0.3072  0.4463  0.0636
 2934SOL    HW120435   2.774   1.985   7.067  1.3977 -0.1224 -1.6669
 2934SOL    HW220436   2.789   2.030   7.195 -2.3854 -0.7657 -0.6149
 2935SOL     OW20437   4.241   4.556   5.965  0.0321 -0.5304  0.3296
 2935SOL    HW120438   4.166   4.606   5.933  0.3643  0.7494  1.5945
 2935SOL    HW220439   4.245   4.484   5.901  1.5521  0.1634 -0.3612
 2936SOL     OW20440   2.962   3.092   6.539  0.3230 -0.5593 -0.4255
 2936SOL    HW120441   2.895   3.140   6.587 -0.3640  1.3478 -3.2760
 2936SOL    HW220442   2.980   3.145   6.461 -0.6165 -0.9108 -0.8781
 2937SOL     OW20443   1.611   1.546  13.967 -0.5666 -0.2162  0.0925
 2937SOL    HW120444   1.601   1.455  13.937  0.1904 -0.8614  1.7879
 2937SOL    HW220445   1.535   1.590  13.929 -0.4844  0.2562  0.4733
 2938SOL     OW20446   3.561   3.318   2.349 -0.5006  0.4910  0.0754
 2938SOL    HW120447   3.651   3.290   2.335 -0.9475 -0.7595 -0.3166
 2938SOL    HW220448   3.547   3.376   2.274 -2.2731 -1.3095 -0.9873
 2939SOL     OW20449   3.467   2.267   3.861 -0.0137 -0.3022 -0.1875
 2939SOL    HW120450   3.384   2.315   3.857  0.1384 -0.0059  0.2402
 2939SOL    HW220451   3.512   2.307   3.788 -1.4378  2.8789  0.6759
 2940SOL     OW20452   3.401   0.032   7.049 -0.1537  0.4251 -0.0608
 2940SOL    HW120453   3.492   0.032   7.078 -0.1983  2.8023  0.0590
 2940SOL    HW220454   3.373   0.105   7.104  1.2472  2.0630 -1.4916
 2941SOL     OW20455   2.463   1.817   1.129 -0.2574  0.5930  0.1611
 2941SOL    HW120456   2.440   1.761   1.055  0.8111  2.8568 -1.9024
 2941SOL    HW220457   2.492   1.893   1.078  1.3918  0.4744  0.8986
 2942SOL     OW20458   2.833   0.309   2.411 -0.3476 -0.4279 -0.0573
 2942SOL    HW120459   2.916   0.290   2.367  0.5704 -1.2172  1.9768
 2942SOL    HW220460   2.855   0.293   2.503  0.7165  2.0364  0.1311
 2943SOL     OW20461   2.588   1.390   7.359 -0.4087 -0.3922  0.3475
 2943SOL    HW120462   2.589   1.295   7.370 -0.2381 -0.6687 -1.9912
 2943SOL    HW220463   2.676   1.405   7.324 -0.6865  2.0250  0.6344
 2944SOL     OW20464   2.530   3.707  16.168  0.3104 -0.0802 -0.3635
 2944SOL    HW120465   2.475   3.629  16.166  2.2949 -1.4058 -2.9724
 2944SOL    HW220466   2.615   3.664  16.180  0.8590  1.3652  0.9582
 2945SOL     OW20467   0.734   1.306  16.311  0.0364  0.3418 -0.4259
 2945SOL    HW120468   0.810   1.333  16.363  0.5582 -0.0204 -0.9986
 2945SOL    HW220469   0.745   1.211  16.315  1.5200  0.4493 -1.9328
 2946SOL     OW20470   1.019   4.194   3.734  0.0869 -0.2441  0.1182
 2946SOL    HW120471   0.981   4.241   3.808 -0.3024 -0.0504 -0.2015
 2946SOL    HW220472   1.010   4.102   3.761 -1.5365 -0.6186 -1.7185
 2947SOL     OW20473   2.663   1.564   7.974 -0.0824 -0.3436  0.0087
 2947SOL    HW120474   2.705   1.517   8.046 -0.7503  0.7942  1.1305
 2947SOL    HW220475   2.727   1.544   7.906 -0.8945  1.6494 -1.3481
 2948SOL     OW20476   3.769   1.027   7.032 -0.1856  0.3880  0.1462
 2948SOL    HW120477   3.784   1.070   7.116 -1.1678 -0.0264  0.5319
 2948SOL    HW220478   3.742   0.940   7.059  1.9241  0.2635  1.8550
 2949SOL     OW20479   0.421   3.529  15.102  0.5810 -0.0404 -0.2057
 2949SOL    HW120480   0.496   3.531  15.161  0.3828 -0.1772  0.0496
 2949SOL    HW220481   0.352   3.576  15.150  0.7970  0.0674 -0.0011
 2950SOL     OW20482   1.428   2.445  10.607  0.3212 -0.3239 -0.7225
 2950SOL    HW120483   1.430   2.540  10.599  1.2477 -0.4246 -1.5901
 2950SOL    HW220484   1.404   2.429  10.698  1.8887 -1.7048 -0.5698
 2951SOL     OW20485   4.133   3.534  10.531  0.5696 -0.0003 -0.4198
 2951SOL    HW120486   4.131   3.457  10.588 -0.1977 -0.9975 -1.7872
 2951SOL    HW220487   4.211   3.577  10.567  0.1118 -0.4547  1.1198
 2952SOL     OW20488   3.743   3.797   3.168 -0.0001  0.1030  0.2395
 2952SOL    HW120489   3.776   3.861   3.105 -1.2650  1.8731  1.3948
 2952SOL    HW220490   3.649   3.794   3.151 -0.0723 -0.8354  0.7886
 2953SOL     OW20491   1.476   0.619   4.862 -0.3292 -0.3803  0.2962
 2953SOL    HW120492   1.512   0.543   4.907  0.5377 -0.4529 -0.5366
 2953SOL    HW220493   1.383   0.602   4.879 -1.6546  3.6347 -2.8932
 2954SOL     OW20494   3.047   2.051   4.869  0.4088  0.3157  0.5096
 2954SOL    HW120495   3.038   1.962   4.836 -1.4819  1.2534 -1.4993
 2954SOL    HW220496   2.985   2.099   4.814 -1.6018  1.1578  3.4843
 2955SOL     OW20497   2.435   2.070  11.549  0.1047  0.0582  0.6357
 2955SOL    HW120498   2.353   2.086  11.595  1.8446 -0.7611  3.9933
 2955SOL    HW220499   2.409   1.997  11.492  2.2020  0.2913 -0.6326
 2956SOL     OW20500   1.833   1.283   4.963  0.1793 -0.0316  0.3454
 2956SOL    HW120501   1.899   1.306   4.898  0.0656  0.4449  0.3953
 2956SOL    HW220502   1.860   1.338   5.036  1.2934  0.0771 -0.1545
 2957SOL     OW20503   3.676   3.073   9.549  0.3833  0.3180  0.2046
 2957SOL    HW120504   3.601   3.047   9.495  0.5759 -1.7494  0.9514
 2957SOL    HW220505   3.653   3.157   9.589 -0.7560  1.0270 -1.9093
 2958SOL     OW20506   3.554   0.002   9.392  0.0852  0.2576  0.0476
 2958SOL    HW120507   3.582   4.652   9.375 -1.4005  0.0012 -1.0827
 2958SOL    HW220508   3.614   0.058   9.342 -0.4507  0.2275 -0.6446
 2959SOL     OW20509   2.159   3.752   8.038 -0.9875 -0.1499  0.2431
 2959SOL    HW120510   2.216   3.715   7.970 -0.6881 -0.9537  0.9243
 2959SOL    HW220511   2.111   3.678   8.076 -0.6151 -1.3795 -1.6278
 2960SOL     OW20512   3.613   1.771   4.568 -0.1593  0.2165  0.4401
 2960SOL    HW120513   3.690   1.782   4.624 -0.5278 -0.4179  1.0665
 2960SOL    HW220514   3.633   1.686   4.529  1.6703 -0.3103  2.4939
 2961SOL     OW20515   0.489   2.253   6.123 -0.5665 -0.4135 -0.4313
 2961SOL    HW120516   0.506   2.342   6.153  2.6743 -1.9439  2.2630
 2961SOL    HW220517   0.407   2.227   6.163  0.4183 -2.3610  0.3012
 2962SOL     OW20518   0.257   2.020   8.978  0.2472  0.1412 -0.3942
 2962SOL    HW120519   0.239   2.032   9.072  1.5590 -1.6846  0.0947
 2962SOL    HW220520   0.218   1.933   8.968  2.5709 -0.8457 -1.0762
 2963SOL     OW20521   4.652   0.323  14.023 -0.3369  0.2604  0.0561
 2963SOL    HW120522   4.560   0.304  14.003  0.1806  0.0244 -2.0731
 2963SOL    HW220523   4.679   0.356  13.937  2.0592 -0.6939  0.4404
 2964SOL     OW20524   0.668   4.567   9.267 -0.8742 -0.0816  0.0798
 2964SOL    HW120525   0.590   4.517   9.243 -0.6422 -0.9565  1.1393
 2964SOL    HW220526   0.662   4.565   9.362 -0.1770  1.3147  0.1498
 2965SOL     OW20527   3.797   1.910   3.854  0.7798 -0.4232 -0.2339
 2965SOL    HW120528   3.767   1.937   3.941 -1.1046 -1.6784 -0.5029
 2965SOL    HW220529   3.851   1.989   3.843  0.8554 -0.5040 -0.4329
 2966SOL     OW20530   4.507   2.277   6.634 -0.5048  0.9967 -0.2246
 2966SOL    HW120531   4.458   2.195   6.647  1.1407 -0.0310 -0.4832
 2966SOL    HW220532   4.560   2.251   6.559  0.7357  0.0649  0.9650
 2967SOL     OW20533   1.287   4.397  12.988 -0.6478 -0.2765  0.2145
 2967SOL    HW120534   1.302   4.429  13.077 -2.1762  0.4537  0.2035
 2967SOL    HW220535   1.341   4.459  12.939 -1.0857 -0.6707 -0.7542
 2968SOL     OW20536   4.559   4.663  15.182  0.3919  0.3925  0.0960
 2968SOL    HW120537   4.569   4.582  15.232  1.2577  1.1278  1.1175
 2968SOL    HW220538   4.570   4.631  15.092 -1.8237  1.6885 -0.6414
 2969SOL     OW20539   4.202   2.204   8.046 -0.2366 -0.1827 -0.2442
 2969SOL    HW120540   4.179   2.158   7.966  1.3866 -0.7187 -0.4088
 2969SOL    HW220541   4.185   2.296   8.024  2.4372  0.2259 -0.5948
 2970SOL     OW20542   4.708   4.696   1.233  0.3962 -0.0887 -0.2214
 2970SOL    HW120543   4.651   4.620   1.250  0.8708 -0.1149  1.2123
 2970SOL    HW220544   4.639   0.016   1.205  0.5138  1.0817  2.0031
 2971SOL     OW20545   3.608   3.357  15.100 -0.4318 -0.4748 -0.5901
 2971SOL    HW120546   3.539   3.419  15.077 -1.7211 -1.5676  0.3387
 2971SOL    HW220547   3.603   3.368  15.195  0.7534  0.2846 -0.6128
 2972SOL     OW20548   0.705   0.338  12.923 -1.2871 -0.1351  0.1738
 2972SOL    HW120549   0.752   0.283  12.861  0.2698  1.7727 -0.3480
 2972SOL    HW220550   0.769   0.406  12.945 -1.7485  1.3514 -3.0723
 2973SOL     OW20551   1.749   0.511   9.403 -0.5322 -0.9746  0.5055
 2973SOL    HW120552   1.662   0.547   9.417 -0.3966 -0.4010 -0.1319
 2973SOL    HW220553   1.751   0.438   9.465 -0.8417 -1.1202  0.3464
 2974SOL     OW20554   1.619   4.091   2.666  0.3255 -0.3831  0.1183
 2974SOL    HW120555   1.600   4.019   2.726  0.1756 -0.1537  0.3442
 2974SOL    HW220556   1.672   4.052   2.597 -2.6171 -0.9495 -1.7979
 2975SOL     OW20557   2.056   2.666   6.067  0.2876 -0.0009 -0.1202
 2975SOL    HW120558   2.140   2.665   6.021  0.2904 -1.0366 -0.0955
 2975SOL    HW220559   2.080   2.674   6.160  0.0132 -1.5833  0.0997
 2976SOL     OW20560   1.884   0.549   5.070  0.6647 -0.3364 -0.0345
 2976SOL    HW120561   1.848   0.637   5.083  0.5043 -0.1151 -1.9381
 2976SOL    HW220562   1.906   0.529   5.161 -1.1834 -0.9041  0.2761
 2977SOL     OW20563   4.657   4.257  13.514  0.2763 -0.5432 -0.2477
 2977SOL    HW120564   4.714   4.224  13.583 -0.1445  0.0199  0.3640
 2977SOL    HW220565   4.644   4.192  13.445  1.9577  2.8120 -3.7005
 2978SOL     OW20566   0.930   2.126   1.458 -0.2798  0.0337  0.6234
 2978SOL    HW120567   0.878   2.045   1.454  0.4906 -0.3786 -1.2763
 2978SOL    HW220568   0.903   2.157   1.544 -2.3147  2.4068 -0.8729
 2979SOL     OW20569   0.455   4.581   9.700  0.0324  0.3401  0.5624
 2979SOL    HW120570   0.380   4.588   9.640  0.5293  1.0240  0.0154
 2979SOL    HW220571   0.401   4.534   9.763  0.6581 -0.0745  0.7787
 2980SOL     OW20572   3.442   4.389   9.412 -0.4019  0.3035  0.1042
 2980SOL    HW120573   3.497   4.370   9.487  1.5583  0.0354 -1.4079
 2980SOL    HW220574   3.508   4.432   9.358  0.2873  1.5686  1.9645
 2981SOL     OW20575   3.229   4.163   5.492  0.4293 -0.3860 -0.4045
 2981SOL    HW120576   3.301   4.103   5.472  2.3772  1.4865  1.0225
 2981SOL    HW220577   3.262   4.244   5.454 -1.2328  1.1196  1.3485
 2982SOL     OW20578   3.045   3.116   8.318 -0.1188  0.3012 -0.1641
 2982SOL    HW120579   3.079   3.066   8.243 -0.5677  0.3812 -0.4203
 2982SOL    HW220580   3.123   3.149   8.363  0.4593 -1.6564  0.2558
 2983SOL     OW20581   1.043   3.467   8.336 -0.3702 -0.2477  0.2091
 2983SOL    HW120582   0.966   3.505   8.294  0.7003  0.2491 -1.3229
 2983SOL    HW220583   0.997   3.427   8.410  1.4434 -0.3876  1.2534
 2984SOL     OW20584   1.757   4.680   9.880 -0.7007  0.5480  0.5383
 2984SOL    HW120585   1.706   4.663   9.960  0.3930 -0.7171  0.9682
 2984SOL    HW220586   1.731   4.608   9.823 -0.6462  0.4830  0.5961
 2985SOL     OW20587   2.177   1.622   8.491  0.1477  0.1849  0.0673
 2985SOL    HW120588   2.147   1.617   8.400  1.1104  1.5180 -0.3296
 2985SOL    HW220589   2.098   1.589   8.533  1.2868 -1.7411  0.6956
 2986SOL     OW20590   0.357   1.017   9.503 -0.2911  0.2026 -0.0766
 2986SOL    HW120591   0.440   0.992   9.462  0.1177 -2.6931  2.4989
 2986SOL    HW220592   0.328   0.938   9.549  0.3501 -2.3649 -4.0365
 2987SOL     OW20593   2.238   3.258  15.713 -0.2810  0.3346 -0.0797
 2987SOL    HW120594   2.267   3.172  15.744 -2.3276 -0.6056 -0.7664
 2987SOL    HW220595   2.154   3.254  15.759 -0.3700 -0.1372 -0.2767
 2988SOL     OW20596   0.566   3.299   0.034 -0.7340 -0.0702  0.2619
 2988SOL    HW120597   0.484   3.262   0.000 -1.0391  1.9132 -1.1269
 2988SOL    HW220598   0.532   3.386   0.052  0.3942  0.0770  1.6345
 2989SOL     OW20599   2.206   0.730   7.892 -0.1570 -0.6153  0.1111
 2989SOL    HW120600   2.141   0.785   7.937  2.7554  2.9866 -0.1001
 2989SOL    HW220601   2.276   0.789   7.865 -0.3574  0.2193  1.3950
 2990SOL     OW20602   3.175   3.446   3.775 -0.1555 -0.7657  0.6983
 2990SOL    HW120603   3.149   3.430   3.866  0.5642  0.6324  1.1448
 2990SOL    HW220604   3.091   3.420   3.736 -0.8000  0.5860  1.1628
 2991SOL     OW20605   0.128   1.989   5.807 -0.1572 -0.0007 -0.6967
 2991SOL    HW120606   0.171   2.062   5.851 -2.0082 -0.0238  1.1419
 2991SOL    HW220607   0.036   2.011   5.821 -0.0046  0.2148 -0.0178
 2992SOL     OW20608   0.516   2.991   6.505 -0.2534 -0.0646 -0.3547
 2992SOL    HW120609   0.422   2.977   6.491 -0.4652  0.4851  0.4719
 2992SOL    HW220610   0.540   2.946   6.585  0.0041 -0.7105 -0.7998
 2993SOL     OW20611   3.851   1.672   5.638 -0.0804  0.1793  0.5851
 2993SOL    HW120612   3.899   1.746   5.674 -1.5308  1.8179 -0.8547
 2993SOL    HW220613   3.782   1.720   5.592  0.0266 -0.8766 -0.6770
 2994SOL     OW20614   0.618   0.622   2.092 -0.3306 -0.3668  0.2562
 2994SOL    HW120615   0.656   0.706   2.068 -1.2027  0.4182  1.5956
 2994SOL    HW220616   0.606   0.584   2.005 -0.1598 -0.5382  0.3080
 2995SOL     OW20617   1.686   2.222   2.259 -0.3008  0.2764  0.1610
 2995SOL    HW120618   1.719   2.214   2.170  3.3439  1.6967  1.3759
 2995SOL    HW220619   1.605   2.170   2.260  1.1517 -1.9779  1.5640
 2996SOL     OW20620   1.645   3.585  16.705 -0.0403 -0.3807  0.2538
 2996SOL    HW120621   1.593   3.619  16.632  1.0606 -0.6536 -0.6382
 2996SOL    HW220622   1.659   3.495  16.676  0.7746  0.5490 -2.2510
 2997SOL     OW20623   0.563   2.490   6.284  0.3602  0.0387 -0.6976
 2997SOL    HW120624   0.643   2.441   6.302 -0.0701  0.3266  2.0385
 2997SOL    HW220625   0.587   2.572   6.326  0.4427 -0.5587  0.4198
 2998SOL     OW20626   2.437   1.728   7.755 -0.2907 -0.2379 -0.3709
 2998SOL    HW120627   2.420   1.652   7.810 -0.4912 -1.8135 -2.6596
 2998SOL    HW220628   2.510   1.708   7.698  0.9421 -2.0563  1.8553
 2999SOL     OW20629   3.373   4.166   6.063 -0.0840  0.4256  0.5135
 2999SOL    HW120630   3.456   4.210   6.081 -0.9641  3.7429 -3.3754
 2999SOL    HW220631   3.393   4.074   6.074 -0.1436  0.3920  0.3458
 3000SOL     OW20632   3.567   4.400   8.683 -0.4319  0.4202 -0.3706
 3000SOL    HW120633   3.532   4.380   8.769 -0.3293  0.4943 -0.3118
 3000SOL    HW220634   3.509   4.341   8.634  0.4036 -0.4712 -0.2956
 3001SOL     OW20635   0.652   2.011  13.116 -0.1971  0.2989  0.3423
 3001SOL    HW120636   0.680   2.099  13.142 -0.3883  0.7761 -1.0556
 3001SOL    HW220637   0.561   1.997  13.142  0.1150  0.3189  1.4366
 3002SOL     OW20638   2.555   0.671  14.846  0.2002  0.1621 -0.4351
 3002SOL    HW120639   2.506   0.743  14.885 -0.2394  0.3980 -1.4210
 3002SOL    HW220640   2.497   0.595  14.849 -0.3096  0.6063  0.7896
 3003SOL     OW20641   0.283   4.558   3.097 -0.1305 -0.1916 -0.1522
 3003SOL    HW120642   0.287   4.566   3.001 -0.5389  0.0447 -0.1488
 3003SOL    HW220643   0.192   4.530   3.104 -0.5427  0.8839 -1.2762
 3004SOL     OW20644   3.821   1.739   7.980  0.3027  0.2643 -0.6155
 3004SOL    HW120645   3.909   1.776   7.988  0.0027  1.0204 -0.8311
 3004SOL    HW220646   3.827   1.686   8.059  1.4060  0.3260 -0.6592
 3005SOL     OW20647   2.095   1.979   4.821  0.3563  0.5844  0.1475
 3005SOL    HW120648   2.107   2.074   4.818  1.3730  0.4755  0.9927
 3005SOL    HW220649   2.007   1.957   4.849  1.1303  0.5544  2.5129
 3006SOL     OW20650   4.672   1.494   2.211 -0.2523  0.2699  0.6972
 3006SOL    HW120651   4.730   1.418   2.208 -0.9511 -0.3521  2.9258
 3006SOL    HW220652   4.677   1.521   2.303  4.4905  2.6600 -0.2592
 3007SOL     OW20653   1.078   0.755  17.443  0.3718  0.4276 -0.2409
 3007SOL    HW120654   1.160   0.745  17.395  0.1877  2.3951 -0.9702
 3007SOL    HW220655   1.034   0.788  17.365 -0.6186 -0.7979 -0.2125
 3008SOL     OW20656   0.127   4.186   7.179 -0.0344  0.7386  0.4918
 3008SOL    HW120657   0.130   4.270   7.224  2.3280  0.0225  1.6528
 3008SOL    HW220658   0.052   4.196   7.120 -1.7499  1.8775  2.8468
 3009SOL     OW20659   3.894   2.433   4.400  0.4303  0.2372  0.4731
 3009SOL    HW120660   3.836   2.478   4.338  0.1181  1.5572  1.7215
 3009SOL    HW220661   3.841   2.354   4.415 -1.6169  1.6012  0.3740
 3010SOL     OW20662   3.872   4.590  11.400  0.5622  0.1291  0.5899
 3010SOL    HW120663   3.967   4.595  11.401  0.5845  0.0669 -0.8450
 3010SOL    HW220664   3.837   4.590  11.489 -0.6169  1.0285  0.1347
 3011SOL     OW20665   4.414   0.898   1.713 -0.0101 -0.1062 -0.3105
 3011SOL    HW120666   4.414   0.953   1.792  0.4054  1.3423 -1.3164
 3011SOL    HW220667   4.414   0.812   1.754 -2.4272  0.5281  1.0184
 3012SOL     OW20668   2.151   3.454   0.982  0.0877 -0.1543  0.1931
 3012SOL    HW120669   2.162   3.512   0.907  0.5067 -1.0717 -0.4545
 3012SOL    HW220670   2.137   3.370   0.939  1.7677  0.5875 -1.7904
 3013SOL     OW20671   0.939   3.575  12.704  0.2030 -0.6233  0.1142
 3013SOL    HW120672   0.922   3.518  12.628 -0.3184 -0.1547 -0.1217
 3013SOL    HW220673   0.853   3.612  12.724  0.2417  1.0756 -2.7845
 3014SOL     OW20674   2.605   2.056   1.322  0.4835 -0.3938 -0.1662
 3014SOL    HW120675   2.690   2.100   1.315 -0.5546  1.6357 -0.0317
 3014SOL    HW220676   2.630   1.967   1.298 -0.7747 -0.6508 -0.4795
 3015SOL     OW20677   0.134   3.263   6.557  0.5673 -0.2951 -0.3182
 3015SOL    HW120678   0.095   3.329   6.614 -1.0727 -0.8467 -0.8298
 3015SOL    HW220679   0.086   3.184   6.581 -1.1745  0.1562 -2.3111
 3016SOL     OW20680   2.201   0.001  15.391 -0.0285  0.2481 -0.3095
 3016SOL    HW120681   2.150   4.705  15.464 -0.6791 -0.3890 -1.0811
 3016SOL    HW220682   2.281   0.001  15.444 -0.2058  0.8212 -0.0432
 3017SOL     OW20683   3.674   4.336   7.619  0.1847  0.2720  0.2481
 3017SOL    HW120684   3.739   4.266   7.625  0.9985  0.7851 -2.4432
 3017SOL    HW220685   3.714   4.376   7.542  0.0648  0.4853  0.2978
 3018SOL     OW20686   0.650   4.036   5.066 -0.1321  0.6406  0.4703
 3018SOL    HW120687   0.610   4.050   5.152  0.0502 -1.1027  0.8396
 3018SOL    HW220688   0.624   3.945   5.052 -1.2566  1.0043  0.1246
 3019SOL     OW20689   4.267   3.923   8.733 -0.2604  0.1262 -0.1621
 3019SOL    HW120690   4.338   3.985   8.714 -0.4761  0.5071  0.2692
 3019SOL    HW220691   4.225   3.916   8.648 -2.4540 -0.1924  0.9528
 3020SOL     OW20692   0.459   3.660   3.140  0.1591 -0.2467 -0.0507
 3020SOL    HW120693   0.526   3.604   3.181  0.5949  1.7081  1.9193
 3020SOL    HW220694   0.397   3.681   3.209 -0.3815  0.8458 -0.8688
 3021SOL     OW20695   3.596   0.677   5.664 -0.0419  0.1080  0.2039
 3021SOL    HW120696   3.572   0.654   5.574 -0.3869 -0.9150  0.5606
 3021SOL    HW220697   3.538   0.748   5.690  1.7182  0.9092  1.9498
 3022SOL     OW20698   4.083   4.693  17.113 -0.2174  0.1140 -0.2034
 3022SOL    HW120699   4.003   4.677  17.063 -1.1930  2.2062  0.7156
 3022SOL    HW220700   4.060   0.037  17.151 -0.8522 -0.3074  0.3410
 3023SOL     OW20701   1.007   3.253   8.052 -0.1446 -0.2411  0.1695
 3023SOL    HW120702   0.920   3.221   8.026 -0.6976  1.0535  0.3918
 3023SOL    HW220703   1.014   3.346   8.029 -0.1602  0.3586  2.5160
 3024SOL     OW20704   4.664   1.328   9.198 -0.4875  0.4720  0.1138
 3024SOL    HW120705   4.644   1.349   9.289  1.6208 -3.0705  1.3937
 3024SOL    HW220706   0.015   1.305   9.217 -0.8650 -1.1739 -0.1011
 3025SOL     OW20707   1.847   2.901  12.484 -0.1577  0.0913 -0.1181
 3025SOL    HW120708   1.771   2.955  12.509  0.8247  1.5795 -0.3220
 3025SOL    HW220709   1.827   2.811  12.507  0.7150  0.3110  1.5343
 3026SOL     OW20710   2.009   3.499   8.053 -0.6775  0.3210 -0.1627
 3026SOL    HW120711   2.088   3.455   8.021 -0.2778 -0.6284  2.1616
 3026SOL    HW220712   1.949   3.425   8.065  0.7191 -0.9489 -1.0176
 3027SOL     OW20713   2.144   3.917   6.606 -0.5425  0.0748  0.3579
 3027SOL    HW120714   2.120   3.830   6.640 -2.4017  0.7041  0.6314
 3027SOL    HW220715   2.085   3.977   6.652 -0.8481  1.3632 -1.7348
 3028SOL     OW20716   4.294   0.216   4.509  0.2183  0.7087 -0.4147
 3028SOL    HW120717   4.267   0.303   4.539 -1.0178 -0.0084  0.5724
 3028SOL    HW220718   4.332   0.230   4.422  1.2132 -2.8446 -0.5382
 3029SOL     OW20719   2.737   4.148   2.956  0.1728  0.3486  0.2540
 3029SOL    HW120720   2.699   4.209   2.893  0.6961  0.8200  0.4041
 3029SOL    HW220721   2.663   4.088   2.961  0.3437  0.0837 -0.3777
 3030SOL     OW20722   1.961   1.665   3.639  0.5250 -0.1375  0.9455
 3030SOL    HW120723   2.039   1.627   3.678 -0.1255 -1.5951  0.8368
 3030SOL    HW220724   1.899   1.594   3.624 -1.5171  1.9408 -0.5346
 3031SOL     OW20725   0.142   3.386  12.737 -0.7461  0.0759  0.3529
 3031SOL    HW120726   0.089   3.461  12.764 -2.4978 -0.9116 -0.3508
 3031SOL    HW220727   0.157   3.347  12.823 -2.0622 -0.1009  0.5032
 3032SOL     OW20728   2.347   0.833   8.849 -0.0481 -0.2503  0.6007
 3032SOL    HW120729   2.384   0.757   8.893 -0.2527 -1.9028 -2.1060
 3032SOL    HW220730   2.306   0.884   8.920 -0.0970  1.0567 -0.3647
 3033SOL     OW20731   1.844   2.194   9.087  0.0982  0.0852 -0.1874
 3033SOL    HW120732   1.851   2.258   9.016  0.6999 -1.1463 -1.2432
 3033SOL    HW220733   1.774   2.135   9.058 -0.7600  0.2828  1.4475
 3034SOL     OW20734   1.457   3.691   1.820 -0.2619  0.5717 -0.5813
 3034SOL    HW120735   1.377   3.741   1.836  0.1716  0.3446  2.1548
 3034SOL    HW220736   1.469   3.699   1.725 -0.6307  1.5331 -0.5513
 3035SOL     OW20737   2.276   2.916   7.666 -0.0460 -0.3764  0.2409
 3035SOL    HW120738   2.337   2.907   7.739  1.4920  0.8331 -0.8941
 3035SOL    HW220739   2.311   2.983   7.608  0.1327  0.4426  1.3125
 3036SOL     OW20740   2.670   0.402   9.325 -1.3559 -0.5602  0.0475
 3036SOL    HW120741   2.684   0.495   9.341 -0.5655 -0.9370  1.5508
 3036SOL    HW220742   2.717   0.398   9.242 -2.9516 -0.4135 -0.8587
 3037SOL     OW20743   0.357   0.124   7.142 -0.1242 -0.2553  1.0141
 3037SOL    HW120744   0.332   0.195   7.083  0.1670 -1.3074 -0.4004
 3037SOL    HW220745   0.300   0.135   7.217 -0.4751  0.3369  0.6571
 3038SOL     OW20746   4.034   4.100   2.535 -0.0548 -0.2144 -0.1774
 3038SOL    HW120747   4.036   4.089   2.630  0.7005  0.5954 -0.0970
 3038SOL    HW220748   3.993   4.186   2.533 -0.5210 -0.4197  0.6924
 3039SOL     OW20749   3.318   1.974   2.481 -0.4485  0.3619  0.6507
 3039SOL    HW120750   3.365   1.907   2.532  0.6016  1.0375  0.5842
 3039SOL    HW220751   3.377   2.049   2.492  0.4837 -0.3152  0.2849
 3040SOL     OW20752   1.803   0.433   8.913 -0.5844 -0.4288 -0.0953
 3040SOL    HW120753   1.745   0.474   8.977 -2.3850 -0.5463 -1.6185
 3040SOL    HW220754   1.849   0.378   8.975  2.3749 -0.5032 -2.3688
 3041SOL     OW20755   4.501   0.186   4.758 -0.3966 -0.3407 -0.1330
 3041SOL    HW120756   4.578   0.210   4.706 -0.4034 -1.6059 -0.7172
 3041SOL    HW220757   4.443   0.144   4.695  0.2267  0.1342 -1.0282
 3042SOL     OW20758   2.544   1.671   4.357 -0.5170 -0.1963  0.6313
 3042SOL    HW120759   2.633   1.666   4.320 -1.1654  0.5383 -1.0231
 3042SOL    HW220760   2.525   1.765   4.360  0.1187 -0.0712  0.7168
 3043SOL     OW20761   3.406   3.661   8.644 -0.3664 -0.2585 -0.6641
 3043SOL    HW120762   3.361   3.679   8.562  0.6554 -0.1824 -1.2200
 3043SOL    HW220763   3.490   3.705   8.626 -0.3744  0.1733  0.3586
 3044SOL     OW20764   0.048   2.766   3.355 -0.6493  0.3768 -0.0619
 3044SOL    HW120765   0.098   2.695   3.394  2.0270  1.7183 -1.0548
 3044SOL    HW220766   0.111   2.837   3.351  0.9225 -1.0451 -0.3762
 3045SOL     OW20767   1.038   0.213   8.200 -0.0416 -0.0474 -0.9056
 3045SOL    HW120768   1.003   0.125   8.213  1.0059 -0.2397  0.5953
 3045SOL    HW220769   1.119   0.204   8.150  0.4631  0.3567 -0.1538
 3046SOL     OW20770   0.618   0.026   4.062 -0.3996 -0.5513 -0.6770
 3046SOL    HW120771   0.535   0.074   4.067 -0.0261 -0.1413  1.5647
 3046SOL    HW220772   0.589   4.675   4.058 -2.8256  0.0800  2.3606
 3047SOL     OW20773   1.090   0.671  16.508 -0.1083 -0.1580 -0.1935
 3047SOL    HW120774   1.040   0.738  16.554  0.1241 -0.2972  0.2551
 3047SOL    HW220775   1.067   0.665  16.415  0.2146 -0.5148 -0.2525
 3048SOL     OW20776   1.738   4.251   7.441  0.5634  0.4603 -0.5989
 3048SOL    HW120777   1.723   4.183   7.508  0.1253  0.7146 -0.4404
 3048SOL    HW220778   1.822   4.228   7.401  0.6429  0.6686 -0.5535
 3049SOL     OW20779   3.249   4.598   6.916  0.3447 -0.4557  0.4423
 3049SOL    HW120780   3.306   4.644   6.977 -1.0661  0.3403  1.1652
 3049SOL    HW220781   3.277   4.507   6.920  2.1140  0.1117  0.8759
 3050SOL     OW20782   0.477   2.347  13.533 -0.4699 -0.5173  0.3493
 3050SOL    HW120783   0.396   2.379  13.574  0.5231 -1.0202  2.7247
 3050SOL    HW220784   0.530   2.335  13.612  0.3756  0.7473 -0.0277
 3051SOL     OW20785   0.001   4.376   2.943 -0.0160 -0.2447 -0.4266
 3051SOL    HW120786   4.671   4.440   2.957  0.8967  0.4973  0.6647
 3051SOL    HW220787   0.027   4.398   2.853  1.8201 -0.2283  0.1248
 3052SOL     OW20788   2.858   0.724  11.361 -0.1979  0.6418 -0.2395
 3052SOL    HW120789   2.884   0.749  11.449 -0.4546  0.4032 -0.0967
 3052SOL    HW220790   2.927   0.661  11.341  1.3439  2.9057 -2.1628
 3053SOL     OW20791   2.112   1.590   9.463 -0.0339  0.2714  0.1136
 3053SOL    HW120792   2.176   1.661   9.468 -0.4605  0.5087  1.9925
 3053SOL    HW220793   2.149   1.535   9.532  1.1912  0.8002 -0.1200
 3054SOL     OW20794   4.404   2.481   2.184  0.5596 -0.3507  0.1118
 3054SOL    HW120795   4.399   2.577   2.184  2.1701 -0.2709  0.3061
 3054SOL    HW220796   4.337   2.456   2.120  0.2795  1.4270 -0.3016
 3055SOL     OW20797   1.401   0.986  11.350 -0.1351 -0.0702 -0.8444
 3055SOL    HW120798   1.345   1.015  11.278 -1.3638  2.3101  1.0687
 3055SOL    HW220799   1.420   0.895  11.325  1.7900  0.4686 -1.3057
 3056SOL     OW20800   0.428   1.808   9.160  0.2878  0.2432  0.5746
 3056SOL    HW120801   0.362   1.746   9.191  0.4762 -1.4878 -2.5135
 3056SOL    HW220802   0.406   1.829   9.069  1.0277  1.6535  0.7142
 3057SOL     OW20803   1.714   0.426   8.157  0.3492 -0.0591  0.1022
 3057SOL    HW120804   1.804   0.458   8.160  1.2631 -2.8218  1.9536
 3057SOL    HW220805   1.691   0.434   8.250  2.9885 -2.2126  0.9292
 3058SOL     OW20806   2.882   4.261   8.996 -0.0251  0.6767 -0.0002
 3058SOL    HW120807   2.819   4.198   9.029 -0.7906 -0.3504 -3.4405
 3058SOL    HW220808   2.967   4.217   9.003 -0.1722  0.3144 -0.5399
 3059SOL     OW20809   4.349   1.705   9.438  0.4055  0.4069  0.0207
 3059SOL    HW120810   4.386   1.701   9.526 -0.7858  0.7737  0.5468
 3059SOL    HW220811   4.255   1.710   9.455  0.0931 -1.0210 -1.2928
 3060SOL     OW20812   2.767   4.233   9.604 -0.0410  0.4422 -0.2141
 3060SOL    HW120813   2.846   4.203   9.650  1.7264  2.8104 -1.6583
 3060SOL    HW220814   2.728   4.285   9.675  1.7878  1.5665 -0.0167
 3061SOL     OW20815   1.812   1.034   4.689 -0.0849 -0.2278 -0.8411
 3061SOL    HW120816   1.794   1.127   4.674  1.1750  0.0815 -0.3880
 3061SOL    HW220817   1.727   0.996   4.712 -0.8270  1.9895  0.1618
 3062SOL     OW20818   4.522   2.982   7.010 -0.6301  0.2701  0.3653
 3062SOL    HW120819   4.574   3.062   7.011  0.6823 -0.5648 -0.4711
 3062SOL    HW220820   4.585   2.911   7.002 -0.1877  0.5004  1.7973
 3063SOL     OW20821   4.595   4.613  10.660 -0.4831  0.2350 -0.6604
 3063SOL    HW120822   4.690   4.609  10.649 -0.8072  0.1437 -3.4454
 3063SOL    HW220823   4.577   4.642  10.570 -1.2396  1.7429 -0.0221
 3064SOL     OW20824   3.776   3.661   2.633 -0.5384  0.1898  0.5717
 3064SOL    HW120825   3.860   3.700   2.609 -1.4910  1.5196 -0.5716
 3064SOL    HW220826   3.722   3.685   2.558  0.1138  0.7484  0.2855
 3065SOL     OW20827   3.866   0.065   8.306  0.1834  0.3595 -0.2431
 3065SOL    HW120828   3.805   0.137   8.321  0.8216  1.1044 -1.2208
 3065SOL    HW220829   3.874   0.037   8.397 -2.5056  0.5969  0.0625
 3066SOL     OW20830   2.098   3.777   5.667  0.1918 -0.4355  0.0167
 3066SOL    HW120831   2.094   3.707   5.601 -0.6735  1.1137 -1.5785
 3066SOL    HW220832   2.101   3.855   5.612  1.8913  1.2894  2.5867
 3067SOL     OW20833   0.730   3.459   7.650  0.1289  0.2737 -0.0531
 3067SOL    HW120834   0.808   3.403   7.646  0.5716  0.7517  2.0631
 3067SOL    HW220835   0.689   3.423   7.571 -0.4986  3.1950 -1.0544
 3068SOL     OW20836   2.678   2.145   7.817 -0.0754  0.1983 -0.5710
 3068SOL    HW120837   2.690   2.196   7.897 -0.3861  1.4201 -1.3145
 3068SOL    HW220838   2.599   2.190   7.789 -1.4658 -2.8700 -1.5619
 3069SOL     OW20839   1.331   0.462   3.914  0.2991  0.2090 -0.2868
 3069SOL    HW120840   1.364   0.531   3.972 -1.2315  0.8377 -0.1800
 3069SOL    HW220841   1.319   0.393   3.980 -1.3619  3.1506  2.5133
 3070SOL     OW20842   1.839   3.434   0.328 -0.6218  0.2068 -0.3215
 3070SOL    HW120843   1.845   3.450   0.422  0.3091  1.4052 -0.5905
 3070SOL    HW220844   1.767   3.492   0.306 -0.6364 -1.1463 -3.8823
 3071SOL     OW20845   3.496   2.924  17.733  0.2097  0.3583 -0.4448
 3071SOL    HW120846   3.484   2.959   0.064 -0.2896  0.3077 -0.4929
 3071SOL    HW220847   3.441   2.981  17.680  0.3663 -0.5978 -1.6264
 3072SOL     OW20848   0.544   2.411   8.487 -0.4539  0.1462  0.2482
 3072SOL    HW120849   0.635   2.398   8.514 -0.4093  2.0898  1.0239
 3072SOL    HW220850   0.541   2.407   8.391 -2.2352 -0.1392  0.3252
 3073SOL     OW20851   3.179   3.907  11.792  0.0793  0.1432 -0.2354
 3073SOL    HW120852   3.105   3.849  11.806 -1.1903  1.6483 -0.7026
 3073SOL    HW220853   3.123   3.982  11.773 -0.7264 -0.7068 -1.1821
 3074SOL     OW20854   1.045   4.547   7.921  0.7083 -0.1072  0.0915
 3074SOL    HW120855   1.027   4.605   7.847  0.5263 -1.1949 -0.7193
 3074SOL    HW220856   1.110   4.485   7.888  1.1567  0.2781  0.2544
 3075SOL     OW20857   1.097   1.627   2.025  0.4895 -0.0422  0.5928
 3075SOL    HW120858   1.095   1.539   2.064 -0.6692 -0.1167  0.3684
 3075SOL    HW220859   1.009   1.664   2.037  0.0716 -0.8277 -0.0660
 3076SOL     OW20860   3.012   3.712   3.009 -0.1568 -0.3824 -0.1743
 3076SOL    HW120861   3.009   3.680   3.100  0.6756 -0.6802 -0.2542
 3076SOL    HW220862   2.919   3.704   2.986 -0.4223 -0.4266  0.8907
 3077SOL     OW20863   0.864   3.203   5.854  0.3224 -0.1661 -0.3555
 3077SOL    HW120864   0.873   3.220   5.948 -0.7030 -0.7841 -0.1514
 3077SOL    HW220865   0.769   3.204   5.847  0.2117 -3.6512  0.5198
 3078SOL     OW20866   1.013   1.195  16.409  0.3817  0.2446 -0.4221
 3078SOL    HW120867   0.969   1.166  16.489  0.2793  0.5988 -0.3462
 3078SOL    HW220868   1.051   1.280  16.433  0.8520 -0.5734  1.6970
 3079SOL     OW20869   3.365   0.844   5.692 -0.2060  0.2698  0.0286
 3079SOL    HW120870   3.312   0.922   5.705  1.4898  1.6169 -1.0243
 3079SOL    HW220871   3.326   0.782   5.754  0.9880  0.8924  1.3887
 3080SOL     OW20872   1.338   1.420   3.520 -0.0800 -0.2925  0.6066
 3080SOL    HW120873   1.317   1.326   3.523  1.5594 -0.6283  1.6952
 3080SOL    HW220874   1.260   1.452   3.565 -0.7575 -1.3818  0.2298
 3081SOL     OW20875   0.802   0.784  14.448  0.1379  0.0986 -0.6099
 3081SOL    HW120876   0.723   0.735  14.426  1.5488 -1.0743 -2.9751
 3081SOL    HW220877   0.845   0.815  14.369  0.7261  0.4103 -0.1686
 3082SOL     OW20878   4.034   2.028   9.200 -0.5188  0.1054 -0.3451
 3082SOL    HW120879   4.086   2.046   9.278 -0.8229  0.8824 -0.3261
 3082SOL    HW220880   4.102   2.028   9.132  0.7853  0.5992  0.9574
 3083SOL     OW20881   4.014   1.488   2.754  0.2894 -0.0573 -0.0830
 3083SOL    HW120882   3.998   1.511   2.845 -1.4981 -0.7739 -0.2043
 3083SOL    HW220883   3.948   1.418   2.746  0.7114 -0.4517 -0.1246
 3084SOL     OW20884   1.003   3.156  10.315  0.1604  0.0823  0.0907
 3084SOL    HW120885   1.018   3.218  10.243 -2.6993 -0.3897 -0.9388
 3084SOL    HW220886   0.996   3.217  10.388 -0.1616  0.3668 -0.1723
 3085SOL     OW20887   4.546   3.121  11.174 -0.0566 -0.7946  0.6329
 3085SOL    HW120888   4.602   3.091  11.102 -2.6184  1.0811 -2.1711
 3085SOL    HW220889   4.461   3.111  11.132 -0.1187  2.8684 -0.1749
 3086SOL     OW20890   2.269   1.569  15.333  0.5304  0.0916 -0.3241
 3086SOL    HW120891   2.265   1.659  15.299  1.4714  0.1406 -0.3141
 3086SOL    HW220892   2.346   1.536  15.287  1.0654 -0.2443  0.8301
 3087SOL     OW20893   1.465   3.648   0.857 -0.9212 -0.2732  0.9301
 3087SOL    HW120894   1.450   3.561   0.895 -0.2952 -0.6121  0.4021
 3087SOL    HW220895   1.396   3.651   0.791  0.1806 -0.1473 -0.2165
 3088SOL     OW20896   2.426   4.715   4.814  0.0416 -0.1573 -0.6154
 3088SOL    HW120897   2.344   0.021   4.796 -1.4038 -1.4919  2.5821
 3088SOL    HW220898   2.465   0.028   4.883  2.0693  0.0119 -1.8998
 3089SOL     OW20899   4.444   3.764   7.928  0.0677  0.1216 -0.5201
 3089SOL    HW120900   4.530   3.807   7.930 -0.0972  0.3860  1.1597
 3089SOL    HW220901   4.447   3.740   8.021  0.5732 -0.1408 -0.6002
 3090SOL     OW20902   3.839   0.071   9.052  0.0564 -0.2099  0.0133
 3090SOL    HW120903   3.890   0.151   9.040  0.3253 -0.5968 -1.4482
 3090SOL    HW220904   3.911   0.008   9.045 -0.0467 -0.3549  0.2826
 3091SOL     OW20905   3.058   0.311  14.528 -0.4546  0.7695 -0.2539
 3091SOL    HW120906   2.973   0.270  14.512 -0.1551  0.7823 -1.9319
 3091SOL    HW220907   3.032   0.391  14.573  1.9025  1.4583 -0.1185
 3092SOL     OW20908   1.886   4.388   3.681 -0.3521 -0.4398  0.5463
 3092SOL    HW120909   1.855   4.347   3.761 -0.3293 -0.8924  0.3212
 3092SOL    HW220910   1.806   4.400   3.629 -0.6858 -1.6716  0.7894
 3093SOL     OW20911   0.827   2.057   8.741  0.5003 -0.4580 -0.9382
 3093SOL    HW120912   0.754   2.032   8.684  1.0851 -0.3070 -1.7599
 3093SOL    HW220913   0.788   2.066   8.828 -0.1961 -0.6069 -1.2339
 3094SOL     OW20914   1.696   0.986   5.936 -0.1995 -0.2863 -0.2916
 3094SOL    HW120915   1.633   1.036   5.884  0.3736  0.0917 -0.6144
 3094SOL    HW220916   1.780   1.021   5.907 -0.2769  0.4788  0.4219
 3095SOL     OW20917   4.151   4.219  11.441 -0.0624 -0.4204  0.5768
 3095SOL    HW120918   4.183   4.304  11.412 -0.6859 -0.9846 -1.8395
 3095SOL    HW220919   4.129   4.228  11.533  2.7754 -2.0390  1.3954
 3096SOL     OW20920   0.515   0.845   4.069 -0.1912  0.1296  0.0590
 3096SOL    HW120921   0.442   0.903   4.051  1.1905  1.9703  0.3671
 3096SOL    HW220922   0.558   0.833   3.984  0.2810 -1.6713  0.5582
 3097SOL     OW20923   0.362   3.700   4.669 -0.6450 -0.4591 -0.7103
 3097SOL    HW120924   0.267   3.706   4.662 -0.6408  0.3388 -0.1773
 3097SOL    HW220925   0.380   3.648   4.748 -0.9163 -0.9482 -0.9703
 3098SOL     OW20926   3.999   3.009   2.490 -0.5028 -0.2932 -0.1884
 3098SOL    HW120927   4.040   2.959   2.560  2.2683  0.0150 -1.5859
 3098SOL    HW220928   3.912   2.970   2.502 -0.7631  0.1076 -0.7594
 3099SOL     OW20929   0.928   1.851  17.297 -0.8271  0.2351  0.7361
 3099SOL    HW120930   0.899   1.801  17.373  0.9852 -1.6054  0.2306
 3099SOL    HW220931   0.924   1.938  17.336  1.8778  0.1697  1.1611
 3100SOL     OW20932   1.648   0.416   8.426 -0.3554 -0.8825  0.1344
 3100SOL    HW120933   1.646   0.495   8.482 -0.5251  0.3739 -1.6517
 3100SOL    HW220934   1.679   0.347   8.484 -0.3252 -0.9667  0.0167
 3101SOL     OW20935   4.558   4.419  15.319  0.1913  0.1139 -0.2531
 3101SOL    HW120936   4.522   4.356  15.256  0.0048 -0.7364  0.7012
 3101SOL    HW220937   4.647   4.383  15.321 -1.7557 -4.6110  2.4871
 3102SOL     OW20938   0.826   4.444   9.741  0.3576 -0.5939  0.3078
 3102SOL    HW120939   0.883   4.521   9.733 -1.1135  0.2952 -1.6360
 3102SOL    HW220940   0.766   4.480   9.806  0.8871 -0.7878  0.9030
 3103SOL     OW20941   2.720   1.808   3.178 -0.2468  0.1577 -0.2979
 3103SOL    HW120942   2.655   1.853   3.124 -1.1489 -0.5731  0.1705
 3103SOL    HW220943   2.671   1.769   3.250 -0.0007 -2.0187 -1.2936
 3104SOL     OW20944   3.506   1.435   8.112 -0.0575  0.2287  0.5170
 3104SOL    HW120945   3.458   1.373   8.057 -2.1163  2.3985 -0.1431
 3104SOL    HW220946   3.452   1.511   8.086 -1.5830 -0.5869  1.2849
 3105SOL     OW20947   3.371   4.534   0.867  0.1920 -0.3650 -0.4062
 3105SOL    HW120948   3.296   4.480   0.842  0.4656 -1.1469  0.4629
 3105SOL    HW220949   3.347   4.614   0.820 -0.2933 -0.3367 -0.1031
 3106SOL     OW20950   3.351   2.776   6.698  0.2400  0.0015  0.3261
 3106SOL    HW120951   3.430   2.818   6.665 -0.9943  0.8858 -1.4952
 3106SOL    HW220952   3.348   2.704   6.634  2.2524  0.1951  0.0262
 3107SOL     OW20953   2.374   1.615  12.114 -0.6736 -0.3713  0.1197
 3107SOL    HW120954   2.354   1.660  12.032  1.1217  0.2906  0.0555
 3107SOL    HW220955   2.450   1.662  12.146  1.2938 -3.0016 -0.6944
 3108SOL     OW20956   3.875   0.791  15.484 -0.1380  0.0320  0.0151
 3108SOL    HW120957   3.895   0.881  15.510 -2.4196  0.3573  0.6177
 3108SOL    HW220958   3.955   0.747  15.513  1.1159  1.8314 -0.6958
 3109SOL     OW20959   4.300   3.707   1.318 -0.1134  0.6524  0.3531
 3109SOL    HW120960   4.296   3.611   1.318 -2.0192  0.7358 -1.0524
 3109SOL    HW220961   4.379   3.735   1.364  0.9663  1.3085 -1.9080
 3110SOL     OW20962   2.286   2.991   9.073  0.4882  0.7064  0.2927
 3110SOL    HW120963   2.229   3.034   9.136  1.0198  1.0460  0.5441
 3110SOL    HW220964   2.269   3.053   9.002 -0.6097 -0.2524 -0.2812
 3111SOL     OW20965   0.475   1.435   3.288  0.0028 -0.7521 -0.2547
 3111SOL    HW120966   0.388   1.457   3.254  1.0195  2.1950 -0.8971
 3111SOL    HW220967   0.522   1.424   3.206 -0.6522 -1.5362 -0.5342
 3112SOL     OW20968   3.176   3.603  14.827  0.3797 -0.4440  0.4413
 3112SOL    HW120969   3.097   3.604  14.880  0.0586  0.5366 -0.0634
 3112SOL    HW220970   3.252   3.567  14.873  0.5864 -1.2919 -0.5514
 3113SOL     OW20971   1.179   0.014   4.351  0.3552  0.6298  0.4976
 3113SOL    HW120972   1.212   4.678   4.399  0.1729  2.0967  2.9787
 3113SOL    HW220973   1.088   4.735   4.373 -0.0133 -1.5448 -2.8882
 3114SOL     OW20974   3.390   4.733   3.102  0.2654  0.7550  0.0205
 3114SOL    HW120975   3.424   0.064   3.049 -1.9196  0.7343 -1.4072
 3114SOL    HW220976   3.409   4.661   3.042 -0.7541  0.5223 -0.0236
 3115SOL     OW20977   3.484   4.597  12.828  0.2028 -0.1082  0.3563
 3115SOL    HW120978   3.467   4.628  12.917  0.3040 -0.0825  0.3666
 3115SOL    HW220979   3.440   4.665  12.777 -0.7221  0.0688  1.3955
 3116SOL     OW20980   4.706   3.336   6.356  0.2697 -0.0113 -0.3725
 3116SOL    HW120981   0.012   3.295   6.282 -0.7060 -1.8970  0.0575
 3116SOL    HW220982   0.027   3.330   6.430 -3.1440 -0.1599  2.4021
 3117SOL     OW20983   2.034   3.492   2.627 -0.1429  0.0326 -0.0793
 3117SOL    HW120984   2.007   3.402   2.612  2.1108 -0.2900 -2.0967
 3117SOL    HW220985   2.120   3.471   2.664 -0.4954 -1.2460  0.0111
 3118SOL     OW20986   1.413   1.750   6.484  0.4559 -0.6227 -0.1781
 3118SOL    HW120987   1.419   1.829   6.537  1.8671 -1.1350  0.4368
 3118SOL    HW220988   1.365   1.690   6.542 -2.0145  0.6011 -0.9686
 3119SOL     OW20989   1.041   1.294  15.665 -0.0581  0.5600 -0.0959
 3119SOL    HW120990   1.099   1.248  15.603 -0.1467  1.5456 -0.9057
 3119SOL    HW220991   0.981   1.338  15.605 -1.2026 -1.8005 -0.6801
 3120SOL     OW20992   1.086   4.012   2.738 -0.4425 -0.0981  0.4655
 3120SOL    HW120993   1.065   4.098   2.775 -0.9518 -0.5199  1.1410
 3120SOL    HW220994   1.181   4.010   2.738 -0.4891 -2.1552  0.8489
 3121SOL     OW20995   0.023   3.203  10.826 -0.2032  0.4579  0.4363
 3121SOL    HW120996   0.099   3.168  10.873 -0.0473 -1.0730 -0.9495
 3121SOL    HW220997   4.733   3.124  10.781  0.4516  0.5757 -0.2058
 3122SOL     OW20998   4.683   3.089   7.456  0.0402 -0.3924  0.0878
 3122SOL    HW120999   4.634   3.145   7.516  0.9489  0.7395 -0.2270
 3122SOL    HW221000   4.723   3.027   7.516  0.0496  0.7379  1.2539
 3123SOL     OW21001   1.434   0.280   6.733 -0.0716 -0.0751  0.0223
 3123SOL    HW121002   1.472   0.300   6.648 -1.1553 -1.5813 -0.8322
 3123SOL    HW221003   1.393   0.362   6.761 -0.4247  0.1621 -1.1859
 3124SOL     OW21004   1.500   3.994   1.479  0.0047 -0.0210 -0.1920
 3124SOL    HW121005   1.412   4.012   1.445 -0.4740  0.2340  1.1461
 3124SOL    HW221006   1.554   3.978   1.402 -2.3831  1.9796 -2.2854
 3125SOL     OW21007   3.573   3.879   0.757  0.0374  0.6944  0.3750
 3125SOL    HW121008   3.490   3.922   0.777  0.7798  2.1995  0.2752
 3125SOL    HW221009   3.631   3.903   0.830 -2.9574  0.5615  2.7829
 3126SOL     OW21010   1.438   0.872   0.552 -0.3009  0.2781 -0.1095
 3126SOL    HW121011   1.362   0.842   0.601 -0.4901 -0.6191 -0.9628
 3126SOL    HW221012   1.504   0.813   0.589 -0.5227  0.3671  0.4204
 3127SOL     OW21013   0.066   2.410   6.636  0.5593  0.7971  0.1974
 3127SOL    HW121014   0.049   2.337   6.576 -0.4399  1.3277 -0.1653
 3127SOL    HW221015   0.141   2.448   6.591 -0.2548  2.3843  0.1802
 3128SOL     OW21016   1.951   4.077   4.524 -0.2585 -0.6027  0.1405
 3128SOL    HW121017   2.028   4.116   4.566 -0.0597 -0.7357 -0.1022
 3128SOL    HW221018   1.882   4.095   4.588  0.2820  2.0898 -0.0064
 3129SOL     OW21019   1.363   0.571   6.944  0.1515 -0.6733  0.0458
 3129SOL    HW121020   1.433   0.571   7.010  1.3058  0.1856 -1.1628
 3129SOL    HW221021   1.283   0.561   6.994  0.8313  0.2877  1.3264
 3130SOL     OW21022   0.791   4.694   0.925 -0.4127 -0.0944  0.5126
 3130SOL    HW121023   0.801   4.634   0.851 -1.9172  0.6826 -0.3158
 3130SOL    HW221024   0.751   4.642   0.995  3.2321 -0.0588  2.6118
 3131SOL     OW21025   4.623   0.449   5.573  0.8888 -0.2305 -0.2288
 3131SOL    HW121026   4.609   0.365   5.531 -0.2375 -1.5776  2.8225
 3131SOL    HW221027   4.701   0.423   5.622  0.4890  0.6100  0.8613
 3132SOL     OW21028   4.678   1.587   6.574  0.1503  0.1349 -0.0323
 3132SOL    HW121029   4.678   1.574   6.669  2.5458 -2.7891 -0.4394
 3132SOL    HW221030   0.031   1.570   6.562  0.1521 -0.1875  0.4480
 3133SOL     OW21031   4.184   0.489   9.793  0.1527 -0.1860  0.5157
 3133SOL    HW121032   4.182   0.409   9.846 -1.1507 -0.6913 -0.3058
 3133SOL    HW221033   4.275   0.499   9.764 -0.0566 -1.7736 -0.7011
 3134SOL     OW21034   0.926   1.072   4.263  0.4952  0.5827  0.2539
 3134SOL    HW121035   0.996   1.024   4.309 -0.0444 -1.5825 -1.1888
 3134SOL    HW221036   0.881   1.117   4.334  0.4875 -1.0690  1.2969
 3135SOL     OW21037   3.847   1.142  13.385  0.4352 -0.9503  0.3103
 3135SOL    HW121038   3.776   1.079  13.401 -0.7076 -0.2647 -2.0389
 3135SOL    HW221039   3.837   1.213  13.448  0.7124 -0.4093 -0.2468
 3136SOL     OW21040   2.598   1.045   7.887 -0.1838 -0.7633  0.3205
 3136SOL    HW121041   2.638   1.064   7.972 -1.9289  1.4018  0.6634
 3136SOL    HW221042   2.668   0.996   7.844  0.1948 -0.5185  0.6491
 3137SOL     OW21043   0.967   0.112   6.094 -0.5220  0.5833 -0.4193
 3137SOL    HW121044   0.926   0.183   6.142 -0.1045 -0.6312  1.7240
 3137SOL    HW221045   1.035   0.085   6.156 -0.3979 -0.2506 -0.9123
 3138SOL     OW21046   3.680   2.606   1.313  0.2865 -0.2588 -0.4997
 3138SOL    HW121047   3.758   2.624   1.261 -0.1066  1.3093 -0.5391
 3138SOL    HW221048   3.615   2.622   1.245 -2.5102 -3.3565  1.4363
 3139SOL     OW21049   1.515   4.633   3.822 -0.2015  0.3232 -0.1277
 3139SOL    HW121050   1.606   4.632   3.849  0.1811  2.5066 -1.2897
 3139SOL    HW221051   1.524   4.680   3.739  0.7637 -1.9030 -1.2893
 3140SOL     OW21052   2.481   0.913   0.920  0.5251 -0.1282 -0.6709
 3140SOL    HW121053   2.555   0.856   0.942 -1.3419 -2.0764  0.5880
 3140SOL    HW221054   2.435   0.885   0.999  3.0098  0.5823  1.0312
 3141SOL     OW21055   3.182   1.085   6.758 -0.8273 -0.1222 -0.3912
 3141SOL    HW121056   3.148   1.073   6.847 -1.0352  1.2697 -0.2900
 3141SOL    HW221057   3.106   1.052   6.709  0.7346 -0.7885 -2.3594
 3142SOL     OW21058   0.873   3.380   2.502  0.3401  0.0434 -0.1615
 3142SOL    HW121059   0.919   3.426   2.432  0.0992 -1.0564 -1.0500
 3142SOL    HW221060   0.939   3.314   2.522 -0.0105 -0.7372 -1.5283
 3143SOL     OW21061   2.913   0.848  17.482  0.4078  0.0229  0.5577
 3143SOL    HW121062   2.863   0.848  17.564 -0.1700  0.0289  0.2045
 3143SOL    HW221063   2.852   0.889  17.421 -1.2306  2.2773  3.7147
 3144SOL     OW21064   2.644   3.127  13.393 -0.3503  0.0534  0.2632
 3144SOL    HW121065   2.610   3.200  13.342 -3.7948 -1.6554  0.1738
 3144SOL    HW221066   2.708   3.102  13.327 -0.6574 -0.4982  0.1782
 3145SOL     OW21067   0.509   2.027   1.123  0.2402 -0.6897 -0.1057
 3145SOL    HW121068   0.599   1.995   1.123  1.1413  1.7954 -0.4815
 3145SOL    HW221069   0.484   2.004   1.034 -1.9756  0.3667  0.2571
 3146SOL     OW21070   0.022   2.917   1.735  0.6043 -0.1749 -0.1975
 3146SOL    HW121071   0.042   2.843   1.792 -3.3566 -0.1908  1.1779
 3146SOL    HW221072   0.050   2.880   1.651  3.2443  0.6158  0.3328
 3147SOL     OW21073   3.754   2.571   9.459 -0.3611  0.5673  0.0892
 3147SOL    HW121074   3.702   2.597   9.383 -1.5369 -2.0600 -0.0194
 3147SOL    HW221075   3.794   2.654   9.485 -0.2396  0.2139  1.0467
 3148SOL     OW21076   3.816   0.064  15.828  0.6564  0.5321  0.0140
 3148SOL    HW121077   3.871   0.057  15.906  0.9010  2.2069 -0.0206
 3148SOL    HW221078   3.827   4.713  15.799  1.6536  0.7221 -0.1839
 3149SOL     OW21079   2.014   4.100   3.465 -0.8802 -0.1655  0.1383
 3149SOL    HW121080   1.979   4.132   3.548  0.4215 -1.1901  1.0959
 3149SOL    HW221081   1.987   4.008   3.458  0.9170 -0.5972 -1.2584
 3150SOL     OW21082   2.328   1.430   9.905  0.1596 -0.6453  0.0079
 3150SOL    HW121083   2.277   1.351   9.919 -3.8681  1.9250  0.0134
 3150SOL    HW221084   2.343   1.465   9.993 -2.0490  1.6842 -0.5464
 3151SOL     OW21085   4.317   2.299  11.690 -0.4427 -0.2432 -0.2423
 3151SOL    HW121086   4.390   2.240  11.672 -0.6361 -0.2202 -1.0897
 3151SOL    HW221087   4.357   2.383  11.668  0.7008 -0.5373  0.6942
 3152SOL     OW21088   3.146   3.039   4.276 -0.4997  0.1582  0.2548
 3152SOL    HW121089   3.052   3.025   4.291  0.1702 -1.7982  2.5882
 3152SOL    HW221090   3.182   2.956   4.307  0.5848  0.4168 -0.3428
 3153SOL     OW21091   2.510   2.605   3.324  0.4296  0.2678  0.3112
 3153SOL    HW121092   2.580   2.542   3.310  1.5513  1.4315  0.7104
 3153SOL    HW221093   2.515   2.656   3.244 -1.1332 -0.7417 -0.4234
 3154SOL     OW21094   3.675   0.292   8.303 -0.0886 -0.2150  0.2173
 3154SOL    HW121095   3.613   0.223   8.325  0.2943 -0.7300 -0.3159
 3154SOL    HW221096   3.623   0.350   8.248  0.5952 -0.5506 -0.7895
 3155SOL     OW21097   3.111   1.339   6.801  0.0976 -0.0314 -0.2705
 3155SOL    HW121098   3.016   1.333   6.815  0.2713  1.3153  1.5338
 3155SOL    HW221099   3.124   1.246   6.783  2.3645  0.1564  0.3659
 3156SOL     OW21100   0.161   4.238  12.456 -0.0070 -0.3012  0.6943
 3156SOL    HW121101   0.137   4.286  12.535  2.5897  0.5065  1.0079
 3156SOL    HW221102   0.253   4.264  12.449 -0.8635  2.3006 -0.6540
 3157SOL     OW21103   0.160   0.314   8.922  0.1773  0.0156 -0.1792
 3157SOL    HW121104   0.168   0.407   8.899  1.4704 -0.5121 -1.7929
 3157SOL    HW221105   0.230   0.276   8.871 -1.0450  1.0367 -2.6160
 3158SOL     OW21106   1.368   3.747  15.529  0.3271 -0.0119  0.2002
 3158SOL    HW121107   1.372   3.812  15.458  2.0761 -1.6524 -1.2174
 3158SOL    HW221108   1.391   3.803  15.603 -1.9008  0.4174  0.5533
 3159SOL     OW21109   4.460   4.624  10.899  0.1761 -0.6770 -0.0513
 3159SOL    HW121110   4.490   4.644  10.811  1.0419 -0.6870  0.2434
 3159SOL    HW221111   4.540   4.610  10.950 -0.4058  1.7231  1.5395
 3160SOL     OW21112   2.427   3.169   1.519 -0.1674  0.3783 -0.0103
 3160SOL    HW121113   2.448   3.147   1.428 -2.4201 -1.5224 -0.0623
 3160SOL    HW221114   2.424   3.265   1.515 -2.2978  0.3484  0.8684
 3161SOL     OW21115   1.645   4.190   4.574 -0.5913  0.3204 -0.3594
 3161SOL    HW121116   1.694   4.272   4.567  0.4660 -0.3545 -0.7597
 3161SOL    HW221117   1.629   4.162   4.484  3.0701  0.9428 -1.1812
 3162SOL     OW21118   2.259   0.657   6.854 -0.4221 -0.2591  0.2159
 3162SOL    HW121119   2.189   0.604   6.815 -0.4872 -0.6802  0.9114
 3162SOL    HW221120   2.254   0.742   6.811 -1.3339 -0.4845 -0.1298
 3163SOL     OW21121   3.839   0.504   2.239  0.4233  0.2984 -0.6607
 3163SOL    HW121122   3.826   0.583   2.188 -2.1756  0.6774  0.5850
 3163SOL    HW221123   3.749   0.489   2.266 -0.0773  1.4094 -1.7251
 3164SOL     OW21124   1.876   1.647   0.780 -0.0739 -0.4073 -0.0574
 3164SOL    HW121125   1.819   1.631   0.705 -1.0878  0.1914  0.5866
 3164SOL    HW221126   1.829   1.599   0.849  0.7671  0.3000  1.0042
 3165SOL     OW21127   1.111   1.563   4.039 -0.1727 -0.1001  0.0228
 3165SOL    HW121128   1.085   1.648   4.003  1.1065  0.5034  0.5208
 3165SOL    HW221129   1.207   1.571   4.038 -0.2923  1.3148 -0.0062
 3166SOL     OW21130   4.601   1.692   3.477 -0.1332 -0.7273  0.4484
 3166SOL    HW121131   4.553   1.655   3.552 -0.3715  1.0792  1.1977
 3166SOL    HW221132   4.531   1.712   3.415 -0.0679  1.1104  0.9556
 3167SOL     OW21133   1.194   2.331   4.510 -0.0922 -0.5487 -0.0304
 3167SOL    HW121134   1.100   2.339   4.529 -0.0231 -0.1955  0.1717
 3167SOL    HW221135   1.214   2.284   4.590  2.7608  1.3812  0.3996
 3168SOL     OW21136   0.400   3.233   6.466 -0.2873  0.3847  0.4301
 3168SOL    HW121137   0.324   3.227   6.525 -0.1837 -0.7482  0.4462
 3168SOL    HW221138   0.449   3.160   6.503 -2.0422 -0.7178  0.5623
 3169SOL     OW21139   3.840   4.447  17.209  0.1380  0.2637  0.0179
 3169SOL    HW121140   3.922   4.406  17.182 -0.8941 -2.0251  0.3384
 3169SOL    HW221141   3.832   4.515  17.142 -3.8909  1.9880  2.2068
 3170SOL     OW21142   3.778   3.459   4.844 -0.2104 -0.1459  0.3743
 3170SOL    HW121143   3.848   3.522   4.826  0.9948 -1.4051  0.5931
 3170SOL    HW221144   3.702   3.517   4.839  0.0483  0.0029 -1.7358
 3171SOL     OW21145   2.590   3.985   7.145 -0.2274 -0.0843  0.2267
 3171SOL    HW121146   2.568   4.010   7.056 -0.1714 -0.1311  0.1993
 3171SOL    HW221147   2.649   4.053   7.180 -0.1590 -0.1122  0.1664
 3172SOL     OW21148   3.695   2.455   8.193  0.0999  0.3625 -0.2732
 3172SOL    HW121149   3.783   2.420   8.207 -0.5690 -0.5100  1.6293
 3172SOL    HW221150   3.661   2.424   8.277 -2.0906 -0.7993 -1.5797
 3173SOL     OW21151   2.755   0.636   1.947  0.0693 -0.0556  0.0667
 3173SOL    HW121152   2.828   0.697   1.947 -0.3590  0.4525  0.3262
 3173SOL    HW221153   2.740   0.597   2.033  0.4154  0.0877  0.1871
 3174SOL     OW21154   1.455   3.191   7.867 -0.1908  0.0460  0.1722
 3174SOL    HW121155   1.411   3.137   7.933 -0.3561 -0.2703 -0.1985
 3174SOL    HW221156   1.395   3.265   7.872  0.4747  0.7386 -2.3135
 3175SOL     OW21157   4.474   1.908   9.829  0.3359 -0.0799  0.1561
 3175SOL    HW121158   4.502   1.998   9.841 -0.2799  0.0876  0.3341
 3175SOL    HW221159   4.420   1.893   9.907 -0.7559 -0.8864 -0.7539
 3176SOL     OW21160   1.931   2.346  11.645  0.3217  0.1826  0.3601
 3176SOL    HW121161   1.959   2.417  11.702 -0.3145  1.3294 -0.7505
 3176SOL    HW221162   1.999   2.359  11.579 -1.6028  0.9668 -1.4601
 3177SOL     OW21163   1.926   3.347   2.890 -0.0222  0.1102  0.3475
 3177SOL    HW121164   1.946   3.421   2.832  1.7703 -0.7193 -0.1101
 3177SOL    HW221165   1.895   3.392   2.968  0.7809  2.5422 -0.7406
 3178SOL     OW21166   2.623   0.332   4.739 -0.9109 -0.4827  0.2789
 3178SOL    HW121167   2.627   0.375   4.824  0.7436 -0.1693  0.0557
 3178SOL    HW221168   2.709   0.289   4.730 -0.8170 -0.1851 -0.2712
 3179SOL     OW21169   4.387   2.709  11.396  0.4307 -0.8649  0.4180
 3179SOL    HW121170   4.438   2.737  11.320  3.2847 -2.2958  1.8056
 3179SOL    HW221171   4.296   2.731  11.375 -0.6195 -3.2197  2.3962
 3180SOL     OW21172   0.690   1.683  11.720 -0.6024 -0.5092  0.0408
 3180SOL    HW121173   0.614   1.646  11.764 -0.4944 -0.0298  0.6324
 3180SOL    HW221174   0.666   1.776  11.726  0.6045 -0.0216 -2.4438
 3181SOL     OW21175   2.851   1.460   9.162 -0.8942 -0.3591 -0.1584
 3181SOL    HW121176   2.873   1.391   9.100  0.1482 -1.1293  1.0755
 3181SOL    HW221177   2.933   1.509   9.165 -2.2289  1.9514 -0.8700
 3182SOL     OW21178   2.989   4.672   3.883 -0.8627  0.5215 -0.3591
 3182SOL    HW121179   3.064   4.723   3.913 -1.0442  0.2883  0.4958
 3182SOL    HW221180   2.930   4.740   3.919 -1.8132  0.8570 -2.5313
 3183SOL     OW21181   4.712   1.509   6.268  0.1905 -0.0289  0.6480
 3183SOL    HW121182   4.642   1.444   6.257 -0.9575  1.6441 -2.0467
 3183SOL    HW221183   4.690   1.555   6.348  1.2539 -0.5660  1.2371
 3184SOL     OW21184   0.814   1.590   7.962  0.3815 -0.5644  0.2735
 3184SOL    HW121185   0.861   1.521   8.008 -0.9453 -1.0660  0.8554
 3184SOL    HW221186   0.728   1.550   7.953  0.0276 -0.0150  1.2133
 3185SOL     OW21187   3.797   4.203   9.368  0.1436  0.9741 -0.6032
 3185SOL    HW121188   3.859   4.145   9.414 -1.1685  0.3467  0.3910
 3185SOL    HW221189   3.720   4.148   9.380  1.3035 -0.4212  0.5020
 3186SOL     OW21190   3.268   1.612  10.514  0.3142  0.0265  0.3015
 3186SOL    HW121191   3.223   1.527  10.505 -0.5585  0.3807  1.2786
 3186SOL    HW221192   3.316   1.620  10.432 -0.5130  1.3353 -0.0421
 3187SOL     OW21193   3.313   0.439   2.691 -0.0959  0.5716  0.0584
 3187SOL    HW121194   3.267   0.498   2.631 -0.0175 -1.0223 -1.5569
 3187SOL    HW221195   3.349   0.377   2.627  1.2073  1.1891  0.1942
 3188SOL     OW21196   4.590   4.602  17.258  0.2182 -0.4432 -0.7657
 3188SOL    HW121197   4.562   4.693  17.267 -0.7582 -0.8817  0.6119
 3188SOL    HW221198   4.573   4.564  17.344 -1.1070 -1.5027 -1.5026
 3189SOL     OW21199   0.342   4.520   4.726  0.2988 -0.4872  0.1530
 3189SOL    HW121200   0.349   4.587   4.793  2.2434  0.1502 -0.6649
 3189SOL    HW221201   0.336   4.576   4.649 -2.9911 -0.2434  0.6151
 3190SOL     OW21202   2.994   1.423   2.027  0.6504  0.0634  0.4551
 3190SOL    HW121203   3.038   1.433   1.943 -0.5906  2.1557  0.0442
 3190SOL    HW221204   3.008   1.513   2.056 -0.2364  0.9117 -1.7240
 3191SOL     OW21205   3.742   1.650   3.859  0.3224 -0.3245  0.0892
 3191SOL    HW121206   3.818   1.600   3.832  0.2590 -0.6346  0.4948
 3191SOL    HW221207   3.766   1.742   3.848  1.5349 -0.6877 -0.2607
 3192SOL     OW21208   2.312   4.335  15.515 -0.1091 -0.6712 -0.2756
 3192SOL    HW121209   2.268   4.398  15.458 -1.0689 -1.8433 -0.8205
 3192SOL    HW221210   2.260   4.259  15.489 -1.9105  0.3186  0.4365
 3193SOL     OW21211   4.110   0.885   8.433 -0.4572 -0.3098 -0.2667
 3193SOL    HW121212   4.083   0.918   8.519  2.6106  2.8986 -0.5174
 3193SOL    HW221213   4.084   0.963   8.384 -2.0816 -0.3477  0.5461
 3194SOL     OW21214   0.969   3.965   6.403  0.3586 -0.2800  0.1953
 3194SOL    HW121215   0.969   3.991   6.495 -0.6547  1.5983 -0.3250
 3194SOL    HW221216   0.942   4.046   6.360 -1.0825 -1.8795 -1.9277
 3195SOL     OW21217   3.275   4.293   0.678 -0.5581 -0.2479 -0.1729
 3195SOL    HW121218   3.302   4.260   0.592 -2.6406 -0.5454 -0.7107
 3195SOL    HW221219   3.304   4.219   0.731  1.6502 -0.4065 -1.5931
 3196SOL     OW21220   1.602   4.523  10.057 -0.1974 -0.2995  0.0184
 3196SOL    HW121221   1.599   4.542  10.151 -1.5461  2.6802 -0.5935
 3196SOL    HW221222   1.600   4.428  10.069 -1.4015  0.1085  3.2089
 3197SOL     OW21223   0.509   1.963  11.953 -0.3990 -0.2123  0.1288
 3197SOL    HW121224   0.597   1.969  11.916  0.0620  1.3433  1.4879
 3197SOL    HW221225   0.485   2.055  11.936  1.9462  0.5045  0.7611
 3198SOL     OW21226   4.709   4.528   1.517  0.2297 -0.0015  0.2762
 3198SOL    HW121227   4.704   4.434   1.533  0.1980  0.1161  0.9577
 3198SOL    HW221228   0.063   4.545   1.503 -0.1772  0.3226 -2.0735
 3199SOL     OW21229   2.157   2.744   5.727 -0.2494 -0.3958  0.0170
 3199SOL    HW121230   2.064   2.721   5.727 -0.8178  1.9572 -1.5350
 3199SOL    HW221231   2.164   2.809   5.657 -0.4544  0.1395  0.4887
 3200SOL     OW21232   0.894   1.380   8.172  0.1164 -0.3498 -0.5225
 3200SOL    HW121233   0.903   1.421   8.258  1.8263 -0.5866 -0.5861
 3200SOL    HW221234   0.803   1.350   8.181  0.4236 -1.0337  0.3625
 3201SOL     OW21235   1.057   3.982   2.448 -0.7682 -0.5973  0.1490
 3201SOL    HW121236   1.097   4.057   2.404 -0.1162 -0.7778  0.4315
 3201SOL    HW221237   1.050   4.014   2.538 -0.0965  0.3260 -0.1274
 3202SOL     OW21238   4.650   4.291   7.397 -0.2038  0.0557 -0.2348
 3202SOL    HW121239   4.726   4.236   7.417 -0.3344  0.1431  0.5210
 3202SOL    HW221240   4.695   4.355   7.342  0.3792  0.9558  1.2769
 3203SOL     OW21241   4.364   0.476  13.614 -0.0667  0.2431  0.7437
 3203SOL    HW121242   4.386   0.558  13.569  1.3782 -0.3661  0.3240
 3203SOL    HW221243   4.393   0.414  13.547  1.6554  2.2836 -0.4216
 3204SOL     OW21244   0.261   1.018   7.658  0.5209 -0.0731  0.1617
 3204SOL    HW121245   0.196   0.968   7.708 -0.2985  1.0658  0.2478
 3204SOL    HW221246   0.206   1.081   7.611  0.2335 -0.3342  0.1481
 3205SOL     OW21247   1.595   1.383   4.844  0.4525 -0.1448  0.1480
 3205SOL    HW121248   1.679   1.339   4.856  0.5501  0.4690  1.7695
 3205SOL    HW221249   1.531   1.312   4.849 -0.3423  0.7675  3.0726
 3206SOL     OW21250   0.085   3.461   5.464 -0.0621 -0.2777  0.1423
 3206SOL    HW121251   0.049   3.548   5.445 -0.4889 -0.5773 -0.4236
 3206SOL    HW221252   0.011   3.413   5.499 -0.1092  1.0412  1.8756
 3207SOL     OW21253   2.522   3.756  12.149 -0.5016  0.0204  0.3337
 3207SOL    HW121254   2.542   3.808  12.227  2.5024  0.3922 -0.6807
 3207SOL    HW221255   2.470   3.689  12.194  0.9228 -1.4855 -0.2826
 3208SOL     OW21256   4.083   3.904   1.866  0.6022  0.1745 -0.3608
 3208SOL    HW121257   4.041   3.818   1.866  0.2962  0.3217  2.3113
 3208SOL    HW221258   4.043   3.941   1.787  0.8876 -0.1919 -0.6774
 3209SOL     OW21259   2.759   3.297   7.061  0.1870 -0.1195 -0.3092
 3209SOL    HW121260   2.787   3.373   7.111  2.0162  0.7878 -2.6886
 3209SOL    HW221261   2.700   3.252   7.121  1.9577 -0.5794  1.0780
 3210SOL     OW21262   4.336   0.847   9.773  0.1043 -0.2856 -0.4494
 3210SOL    HW121263   4.261   0.901   9.748  0.9601  0.5565 -1.2134
 3210SOL    HW221264   4.356   0.797   9.694 -0.5697 -1.2512 -0.0035
 3211SOL     OW21265   4.303   0.817   3.192 -0.7641  0.1706  0.1536
 3211SOL    HW121266   4.284   0.884   3.127  0.2765  2.4595  2.2207
 3211SOL    HW221267   4.371   0.771   3.141 -1.9429 -1.3364 -0.0572
 3212SOL     OW21268   1.317   3.428   5.340  0.0758 -0.0560  0.1111
 3212SOL    HW121269   1.361   3.501   5.298  1.5740 -0.7991  0.3948
 3212SOL    HW221270   1.376   3.411   5.414 -0.4354  1.3327  0.8560
 3213SOL     OW21271   0.664   3.222   9.517  0.0605  0.2722 -0.5239
 3213SOL    HW121272   0.636   3.160   9.449 -0.1355 -0.1869 -0.0247
 3213SOL    HW221273   0.614   3.302   9.502  0.9783  0.7919 -0.8016
 3214SOL     OW21274   1.476   3.139   4.246 -0.3391  0.5699 -0.4503
 3214SOL    HW121275   1.515   3.181   4.170  2.0944 -1.7417 -0.4874
 3214SOL    HW221276   1.499   3.206   4.310  1.8585 -0.3416 -0.2880
 3215SOL     OW21277   2.405   0.033   9.056  0.2408  0.5420  0.8475
 3215SOL    HW121278   2.388   0.112   9.106  1.1255  0.4726  1.2513
 3215SOL    HW221279   2.403   0.078   8.971 -1.8195  0.1875  0.6909
 3216SOL     OW21280   3.907   4.441   8.972 -0.2152  0.2107 -0.4205
 3216SOL    HW121281   3.929   4.505   9.039  1.6838  1.1844 -1.9627
 3216SOL    HW221282   3.933   4.356   9.008  1.4482  1.1105  0.5074
 3217SOL     OW21283   3.242   2.093  11.208 -0.5337  0.6509  0.2629
 3217SOL    HW121284   3.295   2.064  11.283  2.5062 -0.4609 -2.3089
 3217SOL    HW221285   3.167   2.035  11.214 -1.0661  0.9115 -3.8216
 3218SOL     OW21286   3.913   3.253   5.487 -0.4080  0.5687  0.0123
 3218SOL    HW121287   3.957   3.169   5.478 -1.0583  0.0431  1.6635
 3218SOL    HW221288   3.968   3.302   5.549 -0.4360 -0.4547  0.8465
 3219SOL     OW21289   4.214   2.600   2.827  0.1698 -0.1456  0.6611
 3219SOL    HW121290   4.127   2.603   2.866  0.4740  2.6675  1.0861
 3219SOL    HW221291   4.274   2.634   2.893  0.3329 -0.2218  0.5543
 3220SOL     OW21292   2.622   3.184   5.493 -0.0121 -0.5134 -0.2119
 3220SOL    HW121293   2.560   3.230   5.550  0.6431  0.2100 -0.0951
 3220SOL    HW221294   2.650   3.106   5.540 -0.6605 -0.3548  0.4427
 3221SOL     OW21295   0.654   2.272  11.688 -0.1345  0.0048  0.4493
 3221SOL    HW121296   0.748   2.287  11.702 -0.3479  1.7186  0.0038
 3221SOL    HW221297   0.652   2.254  11.594 -1.3563  1.0308  0.2911
 3222SOL     OW21298   3.547   1.422   3.831 -0.3962 -0.1164  0.4752
 3222SOL    HW121299   3.530   1.458   3.744 -0.9492 -2.4222 -0.3629
 3222SOL    HW221300   3.618   1.483   3.853  0.0535 -0.3184 -0.4230
 3223SOL     OW21301   4.304   2.143  12.453  0.4569  0.0641  0.1343
 3223SOL    HW121302   4.390   2.102  12.466  1.5639  2.6637  1.0975
 3223SOL    HW221303   4.300   2.124  12.359 -0.6514 -0.5934  0.3162
 3224SOL     OW21304   2.860   2.811   5.376  1.1510  0.3905  0.3520
 3224SOL    HW121305   2.956   2.807   5.368  1.2370  0.3164  1.4868
 3224SOL    HW221306   2.851   2.883   5.313 -1.0318 -0.3556 -0.1987
 3225SOL     OW21307   2.289   2.853   9.675  0.0504  0.3182 -0.1531
 3225SOL    HW121308   2.201   2.865   9.711 -0.5499 -0.7524 -1.2600
 3225SOL    HW221309   2.314   2.765   9.702 -2.3652  0.5050  2.6790
 3226SOL     OW21310   0.455   0.807   4.423 -0.3822 -0.5454 -0.3150
 3226SOL    HW121311   0.457   0.718   4.387 -1.8607  0.7833 -3.7100
 3226SOL    HW221312   0.539   0.837   4.389 -0.5587 -0.2391 -0.4810
 3227SOL     OW21313   0.702   0.638   3.283  0.4977  0.3358 -0.0765
 3227SOL    HW121314   0.697   0.568   3.347 -3.5088 -1.0714 -1.9220
 3227SOL    HW221315   0.630   0.698   3.301  0.7490  0.8809 -0.8628
 3228SOL     OW21316   2.173   3.907  16.413  0.2908 -0.2308 -0.8519
 3228SOL    HW121317   2.101   3.856  16.376 -0.0513  1.1173 -2.0759
 3228SOL    HW221318   2.219   3.934  16.334 -2.2203  2.1094 -1.5124
 3229SOL     OW21319   1.527   2.613   3.737 -0.2057  0.1078 -0.4445
 3229SOL    HW121320   1.576   2.681   3.691 -0.6529 -0.9541 -2.4841
 3229SOL    HW221321   1.489   2.571   3.660 -0.1299 -1.6792  0.4880
 3230SOL     OW21322   1.471   1.008  15.502  0.3378 -0.0037  0.4293
 3230SOL    HW121323   1.528   0.951  15.451 -0.0286  0.8211 -0.8947
 3230SOL    HW221324   1.535   1.049  15.561 -1.4830 -0.5945  2.8367
 3231SOL     OW21325   0.620   4.197   5.546 -0.0549 -0.0206 -0.5343
 3231SOL    HW121326   0.650   4.118   5.590 -0.1925  0.7454  0.9546
 3231SOL    HW221327   0.699   4.209   5.493 -0.3957 -0.3967 -1.1189
 3232SOL     OW21328   3.852   0.834   3.212 -0.3068 -0.3019  0.5915
 3232SOL    HW121329   3.781   0.797   3.265 -0.4624  0.1983  0.7293
 3232SOL    HW221330   3.886   0.758   3.165  0.0871 -0.2327  0.7643
 3233SOL     OW21331   2.156   3.811  14.691  0.3573 -0.0244  0.4461
 3233SOL    HW121332   2.094   3.845  14.756 -1.0053 -0.8768 -0.4097
 3233SOL    HW221333   2.161   3.874  14.619  0.5198 -0.8749 -0.2743
 3234SOL     OW21334   3.409   3.558   2.335 -0.7103 -0.5625 -0.0184
 3234SOL    HW121335   3.326   3.573   2.380  0.4730  0.8569  1.7061
 3234SOL    HW221336   3.379   3.577   2.246 -1.1103  1.2207  0.4875
 3235SOL     OW21337   4.090   2.986   9.590  0.2666 -0.1167  0.1278
 3235SOL    HW121338   4.037   3.031   9.525  0.5344 -1.1006 -0.7775
 3235SOL    HW221339   4.171   3.034   9.572 -0.9952  1.3450 -1.6217
 3236SOL     OW21340   3.017   0.438   4.117 -0.8692  0.1459 -0.1795
 3236SOL    HW121341   2.930   0.421   4.081  0.1030  0.9649 -2.8716
 3236SOL    HW221342   3.072   0.428   4.039 -0.6674  0.1301 -0.0369
 3237SOL     OW21343   0.623   0.314  17.633  0.5026  0.3143 -0.3680
 3237SOL    HW121344   0.553   0.250  17.643  0.1713  0.6096 -0.7464
 3237SOL    HW221345   0.576   0.376  17.577 -0.9016 -0.4365 -0.0207
 3238SOL     OW21346   1.796   2.026   4.730 -0.2491 -0.5966 -0.4275
 3238SOL    HW121347   1.709   2.039   4.768 -0.5098 -1.5066 -0.7065
 3238SOL    HW221348   1.812   1.932   4.729  0.3687 -0.5200  2.0579
 3239SOL     OW21349   3.986   0.542  14.164 -0.9167  0.2228  0.1208
 3239SOL    HW121350   3.948   0.459  14.193  1.8406 -0.8272  0.7281
 3239SOL    HW221351   3.988   0.514  14.073  1.6242 -1.0344  0.5747
 3240SOL     OW21352   0.535   3.468   3.896  0.2599  1.1084 -0.6018
 3240SOL    HW121353   0.510   3.559   3.912  0.3600  1.1901 -0.9025
 3240SOL    HW221354   0.545   3.426   3.981 -0.7869  0.1400 -0.9555
 3241SOL     OW21355   2.147   2.195   8.815 -0.0057 -0.2044 -0.0064
 3241SOL    HW121356   2.142   2.233   8.903 -0.6495  1.0416 -0.5867
 3241SOL    HW221357   2.120   2.104   8.829  2.1986 -0.6893  1.2485
 3242SOL     OW21358   0.350   0.075   5.310  0.0807 -0.6912 -0.1276
 3242SOL    HW121359   0.387   0.158   5.341 -0.2295 -0.9882  1.0419
 3242SOL    HW221360   0.265   0.079   5.354 -0.7076 -1.2595 -1.6146
 3243SOL     OW21361   0.783   1.280   5.040  0.1943  0.6362 -0.4404
 3243SOL    HW121362   0.818   1.362   5.075  2.1775 -0.1597 -0.5718
 3243SOL    HW221363   0.805   1.294   4.948  0.6002 -2.1728 -0.7672
 3244SOL     OW21364   2.297   1.140   2.120  0.0940 -0.6975  0.1816
 3244SOL    HW121365   2.345   1.215   2.085  0.7191 -0.9921  0.4096
 3244SOL    HW221366   2.298   1.088   2.040 -2.6630 -0.5367  0.0402
 3245SOL     OW21367   0.577   3.646  10.615  0.1894  0.6757  0.4441
 3245SOL    HW121368   0.633   3.569  10.602  1.7583  1.3041  3.4843
 3245SOL    HW221369   0.560   3.674  10.525 -0.0320  1.4270  0.7197
 3246SOL     OW21370   0.343   2.625   2.380  0.8030 -0.0482  0.4525
 3246SOL    HW121371   0.404   2.626   2.455  1.3846 -0.1359 -0.0187
 3246SOL    HW221372   0.257   2.604   2.416  0.2163  0.3493 -0.7140
 3247SOL     OW21373   2.955   1.026   1.469 -0.2867  0.1796 -0.4949
 3247SOL    HW121374   3.022   1.081   1.508  0.9624  0.4012 -2.9542
 3247SOL    HW221375   2.949   0.963   1.541  0.3362  0.9170  0.1855
 3248SOL     OW21376   3.088   4.542  13.001  0.3311  0.0737 -0.1410
 3248SOL    HW121377   3.148   4.540  12.926 -1.8823 -1.4449 -1.8750
 3248SOL    HW221378   3.018   4.596  12.964  0.6463 -0.1023 -1.0055
 3249SOL     OW21379   2.034   0.588   6.723 -0.3046 -0.0357 -0.2707
 3249SOL    HW121380   1.946   0.624   6.714 -0.6330 -0.9379 -0.6522
 3249SOL    HW221381   2.034   0.504   6.677  0.1568  1.0495 -2.2706
 3250SOL     OW21382   2.607   4.688   7.063  0.3495  0.5846  0.5088
 3250SOL    HW121383   2.660   4.705   7.141 -0.4434  0.1836  1.1337
 3250SOL    HW221384   2.590   4.595   7.079 -2.6212  1.6076  3.2270
 3251SOL     OW21385   3.656   3.155   6.785  0.0392 -0.4666  0.0050
 3251SOL    HW121386   3.574   3.184   6.744 -0.4901 -2.7772 -0.5550
 3251SOL    HW221387   3.682   3.243   6.813  0.6455 -0.9181  0.8506
 3252SOL     OW21388   4.212   2.108   5.398  0.5272 -0.4388  0.2318
 3252SOL    HW121389   4.139   2.142   5.346  1.0128  0.0052 -0.1706
 3252SOL    HW221390   4.161   2.081   5.474  1.1350  2.2800  1.6197
 3253SOL     OW21391   4.259   1.078   7.185  0.3599 -0.2055 -0.9750
 3253SOL    HW121392   4.293   1.070   7.096  0.2883  1.3953 -1.1474
 3253SOL    HW221393   4.210   1.159   7.170 -1.2195 -1.1296 -0.8614
 3254SOL     OW21394   3.477   3.029   9.364 -0.6447 -0.4744  0.7673
 3254SOL    HW121395   3.498   2.958   9.304 -4.2875 -1.1523  0.2930
 3254SOL    HW221396   3.393   3.003   9.401 -1.1528 -1.3328 -1.0137
 3255SOL     OW21397   4.620   0.444   6.083 -0.0280 -0.0061  0.1526
 3255SOL    HW121398   4.580   0.500   6.016 -0.2494  0.1392  0.4088
 3255SOL    HW221399   4.570   0.364   6.067  0.7065 -0.5214  0.4409
 3256SOL     OW21400   0.497   3.232   3.051 -0.0382  0.2342  0.3289
 3256SOL    HW121401   0.485   3.315   3.003  0.2164 -0.0523 -0.2352
 3256SOL    HW221402   0.474   3.269   3.136  1.0398 -0.5779  0.9756
 3257SOL     OW21403   4.033   2.602   0.662 -0.5125  0.2310 -0.5825
 3257SOL    HW121404   3.966   2.657   0.703 -0.3761 -0.4065  0.4898
 3257SOL    HW221405   4.108   2.661   0.672 -1.0322  0.8377 -0.2004
 3258SOL     OW21406   0.582   0.165   8.933 -0.4718 -0.1520 -0.5354
 3258SOL    HW121407   0.504   0.192   8.884 -1.0018 -0.4491  0.1309
 3258SOL    HW221408   0.636   0.137   8.860  0.9374 -1.6794  1.0845
 3259SOL     OW21409   3.219   1.570  15.630 -0.1841 -0.1845 -0.2757
 3259SOL    HW121410   3.268   1.591  15.709  2.6808  0.4378 -2.2348
 3259SOL    HW221411   3.200   1.476  15.637  0.0880 -0.1590  0.8795
 3260SOL     OW21412   1.693   2.761   9.196 -0.0014 -0.1010  0.1231
 3260SOL    HW121413   1.738   2.832   9.151  5.3719 -2.8183  1.2104
 3260SOL    HW221414   1.643   2.732   9.120  1.0384  0.6474 -0.8542
 3261SOL     OW21415   3.381   1.591   7.515 -0.1009 -0.2953  0.0603
 3261SOL    HW121416   3.364   1.500   7.492  1.1943 -0.7349  0.8443
 3261SOL    HW221417   3.301   1.632   7.483  0.7672  1.0660 -0.3561
 3262SOL     OW21418   1.338   3.032   8.046  0.3591  0.1540 -0.0910
 3262SOL    HW121419   1.387   3.011   8.126  2.7409  0.8728 -1.3822
 3262SOL    HW221420   1.358   2.952   7.999  2.0257  0.6987 -0.3026
 3263SOL     OW21421   1.641   3.347  17.096  0.2888 -0.5845  0.0666
 3263SOL    HW121422   1.666   3.436  17.071  1.6724 -0.5590  1.5536
 3263SOL    HW221423   1.689   3.296  17.031 -0.9945 -1.4932 -0.1720
 3264SOL     OW21424   0.169   0.448   2.834 -0.0754 -0.5704  1.0026
 3264SOL    HW121425   0.162   0.353   2.833 -0.7874 -0.4943 -0.4323
 3264SOL    HW221426   0.260   0.445   2.865 -0.0419 -0.7066  0.8902
 3265SOL     OW21427   3.799   3.654  16.972  0.4415 -0.4367  0.2039
 3265SOL    HW121428   3.723   3.711  16.981 -0.4246 -1.4484 -0.6080
 3265SOL    HW221429   3.751   3.571  16.965 -0.6820  0.0277  2.6704
 3266SOL     OW21430   3.643   3.876   8.975 -0.1858  0.4248 -0.2408
 3266SOL    HW121431   3.629   3.960   9.019  1.4521 -0.2956  1.6586
 3266SOL    HW221432   3.652   3.811   9.045  0.5806  0.7417 -0.0448
 3267SOL     OW21433   3.443   1.849   0.850 -0.0928  0.4471 -0.1001
 3267SOL    HW121434   3.490   1.825   0.930 -0.3987 -1.7401 -0.5734
 3267SOL    HW221435   3.471   1.941   0.844 -0.5475  0.7724  2.4931
 3268SOL     OW21436   3.914   4.128  12.020 -0.5791  0.0037 -0.5360
 3268SOL    HW121437   3.937   4.100  11.931 -0.7692 -0.2099 -0.5164
 3268SOL    HW221438   3.960   4.057  12.065  0.0271  0.1170 -0.9695
 3269SOL     OW21439   2.798   0.348  12.939 -0.2029 -0.0646  0.4257
 3269SOL    HW121440   2.876   0.293  12.950 -0.3775 -0.5151 -0.6117
 3269SOL    HW221441   2.824   0.440  12.938 -0.8225  0.1048  0.1716
 3270SOL     OW21442   3.364   1.791   1.918 -0.0499  0.0878  0.6224
 3270SOL    HW121443   3.457   1.805   1.938 -0.1209 -0.3580  1.2799
 3270SOL    HW221444   3.346   1.726   1.986 -0.7755 -1.2198 -0.8266
 3271SOL     OW21445   4.270   4.610   0.289 -0.4814  0.1774  0.5274
 3271SOL    HW121446   4.178   4.584   0.299  0.0322 -1.3206  1.3702
 3271SOL    HW221447   4.315   4.529   0.311  0.5652  0.7748  0.5563
 3272SOL     OW21448   3.914   4.159   7.289 -0.0399  0.2356 -0.4818
 3272SOL    HW121449   3.977   4.199   7.348  3.0679 -3.3235 -1.3845
 3272SOL    HW221450   3.877   4.231   7.238  0.2901  0.2461 -0.7026
 3273SOL     OW21451   3.060   2.633   7.574 -0.2084  0.2435 -0.0415
 3273SOL    HW121452   3.102   2.636   7.659  1.1614 -0.3967 -0.7035
 3273SOL    HW221453   2.968   2.652   7.591 -0.7130 -0.0253 -2.4038
 3274SOL     OW21454   3.880   4.416  15.294 -0.0939 -0.7237 -0.2382
 3274SOL    HW121455   3.900   4.376  15.378  1.1554  0.2752 -0.0568
 3274SOL    HW221456   3.953   4.479  15.298  1.4432 -2.4358 -1.2028
 3275SOL     OW21457   0.212   2.914   5.004  0.3836  0.3874 -0.3660
 3275SOL    HW121458   0.144   2.922   5.071  2.6004 -0.0001  1.9352
 3275SOL    HW221459   0.216   2.818   5.012 -0.1015  0.4493  0.6521
 3276SOL     OW21460   0.992   4.550  17.457  0.1980  0.0277 -0.5183
 3276SOL    HW121461   1.016   4.643  17.464 -0.5809  0.3174 -1.7568
 3276SOL    HW221462   1.029   4.527  17.372  0.3728 -0.9577 -0.1675
 3277SOL     OW21463   2.525   0.347  10.517 -0.2681  0.1878  0.5939
 3277SOL    HW121464   2.462   0.413  10.488  2.7529  2.5703 -0.6116
 3277SOL    HW221465   2.577   0.387  10.586  2.9753  0.5882 -2.0564
 3278SOL     OW21466   4.335   2.359   7.093  0.0343 -0.3580 -0.4670
 3278SOL    HW121467   4.358   2.443   7.054  0.7843  0.5332  1.9255
 3278SOL    HW221468   4.306   2.317   7.012  0.7541 -0.2536 -0.7730
 3279SOL     OW21469   0.336   2.778  11.215 -0.0197 -0.1950 -0.4436
 3279SOL    HW121470   0.393   2.851  11.240  0.7435  0.3086 -3.6018
 3279SOL    HW221471   0.317   2.798  11.123 -3.7491  1.2859  0.6408
 3280SOL     OW21472   1.629   3.116   5.547 -1.0220 -0.2188  0.2489
 3280SOL    HW121473   1.700   3.052   5.542  0.2812  1.1738  1.1391
 3280SOL    HW221474   1.557   3.069   5.505 -2.4363 -0.7811  3.3244
 3281SOL     OW21475   3.566   4.010   0.505 -0.0051 -0.0484 -0.0831
 3281SOL    HW121476   3.593   3.983   0.593  2.3494  0.0635 -0.7666
 3281SOL    HW221477   3.650   4.029   0.463  0.6011  0.6811  1.4371
 3282SOL     OW21478   2.099   2.484  17.252 -0.3292  0.2209 -0.3569
 3282SOL    HW121479   2.192   2.494  17.268 -0.6793 -0.1275  1.9129
 3282SOL    HW221480   2.093   2.500  17.158 -1.0344  3.5813  0.2677
 3283SOL     OW21481   3.615   3.233  13.816 -0.1074 -0.0089  0.5715
 3283SOL    HW121482   3.569   3.264  13.738 -1.2144  2.3751  2.1767
 3283SOL    HW221483   3.559   3.161  13.847 -0.7384  0.3802  0.3395
 3284SOL     OW21484   1.240   1.345  12.941 -0.1232  0.6006  0.6102
 3284SOL    HW121485   1.154   1.320  12.908  0.8360  0.5755 -1.8847
 3284SOL    HW221486   1.282   1.400  12.875 -0.3601 -1.1876 -1.0444
 3285SOL     OW21487   2.757   2.112   6.646  0.4042 -0.5346  0.6849
 3285SOL    HW121488   2.673   2.136   6.608  1.0175  1.0917  0.3381
 3285SOL    HW221489   2.751   2.017   6.646  0.3790 -0.5338 -0.0899
 3286SOL     OW21490   0.853   3.544  17.456  0.0112 -0.4789 -0.1334
 3286SOL    HW121491   0.918   3.555  17.526  0.4137 -1.4280 -0.3536
 3286SOL    HW221492   0.786   3.483  17.487 -2.0211  1.9453  0.2434
 3287SOL     OW21493   4.696   1.240  17.094  0.5174 -0.2326 -0.0492
 3287SOL    HW121494   4.711   1.299  17.021  0.8762 -0.6984 -0.3526
 3287SOL    HW221495   4.643   1.300  17.147 -0.8108 -0.2990 -1.3043
 3288SOL     OW21496   2.389   0.562  10.218 -0.2600  0.3656  0.0677
 3288SOL    HW121497   2.433   0.644  10.196  0.1542 -0.1029 -0.8498
 3288SOL    HW221498   2.393   0.568  10.314 -1.1750 -2.0530  0.2520
 3289SOL     OW21499   0.483   3.416   1.932 -0.4057 -0.0375 -0.0018
 3289SOL    HW121500   0.431   3.475   1.877 -1.4882  0.5150  1.6083
 3289SOL    HW221501   0.513   3.356   1.864  0.5522 -0.8494  1.1349
 3290SOL     OW21502   1.274   2.240   7.945  0.2767 -0.1178 -0.3729
 3290SOL    HW121503   1.316   2.164   7.985 -1.0188 -2.0612 -2.7063
 3290SOL    HW221504   1.191   2.240   7.993 -0.2749 -1.8490 -1.3287
 3291SOL     OW21505   2.636   2.259   4.894  0.1189  0.6098  0.2396
 3291SOL    HW121506   2.665   2.244   4.984 -0.3387  0.0586  0.2925
 3291SOL    HW221507   2.567   2.192   4.892  2.3193 -1.6011 -0.9211
 3292SOL     OW21508   1.195   0.749   9.468  0.3103 -0.0986  0.1527
 3292SOL    HW121509   1.289   0.762   9.482  0.5678 -0.5290 -1.2085
 3292SOL    HW221510   1.169   0.837   9.498 -1.9514 -0.8627  0.4650
 3293SOL     OW21511   4.585   4.530  11.295  0.1375  0.0101 -0.8691
 3293SOL    HW121512   4.576   4.622  11.321  0.5229  0.5963 -2.8174
 3293SOL    HW221513   4.657   4.534  11.232  0.1469  0.0954 -0.8525
 3294SOL     OW21514   3.979   0.444   0.183  0.0862 -0.2303 -0.7948
 3294SOL    HW121515   3.950   0.369   0.133  2.6602  0.4111 -3.2539
 3294SOL    HW221516   4.043   0.404   0.242 -0.0240  1.4673  0.4950
 3295SOL     OW21517   0.408   3.641  12.781  0.1507  0.1292  0.1122
 3295SOL    HW121518   0.471   3.710  12.805  2.2009 -1.7026 -0.0283
 3295SOL    HW221519   0.333   3.664  12.836  0.1494 -1.5128  0.8081
 3296SOL     OW21520   0.862   0.526   5.970 -0.4170 -0.0188 -0.1749
 3296SOL    HW121521   0.929   0.468   5.934 -1.4530 -1.9555  1.0442
 3296SOL    HW221522   0.915   0.569   6.037 -0.4220 -0.2099 -0.0497
 3297SOL     OW21523   2.817   0.987   8.058 -0.0515 -0.5403 -0.1187
 3297SOL    HW121524   2.901   1.032   8.060  0.8364 -2.1736 -0.8675
 3297SOL    HW221525   2.814   0.970   8.152 -2.4633 -0.7184 -0.2161
 3298SOL     OW21526   3.463   0.104   2.764 -0.1636  0.6840 -0.2091
 3298SOL    HW121527   3.530   0.108   2.833  1.8018  0.4968 -2.1072
 3298SOL    HW221528   3.522   0.096   2.689 -1.6244  2.2561 -1.5143
 3299SOL     OW21529   3.470   1.191   3.716 -0.3405 -0.0283  0.1231
 3299SOL    HW121530   3.512   1.206   3.632  0.6908  0.5163  0.7318
 3299SOL    HW221531   3.486   1.273   3.764 -2.0640  0.5794 -0.3439
 3300SOL     OW21532   1.517   2.421   2.417 -0.0333  0.6287 -0.2931
 3300SOL    HW121533   1.481   2.342   2.376  3.6853 -1.2749  0.0979
 3300SOL    HW221534   1.612   2.414   2.418 -0.0937  0.1811  1.9050
 3301SOL     OW21535   0.882   1.419   2.563  0.4108  0.4852  0.0780
 3301SOL    HW121536   0.827   1.425   2.485  0.8135  0.0005 -0.2463
 3301SOL    HW221537   0.839   1.378   2.638  1.2329 -0.3035  0.1156
 3302SOL     OW21538   4.089   3.506   0.032  0.1094 -0.5946  0.2847
 3302SOL    HW121539   4.053   3.429  17.746 -1.1531 -0.2362  0.6841
 3302SOL    HW221540   4.157   3.466   0.086 -1.3350 -2.9486  0.3326
 3303SOL     OW21541   1.293   4.524   5.325  0.1939  0.1791 -0.4031
 3303SOL    HW121542   1.226   4.591   5.312  0.8520  1.1116  0.9892
 3303SOL    HW221543   1.319   4.539   5.416  0.1611  3.0634 -0.8784
 3304SOL     OW21544   2.242   0.762  15.078  0.3382 -0.2627 -0.4461
 3304SOL    HW121545   2.213   0.822  15.147  1.8974 -0.8570  0.7314
 3304SOL    HW221546   2.235   0.674  15.116  0.9951 -0.3980 -0.6364
 3305SOL     OW21547   1.534   0.353   6.469 -0.3694  0.1011  0.4026
 3305SOL    HW121548   1.439   0.363   6.457 -0.5546 -1.6806  0.3283
 3305SOL    HW221549   1.556   0.274   6.420 -1.3669 -0.2306  0.4797
 3306SOL     OW21550   3.071   2.300   1.376 -0.2325  0.5026  0.1345
 3306SOL    HW121551   3.078   2.214   1.418  0.4709  0.7726  0.5814
 3306SOL    HW221552   3.124   2.353   1.436  2.3061  1.3721 -2.8846
 3307SOL     OW21553   3.628   3.000   5.902 -0.1397  0.2327  0.2879
 3307SOL    HW121554   3.583   3.065   5.848  0.1161 -0.2645 -0.5264
 3307SOL    HW221555   3.555   2.938   5.904  2.2374 -2.5442  1.1671
 3308SOL     OW21556   2.587   2.958   7.579  0.0069 -0.3699  0.0947
 3308SOL    HW121557   2.537   2.990   7.504 -1.4988 -1.3861  0.6660
 3308SOL    HW221558   2.652   3.028   7.578  0.1931 -0.4986  3.1697
 3309SOL     OW21559   3.481   2.693   2.096 -0.0421  0.5062 -0.0464
 3309SOL    HW121560   3.425   2.733   2.164  0.0331  2.3759 -1.0794
 3309SOL    HW221561   3.408   2.666   2.040 -0.3045 -0.5470  0.8016
 3310SOL     OW21562   0.550   1.539   1.828 -0.6006  0.1681  0.8719
 3310SOL    HW121563   0.489   1.479   1.871 -2.4280  1.0184 -0.5006
 3310SOL    HW221564   0.627   1.484   1.818 -1.3683 -0.7185 -0.2281
 3311SOL     OW21565   2.412   4.610   4.139  0.3409  0.7461 -0.0742
 3311SOL    HW121566   2.398   4.611   4.044  1.7659  0.8263 -0.2828
 3311SOL    HW221567   2.327   4.569   4.157  1.6130 -1.8402  0.1449
 3312SOL     OW21568   0.423   1.993   7.875 -0.5604  0.2937 -0.0835
 3312SOL    HW121569   0.435   1.942   7.955 -0.8929  2.3523  1.2569
 3312SOL    HW221570   0.328   2.008   7.873 -0.3103  1.9534  1.4849
 3313SOL     OW21571   4.698   1.798  12.356  0.1394 -0.3095  0.2663
 3313SOL    HW121572   4.685   1.704  12.371  0.9528 -0.6164 -0.9283
 3313SOL    HW221573   4.736   1.820  12.441  1.7618 -2.1543  0.0275
 3314SOL     OW21574   0.109   4.258  10.598  0.3380  0.7589  0.2631
 3314SOL    HW121575   0.200   4.284  10.590  0.9867 -1.6349 -0.1053
 3314SOL    HW221576   0.089   4.268  10.691  0.2857  0.8407  0.2437
 3315SOL     OW21577   3.325   1.208   4.845 -1.0316  0.3354  0.1493
 3315SOL    HW121578   3.246   1.259   4.865 -1.5709 -0.5905  0.3506
 3315SOL    HW221579   3.282   1.136   4.801 -1.2460  0.8169 -0.4309
 3316SOL     OW21580   4.240   4.652   2.987 -0.7344  0.2165  0.3694
 3316SOL    HW121581   4.284   4.726   3.028 -0.2930  0.7441 -1.0542
 3316SOL    HW221582   4.214   4.600   3.063 -3.1333  1.1419  0.1918
 3317SOL     OW21583   3.370   2.392   6.066 -0.4652 -0.5995  0.3434
 3317SOL    HW121584   3.424   2.316   6.043 -0.5314 -0.0214 -1.6978
 3317SOL    HW221585   3.305   2.372   6.133 -0.1182  1.5397  1.3368
 3318SOL     OW21586   0.278   2.993   7.880 -0.2318  0.0752 -0.5022
 3318SOL    HW121587   0.363   2.978   7.839 -0.4157 -1.0915 -0.4530
 3318SOL    HW221588   0.237   2.908   7.867 -0.1991 -0.0584  0.3017
 3319SOL     OW21589   3.595   2.054   0.130 -0.2798  0.0631 -0.2960
 3319SOL    HW121590   3.531   2.030   0.063 -0.5659  0.5350 -0.1940
 3319SOL    HW221591   3.545   2.122   0.176 -3.0665 -0.8343 -1.9920
 3320SOL     OW21592   3.333   3.189  15.844  0.6277 -0.3891 -0.1649
 3320SOL    HW121593   3.247   3.214  15.879 -0.2851 -0.5237 -2.3430
 3320SOL    HW221594   3.317   3.103  15.807  0.9241 -0.6258  0.2503
 3321SOL     OW21595   2.404   3.590   3.294 -0.7073 -0.0925  0.1387
 3321SOL    HW121596   2.447   3.515   3.253  1.5889  1.8097 -0.9486
 3321SOL    HW221597   2.469   3.601   3.364  0.2637 -2.9009 -0.3434
 3322SOL     OW21598   2.724   4.371   7.486 -0.3453 -0.0264  0.3206
 3322SOL    HW121599   2.703   4.405   7.573 -1.9329  1.3054 -0.5731
 3322SOL    HW221600   2.707   4.277   7.494 -0.2167 -0.0098  0.8057
 3323SOL     OW21601   4.022   3.940  11.870 -0.1527  0.3784  0.3354
 3323SOL    HW121602   3.950   3.877  11.872 -1.0554  1.4404  1.1748
 3323SOL    HW221603   4.059   3.914  11.786 -2.1510  0.4486 -0.5689
 3324SOL     OW21604   3.114   2.853   6.548 -0.2794  0.2690 -0.0397
 3324SOL    HW121605   3.091   2.945   6.541  0.5124  0.6194  1.9328
 3324SOL    HW221606   3.189   2.857   6.607 -0.9588 -1.3175  0.9461
 3325SOL     OW21607   4.500   4.458   7.101  0.0287  0.2573  0.6546
 3325SOL    HW121608   4.420   4.496   7.137 -1.4549 -0.6046 -1.7721
 3325SOL    HW221609   4.572   4.513   7.132  0.8137 -0.1496 -0.4224
 3326SOL     OW21610   1.285   3.819   2.459 -0.1490 -0.3078 -0.3838
 3326SOL    HW121611   1.305   3.891   2.519  0.6048  0.8497 -2.0192
 3326SOL    HW221612   1.190   3.833   2.460  0.0306  1.1109 -1.3627
 3327SOL     OW21613   1.285   1.496   7.928 -0.2327 -0.5206  0.1897
 3327SOL    HW121614   1.212   1.552   7.956 -1.0166  0.3167 -3.4920
 3327SOL    HW221615   1.231   1.420   7.906  0.0421 -0.2686 -1.3324
 3328SOL     OW21616   1.674   0.585   6.861 -0.2047  0.1012 -0.0484
 3328SOL    HW121617   1.679   0.600   6.955 -0.4162 -1.7682  0.2585
 3328SOL    HW221618   1.710   0.497   6.858 -1.0401 -0.2244 -0.3520
 3329SOL     OW21619   3.786   0.795   1.762 -0.4156 -0.0999 -0.4426
 3329SOL    HW121620   3.867   0.769   1.718  0.1422 -0.6341  0.8923
 3329SOL    HW221621   3.804   0.888   1.778 -1.4315 -0.1150  0.8459
 3330SOL     OW21622   2.575   2.026   0.974  0.2525  0.2048 -0.1435
 3330SOL    HW121623   2.555   2.064   0.888  1.9534  1.7351  0.1469
 3330SOL    HW221624   2.567   2.110   1.019 -0.6011 -0.0119  0.1092
 3331SOL     OW21625   1.827   2.721   4.266 -0.1848  0.2294  0.0530
 3331SOL    HW121626   1.738   2.744   4.292 -0.3268  1.8222 -1.8237
 3331SOL    HW221627   1.829   2.626   4.260 -0.0716  0.2792 -0.7953
 3332SOL     OW21628   4.559   1.515   5.114 -0.0898  0.2119  0.2171
 3332SOL    HW121629   4.639   1.481   5.074  0.3253  0.5512  0.7549
 3332SOL    HW221630   4.489   1.455   5.087 -0.4838  0.1280  1.4302
 3333SOL     OW21631   3.202   1.013  12.540 -0.2070 -0.1421 -0.1136
 3333SOL    HW121632   3.252   1.078  12.589 -0.0639  0.3431 -0.9011
 3333SOL    HW221633   3.243   0.929  12.561 -0.0019 -0.2259 -0.8302
 3334SOL     OW21634   3.544   3.884  14.866  0.3725  0.4617 -0.4942
 3334SOL    HW121635   3.544   3.794  14.900  0.7969 -0.4639 -2.9937
 3334SOL    HW221636   3.542   3.878  14.771  0.5425 -1.0199 -0.4136
 3335SOL     OW21637   1.759   0.114   1.930 -0.2799  0.0088 -0.0842
 3335SOL    HW121638   1.830   0.111   1.994  1.8911 -0.7003 -2.5179
 3335SOL    HW221639   1.691   0.061   1.971 -1.3456  0.4885 -1.2496
 3336SOL     OW21640   3.028   1.579   5.907  0.0222 -0.4694 -0.2284
 3336SOL    HW121641   2.976   1.654   5.878 -0.3527 -1.3293 -1.8053
 3336SOL    HW221642   3.022   1.583   6.002  0.3538  2.0993 -0.3373
 3337SOL     OW21643   1.915   4.404   9.650  0.3113 -0.0058  0.4388
 3337SOL    HW121644   1.860   4.347   9.595 -1.0858 -0.8157  2.6594
 3337SOL    HW221645   1.883   4.389   9.739 -1.9422  1.4828 -0.0999
 3338SOL     OW21646   0.788   4.395   6.215  0.1986 -0.4250 -0.1136
 3338SOL    HW121647   0.709   4.376   6.164  1.1516  0.3196 -1.8503
 3338SOL    HW221648   0.852   4.424   6.150  1.2360  1.3258  1.6905
 3339SOL     OW21649   1.806   1.959   7.777  0.2703  0.2454  0.1746
 3339SOL    HW121650   1.871   2.024   7.805  0.6433  0.1461 -0.4598
 3339SOL    HW221651   1.862   1.914   7.713  0.6694  1.1823 -0.1368
 3340SOL     OW21652   2.822   1.461   3.277  1.3737 -0.0806 -0.3671
 3340SOL    HW121653   2.768   1.514   3.336 -0.3639 -1.7469 -0.4564
 3340SOL    HW221654   2.861   1.412   3.350  1.1480 -0.6768 -0.6496
 3341SOL     OW21655   4.418   2.234   5.523 -0.0342 -0.2313 -0.1093
 3341SOL    HW121656   4.356   2.180   5.475  0.7395 -0.2982 -1.0216
 3341SOL    HW221657   4.355   2.299   5.552 -0.0946 -1.2500  2.0862
 3342SOL     OW21658   0.626   2.172  13.381 -0.0130 -0.5318  0.3371
 3342SOL    HW121659   0.700   2.194  13.437  0.7295  0.3794 -1.0007
 3342SOL    HW221660   0.558   2.228  13.417 -0.8121 -1.4919  0.3346
 3343SOL     OW21661   3.970   1.104   4.788  0.0079 -0.2377 -0.4927
 3343SOL    HW121662   3.922   1.146   4.717  0.6131  2.7787  0.9060
 3343SOL    HW221663   4.053   1.069   4.758  0.4115 -0.5525  0.9725
 3344SOL     OW21664   3.697   3.431   9.213 -0.2577 -0.1370  0.1727
 3344SOL    HW121665   3.671   3.428   9.121 -0.0068 -0.8437  0.1196
 3344SOL    HW221666   3.725   3.339   9.211 -1.6415 -0.5991  1.8596
 3345SOL     OW21667   0.572   3.762   3.943  0.0296  0.9365 -0.2812
 3345SOL    HW121668   0.577   3.735   4.035 -0.0628  2.0823  0.0725
 3345SOL    HW221669   0.515   3.839   3.953 -1.0154  0.2521 -0.9563
 3346SOL     OW21670   3.149   1.518   9.129  0.9222  0.3211  0.2008
 3346SOL    HW121671   3.239   1.494   9.107  0.3883 -0.3598 -1.2125
 3346SOL    HW221672   3.163   1.537   9.222 -0.0918 -1.1004  0.6410
 3347SOL     OW21673   1.588   3.028  17.515 -0.2608 -0.7705  0.2163
 3347SOL    HW121674   1.540   2.976  17.580 -2.9477  0.8038 -0.4757
 3347SOL    HW221675   1.515   3.058  17.460 -2.3284 -2.9894  1.7973
 3348SOL     OW21676   4.077   3.059   5.783  0.1143  0.5162  0.5206
 3348SOL    HW121677   4.127   2.999   5.728 -0.1677  0.3981  0.3909
 3348SOL    HW221678   4.085   3.143   5.737  1.6314 -1.0997 -2.1118
 3349SOL     OW21679   4.006   2.837   8.254 -0.3696  0.1309  0.1993
 3349SOL    HW121680   3.988   2.824   8.161 -1.3936 -0.8702  0.5382
 3349SOL    HW221681   4.089   2.793   8.270 -1.5900 -0.9130  3.4607
 3350SOL     OW21682   1.362   2.690   8.068  0.1085 -0.3774 -0.0461
 3350SOL    HW121683   1.443   2.719   8.026  0.3419 -0.7598  0.1386
 3350SOL    HW221684   1.356   2.605   8.024 -1.6201  0.0032 -0.5606
 3351SOL     OW21685   2.104   3.691   4.055  0.2423  0.1575  0.2741
 3351SOL    HW121686   2.135   3.752   4.122  0.0651  0.7943 -0.2270
 3351SOL    HW221687   2.166   3.621   4.077 -2.2736 -1.7513  1.3776
 3352SOL     OW21688   2.202   3.505   6.134 -0.2510  0.1661  0.4018
 3352SOL    HW121689   2.178   3.572   6.070  0.5766  0.0101 -0.0790
 3352SOL    HW221690   2.251   3.549   6.203  0.5610  0.1010 -0.1288
 3353SOL     OW21691   4.112   0.033  12.617  0.0977  0.5908 -0.6819
 3353SOL    HW121692   4.032   4.722  12.605  1.2580 -1.0132 -1.4942
 3353SOL    HW221693   4.110   0.043  12.712  0.1712 -0.8516 -0.5395
 3354SOL     OW21694   3.599   1.631   7.851 -0.6559 -0.1107 -0.2400
 3354SOL    HW121695   3.521   1.656   7.901 -0.6441  0.1936 -0.3748
 3354SOL    HW221696   3.665   1.644   7.919 -0.5505  0.4472 -0.4490
 3355SOL     OW21697   3.900   1.358   1.685  0.0116 -0.0622  0.3999
 3355SOL    HW121698   3.911   1.340   1.779  1.0902 -1.3246  0.0290
 3355SOL    HW221699   3.989   1.341   1.655 -0.7490  1.5573 -2.7648
 3356SOL     OW21700   2.774   2.215   2.918 -0.5562 -0.1996  0.3092
 3356SOL    HW121701   2.687   2.191   2.950 -1.7021  0.9599 -1.8968
 3356SOL    HW221702   2.761   2.309   2.924  0.4043  0.1577 -2.9982
 3357SOL     OW21703   0.989   3.758   2.857  0.0328 -0.5824  0.3685
 3357SOL    HW121704   0.948   3.696   2.797 -0.8334 -1.4138  1.8077
 3357SOL    HW221705   1.026   3.816   2.791  1.9468 -1.7389  0.4038
 3358SOL     OW21706   0.971   0.920   8.917  1.0192 -0.0034  0.5753
 3358SOL    HW121707   1.020   0.968   8.983  1.4520 -1.1230  1.0665
 3358SOL    HW221708   1.022   0.841   8.898 -0.5187 -0.9529  0.3395
 3359SOL     OW21709   1.816   2.467   2.373  0.4654 -0.0007  0.6655
 3359SOL    HW121710   1.825   2.374   2.350 -2.3432  0.0093 -0.4610
 3359SOL    HW221711   1.860   2.511   2.300  0.3303  0.7477  1.0346
 3360SOL     OW21712   0.257   3.039  17.221 -0.0784 -0.3622  0.2542
 3360SOL    HW121713   0.283   2.960  17.173 -0.3436 -0.5737  0.4610
 3360SOL    HW221714   0.264   3.110  17.157  1.6968 -0.4892  0.3037
 3361SOL     OW21715   2.722   4.330   7.768  0.5660  0.0735  0.4074
 3361SOL    HW121716   2.771   4.354   7.847  0.2731 -1.9120  1.1803
 3361SOL    HW221717   2.634   4.334   7.804 -1.1099 -1.8103 -3.4465
 3362SOL     OW21718   1.154   3.177   3.261  0.2875 -0.4334 -0.3588
 3362SOL    HW121719   1.131   3.167   3.168 -3.1717  1.2733  0.3306
 3362SOL    HW221720   1.073   3.206   3.302  0.5083 -0.2024 -0.0849
 3363SOL     OW21721   1.135   1.052  17.011  0.1606  0.2923  0.4169
 3363SOL    HW121722   1.127   1.097  16.927 -0.3130  1.4130  1.0516
 3363SOL    HW221723   1.212   0.998  16.997 -2.7595 -3.2293 -1.9708
 3364SOL     OW21724   3.636   2.105  10.534 -0.2278  0.0975 -0.2522
 3364SOL    HW121725   3.644   2.017  10.572 -0.1307  0.3989  0.4254
 3364SOL    HW221726   3.710   2.151  10.573  0.9684 -0.2984 -2.0565
 3365SOL     OW21727   4.632   3.458  12.474  0.1320  0.3968 -0.0254
 3365SOL    HW121728   4.603   3.407  12.398  2.4585 -1.6768  0.4732
 3365SOL    HW221729   4.654   3.384  12.530  0.1531  0.2728 -0.1970
 3366SOL     OW21730   3.015   4.540   4.152  0.0877 -0.1559 -0.8802
 3366SOL    HW121731   2.947   4.590   4.108 -2.2053 -4.0349 -1.7865
 3366SOL    HW221732   3.034   4.588   4.232  1.3157 -1.1049 -0.5902
 3367SOL     OW21733   4.364   1.175  17.473 -0.1907  0.0310  0.3647
 3367SOL    HW121734   4.450   1.202  17.502 -0.5419  1.5390  0.0080
 3367SOL    HW221735   4.366   1.211  17.384 -1.1976 -0.0042  0.3232
 3368SOL     OW21736   2.812   1.020   5.609  0.0446 -0.4250  0.0119
 3368SOL    HW121737   2.839   0.990   5.522 -0.5392  0.7951 -0.5748
 3368SOL    HW221738   2.898   1.057   5.629  0.6395 -2.9092  2.1101
 3369SOL     OW21739   2.039   3.083   7.970 -0.5671 -0.2604  0.4818
 3369SOL    HW121740   2.078   3.131   8.043  1.9806 -0.5233 -0.6740
 3369SOL    HW221741   2.057   2.995   8.004 -0.8018 -0.8766 -1.0172
 3370SOL     OW21742   1.440   0.821   4.329  0.0666  0.0360  0.6197
 3370SOL    HW121743   1.363   0.787   4.283 -0.9033  1.4711  1.1616
 3370SOL    HW221744   1.438   0.913   4.301 -0.6410  0.5150  2.2615
 3371SOL     OW21745   0.506   3.530   8.573 -0.4448  0.4067 -0.2777
 3371SOL    HW121746   0.586   3.482   8.548  1.1189  3.1530 -0.6074
 3371SOL    HW221747   0.469   3.514   8.486 -3.0612 -0.3873  0.9917
 3372SOL     OW21748   3.487   1.923   2.810  0.3709  0.1866 -0.1210
 3372SOL    HW121749   3.393   1.936   2.820  0.2603 -0.0153 -0.9222
 3372SOL    HW221750   3.509   1.919   2.904  1.8709 -0.8672 -0.5120
 3373SOL     OW21751   4.607   0.503   8.606 -0.2186 -0.3897 -0.0056
 3373SOL    HW121752   4.591   0.527   8.697  0.9443  1.2383 -0.2155
 3373SOL    HW221753   4.525   0.461   8.580 -0.4200 -0.0552  0.0874
 3374SOL     OW21754   4.102   1.495   5.903 -0.7311  0.0736 -0.0153
 3374SOL    HW121755   4.102   1.562   5.835  2.3906  0.2957  0.1825
 3374SOL    HW221756   4.177   1.444   5.871 -1.1144 -0.1709 -0.5199
 3375SOL     OW21757   1.942   3.947  14.789 -0.2512  0.2175 -0.0875
 3375SOL    HW121758   1.850   3.928  14.773 -0.1208 -1.3507  1.0150
 3375SOL    HW221759   1.936   3.973  14.881 -0.7952 -0.2893  0.0152
 3376SOL     OW21760   1.533   4.178   8.865 -0.3004 -0.3529 -0.1591
 3376SOL    HW121761   1.519   4.164   8.958 -1.8520  0.1908 -0.3202
 3376SOL    HW221762   1.613   4.231   8.865 -0.4351 -0.1376 -1.5916
 3377SOL     OW21763   2.767   4.366   3.956  0.4711 -0.1823  0.3795
 3377SOL    HW121764   2.863   4.370   3.960  0.6386 -1.2456 -2.4018
 3377SOL    HW221765   2.755   4.371   3.861  0.8106  1.2224  0.4007
 3378SOL     OW21766   3.093   3.246   7.048  0.4396 -0.0336  0.6509
 3378SOL    HW121767   3.057   3.274   6.964  3.5312  1.7850 -0.0759
 3378SOL    HW221768   3.082   3.152   7.033 -0.4275 -0.1481  1.9907
 3379SOL     OW21769   3.090   0.496   2.209 -0.2881  0.1730  0.0280
 3379SOL    HW121770   3.106   0.537   2.124  0.2508 -0.9803 -0.4276
 3379SOL    HW221771   3.152   0.424   2.218 -1.8884 -1.0364  1.3628
 3380SOL     OW21772   2.246   4.169   5.672 -0.4269  0.4568 -0.2459
 3380SOL    HW121773   2.195   4.232   5.723 -1.9967 -0.7798 -0.2530
 3380SOL    HW221774   2.266   4.230   5.602 -0.7841  0.7549 -0.0929
 3381SOL     OW21775   1.846   3.469   4.532 -0.0684  0.4752  0.4020
 3381SOL    HW121776   1.863   3.535   4.465  2.7124 -1.4940 -0.8285
 3381SOL    HW221777   1.850   3.389   4.480 -1.1217 -0.1767  1.3137
 3382SOL     OW21778   0.715   1.275   5.816 -0.1176 -0.1603  0.0888
 3382SOL    HW121779   0.621   1.260   5.817  0.1016 -1.6222 -0.9712
 3382SOL    HW221780   0.750   1.230   5.739 -0.1382 -1.2714  0.7149
 3383SOL     OW21781   2.426   3.590   5.316 -0.4887 -0.4729  0.5775
 3383SOL    HW121782   2.488   3.642   5.264 -1.1929 -2.1314 -1.9003
 3383SOL    HW221783   2.351   3.650   5.313 -0.6873 -0.7677 -0.3103
 3384SOL     OW21784   4.241   2.171   6.871 -0.3536 -0.1882  0.7223
 3384SOL    HW121785   4.182   2.112   6.919  0.1899 -0.4713  1.0481
 3384SOL    HW221786   4.253   2.125   6.788  0.2634  0.5953  0.3823
 3385SOL     OW21787   1.598   0.524   7.590 -0.1040 -0.0489 -0.2363
 3385SOL    HW121788   1.609   0.432   7.612 -0.6031  0.4008  1.9200
 3385SOL    HW221789   1.631   0.530   7.500  0.2769 -0.6931 -0.1323
 3386SOL     OW21790   0.340   4.683   3.462  0.5318  0.0295 -0.1376
 3386SOL    HW121791   0.341   0.004   3.388  0.7035  0.7092  0.4155
 3386SOL    HW221792   0.369   0.001   3.534 -0.2484  1.2299 -0.7916
 3387SOL     OW21793   0.716   2.190   8.980  0.1815 -0.0159  0.3838
 3387SOL    HW121794   0.701   2.206   9.073 -0.4665 -1.8467  0.5990
 3387SOL    HW221795   0.659   2.114   8.972 -1.4017  1.1639  0.4870
 3388SOL     OW21796   3.890   3.341   5.967 -0.4138 -0.2860  0.2981
 3388SOL    HW121797   3.885   3.250   5.994  0.7650 -0.3305  0.3665
 3388SOL    HW221798   3.827   3.384   6.025  1.2558  3.2185 -0.4868
 3389SOL     OW21799   3.442   2.003   6.527  0.5591 -0.3580  0.0644
 3389SOL    HW121800   3.379   1.948   6.573 -1.6375  2.9737  1.0462
 3389SOL    HW221801   3.399   1.999   6.441  0.2272  0.5697  0.1902
 3390SOL     OW21802   4.152   0.790   4.245 -0.1227 -0.1847 -0.0303
 3390SOL    HW121803   4.163   0.849   4.320  0.6698 -1.2373  0.6805
 3390SOL    HW221804   4.063   0.758   4.256 -0.3460  1.0786  1.8824
 3391SOL     OW21805   3.703   4.226   0.208  0.0661  0.4649 -0.6095
 3391SOL    HW121806   3.730   4.310   0.246  1.2416  0.1356 -0.6929
 3391SOL    HW221807   3.612   4.231   0.181 -0.2818  0.3689  0.5332
 3392SOL     OW21808   3.168   1.637   3.445 -0.2645  0.1227 -0.3378
 3392SOL    HW121809   3.185   1.543   3.446  1.4176  0.3920 -1.8259
 3392SOL    HW221810   3.216   1.673   3.370  0.3985  0.4047  0.2169
 3393SOL     OW21811   1.160   3.735   4.052  0.0919 -0.2624 -0.0938
 3393SOL    HW121812   1.189   3.688   4.130 -0.4717  3.1387  2.1311
 3393SOL    HW221813   1.097   3.668   4.025  1.7345 -1.7030 -0.3686
 3394SOL     OW21814   3.900   2.715   7.491  1.1344 -0.3978 -0.2014
 3394SOL    HW121815   3.914   2.732   7.397 -1.0045 -1.0302 -0.6200
 3394SOL    HW221816   3.970   2.650   7.501  1.7956  0.6316  1.7852
 3395SOL     OW21817   3.245   0.524   7.724  0.2178  0.3725 -0.0750
 3395SOL    HW121818   3.227   0.436   7.757  1.2262  0.6156  1.1338
 3395SOL    HW221819   3.325   0.505   7.675 -0.0939 -0.2443 -0.3419
 3396SOL     OW21820   4.617   1.893  15.234  0.0888  0.0578  0.5537
 3396SOL    HW121821   4.548   1.906  15.300 -1.5306  0.6583 -1.2751
 3396SOL    HW221822   4.660   1.978  15.245 -0.3710  0.3765 -0.1317
 3397SOL     OW21823   1.501   3.510   7.240 -0.3938 -0.2398  0.0457
 3397SOL    HW121824   1.575   3.453   7.222 -1.9113 -1.4576 -2.4196
 3397SOL    HW221825   1.436   3.466   7.185  0.1570 -2.6266  1.2870
 3398SOL     OW21826   3.493   1.172   7.523 -0.2649 -0.2369  0.0535
 3398SOL    HW121827   3.547   1.235   7.570 -0.7715 -1.0904  1.7823
 3398SOL    HW221828   3.536   1.157   7.438  1.7153  2.5802  0.5741
 3399SOL     OW21829   0.314   3.579  17.671 -0.9870  0.3048  0.0152
 3399SOL    HW121830   0.379   3.598  17.603  1.1622  0.6005  2.1406
 3399SOL    HW221831   0.253   3.514  17.638  1.3935 -1.1470 -1.4878
 3400SOL     OW21832   2.894   0.813  15.223 -0.5392  0.5839 -0.5709
 3400SOL    HW121833   2.862   0.780  15.139 -1.8993  2.5369 -0.8309
 3400SOL    HW221834   2.827   0.768  15.273 -2.3482  1.1524 -2.4822
 3401SOL     OW21835   2.198   3.516  10.150  0.3487 -0.2564  0.5024
 3401SOL    HW121836   2.248   3.436  10.160 -0.5498 -0.9028 -0.1738
 3401SOL    HW221837   2.154   3.494  10.068 -1.7332 -0.4123  1.6424
 3402SOL     OW21838   1.778   2.418  11.904  0.1698  0.5847  0.0407
 3402SOL    HW121839   1.799   2.392  11.994 -0.9515  1.5472  0.5774
 3402SOL    HW221840   1.857   2.469  11.887 -0.4178  1.7264  0.7999
 3403SOL     OW21841   4.314   1.119   6.909 -0.2609 -0.2474  0.1597
 3403SOL    HW121842   4.253   1.052   6.879 -0.6148  0.2355 -0.1799
 3403SOL    HW221843   4.278   1.203   6.883 -2.0881 -1.0706  0.0630
 3404SOL     OW21844   2.637   1.470   5.705 -0.2131 -0.1028  0.0001
 3404SOL    HW121845   2.569   1.443   5.766 -2.6174  0.0286 -2.6075
 3404SOL    HW221846   2.659   1.386   5.665 -0.4831  1.7539 -4.0846
 3405SOL     OW21847   3.165   1.013  11.412  0.4299  0.2948 -0.6763
 3405SOL    HW121848   3.164   1.089  11.354  1.7177  0.6877 -0.1959
 3405SOL    HW221849   3.098   0.959  11.371 -0.4222  0.5379  0.4035
 3406SOL     OW21850   2.018   3.574  14.700  0.1967  0.3040  0.7277
 3406SOL    HW121851   2.063   3.492  14.678 -1.0907 -0.1241 -0.3353
 3406SOL    HW221852   2.078   3.637  14.659 -0.4548 -0.7857 -1.9217
 3407SOL     OW21853   3.811   3.347   3.533  0.1085  0.4573 -0.0198
 3407SOL    HW121854   3.827   3.374   3.443  1.5597 -1.0624 -0.2193
 3407SOL    HW221855   3.892   3.302   3.556 -0.9380 -1.2410  0.3386
 3408SOL     OW21856   3.980   0.473  17.292 -0.2358 -0.2203 -0.1357
 3408SOL    HW121857   3.937   0.494  17.375 -0.9288  0.8875 -0.7747
 3408SOL    HW221858   4.048   0.540  17.297 -1.9632  1.4744  0.5696
 3409SOL     OW21859   4.685   2.562   7.142 -0.0939  0.1167 -0.0565
 3409SOL    HW121860   4.691   2.488   7.082  0.8134 -0.6462  0.9834
 3409SOL    HW221861   4.648   2.503   7.208 -0.6475  0.7326  0.1802
 3410SOL     OW21862   0.300   4.726   6.865 -0.2838  0.4794 -0.2958
 3410SOL    HW121863   0.325   0.041   6.939  0.5433  0.1915 -0.3688
 3410SOL    HW221864   0.282   0.051   6.796  0.2954  2.7914  1.7461
 3411SOL     OW21865   4.281   2.940   3.624  0.6941 -0.5660 -0.4710
 3411SOL    HW121866   4.316   3.019   3.581 -0.6509  0.7180  0.7942
 3411SOL    HW221867   4.355   2.880   3.620  1.1489 -0.3707  4.5379
 3412SOL     OW21868   3.499   1.530   4.369  0.2732  0.4551 -0.2173
 3412SOL    HW121869   3.513   1.565   4.282  4.3783  1.1146  0.6900
 3412SOL    HW221870   3.586   1.509   4.404  0.3286 -1.4978 -1.5320
 3413SOL     OW21871   1.997   4.308  13.985 -0.2550  0.0030 -0.5987
 3413SOL    HW121872   2.074   4.284  13.934  0.5199 -2.9800  2.0355
 3413SOL    HW221873   2.019   4.397  14.012  1.4512 -1.0647  1.4379
 3414SOL     OW21874   3.774   2.192  12.613  0.1221 -0.5071 -0.0562
 3414SOL    HW121875   3.725   2.201  12.532 -0.6255  0.5064  0.5064
 3414SOL    HW221876   3.861   2.161  12.589  0.1924  0.6836 -1.3071
 3415SOL     OW21877   2.891   2.516   3.877  0.2099  0.0456  0.1079
 3415SOL    HW121878   2.928   2.428   3.873 -2.0251 -0.8289 -1.4188
 3415SOL    HW221879   2.822   2.505   3.942  0.3597 -1.4512  0.0083
 3416SOL     OW21880   0.096   4.732   2.081 -0.0989 -0.5135 -0.5226
 3416SOL    HW121881   0.016   4.706   2.036  0.3283  0.5284 -1.9064
 3416SOL    HW221882   0.108   0.086   2.066  0.7939 -0.4939  0.3047
 3417SOL     OW21883   4.230   4.131  12.608  0.9139 -0.6992 -0.0382
 3417SOL    HW121884   4.325   4.127  12.594  0.3569 -1.3595 -3.4844
 3417SOL    HW221885   4.208   4.158  12.519  0.6708 -0.4152  0.1080
 3418SOL     OW21886   3.831   3.431   6.779 -0.4750 -0.0867  0.4495
 3418SOL    HW121887   3.803   3.422   6.870  2.4259 -0.3971  1.3364
 3418SOL    HW221888   3.768   3.497   6.750  1.9107  1.9641 -0.0869
 3419SOL     OW21889   3.961   2.066  13.680  0.5784 -0.1795  0.1579
 3419SOL    HW121890   3.919   2.062  13.766  0.2700 -1.6040 -0.0444
 3419SOL    HW221891   4.051   2.096  13.682  0.9945 -1.3629 -0.6673
 3420SOL     OW21892   1.063   3.732   1.494 -0.4422  0.1868  0.1047
 3420SOL    HW121893   1.005   3.751   1.420 -0.2603  2.3219  0.4902
 3420SOL    HW221894   1.041   3.798   1.560 -1.2368  0.8987 -0.8785
 3421SOL     OW21895   0.844   3.485   5.778 -0.3354 -0.3807  0.3632
 3421SOL    HW121896   0.811   3.494   5.688 -0.8552  0.6667  0.6627
 3421SOL    HW221897   0.877   3.395   5.779  1.6716  0.3719  2.8913
 3422SOL     OW21898   1.781   1.118   5.153 -0.4480  0.9355  0.0402
 3422SOL    HW121899   1.785   1.178   5.079  0.0064 -0.4385 -1.0659
 3422SOL    HW221900   1.836   1.057   5.103  0.8977  1.9006  0.3342
 3423SOL     OW21901   1.832   4.085   4.768  0.1436 -0.1885  0.5447
 3423SOL    HW121902   1.823   4.001   4.812  1.2768 -1.5524 -1.8244
 3423SOL    HW221903   1.741   4.101   4.744  0.4406 -0.7240 -0.9943
 3424SOL     OW21904   0.007   3.063   9.252 -0.0935 -0.6440 -0.4781
 3424SOL    HW121905   4.735   3.089   9.343  0.0153 -1.0176 -0.3607
 3424SOL    HW221906   4.712   2.975   9.252 -0.7301 -0.3880  1.3028
 3425SOL     OW21907   0.214   0.490  17.671 -0.5356  0.1456 -0.1245
 3425SOL    HW121908   0.302   0.480  17.632 -0.1401 -0.1725  0.8482
 3425SOL    HW221909   0.188   0.581  17.659  1.2136  0.2654 -3.1750
 3426SOL     OW21910   4.434   2.588  12.821 -0.3031 -0.0940  0.0763
 3426SOL    HW121911   4.472   2.589  12.909  0.6069 -2.2544 -0.2893
 3426SOL    HW221912   4.473   2.509  12.784  2.1219  1.3695 -0.4676
 3427SOL     OW21913   3.742   2.478   4.794  0.3721  0.0280  0.3926
 3427SOL    HW121914   3.699   2.532   4.728 -0.7617  0.4023  1.4303
 3427SOL    HW221915   3.798   2.547   4.831  0.1314  0.9032 -0.8875
 3428SOL     OW21916   2.055   1.870   3.887  0.3247 -0.6465  0.1244
 3428SOL    HW121917   2.068   1.814   3.811  0.5533 -0.8371  0.3059
 3428SOL    HW221918   2.144   1.895   3.910  0.0623  1.3336 -0.9966
 3429SOL     OW21919   0.905   3.636   2.624  0.3410 -0.2346  0.1110
 3429SOL    HW121920   0.979   3.636   2.564 -1.0348  1.3673 -1.5617
 3429SOL    HW221921   0.879   3.546   2.602 -2.1442  0.8728 -1.4845
 3430SOL     OW21922   2.998   0.632   2.843 -0.2218  0.0947  0.2431
 3430SOL    HW121923   2.971   0.645   2.934 -0.2294  1.5847  0.0350
 3430SOL    HW221924   2.942   0.700   2.805  0.6962  0.3518 -0.6470
 3431SOL     OW21925   2.758   1.810   8.092  0.0808 -0.5987  0.5488
 3431SOL    HW121926   2.711   1.861   8.026  1.6251  0.6159  0.3838
 3431SOL    HW221927   2.737   1.723   8.060 -1.7488  0.3009 -0.6896
 3432SOL     OW21928   3.113   0.170   5.621 -0.0890 -0.4721  0.0744
 3432SOL    HW121929   3.153   0.111   5.558 -0.0575 -1.5907  1.1543
 3432SOL    HW221930   3.147   0.141   5.706 -0.7193  0.8225  0.7712
 3433SOL     OW21931   4.348   2.676   5.698  0.2798 -0.1775 -0.4040
 3433SOL    HW121932   4.442   2.661   5.708  0.3589  0.9008  0.4812
 3433SOL    HW221933   4.315   2.720   5.777 -1.1917 -0.3637 -0.9052
 3434SOL     OW21934   2.583   3.955   8.240  0.2903  0.3446 -0.1484
 3434SOL    HW121935   2.569   3.976   8.332  1.7470  1.5544 -0.1907
 3434SOL    HW221936   2.496   3.973   8.203  1.2397  1.6059 -1.8087
 3435SOL     OW21937   3.885   4.349  12.990 -0.5058 -0.0973  0.5453
 3435SOL    HW121938   3.912   4.302  12.912  1.7532 -0.1278  1.3338
 3435SOL    HW221939   3.807   4.385  12.949 -1.0914 -2.5181 -0.4517
 3436SOL     OW21940   4.144   4.632   9.272 -0.2288  0.5289  0.1974
 3436SOL    HW121941   4.192   4.652   9.353  2.1332  0.1666 -1.1094
 3436SOL    HW221942   4.100   4.552   9.301  0.0038  0.0986 -0.6458
 3437SOL     OW21943   0.739   3.014  13.497  0.5609  0.3655 -0.0976
 3437SOL    HW121944   0.754   2.931  13.541 -2.6982  0.6422  1.5521
 3437SOL    HW221945   0.667   3.056  13.544 -0.8996 -2.1635 -0.0867
 3438SOL     OW21946   1.881   2.546   4.652  0.4108  0.1767  0.0374
 3438SOL    HW121947   1.840   2.631   4.639 -2.8659 -1.3791  0.2265
 3438SOL    HW221948   1.825   2.495   4.593  1.7432  1.0239 -1.9370
 3439SOL     OW21949   0.418   2.635   6.088 -0.0749  0.1570 -0.0243
 3439SOL    HW121950   0.447   2.575   6.157 -1.1093  0.8700  1.0353
 3439SOL    HW221951   0.486   2.627   6.022 -1.4575 -0.0112 -1.4454
 3440SOL     OW21952   4.072   2.928   1.603  0.8502  0.6648 -0.3341
 3440SOL    HW121953   4.077   3.024   1.612 -1.2486  0.6932  0.5403
 3440SOL    HW221954   4.134   2.896   1.668  0.0464  0.4210  0.3162
 3441SOL     OW21955   0.405   0.043   9.440  0.4817 -0.0338 -0.9817
 3441SOL    HW121956   0.484   0.097   9.443  0.5986 -0.4076  3.1537
 3441SOL    HW221957   0.422   4.712   9.502  1.2258  0.6385 -0.4216
 3442SOL     OW21958   4.576   1.560   5.729  0.7719 -0.6390 -0.3395
 3442SOL    HW121959   4.575   1.561   5.825  0.6839 -0.0151 -0.3472
 3442SOL    HW221960   4.658   1.608   5.721 -0.0508  0.8445  0.2005
 3443SOL     OW21961   1.168   3.454   4.317 -0.3602 -0.0074  0.0003
 3443SOL    HW121962   1.143   3.424   4.230  0.9006 -0.8228 -0.0912
 3443SOL    HW221963   1.228   3.384   4.344  0.7932  0.1335 -2.2275
 3444SOL     OW21964   3.010   0.312  15.957  0.1615  0.2578  0.5771
 3444SOL    HW121965   3.043   0.253  15.889  0.7623  1.9842 -0.6452
 3444SOL    HW221966   2.993   0.391  15.905 -1.1602 -1.3241 -1.4434
 3445SOL     OW21967   1.954   0.525   7.047 -0.4913 -0.1055  0.2116
 3445SOL    HW121968   2.025   0.494   6.992 -0.5857 -0.2336  0.1630
 3445SOL    HW221969   1.916   0.437   7.054  1.4547 -1.0076 -0.7431
 3446SOL     OW21970   2.777   2.872  10.093 -0.0036 -0.4399  0.0917
 3446SOL    HW121971   2.823   2.899  10.014 -1.7520 -1.6833 -1.3704
 3446SOL    HW221972   2.732   2.954  10.112  0.6197  0.0400 -0.5339
 3447SOL     OW21973   1.444   0.502   0.336 -0.0625 -0.1609 -0.1512
 3447SOL    HW121974   1.502   0.571   0.370  1.3793 -2.1895  1.5302
 3447SOL    HW221975   1.395   0.535   0.261 -1.4289  0.6886  1.1120
 3448SOL     OW21976   0.313   3.692  13.367 -0.1687 -0.3628  0.0096
 3448SOL    HW121977   0.312   3.654  13.280  0.2915 -0.0296 -0.1416
 3448SOL    HW221978   0.219   3.706  13.379  0.0587  3.0769 -2.2986
 3449SOL     OW21979   3.895   0.869   2.848  0.4556  0.3869 -0.4814
 3449SOL    HW121980   3.985   0.855   2.818  0.9014 -0.7455  1.3593
 3449SOL    HW221981   3.854   0.907   2.770  3.7374  0.5499 -2.1021
 3450SOL     OW21982   0.594   0.464   9.060  0.4856  0.1474 -0.7548
 3450SOL    HW121983   0.597   0.376   9.024  1.4138  0.2567 -0.9306
 3450SOL    HW221984   0.576   0.451   9.154  0.4008 -0.3903 -0.8465
 3451SOL     OW21985   3.841   0.202  12.812 -0.0236 -0.4085  0.3477
 3451SOL    HW121986   3.927   0.160  12.817  0.4898  0.4312 -1.4326
 3451SOL    HW221987   3.833   0.253  12.893 -0.4945  1.6353 -0.9824
 3452SOL     OW21988   2.616   2.917   4.862 -0.1640  0.0917 -0.7838
 3452SOL    HW121989   2.710   2.931   4.861 -0.1766  0.2379 -0.0240
 3452SOL    HW221990   2.583   2.991   4.811  0.7626 -0.6714 -2.4843
 3453SOL     OW21991   3.017   1.009   6.953  0.7627 -0.2304 -0.0381
 3453SOL    HW121992   2.959   0.960   6.894 -1.0478 -0.2611  1.7430
 3453SOL    HW221993   2.956   1.056   7.010  1.3220 -0.0148  0.3859
 3454SOL     OW21994   1.085   0.678   1.441 -0.4024  0.1092  0.4916
 3454SOL    HW121995   1.006   0.640   1.479  0.8976 -0.7028  2.3820
 3454SOL    HW221996   1.146   0.607   1.457 -0.9995 -0.5102  0.0374
 3455SOL     OW21997   2.357   0.224   2.535  0.2112 -0.5282 -0.7381
 3455SOL    HW121998   2.445   0.216   2.498  0.6846 -0.9292  0.4776
 3455SOL    HW221999   2.336   0.312   2.504 -3.6973 -0.3594  2.3643
 3456SOL     OW22000   2.999   1.800   3.580  0.0591 -0.2886 -0.6263
 3456SOL    HW122001   2.980   1.858   3.506  0.6436 -0.7295 -1.1281
 3456SOL    HW222002   3.050   1.731   3.537  1.6604  0.7741 -0.4472
 3457SOL     OW22003   2.533   0.634   6.989  0.0712 -0.8554 -0.0574
 3457SOL    HW122004   2.482   0.561   7.024 -1.6169  1.8988  3.2148
 3457SOL    HW222005   2.466   0.681   6.940  1.0464  1.6665  1.0049
 3458SOL     OW22006   0.678   1.993   0.073  0.1166  0.4817  0.6018
 3458SOL    HW122007   0.721   2.062   0.022 -1.3161  1.7764  1.1475
 3458SOL    HW222008   0.733   1.990   0.151 -0.3983  1.0782  0.9908
 3459SOL     OW22009   0.544   1.852   5.290 -0.3681 -0.2753 -0.4899
 3459SOL    HW122010   0.507   1.831   5.204  0.8652 -0.1825 -1.0413
 3459SOL    HW222011   0.527   1.945   5.304  1.0433 -0.2181  0.7860
 3460SOL     OW22012   4.134   3.067   6.069 -0.4465  0.4890  0.0079
 3460SOL    HW122013   4.109   3.108   5.986  0.0611 -1.8117 -1.2994
 3460SOL    HW222014   4.046   3.067   6.106 -0.1500 -2.1852  0.7467
 3461SOL     OW22015   1.151   4.672  13.455  0.8801  0.3230 -0.3154
 3461SOL    HW122016   1.222   4.679  13.518  1.5486  2.0378 -1.2646
 3461SOL    HW222017   1.101   4.596  13.487  1.9140  1.9510  5.1525
 3462SOL     OW22018   1.738   1.774   1.068 -0.0771 -0.3473 -0.0293
 3462SOL    HW122019   1.669   1.818   1.118  1.0935  0.7961  0.5716
 3462SOL    HW222020   1.701   1.691   1.038 -1.3559  0.9194 -1.9541
 3463SOL     OW22021   3.904   0.806   6.590 -0.0426 -0.0779 -0.0768
 3463SOL    HW122022   3.814   0.830   6.612 -0.2317  0.7601 -1.7332
 3463SOL    HW222023   3.930   0.896   6.571 -0.5826  0.2185  0.5879
 3464SOL     OW22024   4.000   3.694   6.085  0.2051 -0.1206  0.4034
 3464SOL    HW122025   3.952   3.618   6.120  2.0383 -1.1744  0.5852
 3464SOL    HW222026   3.934   3.725   6.023  0.3111  0.8617  0.7832
 3465SOL     OW22027   2.929   2.842  16.313  0.7929 -0.5121 -0.5567
 3465SOL    HW122028   2.851   2.893  16.335  1.8236  0.1644  1.5345
 3465SOL    HW222029   2.930   2.846  16.217 -1.2801 -0.5846 -0.5674
 3466SOL     OW22030   0.098   1.491   4.243 -0.4002  0.7343 -0.5971
 3466SOL    HW122031   0.039   1.463   4.173 -0.7917  0.0359  0.0053
 3466SOL    HW222032   0.184   1.479   4.203 -1.1885 -0.8160 -1.8043
 3467SOL     OW22033   1.938   2.574  12.693  0.5960  0.1730  0.5536
 3467SOL    HW122034   1.974   2.624  12.766  0.1891  1.6162 -0.2228
 3467SOL    HW222035   1.970   2.489  12.722  0.3130 -0.0534  0.2038
 3468SOL     OW22036   2.653   2.770   9.010 -0.6290  0.7615 -0.2886
 3468SOL    HW122037   2.596   2.700   9.043  2.3378 -2.4697 -1.9839
 3468SOL    HW222038   2.731   2.765   9.065 -1.9346  1.3654  1.6242
 3469SOL     OW22039   3.182   1.521   3.117 -0.8119 -0.0586  0.7469
 3469SOL    HW122040   3.198   1.553   3.206  1.3295 -0.7134  0.5960
 3469SOL    HW222041   3.090   1.547   3.108 -0.7430  1.1042  3.3201
 3470SOL     OW22042   0.590   3.762   8.685  0.1796  0.3317 -0.4135
 3470SOL    HW122043   0.634   3.802   8.609 -1.6528  1.0848 -1.0753
 3470SOL    HW222044   0.556   3.685   8.640 -0.3580 -0.3539  1.2009
 3471SOL     OW22045   3.861   2.704   8.039  0.0858  0.5539  0.4719
 3471SOL    HW122046   3.893   2.714   7.949  0.2381  0.4171  0.5128
 3471SOL    HW222047   3.779   2.754   8.036 -1.0669 -1.3708  0.0917
 3472SOL     OW22048   1.632   0.596   2.334  0.1099 -0.5080  0.2375
 3472SOL    HW122049   1.560   0.533   2.323  0.5532 -0.9816  0.0403
 3472SOL    HW222050   1.590   0.675   2.369 -3.6178 -1.1207 -2.8192
 3473SOL     OW22051   3.652   1.349   4.743 -0.6385  0.2786 -0.0385
 3473SOL    HW122052   3.572   1.398   4.763 -0.5103 -0.2524  1.7994
 3473SOL    HW222053   3.672   1.293   4.818  1.2806 -0.7892 -1.3587
 3474SOL     OW22054   4.731   4.300   1.918  0.1406 -0.1722  0.5060
 3474SOL    HW122055   4.650   4.289   1.969 -0.4493  0.3207 -0.3323
 3474SOL    HW222056   4.706   4.381   1.874  0.6606 -1.2190 -1.6784
 3475SOL     OW22057   3.662   1.266   5.979  0.1172 -0.1926 -0.4589
 3475SOL    HW122058   3.675   1.339   5.920  0.5978 -0.0036 -0.1227
 3475SOL    HW222059   3.662   1.307   6.066 -0.6746  0.6236 -0.8442
 3476SOL     OW22060   2.479   2.798   4.305 -0.2837 -0.2601 -0.2318
 3476SOL    HW122061   2.555   2.756   4.265  0.2981  0.7376 -0.1562
 3476SOL    HW222062   2.501   2.798   4.398 -2.3247 -0.1105  0.2470
 3477SOL     OW22063   0.255   0.107   6.288  0.2288 -0.0466 -0.5245
 3477SOL    HW122064   0.197   0.106   6.364 -1.2823  2.3859 -1.6657
 3477SOL    HW222065   0.209   0.166   6.229  2.2277  1.1195 -0.9074
 3478SOL     OW22066   0.403   0.271  14.309 -0.3564  0.6742  0.1130
 3478SOL    HW122067   0.469   0.332  14.341  1.5110 -1.0829 -0.4141
 3478SOL    HW222068   0.331   0.329  14.285 -0.6257  0.9641  1.6378
 3479SOL     OW22069   3.905   0.516   5.067  0.5596 -0.0015 -0.4106
 3479SOL    HW122070   3.928   0.564   4.987  2.8514 -0.5233 -0.0495
 3479SOL    HW222071   3.850   0.574   5.120  2.2256  0.8083  0.4047
 3480SOL     OW22072   1.903   2.746   5.760 -0.0611  0.3861  0.0209
 3480SOL    HW122073   1.886   2.835   5.791  1.7672  0.4686  0.7415
 3480SOL    HW222074   1.841   2.700   5.817 -0.6668 -0.4959 -1.3339
 3481SOL     OW22075   1.349   4.361   1.619 -0.3866 -0.5454 -0.0140
 3481SOL    HW122076   1.319   4.410   1.696 -0.1944 -1.1230  0.4299
 3481SOL    HW222077   1.416   4.301   1.651  1.1098  1.4093  0.4963
 3482SOL     OW22078   1.806   0.614  12.006  0.1913  0.1094  0.2861
 3482SOL    HW122079   1.767   0.696  12.037 -0.6294  0.0130 -0.5097
 3482SOL    HW222080   1.899   0.637  12.013 -0.0838  2.0187 -2.2734
 3483SOL     OW22081   0.752   3.346  16.692  0.8942  0.1622 -0.2195
 3483SOL    HW122082   0.832   3.384  16.730  0.1389  1.5709 -0.0412
 3483SOL    HW222083   0.684   3.369  16.755 -0.6912 -1.5020 -1.3400
 3484SOL     OW22084   4.608   0.476  10.182 -0.0807 -0.1469  0.2356
 3484SOL    HW122085   4.522   0.437  10.166 -0.9562  2.5749 -1.5345
 3484SOL    HW222086   4.575   0.545  10.239 -1.3094  0.0656 -0.7493
 3485SOL     OW22087   3.388   2.772  17.248 -0.3434 -0.2019  0.0990
 3485SOL    HW122088   3.367   2.828  17.323 -2.2138  0.9125 -1.2434
 3485SOL    HW222089   3.461   2.722  17.284 -0.6153 -0.6148  0.0739
 3486SOL     OW22090   1.736   0.952  11.552 -0.0879 -0.1472  0.1860
 3486SOL    HW122091   1.828   0.972  11.571  0.0838  1.1666 -1.9840
 3486SOL    HW222092   1.725   0.857  11.561 -4.9351  0.1343 -2.7298
 3487SOL     OW22093   1.022   1.455   4.438  0.1570 -0.5604 -0.6921
 3487SOL    HW122094   1.080   1.481   4.510 -0.2202 -2.2743  0.2315
 3487SOL    HW222095   0.960   1.525   4.423 -2.1300 -1.9901  2.1330
 3488SOL     OW22096   4.723   1.521  12.483 -0.0488  0.3782  0.0014
 3488SOL    HW122097   0.048   1.539  12.551 -0.0212  0.6590 -0.0992
 3488SOL    HW222098   4.643   1.520  12.534 -1.8145  0.7061 -2.7383
 3489SOL     OW22099   4.475   1.633   6.908 -0.1041 -0.8152 -0.3803
 3489SOL    HW122100   4.534   1.566   6.873  0.2522 -0.5014 -0.3774
 3489SOL    HW222101   4.405   1.630   6.842 -1.6311 -0.1359  1.2099
 3490SOL     OW22102   3.227   0.525   6.118 -0.2092  0.3495 -0.4185
 3490SOL    HW122103   3.287   0.480   6.177 -0.7085 -1.3533 -1.2189
 3490SOL    HW222104   3.187   0.587   6.179  2.9220  1.6903  0.2423
 3491SOL     OW22105   0.455   1.001   7.259 -0.1762  0.2611 -0.3933
 3491SOL    HW122106   0.499   1.033   7.180  3.1178  0.3357  1.4493
 3491SOL    HW222107   0.410   0.923   7.227 -2.6117  1.2339  0.7247
 3492SOL     OW22108   2.667   3.150   0.980  0.1924 -0.0882  0.1459
 3492SOL    HW122109   2.579   3.185   0.993 -0.5904 -1.7969 -0.5231
 3492SOL    HW222110   2.724   3.222   1.008 -1.5587  0.0539  3.2784
 3493SOL     OW22111   0.579   0.564   7.590  0.3173  1.0289  0.5683
 3493SOL    HW122112   0.662   0.526   7.617  0.3929  1.1365  0.4841
 3493SOL    HW222113   0.519   0.510   7.643  2.3912 -1.9181 -0.0752
 3494SOL     OW22114   1.712   3.853   4.876  0.6405 -0.0109 -0.3412
 3494SOL    HW122115   1.742   3.784   4.817 -1.7836 -0.4925 -1.0093
 3494SOL    HW222116   1.619   3.835   4.884  0.8836 -1.3069 -0.4516
 3495SOL     OW22117   4.448   1.432  10.328  0.1359  0.0216  0.4256
 3495SOL    HW122118   4.409   1.349  10.356  2.0170 -0.5713  1.2508
 3495SOL    HW222119   4.532   1.399  10.297  0.5447  1.5828 -0.1206
 3496SOL     OW22120   3.295   0.108   8.091 -0.5823  0.0229  0.0703
 3496SOL    HW122121   3.307   0.035   8.031  1.4922  0.2894  0.1520
 3496SOL    HW222122   3.290   0.055   8.171 -0.1277 -2.5184 -1.5811
 3497SOL     OW22123   3.776   1.521  14.607  0.5106 -0.0408  0.3744
 3497SOL    HW122124   3.808   1.514  14.696 -0.6149  0.5946  0.8294
 3497SOL    HW222125   3.800   1.441  14.560  0.2380  0.1565 -0.1013
 3498SOL     OW22126   0.037   3.706  12.483 -0.0045  0.3431  0.1677
 3498SOL    HW122127   4.725   3.627  12.469  0.5924 -0.7722  4.1947
 3498SOL    HW222128   4.728   3.776  12.441  0.8911  1.9682  1.8231
 3499SOL     OW22129   1.920   0.793  15.462 -0.2204 -0.4005  0.4909
 3499SOL    HW122130   1.948   0.718  15.410  3.3100  1.3410 -0.1300
 3499SOL    HW222131   2.000   0.833  15.495  0.8059 -2.6071  0.6621
 3500SOL     OW22132   4.034   0.027   6.434  0.0428  0.2427 -0.4800
 3500SOL    HW122133   4.109   4.735   6.383 -0.0537 -0.1007 -0.4116
 3500SOL    HW222134   4.007   0.107   6.389 -0.2909  0.9146  0.9398
 3501SOL     OW22135   0.432   2.085   6.846  0.2457 -0.2255  0.3293
 3501SOL    HW122136   0.468   2.152   6.904 -2.1028  1.4614 -0.1954
 3501SOL    HW222137   0.415   2.022   6.916  1.7234  0.9567  1.7599
 3502SOL     OW22138   3.174   2.698  16.378  0.3449 -1.1104 -0.3611
 3502SOL    HW122139   3.186   2.671  16.287  0.7925 -0.7899 -0.3987
 3502SOL    HW222140   3.081   2.723  16.381  0.8710  0.8729 -0.7583
 3503SOL     OW22141   1.617   0.257   3.558  0.1702  0.3868 -0.2433
 3503SOL    HW122142   1.598   0.305   3.478 -0.0031 -0.0761 -0.4816
 3503SOL    HW222143   1.695   0.302   3.590 -0.2884  0.5560  0.6459
 3504SOL     OW22144   0.054   4.524   6.961 -0.4111  0.8089 -0.0150
 3504SOL    HW122145   0.138   4.569   6.949  1.1734 -2.0655  0.2689
 3504SOL    HW222146   0.070   4.441   6.916  0.9019 -0.4109  2.7066
 3505SOL     OW22147   2.593   3.041   9.142 -0.0329 -0.0280  0.6512
 3505SOL    HW122148   2.630   2.953   9.142  1.9730  0.8044  1.0249
 3505SOL    HW222149   2.500   3.027   9.122  0.3471 -1.2111 -0.2850
 3506SOL     OW22150   4.173   4.035   1.049  0.0616 -0.0066 -0.0495
 3506SOL    HW122151   4.091   4.032   1.098  0.9761  0.6426  1.5274
 3506SOL    HW222152   4.165   4.121   1.007 -1.8645  0.1812  0.6920
 3507SOL     OW22153   1.720   0.228   7.950 -0.3402 -0.0378  0.0728
 3507SOL    HW122154   1.735   0.291   8.020 -0.9718 -0.0577  0.2290
 3507SOL    HW222155   1.744   0.145   7.991  0.7365  0.6402  0.8121
 3508SOL     OW22156   1.908   2.643  14.358  0.2937 -0.1208  0.1385
 3508SOL    HW122157   1.949   2.561  14.329  0.1351  0.6002 -2.1466
 3508SOL    HW222158   1.945   2.706  14.297 -1.1025  1.2046  0.6663
 3509SOL     OW22159   3.375   3.987  13.331  0.1261  0.2103  0.4995
 3509SOL    HW122160   3.460   3.951  13.356  1.1208  1.2847 -1.3600
 3509SOL    HW222161   3.408   4.076  13.315 -0.5943  0.4565  0.3509
 3510SOL     OW22162   1.087   1.550  15.376 -0.0002 -0.1522  0.3102
 3510SOL    HW122163   1.146   1.625  15.376  0.0584 -0.2000  1.7499
 3510SOL    HW222164   1.030   1.576  15.448 -1.1148  1.3121 -1.1135
 3511SOL     OW22165   0.072   1.358   5.660  0.0422 -0.1418  0.0504
 3511SOL    HW122166   4.731   1.309   5.674 -0.6798  1.6627  2.1338
 3511SOL    HW222167   0.081   1.392   5.749 -2.0397  1.1265 -0.2247
 3512SOL     OW22168   2.044   1.435  10.393  0.1215 -0.0840 -0.0121
 3512SOL    HW122169   2.029   1.478  10.477 -2.8819 -1.7821  0.3350
 3512SOL    HW222170   1.994   1.493  10.336 -2.5229 -2.8990 -0.5862
 3513SOL     OW22171   0.125   0.700   6.999  0.0307  0.2077  0.5767
 3513SOL    HW122172   0.130   0.730   6.909  0.4796 -0.4163  0.3922
 3513SOL    HW222173   0.086   0.614   6.983  1.5681 -0.2722 -0.6328
 3514SOL     OW22174   3.636   3.942   7.827 -0.2382 -0.5068 -0.1149
 3514SOL    HW122175   3.613   3.992   7.905  0.9286  1.8483 -1.2909
 3514SOL    HW222176   3.714   3.892   7.853  0.0142  0.9250  1.8207
 3515SOL     OW22177   4.426   0.162   6.784  0.6159 -0.3018 -0.5830
 3515SOL    HW122178   4.382   0.200   6.860 -1.6126  0.9476 -2.5070
 3515SOL    HW222179   4.353   0.119   6.739 -0.5847  0.3033  0.7885
 3516SOL     OW22180   0.132   2.529   0.775 -0.4608  0.4821  0.6564
 3516SOL    HW122181   0.050   2.553   0.733 -0.8838 -0.7190  0.8055
 3516SOL    HW222182   0.201   2.545   0.710 -1.7442 -1.1491 -1.0905
 3517SOL     OW22183   2.878   1.200  11.579  0.3500 -0.0755 -0.4996
 3517SOL    HW122184   2.904   1.273  11.634  0.9479 -0.4511 -0.2851
 3517SOL    HW222185   2.928   1.217  11.500  0.0697  0.5752 -0.5395
 3518SOL     OW22186   3.646   3.278   5.024 -0.0982 -0.0481 -0.1327
 3518SOL    HW122187   3.694   3.341   4.971  1.5929 -0.2125  1.1886
 3518SOL    HW222188   3.669   3.191   4.993  0.4787  0.1591 -0.2833
 3519SOL     OW22189   3.224   0.405   3.116 -0.4739 -0.0027  0.2365
 3519SOL    HW122190   3.312   0.365   3.117 -0.8040 -0.7213  0.4343
 3519SOL    HW222191   3.175   0.360   3.047  0.9011 -0.9542 -0.1301
 3520SOL     OW22192   2.676   3.685   7.097 -0.0026 -0.6555 -0.2787
 3520SOL    HW122193   2.740   3.633   7.147 -1.7158 -2.4409  0.0485
 3520SOL    HW222194   2.642   3.754   7.153  0.3744 -2.0607  1.6862
 3521SOL     OW22195   2.439   2.800   3.797 -0.5784  0.0947  0.2485
 3521SOL    HW122196   2.410   2.710   3.780  0.2008 -0.4404  1.7803
 3521SOL    HW222197   2.435   2.835   3.707 -1.7136 -1.1112 -0.1789
 3522SOL     OW22198   1.930   2.027  14.555  0.6040  0.6284  0.0262
 3522SOL    HW122199   1.955   1.966  14.625  1.5134  2.4087  1.2408
 3522SOL    HW222200   1.994   2.014  14.485 -0.6566  0.6029 -1.1199
 3523SOL     OW22201   1.779   3.032   6.665 -0.4182  0.5602  0.6710
 3523SOL    HW122202   1.768   2.978   6.744  0.2987 -1.2079 -0.4331
 3523SOL    HW222203   1.733   2.974   6.604  0.7339 -0.0850  0.4062
 3524SOL     OW22204   0.260   1.895  10.664  0.0313 -0.0471  0.5946
 3524SOL    HW122205   0.346   1.898  10.707 -0.5299  0.0880  1.7214
 3524SOL    HW222206   0.260   1.984  10.628 -1.1315  0.0621  0.8510
 3525SOL     OW22207   1.695   3.781   9.128  0.2798 -0.9797  0.4606
 3525SOL    HW122208   1.688   3.871   9.097 -1.5920 -0.8311  1.3184
 3525SOL    HW222209   1.673   3.793   9.221 -0.6782  1.2086 -0.0501
 3526SOL     OW22210   4.290   1.003   3.021  0.1155  0.5159  0.5226
 3526SOL    HW122211   4.252   1.001   2.933  1.2345 -1.0943  0.0814
 3526SOL    HW222212   4.314   1.095   3.035  0.8429  0.0811  2.1045
 3527SOL     OW22213   4.628   4.359   5.122  0.1133 -0.3574  0.0851
 3527SOL    HW122214   4.549   4.361   5.177 -1.5108 -0.0295 -2.2358
 3527SOL    HW222215   4.659   4.449   5.129  1.2279 -0.9558  2.8421
 3528SOL     OW22216   0.089   2.490  17.614 -0.2064 -0.0671  0.2431
 3528SOL    HW122217   0.050   2.546  17.681 -0.6808 -0.3951  0.2434
 3528SOL    HW222218   0.029   2.415  17.619 -0.7545  0.5436  2.5515
 3529SOL     OW22219   0.080   1.382   5.918 -0.3700  0.0960 -0.0938
 3529SOL    HW122220   0.170   1.362   5.944 -0.7910 -0.9951  0.5222
 3529SOL    HW222221   0.024   1.322   5.967  0.0152 -1.3521 -1.3922
 3530SOL     OW22222   1.142   2.214   2.802  0.8609 -0.0456  0.5157
 3530SOL    HW122223   1.108   2.129   2.775 -0.0540  0.0429  1.3991
 3530SOL    HW222224   1.181   2.247   2.721  0.1026 -0.5759 -0.0719
 3531SOL     OW22225   1.267   2.380   6.791 -0.0933  0.1213 -0.0703
 3531SOL    HW122226   1.192   2.363   6.848  2.0348  1.5729  3.2016
 3531SOL    HW222227   1.265   2.300   6.739  0.3144  0.8306 -1.1892
 3532SOL     OW22228   1.683   1.269   4.601  0.4052 -0.1004 -0.3027
 3532SOL    HW122229   1.608   1.230   4.647  0.5693  0.2844  0.2998
 3532SOL    HW222230   1.649   1.356   4.580  0.0947 -0.5212 -1.5031
 3533SOL     OW22231   2.963   4.602   2.395  0.3391 -0.4936 -0.2371
 3533SOL    HW122232   2.969   4.564   2.308  0.9104 -0.1844 -0.3335
 3533SOL    HW222233   2.934   4.532   2.454  1.3475  0.9933  2.0246
 3534SOL     OW22234   2.240   4.703   8.178  0.5279  0.3000  0.2418
 3534SOL    HW122235   2.287   0.033   8.221  1.2077  0.4044 -0.6629
 3534SOL    HW222236   2.155   0.006   8.172  0.5566  0.1379 -1.3863
 3535SOL     OW22237   2.538   4.142   6.870 -0.4286  0.5165  0.5135
 3535SOL    HW122238   2.523   4.092   6.790 -1.0977 -0.1627  1.0626
 3535SOL    HW222239   2.497   4.224   6.842  0.7041  1.3611  1.3606
 3536SOL     OW22240   2.232   0.509   5.009  0.0346  0.0296  0.4834
 3536SOL    HW122241   2.272   0.594   4.990  1.1533 -0.5474  0.3033
 3536SOL    HW222242   2.190   0.493   4.925 -1.3866  1.8976  0.8271
 3537SOL     OW22243   2.214   1.203   5.439 -0.4672  0.3016 -0.2641
 3537SOL    HW122244   2.136   1.255   5.458 -1.0186 -0.6776  0.1462
 3537SOL    HW222245   2.215   1.210   5.344  2.6204  2.8219 -0.0595
 3538SOL     OW22246   3.883   4.625  16.976  0.1381  0.0185  0.4263
 3538SOL    HW122247   3.805   4.681  16.976 -0.2995 -0.5874 -0.4256
 3538SOL    HW222248   3.869   4.582  16.892 -0.3611 -0.7666  0.9017
 3539SOL     OW22249   4.044   3.478   1.743  0.4442  0.2919  0.1655
 3539SOL    HW122250   4.111   3.532   1.784  0.5168  0.7576 -0.5839
 3539SOL    HW222251   4.010   3.537   1.676  0.4933  0.3559  0.1970
 3540SOL     OW22252   2.619   1.270  12.511  0.0391 -0.2100 -0.5838
 3540SOL    HW122253   2.587   1.349  12.555  0.0913 -1.1957  1.2278
 3540SOL    HW222254   2.714   1.277  12.516 -0.1156  0.8244  1.0638
 3541SOL     OW22255   0.921   0.979   3.727 -0.1179 -0.4816  0.8294
 3541SOL    HW122256   0.860   1.006   3.658 -2.6972  0.0396  3.3002
 3541SOL    HW222257   0.894   1.023   3.807  1.4109  1.0287  0.4935
 3542SOL     OW22258   0.973   1.478  16.445 -0.3281 -0.3794  0.2029
 3542SOL    HW122259   1.057   1.516  16.420  0.5305 -1.2137  1.8287
 3542SOL    HW222260   0.967   1.483  16.540 -1.2188  0.9928  0.0757
 3543SOL     OW22261   1.523   4.140  17.012 -0.1539  0.1287 -0.3831
 3543SOL    HW122262   1.489   4.102  17.094  0.7507 -0.3459 -0.2185
 3543SOL    HW222263   1.589   4.198  17.050 -0.7781  1.3439 -1.1964
 3544SOL     OW22264   3.026   3.162   3.396 -0.2115 -0.2227  0.1725
 3544SOL    HW122265   3.057   3.148   3.486  0.4722  0.0953 -0.0125
 3544SOL    HW222266   3.040   3.072   3.366  1.5820 -0.3458  1.3542
 3545SOL     OW22267   3.337   2.929  16.399 -0.7514 -0.0763  0.2176
 3545SOL    HW122268   3.401   2.921  16.469 -0.4581 -1.8164 -0.2647
 3545SOL    HW222269   3.311   2.839  16.383  1.1551 -0.0502 -3.0645
 3546SOL     OW22270   0.120   1.683  11.865  0.3624 -0.5825 -0.1727
 3546SOL    HW122271   0.131   1.739  11.788  1.1822  1.0532  1.1296
 3546SOL    HW222272   0.033   1.712  11.892  0.7171 -1.4084  1.8759
 3547SOL     OW22273   2.133   3.377   6.627  0.3000  0.1231 -0.0065
 3547SOL    HW122274   2.085   3.398   6.546  3.3090 -0.6147 -1.9771
 3547SOL    HW222275   2.221   3.373   6.590  0.5915  0.5936  0.6422
 3548SOL     OW22276   4.142   2.306   8.891 -0.5437 -0.9845  0.7441
 3548SOL    HW122277   4.236   2.305   8.878 -0.3873  1.3981  1.8148
 3548SOL    HW222278   4.118   2.240   8.825 -1.6156  0.2093 -0.0699
 3549SOL     OW22279   3.766   0.034   5.602  0.0160  0.2339  0.0903
 3549SOL    HW122280   3.685   4.725   5.617  1.3343 -2.0824 -0.3244
 3549SOL    HW222281   3.796   4.737   5.519  3.9765 -1.2500  2.1783
 3550SOL     OW22282   1.530   1.012   2.854  0.3193  0.4080  0.1423
 3550SOL    HW122283   1.573   1.057   2.927 -0.5215  0.5511  0.5541
 3550SOL    HW222284   1.471   1.079   2.819  0.2175  0.8850  1.2117
 3551SOL     OW22285   2.543   3.372   7.518  0.2778  0.1293  0.3342
 3551SOL    HW122286   2.612   3.421   7.564 -0.8110  0.4355  1.6491
 3551SOL    HW222287   2.499   3.452   7.490  1.6528  0.6137 -0.4430
 3552SOL     OW22288   0.994   3.112   6.637  0.4704  0.1651  0.7429
 3552SOL    HW122289   1.085   3.085   6.650 -0.0050 -1.0374  1.5262
 3552SOL    HW222290   0.959   3.033   6.597  1.1294  0.9026 -1.2641
 3553SOL     OW22291   1.802   2.304   7.622  0.2750  0.1333  0.1592
 3553SOL    HW122292   1.866   2.310   7.551 -0.5293  0.9055 -0.4928
 3553SOL    HW222293   1.858   2.275   7.694  1.2081  0.2682 -0.5062
 3554SOL     OW22294   2.163   0.605   6.326 -0.6436  0.2340  0.0252
 3554SOL    HW122295   2.166   0.536   6.261  1.0069  2.2379 -2.0271
 3554SOL    HW222296   2.184   0.672   6.261 -1.9007  0.0031 -0.6170
 3555SOL     OW22297   0.471   3.355  16.121  0.4370  0.2454  0.1823
 3555SOL    HW122298   0.468   3.290  16.051  0.0048 -0.5851  0.9780
 3555SOL    HW222299   0.449   3.434  16.072  1.6420  0.1390 -0.5359
 3556SOL     OW22300   1.870   1.902   8.828 -0.4620  0.1103  0.6152
 3556SOL    HW122301   1.961   1.906   8.799 -0.5095  0.6978  0.5381
 3556SOL    HW222302   1.828   1.964   8.769 -1.1206 -0.9619 -0.0287
 3557SOL     OW22303   4.586   0.246   3.344 -0.8149 -0.0813 -0.0205
 3557SOL    HW122304   4.660   0.217   3.396  0.7364 -1.7967 -3.1738
 3557SOL    HW222305   4.518   0.209   3.401  0.2731  1.9492  2.5999
 3558SOL     OW22306   0.247   0.501  14.709 -0.5382  0.2684  0.1879
 3558SOL    HW122307   0.154   0.478  14.719  0.1939 -1.6374  2.3089
 3558SOL    HW222308   0.248   0.527  14.617  3.9660  1.6041  0.6153
 3559SOL     OW22309   2.963   3.292   4.836  0.3583  0.4787 -0.3180
 3559SOL    HW122310   2.997   3.352   4.902  0.9158  1.7807 -1.8039
 3559SOL    HW222311   3.000   3.334   4.759 -1.2617  3.2224  0.3859
 3560SOL     OW22312   1.259   4.679   3.175  0.0215 -0.5950 -0.6458
 3560SOL    HW122313   1.256   4.589   3.142  1.5405 -0.6897 -0.5306
 3560SOL    HW222314   1.298   4.662   3.261 -1.3608 -1.2654 -0.1595
 3561SOL     OW22315   4.661   3.446   9.765  0.1706 -1.2725  0.7453
 3561SOL    HW122316   4.659   3.386   9.691  1.0932  1.2052 -1.2588
 3561SOL    HW222317   4.728   3.411   9.824 -0.0729 -0.3150  1.5937
 3562SOL     OW22318   0.098   3.098  12.187  0.4681  0.3819  0.1296
 3562SOL    HW122319   0.106   3.103  12.282  1.5631  1.1435  0.0000
 3562SOL    HW222320   0.003   3.108  12.178  0.1431 -1.5054  1.5825
 3563SOL     OW22321   4.081   1.838   3.059  0.4961  0.1912  0.0727
 3563SOL    HW122322   4.022   1.781   3.108 -0.6450 -0.3732 -1.9651
 3563SOL    HW222323   4.081   1.906   3.127 -0.3599 -1.7546  2.0122
 3564SOL     OW22324   3.294   1.675   1.667  0.4624  0.1628  0.2158
 3564SOL    HW122325   3.317   1.738   1.735  1.5297  0.4834 -0.4505
 3564SOL    HW222326   3.211   1.708   1.633  0.4237 -0.6706 -0.4919
 3565SOL     OW22327   2.069   1.829   5.453 -0.1453  0.2103 -0.6257
 3565SOL    HW122328   2.083   1.737   5.472  3.1750  0.6644 -1.0205
 3565SOL    HW222329   2.124   1.866   5.522 -0.8827  0.2412 -0.0562
 3566SOL     OW22330   4.188   4.505   7.905 -0.1911  0.0976 -0.1424
 3566SOL    HW122331   4.112   4.562   7.906 -0.6233 -0.4695 -0.5639
 3566SOL    HW222332   4.156   4.414   7.904  0.3917 -0.1127  0.1966
 3567SOL     OW22333   0.829   0.119  12.786 -0.7363  0.4252  0.1050
 3567SOL    HW122334   0.848   0.030  12.814  5.8186  1.8851  0.2070
 3567SOL    HW222335   0.832   0.098  12.693 -0.3345 -1.7450  0.6101
 3568SOL     OW22336   1.570   3.278   8.695  0.1228 -0.3078  0.3431
 3568SOL    HW122337   1.522   3.303   8.616  0.9798  2.8202  0.8353
 3568SOL    HW222338   1.495   3.281   8.755  0.0013 -1.6962  0.2643
 3569SOL     OW22339   1.819   4.082   5.554 -0.2819 -0.4267  0.4349
 3569SOL    HW122340   1.736   4.058   5.594  0.0497  0.5994  1.7212
 3569SOL    HW222341   1.881   4.076   5.627 -0.1268  2.3044  0.5081
 3570SOL     OW22342   2.848   2.177   4.721  0.4135 -0.4584 -0.5218
 3570SOL    HW122343   2.831   2.209   4.633  0.8251  0.6327 -0.2010
 3570SOL    HW222344   2.774   2.214   4.768 -0.0714 -0.1951 -1.4980
 3571SOL     OW22345   0.423   1.718   0.961 -0.0149  0.4761  0.5292
 3571SOL    HW122346   0.375   1.762   1.031  0.4922  1.2544  0.3811
 3571SOL    HW222347   0.356   1.668   0.915  0.5540 -0.2892  0.5237
 3572SOL     OW22348   3.691   3.982  14.157  0.3295 -0.9934  0.1168
 3572SOL    HW122349   3.693   4.075  14.135  0.8978 -0.7471  1.1952
 3572SOL    HW222350   3.599   3.959  14.140  0.3068 -0.3873 -0.5638
 3573SOL     OW22351   0.992   4.163   7.925 -0.2831  0.3268 -0.5405
 3573SOL    HW122352   1.063   4.134   7.867 -0.1994 -1.9962  0.7506
 3573SOL    HW222353   0.914   4.155   7.871  0.1046 -1.7479 -0.7915
 3574SOL     OW22354   4.175   1.796  13.646 -0.3883  0.6385  0.0732
 3574SOL    HW122355   4.237   1.797  13.573 -0.0643 -1.0929  0.3233
 3574SOL    HW222356   4.102   1.816  13.589  1.0858  1.2778 -1.5867
 3575SOL     OW22357   0.267   0.943   4.577  0.6551 -0.0773 -0.1464
 3575SOL    HW122358   0.252   0.870   4.638  0.8996 -0.8658 -1.0269
 3575SOL    HW222359   0.341   0.905   4.530 -0.1864 -1.8800 -0.0091
 3576SOL     OW22360   1.059   3.025   6.009 -0.4103 -0.1156 -0.1680
 3576SOL    HW122361   1.038   2.990   5.922 -0.3617 -1.1585  0.2446
 3576SOL    HW222362   1.139   3.074   5.989 -1.7535  0.7276 -3.4924
 3577SOL     OW22363   1.472   3.834   4.350 -0.1400  0.4187 -0.0833
 3577SOL    HW122364   1.423   3.861   4.428 -2.1394  2.1954 -1.9760
 3577SOL    HW222365   1.550   3.888   4.348  0.5892 -0.5909  0.7738
 3578SOL     OW22366   1.831   2.106  13.029 -0.3300 -0.4521  0.1630
 3578SOL    HW122367   1.809   2.153  12.949 -0.8856 -1.3432 -0.2104
 3578SOL    HW222368   1.786   2.151  13.100  2.3379  0.4496  1.3071
 3579SOL     OW22369   2.891   2.937   8.100 -0.4574 -0.0709 -0.0518
 3579SOL    HW122370   2.930   3.015   8.060 -3.6190  1.1520 -0.7196
 3579SOL    HW222371   2.960   2.872   8.086  1.5993  2.0017  0.5173
 3580SOL     OW22372   2.450   1.183  16.568 -0.5751 -0.5190 -0.0581
 3580SOL    HW122373   2.487   1.146  16.488  1.3721  0.9223  0.1603
 3580SOL    HW222374   2.482   1.270  16.547 -2.5750  0.6440  1.7485
 3581SOL     OW22375   0.208   4.290   4.819  0.3214 -0.0819  0.0936
 3581SOL    HW122376   0.266   4.357   4.784  0.0741  0.8803  1.5057
 3581SOL    HW222377   0.269   4.257   4.885  1.5702  0.1079 -0.9610
 3582SOL     OW22378   0.594   1.591   8.785 -0.2216 -0.1088 -0.2137
 3582SOL    HW122379   0.519   1.541   8.752 -0.1630  0.8789 -1.8448
 3582SOL    HW222380   0.636   1.629   8.707 -1.3527 -1.1900 -1.3517
 3583SOL     OW22381   2.379   2.906   7.259  0.3691 -0.3192  0.4546
 3583SOL    HW122382   2.415   2.839   7.317 -0.1233 -0.1096  1.0054
 3583SOL    HW222383   2.317   2.859   7.204  0.2627 -0.9096  1.0763
 3584SOL     OW22384   0.911   0.727   3.131 -0.4034  0.4298 -0.2486
 3584SOL    HW122385   0.964   0.788   3.182  3.3122 -0.6403 -2.8522
 3584SOL    HW222386   0.833   0.718   3.186  0.4834  0.5305  1.0336
 3585SOL     OW22387   3.556   0.476   5.105 -0.1698  0.2223  0.1745
 3585SOL    HW122388   3.495   0.542   5.138 -1.7539 -1.5816  0.8321
 3585SOL    HW222389   3.633   0.490   5.159 -0.2871 -2.1540  0.9678
 3586SOL     OW22390   1.204   1.322  15.880  0.0658 -0.0599 -0.1508
 3586SOL    HW122391   1.145   1.311  15.806 -0.5988 -0.3819  0.4341
 3586SOL    HW222392   1.205   1.418  15.882 -1.5902 -0.0504  0.2165
 3587SOL     OW22393   2.695   2.546   2.044  0.5301  0.2320  0.1217
 3587SOL    HW122394   2.701   2.641   2.054 -1.3092  0.0083  3.1733
 3587SOL    HW222395   2.736   2.516   2.125  3.4528  1.0142 -1.0703
 3588SOL     OW22396   2.974   0.189   5.886 -0.0732  0.2246 -0.4840
 3588SOL    HW122397   2.896   0.183   5.941 -1.0414  1.3890 -1.7048
 3588SOL    HW222398   2.924   0.205   5.805 -1.8930 -0.0744  0.5768
 3589SOL     OW22399   2.870   1.384   7.152 -0.0043  0.4384 -0.3921
 3589SOL    HW122400   2.895   1.302   7.110  0.0902  0.0413  0.4454
 3589SOL    HW222401   2.869   1.364   7.245  1.3407  2.1411 -0.0334
 3590SOL     OW22402   2.126   0.842   3.237 -0.8732  0.1017 -0.2674
 3590SOL    HW122403   2.137   0.759   3.190 -2.0409  0.6874 -1.5795
 3590SOL    HW222404   2.051   0.877   3.190 -1.7449 -0.7147  0.5319
 3591SOL     OW22405   4.680   4.171   0.397  0.2660  0.3914  0.5847
 3591SOL    HW122406   4.668   4.085   0.437  1.5811  0.0958  0.3480
 3591SOL    HW222407   0.029   4.193   0.422  1.1224 -0.6888 -1.5205
 3592SOL     OW22408   2.505   1.490  15.180  0.0706 -0.0742 -0.0128
 3592SOL    HW122409   2.509   1.395  15.170 -0.3479  0.0297 -1.2466
 3592SOL    HW222410   2.599   1.506  15.175 -0.0343  0.4607 -0.2633
 3593SOL     OW22411   2.300   4.695   2.953  0.3723 -0.2330  0.2453
 3593SOL    HW122412   2.386   4.655   2.948  0.7477  0.6569 -0.3110
 3593SOL    HW222413   2.321   0.019   3.021 -2.6865 -0.8624  1.7991
 3594SOL     OW22414   2.122   2.037   2.962  0.2840  0.0002 -0.6457
 3594SOL    HW122415   2.121   2.102   2.891 -0.3143 -1.1187 -1.6469
 3594SOL    HW222416   2.158   1.963   2.913  1.3648 -1.4246  2.2874
 3595SOL     OW22417   0.381   3.205   6.809 -0.2068 -0.2291 -0.3613
 3595SOL    HW122418   0.297   3.249   6.799 -0.4163 -0.8999 -1.4981
 3595SOL    HW222419   0.437   3.281   6.821 -0.0916  0.1108 -3.0733
 3596SOL     OW22420   4.087   3.110   9.039 -0.0593  0.0502  0.5146
 3596SOL    HW122421   4.050   3.196   9.061 -0.2028  0.5004 -1.5398
 3596SOL    HW222422   4.021   3.074   8.980  1.1746 -0.0857 -0.7734
 3597SOL     OW22423   3.332   0.240   8.649  0.3300 -0.1269  0.0828
 3597SOL    HW122424   3.245   0.221   8.684 -0.0554  0.8815 -0.3549
 3597SOL    HW222425   3.369   0.152   8.640 -1.1018 -0.7126 -0.0775
 3598SOL     OW22426   1.831   3.347  14.889 -0.4392 -0.7211 -0.2671
 3598SOL    HW122427   1.778   3.403  14.832  0.3518  1.0471  0.7436
 3598SOL    HW222428   1.907   3.327  14.834  0.1185  1.0645 -0.1262
 3599SOL     OW22429   0.351   3.221  11.907 -0.2874  0.1632  0.4051
 3599SOL    HW122430   0.378   3.203  11.997 -0.1616 -1.3784  0.0611
 3599SOL    HW222431   0.289   3.294  11.914 -0.0549  0.6034 -2.1015
 3600SOL     OW22432   4.249   3.228   3.957 -0.1497  0.0766 -0.1367
 3600SOL    HW122433   4.254   3.245   4.051  0.6250  0.5677 -0.2687
 3600SOL    HW222434   4.157   3.212   3.938 -0.8267  0.4832  2.8142
 3601SOL     OW22435   2.732   3.624   4.471 -0.0946  0.1946 -0.1556
 3601SOL    HW122436   2.723   3.675   4.390  1.3039  0.0539 -0.3981
 3601SOL    HW222437   2.737   3.689   4.541  0.9484  0.8634 -0.8527
 3602SOL     OW22438   3.641   1.829   1.461 -0.2214 -0.3612 -0.3165
 3602SOL    HW122439   3.704   1.759   1.478 -2.2006 -2.0257  0.1044
 3602SOL    HW222440   3.589   1.792   1.390 -0.2241  0.8802 -0.9675
 3603SOL     OW22441   2.891   0.040  10.341  0.3996 -0.1490 -0.5741
 3603SOL    HW122442   2.958   4.734  10.391 -2.0693  1.0254  3.7691
 3603SOL    HW222443   2.942   0.083  10.272  1.4447 -0.8975 -0.2759
 3604SOL     OW22444   1.728   2.470   3.271  0.4256  0.5209  0.7878
 3604SOL    HW122445   1.775   2.522   3.205  0.8058  0.3262  0.9014
 3604SOL    HW222446   1.639   2.466   3.236  0.1517  2.0500  1.2953
 3605SOL     OW22447   0.118   1.915   3.288  0.2458  0.2508  0.1580
 3605SOL    HW122448   0.203   1.909   3.330 -0.0538  0.4054  0.7739
 3605SOL    HW222449   0.112   2.009   3.270  0.3908  0.5216  1.5611
 3606SOL     OW22450   2.816   2.362   7.011 -0.1255 -0.1168  0.7846
 3606SOL    HW122451   2.876   2.408   7.070  1.8191  1.2081 -2.2124
 3606SOL    HW222452   2.732   2.405   7.030  0.2012  1.5717 -1.6121
 3607SOL     OW22453   0.274   2.492   6.337  0.0538  0.1574 -0.3933
 3607SOL    HW122454   0.314   2.560   6.391  0.3167 -1.4870  1.4761
 3607SOL    HW222455   0.340   2.423   6.330 -1.8284 -1.6758  0.0464
 3608SOL     OW22456   3.160   2.025   5.304  0.0473  0.5239  0.8360
 3608SOL    HW122457   3.141   1.941   5.262 -1.5681  2.7100 -2.8533
 3608SOL    HW222458   3.213   1.983   5.372  2.1462 -2.0248 -2.3323
 3609SOL     OW22459   1.651   2.462   6.704  0.0324 -0.0292  0.6212
 3609SOL    HW122460   1.671   2.375   6.670 -0.0329  0.3553 -0.4220
 3609SOL    HW222461   1.619   2.505   6.624 -1.1671 -1.4632  0.3242
 3610SOL     OW22462   1.544   1.613   5.035  0.0890 -0.1480 -0.2017
 3610SOL    HW122463   1.583   1.542   4.983  0.2475  1.9876 -3.0460
 3610SOL    HW222464   1.613   1.678   5.021  0.7183 -1.1525 -1.8172
 3611SOL     OW22465   1.744   0.384   5.522 -0.3870 -0.3385 -0.7155
 3611SOL    HW122466   1.825   0.435   5.532 -0.2251 -0.4551 -1.4436
 3611SOL    HW222467   1.782   0.297   5.522  1.0571  0.3046  0.6656
 3612SOL     OW22468   2.877   3.864   5.782 -0.2615 -0.0113  0.1511
 3612SOL    HW122469   2.866   3.922   5.857  0.5816 -1.3834  1.3416
 3612SOL    HW222470   2.930   3.926   5.732 -0.7455  0.7085  0.5432
 3613SOL     OW22471   4.038   2.303  11.674 -0.4403 -0.3330 -0.1045
 3613SOL    HW122472   4.040   2.398  11.663 -1.6347  0.0428  3.1938
 3613SOL    HW222473   4.131   2.282  11.685  0.4043  3.4455  0.2400
 3614SOL     OW22474   1.951   4.484   7.424  0.0709 -0.1449 -0.0835
 3614SOL    HW122475   1.914   4.548   7.363  0.4944  0.5619  0.3965
 3614SOL    HW222476   1.882   4.487   7.490  3.3410 -0.8158  3.4068
 3615SOL     OW22477   2.157   1.693  13.229  0.7245 -0.6016  0.3330
 3615SOL    HW122478   2.233   1.737  13.193  0.0658 -0.1139 -0.4669
 3615SOL    HW222479   2.176   1.601  13.211 -0.4158 -0.5937 -0.8884
 3616SOL     OW22480   4.727   3.199   8.181 -0.5800 -0.5467 -0.3088
 3616SOL    HW122481   4.699   3.234   8.096  0.3879  1.0240 -0.0003
 3616SOL    HW222482   4.718   3.106   8.161  2.1352 -1.2340  1.6294
 3617SOL     OW22483   3.496   1.538   6.509 -0.0279 -0.1083 -0.5008
 3617SOL    HW122484   3.458   1.593   6.441 -0.8063  1.1648  0.9551
 3617SOL    HW222485   3.581   1.582   6.516 -0.1855  0.3816 -1.7309
 3618SOL     OW22486   2.812   0.726  11.996 -0.2546 -0.0234 -0.1696
 3618SOL    HW122487   2.818   0.655  11.931 -1.8943  0.4224 -0.8150
 3618SOL    HW222488   2.743   0.702  12.058  0.2532  2.3096  1.2797
 3619SOL     OW22489   1.080   0.676   6.493  0.0556  0.3496  0.4061
 3619SOL    HW122490   1.140   0.742   6.527 -2.1801  1.6915  1.7330
 3619SOL    HW222491   1.056   0.641   6.579 -0.3438 -0.3467  0.0118
 3620SOL     OW22492   0.418   2.997   6.168 -0.1484 -0.2426  0.6636
 3620SOL    HW122493   0.368   2.972   6.246 -0.0926  1.2631  1.1902
 3620SOL    HW222494   0.374   2.951   6.096  1.0147  0.9660 -0.8212
 3621SOL     OW22495   0.299   3.844   6.683  0.4773 -0.3122  0.1427
 3621SOL    HW122496   0.314   3.910   6.615  4.2836 -0.0283  1.2856
 3621SOL    HW222497   0.374   3.786   6.676  0.4450 -0.7178  3.0784
 3622SOL     OW22498   1.963   3.325   8.360 -0.0067  0.6664  0.5058
 3622SOL    HW122499   1.962   3.234   8.389 -1.3402  0.7281  0.6683
 3622SOL    HW222500   2.000   3.315   8.272 -2.2366  0.6309 -0.4345
 3623SOL     OW22501   1.250   4.040   0.603  0.2854 -0.0143 -0.3711
 3623SOL    HW122502   1.327   3.987   0.582 -1.0272 -1.2731 -1.9144
 3623SOL    HW222503   1.300   4.122   0.612  0.5522 -0.3435  1.1409
 3624SOL     OW22504   3.451   1.204  17.272  0.1042  0.1730  0.4513
 3624SOL    HW122505   3.503   1.214  17.192 -0.2675  0.0060  0.1846
 3624SOL    HW222506   3.421   1.114  17.256 -0.9167  0.7146 -0.6785
 3625SOL     OW22507   3.882   0.445   7.513 -0.0266  0.2570  0.2422
 3625SOL    HW122508   3.862   0.536   7.491  1.0112  0.1608 -1.0923
 3625SOL    HW222509   3.922   0.402   7.437 -1.2645  0.1727 -0.3617
 3626SOL     OW22510   2.776   1.899   4.647 -0.2715  0.0647 -0.0780
 3626SOL    HW122511   2.704   1.928   4.591 -0.2206  2.6625  1.2174
 3626SOL    HW222512   2.794   1.989   4.673 -2.0013  0.7488 -1.2914
 3627SOL     OW22513   1.715   0.849   0.016 -0.5223 -0.0134 -0.1011
 3627SOL    HW122514   1.656   0.804   0.077  2.3684 -1.5514  1.5345
 3627SOL    HW222515   1.667   0.932   0.011  2.0718  1.6686  2.8181
 3628SOL     OW22516   2.573   4.564   2.975 -0.0952 -0.5944  0.5682
 3628SOL    HW122517   2.615   4.507   2.911  0.4447 -0.0791  0.4665
 3628SOL    HW222518   2.651   4.604   3.014 -0.7666  1.8069 -0.5402
 3629SOL     OW22519   4.458   0.953   7.879 -0.2003  0.5907 -0.0243
 3629SOL    HW122520   4.488   0.901   7.954 -2.4167  1.9294  1.7926
 3629SOL    HW222521   4.363   0.945   7.890 -0.2412 -0.9080 -1.5845
 3630SOL     OW22522   1.422   0.576   6.076  0.0655 -0.2064  0.5982
 3630SOL    HW122523   1.470   0.511   6.129  1.9997 -0.3299 -1.2911
 3630SOL    HW222524   1.487   0.591   6.007 -0.4588 -0.7619 -0.0120
 3631SOL     OW22525   1.318   0.816  16.368  0.0671 -0.2085  0.1682
 3631SOL    HW122526   1.371   0.878  16.319 -0.2649 -1.4334 -1.7154
 3631SOL    HW222527   1.377   0.741  16.369 -1.2635 -1.2565 -0.6544
 3632SOL     OW22528   3.124   4.450   6.318 -0.0988 -0.4506 -0.2875
 3632SOL    HW122529   3.065   4.523   6.301 -1.1463 -0.9000  1.5305
 3632SOL    HW222530   3.077   4.381   6.272 -1.2871 -0.8402  1.5542
 3633SOL     OW22531   3.200   0.658   4.200  0.0777  0.3633 -0.7112
 3633SOL    HW122532   3.135   0.589   4.187  0.0727  0.2760 -0.2119
 3633SOL    HW222533   3.270   0.634   4.138  1.8976  0.7241  1.2074
 3634SOL     OW22534   3.388   1.403   5.563 -0.2818 -0.4789 -0.6754
 3634SOL    HW122535   3.384   1.467   5.491 -1.1095  2.0252  1.6125
 3634SOL    HW222536   3.322   1.436   5.623 -0.0471 -0.1571 -0.5924
 3635SOL     OW22537   0.558   2.491   7.163 -0.2049  0.2330 -0.2405
 3635SOL    HW122538   0.564   2.531   7.250 -0.7520 -1.3721  0.5267
 3635SOL    HW222539   0.519   2.570   7.126  2.5397  1.3762 -0.6735
 3636SOL     OW22540   1.725   0.670   7.859  0.5668  0.0864 -0.2880
 3636SOL    HW122541   1.688   0.653   7.772 -4.1485 -1.6639  2.0553
 3636SOL    HW222542   1.820   0.663   7.848  0.5511  0.1222 -0.4504
 3637SOL     OW22543   4.602   4.578   6.717 -0.7359 -0.1898  0.9241
 3637SOL    HW122544   4.638   4.607   6.801 -0.5357  0.7293  0.5195
 3637SOL    HW222545   4.511   4.564   6.744 -1.0355  1.6141  0.8757
 3638SOL     OW22546   3.109   3.340   4.039 -0.2016 -0.3789  0.6165
 3638SOL    HW122547   3.139   3.273   4.101  1.1354 -0.2094  0.1358
 3638SOL    HW222548   3.090   3.416   4.093  0.2656  1.3459 -1.6790
 3639SOL     OW22549   3.393   4.632   6.212  0.0033  0.1967  0.2025
 3639SOL    HW122550   3.487   4.624   6.230 -0.0382  0.7974  0.6797
 3639SOL    HW222551   3.360   4.687   6.283  1.1442  1.7861 -0.5161
 3640SOL     OW22552   4.394   0.205   5.001  0.2513  0.8968  0.3220
 3640SOL    HW122553   4.361   0.295   5.001 -0.0521  0.7814 -0.5927
 3640SOL    HW222554   4.426   0.201   4.911  1.1175 -0.8744  0.6885
 3641SOL     OW22555   2.476   3.949  12.958  0.7968  0.0259 -1.2296
 3641SOL    HW122556   2.440   4.030  12.995  0.3585 -0.9390  0.4324
 3641SOL    HW222557   2.455   3.894  13.033  1.5723 -0.2092 -1.1923
 3642SOL     OW22558   1.290   2.174   7.682  0.2845 -0.2580  0.3611
 3642SOL    HW122559   1.302   2.208   7.770 -1.2301 -0.4658  0.6465
 3642SOL    HW222560   1.360   2.218   7.634  0.6962 -0.7304  0.5234
 3643SOL     OW22561   3.291   0.393   9.471 -0.6922 -0.4879 -0.2753
 3643SOL    HW122562   3.223   0.378   9.405  1.7322 -1.5777 -2.5166
 3643SOL    HW222563   3.241   0.371   9.550 -1.7648 -0.6660 -1.0027
 3644SOL     OW22564   4.638   0.306   2.684  0.3296 -0.4774 -0.4082
 3644SOL    HW122565   4.637   0.402   2.680 -1.9832 -0.4583  0.5569
 3644SOL    HW222566   4.648   0.277   2.774  0.1441  0.5714 -0.0532
 3645SOL     OW22567   1.177   3.205  14.837  0.1087  0.0969 -0.1496
 3645SOL    HW122568   1.261   3.229  14.798 -0.6991  0.6288 -1.5651
 3645SOL    HW222569   1.201   3.194  14.929 -3.2364  0.3215  0.7731
 3646SOL     OW22570   1.711   1.762   3.721 -0.2861  0.2811  0.0719
 3646SOL    HW122571   1.715   1.853   3.692  1.6201  0.2184  0.1413
 3646SOL    HW222572   1.802   1.738   3.706 -0.0285  0.6904  0.9726
 3647SOL     OW22573   1.661   4.370   3.852 -0.1113 -0.1483  0.2153
 3647SOL    HW122574   1.665   4.433   3.780 -0.0064  0.1399  0.4772
 3647SOL    HW222575   1.566   4.370   3.864 -0.1979 -0.2255 -0.4909
 3648SOL     OW22576   1.345   4.022   3.712  0.1725 -0.0184 -0.4265
 3648SOL    HW122577   1.338   3.943   3.765 -2.0404 -1.1373 -2.3798
 3648SOL    HW222578   1.341   4.093   3.776  0.2063  0.1466 -0.6089
 3649SOL     OW22579   0.429   4.605   7.241 -0.2731 -0.2344  0.6665
 3649SOL    HW122580   0.406   4.686   7.197 -2.0510 -0.5055  1.0994
 3649SOL    HW222581   0.525   4.600   7.238 -0.2255  1.6886 -0.8748
 3650SOL     OW22582   2.462   3.752   2.134  0.1842 -0.1285  0.4105
 3650SOL    HW122583   2.435   3.833   2.176 -1.1377  0.0357 -0.7727
 3650SOL    HW222584   2.502   3.705   2.207  1.6263  1.5281  0.7100
 3651SOL     OW22585   0.962   2.879   6.469  0.2071 -0.0342 -0.3287
 3651SOL    HW122586   1.052   2.864   6.497 -1.1858 -1.4279  3.4859
 3651SOL    HW222587   0.925   2.791   6.459 -1.3496  0.4775  0.9470
 3652SOL     OW22588   2.331   0.502   2.476  0.1522  0.2063  1.0630
 3652SOL    HW122589   2.422   0.533   2.473 -1.3970  4.8723  1.2392
 3652SOL    HW222590   2.286   0.584   2.453  3.3055  1.4827 -0.5377
 3653SOL     OW22591   0.126   0.339   6.149 -0.4975 -0.2995 -0.1774
 3653SOL    HW122592   0.125   0.384   6.233  1.0704  0.9816 -0.8506
 3653SOL    HW222593   0.032   0.340   6.127 -0.4165  0.2449 -0.4796
 3654SOL     OW22594   4.217   1.331   6.473  0.0439 -0.5338 -0.4818
 3654SOL    HW122595   4.225   1.411   6.422  0.4510 -0.3245 -0.0894
 3654SOL    HW222596   4.309   1.332   6.501  0.0687  0.1564 -0.6113
 3655SOL     OW22597   1.126   3.402  13.623  0.7140  0.1434 -0.5461
 3655SOL    HW122598   1.070   3.472  13.589 -0.6361 -0.6754 -0.0423
 3655SOL    HW222599   1.210   3.439  13.597  1.4960 -1.3607 -0.1231
 3656SOL     OW22600   1.879   2.602   3.072 -0.2201 -0.3198 -0.2469
 3656SOL    HW122601   1.869   2.563   2.985 -4.7620  2.9205 -1.2041
 3656SOL    HW222602   1.823   2.679   3.059 -1.2102 -0.8549  0.8386
 3657SOL     OW22603   1.418   1.873   2.842 -0.6310 -0.1558 -0.4912
 3657SOL    HW122604   1.435   1.903   2.752  0.8942  0.6420  0.0574
 3657SOL    HW222605   1.323   1.864   2.839 -0.5534 -1.6565  1.7011
 3658SOL     OW22606   0.255   1.034   6.199  0.1970 -0.4009 -0.1611
 3658SOL    HW122607   0.231   1.126   6.212  2.3076 -0.3515  3.6165
 3658SOL    HW222608   0.313   1.022   6.275  0.5891  0.8432 -0.2650
 3659SOL     OW22609   3.466   1.680  15.450 -0.6804  0.2348  0.5976
 3659SOL    HW122610   3.476   1.607  15.390 -2.5665  0.6069 -0.1734
 3659SOL    HW222611   3.398   1.652  15.512 -0.8882 -1.0998 -0.2335
 3660SOL     OW22612   0.212   0.985   3.641  0.0334  0.2637  0.1797
 3660SOL    HW122613   0.230   0.905   3.691  2.7745 -0.2776 -1.6761
 3660SOL    HW222614   0.257   1.056   3.686 -2.0078  0.0804  2.5576
 3661SOL     OW22615   2.396   3.663   8.557 -0.4379 -0.1222 -0.7228
 3661SOL    HW122616   2.353   3.612   8.625  0.3743 -1.1355 -0.9679
 3661SOL    HW222617   2.481   3.620   8.568 -1.7380 -2.0264  1.7074
 3662SOL     OW22618   2.238   1.872  12.933 -0.1131 -0.0716  0.6567
 3662SOL    HW122619   2.285   1.885  12.850 -2.5621  0.7236 -0.5864
 3662SOL    HW222620   2.304   1.830  12.989  1.5527 -0.1188 -1.3221
 3663SOL     OW22621   1.642   1.146   9.252 -0.0843 -0.0839  0.1686
 3663SOL    HW122622   1.657   1.134   9.158 -2.0586  0.5206 -0.2124
 3663SOL    HW222623   1.593   1.227   9.257 -1.6777 -1.0308 -0.0870
 3664SOL     OW22624   0.335   0.320  11.567 -0.1291  0.0054  0.1648
 3664SOL    HW122625   0.405   0.337  11.505 -1.0779 -2.0888 -1.4746
 3664SOL    HW222626   0.259   0.352  11.519 -2.4318 -1.4521  2.8345
 3665SOL     OW22627   2.996   4.372   9.437 -0.1297  0.4785 -0.0394
 3665SOL    HW122628   2.964   4.324   9.513  0.8966 -1.0026 -0.5420
 3665SOL    HW222629   2.966   4.461   9.457 -1.5036  0.2964 -1.2768
 3666SOL     OW22630   4.734   2.189   0.861 -0.1353 -0.2638  0.4078
 3666SOL    HW122631   4.726   2.279   0.891 -0.5744  0.7849 -2.8710
 3666SOL    HW222632   4.732   2.137   0.942 -0.1818 -0.5964  0.1957
 3667SOL     OW22633   0.005   1.793   8.677  0.0661 -0.0884  0.0957
 3667SOL    HW122634   4.707   1.719   8.724  0.3919 -0.6561 -0.5254
 3667SOL    HW222635   4.694   1.859   8.723  0.8684  0.8561 -0.3610
 3668SOL     OW22636   0.150   2.173   1.793  0.6466  0.7442 -0.4861
 3668SOL    HW122637   0.134   2.134   1.879 -2.8115  2.0113 -0.5262
 3668SOL    HW222638   0.131   2.104   1.729  0.4291  0.2398  0.1229
 3669SOL     OW22639   3.292   4.129   7.663 -0.2554  0.0515 -0.1032
 3669SOL    HW122640   3.284   4.097   7.754  0.4616  0.7948  0.2157
 3669SOL    HW222641   3.345   4.205   7.684  0.0351  0.2711 -1.6376
 3670SOL     OW22642   3.990   1.627   4.597 -0.6616  0.3137  0.3460
 3670SOL    HW122643   4.084   1.609   4.601 -0.5111  0.1974 -3.0644
 3670SOL    HW222644   3.962   1.607   4.686 -1.5482  0.0284 -0.0019
 3671SOL     OW22645   2.964   2.044   6.210  0.3490 -0.0991  0.1011
 3671SOL    HW122646   2.873   2.038   6.238  0.4540  0.6926  0.6038
 3671SOL    HW222647   2.964   1.964   6.158  0.5103 -0.0648  0.0480
 3672SOL     OW22648   0.753   3.158   3.734  0.3614 -0.3980 -0.0731
 3672SOL    HW122649   0.736   3.105   3.812 -0.8112 -2.2790 -1.6248
 3672SOL    HW222650   0.832   3.111   3.705 -0.4924 -0.4145 -2.4003
 3673SOL     OW22651   0.155   2.008   7.893  0.2070 -0.0469  0.3293
 3673SOL    HW122652   0.074   1.960   7.881 -0.2763  0.5927  1.0571
 3673SOL    HW222653   0.170   1.989   7.985 -1.2465  0.2567  0.6292
 3674SOL     OW22654   1.834   2.564   5.955 -0.1666  0.3408  0.6891
 3674SOL    HW122655   1.889   2.614   6.015  2.1113 -2.2967  0.8263
 3674SOL    HW222656   1.755   2.565   6.010 -0.0167  1.1062  0.8904
 3675SOL     OW22657   4.643   1.747   4.158 -0.2082 -0.3283  0.4010
 3675SOL    HW122658   4.576   1.807   4.126  0.9085 -0.4664 -2.1598
 3675SOL    HW222659   4.601   1.662   4.145 -2.0559  0.4728  1.0941
 3676SOL     OW22660   1.680   3.244   2.770 -0.5375  0.5137  0.9668
 3676SOL    HW122661   1.768   3.264   2.799  0.3201 -0.0598 -1.2071
 3676SOL    HW222662   1.655   3.323   2.722  0.3269 -0.3536 -0.9335
 3677SOL     OW22663   3.715   0.527   7.181 -0.1546 -0.0547 -0.2830
 3677SOL    HW122664   3.810   0.531   7.192 -0.4120 -0.2821  1.8931
 3677SOL    HW222665   3.699   0.434   7.165  0.7122 -0.5688  1.9871
 3678SOL     OW22666   4.254   2.069   9.054 -0.4521 -0.2049 -0.3916
 3678SOL    HW122667   4.342   2.034   9.066 -0.0431  1.7725  2.4349
 3678SOL    HW222668   4.265   2.134   8.985  0.9129 -0.5559 -0.5022
 3679SOL     OW22669   0.493   3.499   6.451 -0.2873 -0.2895  0.1916
 3679SOL    HW122670   0.559   3.485   6.383 -0.0682 -0.1804  0.3814
 3679SOL    HW222671   0.459   3.412   6.472 -1.8490  0.5457  1.0853
 3680SOL     OW22672   0.629   1.651   8.215  0.6909 -0.7000  0.2469
 3680SOL    HW122673   0.597   1.702   8.140  0.1768 -0.5342  0.5781
 3680SOL    HW222674   0.570   1.576   8.208 -0.2852  0.0399  0.5731
 3681SOL     OW22675   1.593   2.247  11.797 -0.4593 -0.4253  0.6031
 3681SOL    HW122676   1.657   2.306  11.837  0.6581 -1.4435  0.3168
 3681SOL    HW222677   1.563   2.300  11.723  1.4688  2.9183  2.2365
 3682SOL     OW22678   3.748   4.324   3.392 -0.3646  0.2160 -0.7041
 3682SOL    HW122679   3.675   4.362   3.342  0.2549 -0.1154 -1.8566
 3682SOL    HW222680   3.753   4.236   3.356  1.9263 -0.2651  0.7955
 3683SOL     OW22681   1.018   4.048   2.007  0.2197  0.4387  0.7945
 3683SOL    HW122682   0.949   4.087   1.953 -0.3585  0.7176  1.7294
 3683SOL    HW222683   0.978   4.009   2.085  0.4872  0.7459  1.0871
 3684SOL     OW22684   3.851   3.820   0.501 -0.7135 -0.3125 -0.4030
 3684SOL    HW122685   3.896   3.835   0.584 -1.1607 -0.1741 -0.1886
 3684SOL    HW222686   3.847   3.904   0.455 -1.4723  1.0162  2.0801
 3685SOL     OW22687   0.245   0.144   4.560 -0.1856  0.2122 -0.2883
 3685SOL    HW122688   0.285   0.061   4.532 -0.5028  0.2640 -0.8939
 3685SOL    HW222689   0.307   0.183   4.622  1.9424  0.7399 -2.7712
 3686SOL     OW22690   3.089   3.151  10.974  0.3585 -0.0114 -0.7649
 3686SOL    HW122691   3.074   3.057  10.963  1.4262 -0.5704  2.5200
 3686SOL    HW222692   3.098   3.151  11.070  1.1947  0.2975 -0.8432
 3687SOL     OW22693   4.604   3.634   5.007 -0.0453 -0.2263 -0.3191
 3687SOL    HW122694   4.553   3.554   5.016  1.5122 -1.1886 -0.1869
 3687SOL    HW222695   4.537   3.702   5.016 -1.0831 -1.5050  1.6593
 3688SOL     OW22696   0.989   3.859   8.081 -0.1323  0.4901  0.0035
 3688SOL    HW122697   0.967   3.861   7.988 -1.5243 -0.9055  0.2934
 3688SOL    HW222698   0.943   3.939   8.108  0.0063  0.8330 -0.7801
 3689SOL     OW22699   3.966   1.274   0.580 -0.8705  0.7510 -0.7577
 3689SOL    HW122700   3.970   1.211   0.509 -1.6149  0.2074 -0.3176
 3689SOL    HW222701   3.929   1.350   0.534 -2.7081  1.2361  1.5278
 3690SOL     OW22702   2.572   3.480   8.664  0.0429 -0.9371  0.3775
 3690SOL    HW122703   2.532   3.397   8.690 -3.0542  0.6937  0.8081
 3690SOL    HW222704   2.663   3.458   8.642  1.2433  0.0774  4.3062
 3691SOL     OW22705   1.976   0.879   1.525 -0.3191 -0.6904  0.3009
 3691SOL    HW122706   1.939   0.966   1.539 -2.2884 -1.1533 -1.9530
 3691SOL    HW222707   1.908   0.848   1.465 -0.2949 -2.7719  1.3458
 3692SOL     OW22708   4.221   2.344   8.373  0.1160  0.2526 -0.1110
 3692SOL    HW122709   4.194   2.284   8.303  2.6496 -0.0603 -0.8358
 3692SOL    HW222710   4.314   2.358   8.353  0.4745  1.1488  2.2181
 3693SOL     OW22711   3.160   2.563   4.235 -0.3911 -0.5521 -0.3259
 3693SOL    HW122712   3.176   2.627   4.165 -0.2514 -0.2354 -0.0071
 3693SOL    HW222713   3.183   2.483   4.189 -0.5884 -0.7912 -0.0104
 3694SOL     OW22714   1.204   0.911   7.389 -0.0651 -0.1284  0.0588
 3694SOL    HW122715   1.195   1.003   7.366  2.8731  0.0369 -0.4924
 3694SOL    HW222716   1.110   0.895   7.389 -0.3128  1.3288  0.9285
 3695SOL     OW22717   0.619   2.715   3.739 -0.1899  0.5000  0.2273
 3695SOL    HW122718   0.712   2.706   3.719 -0.6168  0.6104 -1.8432
 3695SOL    HW222719   0.595   2.784   3.677  0.2406  0.5739  0.1443
 3696SOL     OW22720   2.255   0.082   3.648 -0.3154 -0.3915 -0.1157
 3696SOL    HW122721   2.223   0.164   3.612 -0.6216  0.4331  2.0561
 3696SOL    HW222722   2.312   0.067   3.573  0.1585 -1.6785  0.4998
 3697SOL     OW22723   1.559   0.055  15.379 -0.2207 -0.0875 -0.1146
 3697SOL    HW122724   1.500   0.131  15.390 -0.1800  0.0844 -1.1093
 3697SOL    HW222725   1.604   0.074  15.297  0.7903  1.4068  0.7884
 3698SOL     OW22726   3.693   0.656   3.353  0.1243 -0.2905  0.0668
 3698SOL    HW122727   3.607   0.615   3.368  0.0089  0.6686  2.0460
 3698SOL    HW222728   3.754   0.585   3.370 -0.6459 -0.9717 -0.0075
 3699SOL     OW22729   1.116   2.838   4.915 -0.3918  0.9929 -0.2089
 3699SOL    HW122730   1.040   2.896   4.916 -1.6407 -0.6831  1.1149
 3699SOL    HW222731   1.148   2.837   4.825 -1.0035  0.0849 -0.4150
 3700SOL     OW22732   1.393   0.029   1.266  0.2955  0.5102  0.3321
 3700SOL    HW122733   1.408   4.681   1.300 -1.8450 -0.3672 -0.9627
 3700SOL    HW222734   1.298   0.017   1.275  0.3276 -0.3578 -0.5377
 3701SOL     OW22735   2.207   0.908   5.706  0.0311 -0.3243  0.1996
 3701SOL    HW122736   2.288   0.918   5.656 -0.6254  0.4625 -0.6957
 3701SOL    HW222737   2.143   0.956   5.654 -0.6748 -0.3527  1.0444
 3702SOL     OW22738   0.971   2.808   4.340  0.2158  0.0437 -0.5632
 3702SOL    HW122739   0.958   2.772   4.252  1.7374  1.1703 -1.2576
 3702SOL    HW222740   0.887   2.841   4.372 -0.6375 -1.6311 -1.0416
 3703SOL     OW22741   0.645   2.719   4.038  0.3976  0.2775  0.0863
 3703SOL    HW122742   0.695   2.639   4.053  1.6161  1.4221  2.0124
 3703SOL    HW222743   0.652   2.723   3.942  1.1487 -0.5903  0.1037
 3704SOL     OW22744   2.465   0.798   2.462 -0.2157  0.2111  0.3473
 3704SOL    HW122745   2.469   0.884   2.421 -0.7410  0.8558  1.6616
 3704SOL    HW222746   2.372   0.780   2.453  0.3838 -2.0025 -1.3402
 3705SOL     OW22747   0.823   1.544   9.805  0.3334 -0.2280 -0.3402
 3705SOL    HW122748   0.833   1.638   9.813 -0.6185 -0.0083 -1.8653
 3705SOL    HW222749   0.913   1.511   9.803  0.4988  0.2595 -0.7265
 3706SOL     OW22750   0.407   3.789   9.730  0.1972  0.4290  0.3531
 3706SOL    HW122751   0.362   3.709   9.759  1.7171 -0.2941  0.7420
 3706SOL    HW222752   0.333   3.836   9.691 -0.4434 -2.3177 -1.7355
 3707SOL     OW22753   4.575   2.811   6.565 -0.5408  0.0596  0.2117
 3707SOL    HW122754   4.621   2.779   6.487  0.4849  1.2067  0.3503
 3707SOL    HW222755   4.621   2.756   6.628  1.5863  2.8073  1.0176
 3708SOL     OW22756   4.593   0.787   4.027  0.2580 -0.0599 -0.3675
 3708SOL    HW122757   4.598   0.768   4.121  1.9752 -0.1578 -0.4650
 3708SOL    HW222758   4.543   0.868   4.026 -1.6521 -1.1992  1.8303
 3709SOL     OW22759   4.517   2.126   0.712  0.0242  0.5027  0.0253
 3709SOL    HW122760   4.469   2.207   0.727  1.0820  1.3648 -1.2313
 3709SOL    HW222761   4.594   2.142   0.766  1.3569 -1.9238 -1.1569
 3710SOL     OW22762   0.001   2.697   2.553  0.0758  0.1384 -0.6540
 3710SOL    HW122763   4.697   2.615   2.534  1.5710 -0.7929 -0.0766
 3710SOL    HW222764   0.001   2.731   2.463  0.0586  4.6433  1.0312
 3711SOL     OW22765   0.290   2.734   0.522  0.5788 -0.4648 -0.6223
 3711SOL    HW122766   0.385   2.747   0.523  0.5661 -0.3307 -1.9564
 3711SOL    HW222767   0.271   2.796   0.453 -0.0717  0.3651  0.3102
 3712SOL     OW22768   2.812   3.039   8.475  0.5348  0.1649 -0.3446
 3712SOL    HW122769   2.832   3.034   8.568 -1.3574 -1.4865 -0.0204
 3712SOL    HW222770   2.892   3.069   8.433 -0.0950  2.3058 -0.0083
 3713SOL     OW22771   3.417   2.612  16.539 -0.5746  0.6084  0.1326
 3713SOL    HW122772   3.334   2.633  16.497  0.5453  1.9670 -1.4269
 3713SOL    HW222773   3.459   2.693  16.511 -0.7326 -0.0595 -2.0666
 3714SOL     OW22774   3.076   0.261   5.287  0.0310  0.0396  0.0675
 3714SOL    HW122775   3.161   0.295   5.262  0.4472 -0.3465  0.9642
 3714SOL    HW222776   3.068   0.298   5.375 -2.7308 -1.3976  0.4405
 3715SOL     OW22777   2.264   0.783   1.431  0.3750  0.3214 -0.0801
 3715SOL    HW122778   2.176   0.810   1.456 -0.0748 -1.1290 -0.1423
 3715SOL    HW222779   2.264   0.689   1.416 -1.0163  0.5346 -1.4434
 3716SOL     OW22780   0.280   0.296   6.914 -0.1000  0.0842 -0.5734
 3716SOL    HW122781   0.347   0.354   6.952 -2.0699  3.0637 -1.6834
 3716SOL    HW222782   0.321   0.273   6.831  0.2587  1.5322 -0.8044
 3717SOL     OW22783   1.168   0.077   2.612  0.3604  0.2582  0.2334
 3717SOL    HW122784   1.118   0.158   2.608 -1.1848 -0.7704 -1.4265
 3717SOL    HW222785   1.256   0.103   2.588  0.5316 -0.5618 -0.0372
 3718SOL     OW22786   3.523   3.577  14.896 -0.2360  0.3609 -0.2316
 3718SOL    HW122787   3.471   3.502  14.867  1.1622  0.3062 -2.6639
 3718SOL    HW222788   3.483   3.593  14.981  0.1076  1.5073 -0.2780
 3719SOL     OW22789   4.269   2.911   6.899 -0.2313 -0.2208  0.0846
 3719SOL    HW122790   4.264   2.837   6.839 -0.4136 -1.7099  1.9106
 3719SOL    HW222791   4.361   2.937   6.897  0.5312 -2.8292  0.8082
 3720SOL     OW22792   0.149   2.715   1.894 -0.1968 -0.0696  0.2348
 3720SOL    HW122793   0.204   2.654   1.846 -0.7067 -0.2554 -0.1078
 3720SOL    HW222794   0.166   2.674   1.979 -1.2373  0.5337  0.7438
 3721SOL     OW22795   1.411   1.364   8.453  0.1583  1.3206 -0.2634
 3721SOL    HW122796   1.372   1.385   8.538 -3.0926  0.8486 -1.6200
 3721SOL    HW222797   1.339   1.337   8.395  0.2481  0.2847  0.1081
 3722SOL     OW22798   2.123   4.651   5.628 -0.3568  0.3008  0.3890
 3722SOL    HW122799   2.214   4.631   5.652  0.3689  2.2095 -0.6830
 3722SOL    HW222800   2.129   4.669   5.534 -2.4511  1.6922  0.5371
 3723SOL     OW22801   0.411   3.816  14.925  0.6311  0.1511  0.5559
 3723SOL    HW122802   0.329   3.839  14.970  0.5606 -0.5296  0.7737
 3723SOL    HW222803   0.422   3.735  14.975 -0.9440 -0.1594  0.4034
 3724SOL     OW22804   3.509   0.502   3.450 -0.5172 -0.4865 -0.5250
 3724SOL    HW122805   3.416   0.488   3.431 -1.0913  0.0487  1.7753
 3724SOL    HW222806   3.514   0.435   3.519 -0.9915  0.0364  0.0238
 3725SOL     OW22807   3.205   2.272   4.803  0.0548  0.1744  0.2763
 3725SOL    HW122808   3.255   2.260   4.883 -0.1049  0.8174  0.4697
 3725SOL    HW222809   3.134   2.215   4.833 -0.0409 -0.6901 -1.5888
 3726SOL     OW22810   4.438   0.399   7.783 -0.2655  0.1247  0.0560
 3726SOL    HW122811   4.382   0.476   7.780  0.6671  0.7936 -0.3010
 3726SOL    HW222812   4.510   0.434   7.730  2.6836 -0.4508  3.6850
 3727SOL     OW22813   0.374   3.452   2.944 -0.3005 -0.5107 -0.1848
 3727SOL    HW122814   0.355   3.514   3.015  0.4021 -1.4101  0.8008
 3727SOL    HW222815   0.446   3.501   2.905 -1.0301  1.0884  0.5015
 3728SOL     OW22816   2.774   3.236   6.678 -0.2274 -0.0408 -0.2736
 3728SOL    HW122817   2.745   3.315   6.723 -2.1680 -1.5700  1.1171
 3728SOL    HW222818   2.697   3.214   6.625 -0.6982  1.6451 -0.2737
 3729SOL     OW22819   4.587   3.047   5.801 -0.4106  0.2858 -0.0532
 3729SOL    HW122820   4.550   3.134   5.785 -1.4385 -0.3997 -1.4361
 3729SOL    HW222821   4.564   3.044   5.894  2.0011  1.3537  0.5882
 3730SOL     OW22822   2.695   0.778   1.101 -0.0485  0.0987 -0.2861
 3730SOL    HW122823   2.780   0.788   1.145 -1.2579  2.0108  1.6585
 3730SOL    HW222824   2.700   0.690   1.064  2.0325  0.1971 -0.2503
 3731SOL     OW22825   1.961   1.894   7.410  0.7312  0.0185  0.1508
 3731SOL    HW122826   1.961   1.856   7.498  1.0255 -0.6826 -0.1538
 3731SOL    HW222827   1.908   1.832   7.359 -1.1166  2.5849 -1.0233
 3732SOL     OW22828   1.010   0.501   7.340  0.4395  0.6160  0.2206
 3732SOL    HW122829   1.059   0.424   7.312  0.9439  0.4908  1.4678
 3732SOL    HW222830   1.079   0.549   7.385  0.5110  0.4533  0.2859
 3733SOL     OW22831   2.212   4.243  10.014  0.2882 -0.2925  0.6559
 3733SOL    HW122832   2.232   4.258   9.921  1.0846 -3.6419  0.2554
 3733SOL    HW222833   2.289   4.192  10.039  1.0069 -0.5008 -1.9633
 3734SOL     OW22834   1.577   4.143   8.162  0.7059 -0.4177  0.0039
 3734SOL    HW122835   1.601   4.182   8.246  0.0818 -0.9796  0.4414
 3734SOL    HW222836   1.637   4.069   8.150 -0.6947 -1.0372 -3.1670
 3735SOL     OW22837   3.682   0.598   0.942 -0.6917  0.1992 -0.0063
 3735SOL    HW122838   3.631   0.657   0.998 -1.4451  0.4112 -0.9169
 3735SOL    HW222839   3.661   0.638   0.858  1.1067 -0.2038 -0.6373
 3736SOL     OW22840   3.029   1.907   8.710 -0.1299  0.2826 -0.0733
 3736SOL    HW122841   3.007   1.860   8.791 -0.5766 -2.2444 -1.6580
 3736SOL    HW222842   3.100   1.855   8.674 -0.0512 -0.1624  0.7117
 3737SOL     OW22843   3.705   3.031   2.701 -0.6272  0.3524 -0.8671
 3737SOL    HW122844   3.775   3.014   2.765  1.2527  0.8332 -2.8133
 3737SOL    HW222845   3.631   3.058   2.755 -1.5449 -4.1463  0.1361
 3738SOL     OW22846   2.334   4.728  16.998  0.0076 -0.1050  0.2437
 3738SOL    HW122847   2.304   4.699  16.912  3.7078 -1.3133 -0.6658
 3738SOL    HW222848   2.258   0.023  17.043  0.2258  1.7611 -0.8413
 3739SOL     OW22849   0.158   2.726   9.525  0.6043  0.4432 -0.2452
 3739SOL    HW122850   0.231   2.788   9.522  0.3301  0.8973  1.9198
 3739SOL    HW222851   0.216   2.656   9.554 -0.9686 -1.1916 -1.0127
 3740SOL     OW22852   0.210   0.483   2.019  0.1368 -0.3008 -0.1509
 3740SOL    HW122853   0.262   0.520   2.091  2.9817 -1.5945 -1.5234
 3740SOL    HW222854   0.135   0.541   2.008  0.9443  0.7100 -0.2756
 3741SOL     OW22855   2.281   1.441   5.635 -0.5165  0.1854  0.1996
 3741SOL    HW122856   2.240   1.518   5.675 -0.5577 -0.2695  1.0447
 3741SOL    HW222857   2.201   1.401   5.600  1.3260  0.3487 -4.1252
 3742SOL     OW22858   3.723   3.310  15.456 -0.1326  0.4443 -0.5906
 3742SOL    HW122859   3.629   3.322  15.443 -0.1231  1.0781 -0.0539
 3742SOL    HW222860   3.735   3.244  15.387 -1.0676  0.7812 -1.0807
 3743SOL     OW22861   2.027   1.881   6.353  0.0724 -0.1939  0.6801
 3743SOL    HW122862   2.012   1.862   6.261 -2.2854  1.3118  0.7513
 3743SOL    HW222863   2.014   1.974   6.337  2.7307 -0.0607 -0.7695
 3744SOL     OW22864   3.397   3.549   3.693  0.2368  0.3008 -0.3087
 3744SOL    HW122865   3.371   3.634   3.729  0.5683 -0.2881  1.3406
 3744SOL    HW222866   3.306   3.518   3.688  0.1065  0.6155  0.0821
 3745SOL     OW22867   1.766   3.099   8.213 -0.3072  0.1191 -0.4266
 3745SOL    HW122868   1.816   3.071   8.290 -0.9515 -1.1122 -0.4501
 3745SOL    HW222869   1.781   3.027   8.152  1.5084  1.7553 -1.8952
 3746SOL     OW22870   0.136   3.242   4.087  0.6428 -0.2381 -0.1749
 3746SOL    HW122871   0.112   3.334   4.082  1.1833 -0.0704  0.2827
 3746SOL    HW222872   0.209   3.251   4.149  0.6897 -1.7798 -0.0015
 3747SOL     OW22873   3.255   1.836   1.400 -0.4065  0.2348  0.2246
 3747SOL    HW122874   3.203   1.916   1.392 -1.2952 -0.3291  0.3741
 3747SOL    HW222875   3.188   1.782   1.443  1.5580 -0.6819  2.1294
 3748SOL     OW22876   2.983   3.604   8.070  0.3389 -0.0046  0.4460
 3748SOL    HW122877   2.948   3.520   8.100  0.7049  0.3970  1.9926
 3748SOL    HW222878   2.918   3.669   8.097 -1.1777 -0.7976 -1.2598
 3749SOL     OW22879   4.006   0.496   6.184  0.3423  0.1406 -0.3339
 3749SOL    HW122880   3.946   0.562   6.218  1.1598  0.0279  1.2810
 3749SOL    HW222881   4.092   0.536   6.187  1.0709 -1.4744  0.2464
 3750SOL     OW22882   2.348   1.075   2.602  0.1452  0.3127  0.0703
 3750SOL    HW122883   2.435   1.096   2.568 -0.3831  0.5490 -1.1516
 3750SOL    HW222884   2.307   1.128   2.533 -1.5711 -0.4303  0.5238
 3751SOL     OW22885   3.738   2.318   3.757  0.3459  0.3773  0.0221
 3751SOL    HW122886   3.799   2.270   3.813  0.3848 -1.1372 -1.3256
 3751SOL    HW222887   3.743   2.409   3.787 -0.6994  0.9935 -1.6792
 3752SOL     OW22888   4.406   3.280   5.799 -0.3971  0.5932  0.5327
 3752SOL    HW122889   4.414   3.354   5.738 -1.2901 -0.3490 -0.7100
 3752SOL    HW222890   4.432   3.328   5.877  0.7120  0.5962  0.1661
 3753SOL     OW22891   4.186   3.055  15.158  0.3495  0.5849 -0.5132
 3753SOL    HW122892   4.257   3.082  15.101  0.3005  1.9212  0.0531
 3753SOL    HW222893   4.229   3.030  15.240  1.3006  0.5845 -1.0108
 3754SOL     OW22894   3.765   2.217   4.196  0.5083 -0.3957 -0.6812
 3754SOL    HW122895   3.766   2.207   4.291  0.5144  1.0142 -0.5213
 3754SOL    HW222896   3.673   2.231   4.176  0.3773  0.8755  0.7897
 3755SOL     OW22897   3.935   1.329   1.959  0.0630  0.2898  0.2253
 3755SOL    HW122898   3.924   1.249   2.011  1.6288 -0.6474 -0.8887
 3755SOL    HW222899   4.013   1.362   2.002  0.2880 -0.8780  0.7034
 3756SOL     OW22900   1.758   1.160  10.871  0.3669  0.0104  0.3779
 3756SOL    HW122901   1.686   1.153  10.934  1.7313 -1.7083  1.7488
 3756SOL    HW222902   1.729   1.127  10.786 -1.4754 -2.1070  1.8306
 3757SOL     OW22903   3.499   0.932   3.031 -0.5831 -0.0259  0.2854
 3757SOL    HW122904   3.473   0.841   3.047  0.2616 -0.0285  1.5971
 3757SOL    HW222905   3.416   0.971   3.060  0.4185  2.1403  0.1847
 3758SOL     OW22906   3.723   2.911   0.777 -0.5746 -0.1382 -0.2553
 3758SOL    HW122907   3.809   2.911   0.735 -0.8676  1.2556 -0.8490
 3758SOL    HW222908   3.699   2.996   0.739  4.1078  2.5001  2.6855
 3759SOL     OW22909   3.072   0.360   2.841  0.3974 -0.6406 -0.1034
 3759SOL    HW122910   3.160   0.380   2.810  0.2835  0.1199  0.0659
 3759SOL    HW222911   3.027   0.438   2.808 -1.4841 -2.0223 -0.7843
 3760SOL     OW22912   3.584   0.877   1.537  0.0246  0.0264 -0.8402
 3760SOL    HW122913   3.620   0.805   1.589  0.1769  0.2980 -0.5711
 3760SOL    HW222914   3.579   0.939   1.610 -1.2282  0.1657 -1.0396
 3761SOL     OW22915   1.535   4.099   3.237 -0.1074 -0.4432  0.2387
 3761SOL    HW122916   1.459   4.095   3.294 -2.3715 -2.3620 -2.9446
 3761SOL    HW222917   1.573   4.013   3.257 -0.8795 -1.2318 -1.7374
 3762SOL     OW22918   0.141   3.002   5.963  0.4599 -0.1279  0.5324
 3762SOL    HW122919   0.226   2.976   5.929  1.4655  3.1836  0.5471
 3762SOL    HW222920   0.089   2.922   5.968 -2.8109  1.9670  0.2504
 3763SOL     OW22921   0.862   0.308   6.267 -0.3938  0.1941  0.2061
 3763SOL    HW122922   0.881   0.298   6.360 -0.3586  0.1862  0.1979
 3763SOL    HW222923   0.890   0.399   6.254  0.9928 -0.0840  1.3344
 3764SOL     OW22924   4.520   4.389   0.451  0.4066  0.1904  0.2115
 3764SOL    HW122925   4.553   4.300   0.450  0.8613  0.3564  0.5567
 3764SOL    HW222926   4.562   4.436   0.379 -3.0081  1.2722 -1.1016
 3765SOL     OW22927   0.206   4.210   5.605 -0.4630 -0.1235  0.0304
 3765SOL    HW122928   0.283   4.262   5.629  0.5497 -0.8330 -1.6438
 3765SOL    HW222929   0.142   4.261   5.654  0.2597  0.4640  0.3686
 3766SOL     OW22930   4.198   0.405   6.905  0.0791 -0.0781  0.4065
 3766SOL    HW122931   4.158   0.488   6.930 -2.0169 -0.2084 -2.5174
 3766SOL    HW222932   4.263   0.426   6.839 -0.1092  0.5140  0.4089
 3767SOL     OW22933   3.484   0.725   0.133 -0.0014 -0.1738  0.5074
 3767SOL    HW122934   3.422   0.712   0.204 -0.2291  0.2227  0.3816
 3767SOL    HW222935   3.532   0.642   0.134  1.2383  0.5264 -1.6506
 3768SOL     OW22936   0.219   2.973   0.412  0.1277  0.0924 -0.0500
 3768SOL    HW122937   0.289   3.000   0.353 -0.2668  0.9578 -0.1199
 3768SOL    HW222938   0.166   3.052   0.422 -0.8589 -0.4295 -1.2612
 3769SOL     OW22939   4.267   2.715  12.525 -0.0300  0.4228 -0.0617
 3769SOL    HW122940   4.343   2.661  12.506 -1.2309 -1.5124  0.6678
 3769SOL    HW222941   4.202   2.658  12.566 -0.5934  1.9427  1.1908
 3770SOL     OW22942   3.567   0.815   9.390  0.3345 -0.2345 -0.1405
 3770SOL    HW122943   3.595   0.880   9.326  1.7265 -1.4190 -0.7257
 3770SOL    HW222944   3.498   0.779   9.334  0.1203 -0.5193  0.2965
 3771SOL     OW22945   2.592   3.106   7.187 -0.3439 -0.0128  0.0341
 3771SOL    HW122946   2.524   3.049   7.223  1.3397 -2.2136 -0.2861
 3771SOL    HW222947   2.666   3.053   7.216  1.1968  1.4272 -1.2315
 3772SOL     OW22948   4.548   0.152   1.145  0.7266  0.0878 -0.3933
 3772SOL    HW122949   4.617   0.187   1.089  1.5096  0.2302  0.6693
 3772SOL    HW222950   4.480   0.119   1.086 -0.7307 -0.6387  1.6873
 3773SOL     OW22951   1.967   3.653   4.896  0.2293 -0.3288 -0.2084
 3773SOL    HW122952   1.955   3.708   4.819  3.6539  0.6240 -0.0778
 3773SOL    HW222953   2.003   3.579   4.847  1.1346  0.3629 -0.5865
 3774SOL     OW22954   0.007   3.700   9.657 -0.2520 -0.0291 -0.3425
 3774SOL    HW122955   0.006   3.757   9.734  2.1783 -2.8005  1.7544
 3774SOL    HW222956   4.711   3.620   9.696  1.0615 -0.5269 -0.1422
 3775SOL     OW22957   0.703   1.379  16.607  0.4200  0.5144 -0.2033
 3775SOL    HW122958   0.674   1.434  16.680  1.2039  0.6098  0.0381
 3775SOL    HW222959   0.729   1.448  16.545 -0.2194 -1.9916 -3.2751
 3776SOL     OW22960   1.367   1.853   6.847 -0.7333 -0.1722  0.8605
 3776SOL    HW122961   1.427   1.925   6.865 -2.4477  2.4042 -3.7769
 3776SOL    HW222962   1.420   1.781   6.882 -0.2589 -0.5331 -0.5718
 3777SOL     OW22963   1.539   0.847   4.745  0.1690 -0.5300 -0.5125
 3777SOL    HW122964   1.621   0.808   4.715  0.7923 -0.0922  0.5886
 3777SOL    HW222965   1.518   0.773   4.802 -0.2608  1.7217  2.2363
 3778SOL     OW22966   0.012   3.488   4.795 -0.5252  0.5238 -0.0442
 3778SOL    HW122967   4.711   3.538   4.866  0.4520 -0.1316  0.9836
 3778SOL    HW222968   0.085   3.546   4.777  2.5522 -2.7461  1.9198
 3779SOL     OW22969   0.919   3.880   4.009 -0.0568 -1.1327 -0.7371
 3779SOL    HW122970   0.913   3.845   3.920 -2.2237  1.2860 -1.5482
 3779SOL    HW222971   1.014   3.880   4.018 -0.2645 -0.1925  1.3924
 3780SOL     OW22972   3.283   1.849   6.737 -0.0621  0.0617  0.4127
 3780SOL    HW122973   3.347   1.817   6.801  0.0157  1.0226  0.8052
 3780SOL    HW222974   3.230   1.909   6.788  0.2404 -0.0961  0.9192
 3781SOL     OW22975   4.145   1.782  14.215  0.4337  0.0529  0.3862
 3781SOL    HW122976   4.219   1.778  14.155 -0.6636 -0.8219 -0.8934
 3781SOL    HW222977   4.081   1.743  14.155 -0.0542  0.4118  0.6692
 3782SOL     OW22978   2.884   2.801   5.665 -0.6866 -0.2316 -0.1491
 3782SOL    HW122979   2.812   2.851   5.626  0.1419  0.2548 -1.0578
 3782SOL    HW222980   2.924   2.865   5.724 -0.7688 -1.3185  1.0929
 3783SOL     OW22981   2.509   3.126   1.264  0.4913 -0.4869 -0.4671
 3783SOL    HW122982   2.477   3.188   1.197  0.9365  1.2981  0.9715
 3783SOL    HW222983   2.491   3.048   1.211  2.8978 -1.3852  0.0295
 3784SOL     OW22984   2.839   0.817   3.326 -0.6704  0.0856  0.5930
 3784SOL    HW122985   2.855   0.835   3.419  0.4161 -2.0005  0.8067
 3784SOL    HW222986   2.768   0.881   3.312 -0.1090  0.8090  1.0274
 3785SOL     OW22987   3.353   0.777  12.585  0.6746 -0.5772 -0.4202
 3785SOL    HW122988   3.340   0.692  12.545  2.0002 -0.5391 -0.9346
 3785SOL    HW222989   3.448   0.778  12.601  0.7638  1.6300 -1.0572
 3786SOL     OW22990   4.735   1.603   7.820 -0.4614  0.2056  0.4972
 3786SOL    HW122991   4.662   1.590   7.880  0.7564 -1.2791  1.6671
 3786SOL    HW222992   0.016   1.512   7.800 -1.0592 -0.2714  2.0636
 3787SOL     OW22993   4.482   2.905   3.967  0.6081  0.0240  0.5121
 3787SOL    HW122994   4.538   2.971   4.006 -1.8114  1.6781  1.2052
 3787SOL    HW222995   4.491   2.839   4.036  0.1041  0.1856  0.7374
 3788SOL     OW22996   4.699   4.667   3.221 -0.1590 -0.0125  0.1448
 3788SOL    HW122997   0.003   0.011   3.240  2.2961 -0.3146 -4.2614
 3788SOL    HW222998   4.732   4.615   3.294  1.0316 -0.1716 -0.5054
 3789SOL     OW22999   0.304   1.764   8.522 -0.6712 -0.1111  0.6125
 3789SOL    HW123000   0.210   1.751   8.522 -0.9423  1.9161  0.7675
 3789SOL    HW223001   0.336   1.674   8.512  0.8620  0.6125 -1.0996
 3790SOL     OW23002   2.333   4.248  14.710 -0.3759  0.7141 -0.1311
 3790SOL    HW123003   2.373   4.223  14.627 -0.0705  0.8710 -0.0329
 3790SOL    HW223004   2.259   4.302  14.680 -0.5717  1.4281  1.6439
 3791SOL     OW23005   4.451   0.212   6.067 -0.7458  0.0689 -0.2268
 3791SOL    HW123006   4.454   0.124   6.029  0.2509  0.2937 -0.6647
 3791SOL    HW223007   4.357   0.228   6.079 -1.0113  0.1188 -2.4720
 3792SOL     OW23008   0.116   2.873   4.284 -0.0128 -0.2210  0.2052
 3792SOL    HW123009   0.189   2.932   4.265  1.0126 -0.6559  2.7692
 3792SOL    HW223010   0.159   2.802   4.332  0.1598  1.7102  2.9191
 3793SOL     OW23011   0.699   1.361  14.713  0.3503 -0.2212  0.0370
 3793SOL    HW123012   0.705   1.438  14.769 -0.8398 -0.5356  0.6047
 3793SOL    HW223013   0.679   1.303  14.786 -0.7241 -2.0252 -1.6877
 3794SOL     OW23014   1.478   1.299   1.869  0.2374  0.0714 -0.4670
 3794SOL    HW123015   1.463   1.343   1.786 -0.5877 -1.4798 -1.1435
 3794SOL    HW223016   1.546   1.237   1.844  0.3523  0.0293 -0.0522
 3795SOL     OW23017   2.379   2.046   4.238  0.5100 -0.2440 -0.7152
 3795SOL    HW123018   2.410   1.972   4.186 -0.0064 -1.1886  0.3185
 3795SOL    HW223019   2.376   2.120   4.178 -1.7560 -0.2601 -0.6407
 3796SOL     OW23020   2.053   0.185   6.814 -0.1631  0.1030  0.0723
 3796SOL    HW123021   2.073   0.260   6.870 -0.1009  0.8158 -0.9046
 3796SOL    HW223022   2.110   0.195   6.738  0.3326 -0.1733  0.4101
 3797SOL     OW23023   2.441   1.184   6.639 -0.3173 -0.3450  0.2864
 3797SOL    HW123024   2.352   1.149   6.644 -0.2178 -0.4285  1.5957
 3797SOL    HW223025   2.486   1.132   6.706  0.6954  0.5211  0.2619
 3798SOL     OW23026   2.855   2.107  12.881  0.0828 -0.0926 -0.2212
 3798SOL    HW123027   2.781   2.154  12.841  0.0217 -0.5483 -0.6465
 3798SOL    HW223028   2.827   2.106  12.972 -1.8189  1.8739 -0.7617
 3799SOL     OW23029   4.375   1.034  17.697 -0.0069  0.5062 -0.1218
 3799SOL    HW123030   4.350   1.069  17.612 -3.3342  0.0516  0.6718
 3799SOL    HW223031   4.292   0.988  17.712  0.8669 -1.2292 -0.6231
 3800SOL     OW23032   2.625   4.330   0.639 -0.2051 -0.5120  0.6253
 3800SOL    HW123033   2.668   4.415   0.641 -2.4277  0.6720 -2.5073
 3800SOL    HW223034   2.535   4.362   0.629  0.2662  1.2788  2.1302
 3801SOL     OW23035   3.263   2.043   3.896 -0.0109 -0.3132  0.0110
 3801SOL    HW123036   3.310   2.022   3.976  0.4533  0.5472 -0.0323
 3801SOL    HW223037   3.327   2.007   3.835  1.5032  1.4405  0.5614
 3802SOL     OW23038   1.249   3.390   2.257 -0.2819 -0.5003  0.0015
 3802SOL    HW123039   1.238   3.300   2.289  0.3875 -0.2365  0.9534
 3802SOL    HW223040   1.286   3.369   2.171  0.0825 -1.1573  0.3174
 3803SOL     OW23041   3.627   1.467   8.855  0.2964  0.1432  0.0768
 3803SOL    HW123042   3.669   1.404   8.913  0.8625 -0.8374 -1.4239
 3803SOL    HW223043   3.578   1.409   8.797  0.8303 -0.5541  0.3220
 3804SOL     OW23044   2.375   1.350   7.728  0.5602  0.0042 -0.3376
 3804SOL    HW123045   2.341   1.422   7.782  0.1958 -0.2280 -0.2564
 3804SOL    HW223046   2.459   1.390   7.704  1.2732 -0.7013  0.9949
 3805SOL     OW23047   0.939   4.167   3.452 -0.3415 -1.0422  0.2481
 3805SOL    HW123048   0.925   4.207   3.538 -0.3432 -0.8116  0.1414
 3805SOL    HW223049   0.917   4.075   3.470 -0.1299 -1.2387 -0.4917
 3806SOL     OW23050   0.031   1.496   8.470 -0.5203  0.4334 -0.5818
 3806SOL    HW123051   0.083   1.514   8.549  1.7251  0.1198 -1.9937
 3806SOL    HW223052   0.044   1.401   8.468 -0.2858  0.4314  0.8945
 3807SOL     OW23053   3.751   2.825  16.759 -1.3618 -0.3035 -0.2564
 3807SOL    HW123054   3.728   2.858  16.845 -2.8895 -1.0869 -0.3753
 3807SOL    HW223055   3.695   2.748  16.760  0.0535 -1.3602 -1.4289
 3808SOL     OW23056   3.865   0.947   4.989 -0.2770 -0.2972  0.2966
 3808SOL    HW123057   3.825   1.005   5.054 -2.4523 -0.3116 -1.0197
 3808SOL    HW223058   3.910   1.008   4.930 -1.3273  1.5455  1.3717
 3809SOL     OW23059   3.281   0.935   0.868 -0.0056  0.7291  0.2072
 3809SOL    HW123060   3.259   0.937   0.961  1.6465 -0.2126  0.6074
 3809SOL    HW223061   3.263   1.027   0.849 -2.5317 -0.0748 -1.2870
 3810SOL     OW23062   1.264   0.477  14.923  0.0080 -0.4320 -0.6224
 3810SOL    HW123063   1.308   0.523  14.851  0.0310  1.5071  0.6322
 3810SOL    HW223064   1.181   0.526  14.921 -0.9003 -1.9847 -1.2513
 3811SOL     OW23065   1.728   0.203   4.559  0.1773  0.3246  0.6285
 3811SOL    HW123066   1.737   0.231   4.468  0.0544  1.2988  0.9174
 3811SOL    HW223067   1.637   0.230   4.575  1.0408  2.1962  2.4150
 3812SOL     OW23068   0.475   2.735   9.566 -0.1181 -0.3614 -0.6180
 3812SOL    HW123069   0.516   2.748   9.481 -1.3307  1.7441 -0.8731
 3812SOL    HW223070   0.460   2.640   9.562  3.3492 -0.9212 -0.3879
 3813SOL     OW23071   4.667   0.516   6.940 -0.3120 -0.7707 -0.6898
 3813SOL    HW123072   4.695   0.427   6.921  1.8819 -0.5675  1.6172
 3813SOL    HW223073   4.592   0.527   6.881 -2.2005 -2.6386  1.3259
 3814SOL     OW23074   3.558   1.832   2.566 -0.4770  0.0828  0.2523
 3814SOL    HW123075   3.549   1.871   2.653 -1.3385  1.2265 -0.3561
 3814SOL    HW223076   3.642   1.872   2.544  0.5056 -1.1028  1.8185
 3815SOL     OW23077   3.937   2.836   3.178  0.3118 -0.3468  0.2911
 3815SOL    HW123078   3.979   2.807   3.259 -0.0072 -0.1521  0.5236
 3815SOL    HW223079   3.959   2.928   3.191 -2.3575  0.1170  1.3386
 3816SOL     OW23080   2.376   4.612   5.563  0.3943  0.1921  0.0982
 3816SOL    HW123081   2.465   4.594   5.593  0.2390  1.6426  1.4176
 3816SOL    HW223082   2.395   4.670   5.488  0.0006 -1.3849 -1.2206
 3817SOL     OW23083   2.270   4.196  10.331 -0.1387 -0.4927  0.8513
 3817SOL    HW123084   2.335   4.175  10.264 -1.8788  0.1884 -1.0141
 3817SOL    HW223085   2.271   4.110  10.374  2.0225  1.2557  4.3081
 3818SOL     OW23086   4.346   3.941   5.467  0.0996 -0.2696 -0.8428
 3818SOL    HW123087   4.388   3.936   5.381 -0.5565  0.1821 -1.1876
 3818SOL    HW223088   4.423   3.924   5.522 -0.8225 -2.8751 -0.3556
 3819SOL     OW23089   3.238   1.581   9.822 -0.4130  0.5124  0.7544
 3819SOL    HW123090   3.212   1.625   9.904 -2.6346 -0.8892  0.8145
 3819SOL    HW223091   3.153   1.558   9.784  1.0259  0.7963 -2.5739
 3820SOL     OW23092   3.849   3.020   1.890 -0.6556 -0.2922 -0.3158
 3820SOL    HW123093   3.814   3.017   1.979  0.7819  0.6441  0.2700
 3820SOL    HW223094   3.840   3.111   1.862  1.0005 -0.0558 -0.0688
 3821SOL     OW23095   1.457   1.108   0.683  0.2855 -0.5963  0.3800
 3821SOL    HW123096   1.461   1.027   0.631  2.0217 -1.1226  1.3182
 3821SOL    HW223097   1.373   1.106   0.729 -0.4424 -2.0113 -1.0242
 3822SOL     OW23098   2.192   0.355   7.803  0.5772 -0.1987 -0.2200
 3822SOL    HW123099   2.258   0.406   7.757  0.0729 -0.8359 -1.6451
 3822SOL    HW223100   2.232   0.269   7.791  0.3449 -0.4392  0.7517
 3823SOL     OW23101   3.517   0.509   1.388  0.9984 -0.0345  0.5703
 3823SOL    HW123102   3.445   0.565   1.416  3.2035  2.9655  0.3448
 3823SOL    HW223103   3.595   0.564   1.373  1.1298  0.4371  2.9929
 3824SOL     OW23104   2.495   4.067   3.376 -0.3172  0.3012 -0.6605
 3824SOL    HW123105   2.462   4.135   3.318  0.4495  0.5995 -0.7505
 3824SOL    HW223106   2.424   4.073   3.439 -0.3849  2.1330 -0.9109
 3825SOL     OW23107   2.490   3.161   1.789 -0.0856 -0.0964  0.3004
 3825SOL    HW123108   2.530   3.247   1.800 -1.0573  0.6497 -1.9838
 3825SOL    HW223109   2.408   3.191   1.750  0.5330  1.6121  0.3041
 3826SOL     OW23110   2.821   2.484   2.915 -0.6927 -0.2240  0.2236
 3826SOL    HW123111   2.806   2.574   2.941 -0.6987 -0.3822  0.7746
 3826SOL    HW223112   2.908   2.478   2.877 -1.2682 -3.0940 -0.6400
 3827SOL     OW23113   1.109   3.384   7.323 -0.3543  0.3370  0.5164
 3827SOL    HW123114   1.104   3.421   7.235 -1.2454 -2.3088 -0.5734
 3827SOL    HW223115   1.144   3.453   7.378 -0.1523  0.2064  0.5514
 3828SOL     OW23116   3.040   1.088   3.834  0.1241  0.3496 -0.1654
 3828SOL    HW123117   3.027   0.994   3.843 -1.6800  0.3869 -2.2668
 3828SOL    HW223118   3.091   1.099   3.754 -0.6523  0.3859 -0.6499
 3829SOL     OW23119   0.051   0.536  16.514  0.3287 -0.2073 -0.2625
 3829SOL    HW123120   0.130   0.499  16.476  1.0422  0.4120  0.6089
 3829SOL    HW223121   0.055   0.629  16.488  1.0251 -0.0273  0.5025
 3830SOL     OW23122   0.410   0.543  15.216  0.0142 -0.2131  0.2518
 3830SOL    HW123123   0.448   0.540  15.128  0.7271  1.7974  0.4952
 3830SOL    HW223124   0.316   0.542  15.195  0.2312 -1.8247 -0.6703
 3831SOL     OW23125   1.591   4.059   6.319 -0.2859  0.1387 -0.2264
 3831SOL    HW123126   1.576   4.090   6.408 -1.5710  0.5009 -0.5633
 3831SOL    HW223127   1.531   3.984   6.318  0.7043 -0.6476 -0.1311
 3832SOL     OW23128   2.668   2.753   3.960  0.5561 -0.2715  0.1664
 3832SOL    HW123129   2.589   2.762   3.906 -0.7573  2.8099  2.5567
 3832SOL    HW223130   2.669   2.836   4.009  0.7910 -0.7047  0.8866
 3833SOL     OW23131   2.628   1.119   6.870  0.9401  0.2136 -0.3251
 3833SOL    HW123132   2.713   1.126   6.915 -0.8667  0.1039  3.1640
 3833SOL    HW223133   2.581   1.171   6.936 -0.5713 -0.6453 -0.7272
 3834SOL     OW23134   4.080   1.231   9.299  0.2684  0.2284  0.6545
 3834SOL    HW123135   4.052   1.196   9.384  1.2268 -0.2210  0.7938
 3834SOL    HW223136   4.119   1.148   9.270  0.5095  0.4557  0.3264
 3835SOL     OW23137   0.960   3.562   7.098 -0.1971 -0.1859  0.1545
 3835SOL    HW123138   0.916   3.534   7.017 -1.5401  0.0304  0.8134
 3835SOL    HW223139   1.049   3.589   7.073 -0.8372  1.4635 -0.3332
 3836SOL     OW23140   2.138   2.657   2.011  0.6193  0.8129 -0.2025
 3836SOL    HW123141   2.192   2.610   1.948  1.7486  0.1232  1.2955
 3836SOL    HW223142   2.140   2.746   1.974 -1.1166  1.3835  1.0458
 3837SOL     OW23143   0.165   3.368   6.828 -0.3178  0.3148 -0.2019
 3837SOL    HW123144   0.232   3.435   6.834 -0.4460  0.3011  1.4372
 3837SOL    HW223145   0.089   3.421   6.806 -1.0016 -0.5322  0.0992
 3838SOL     OW23146   2.956   1.094   0.295 -0.2968  0.9005 -0.4145
 3838SOL    HW123147   2.879   1.040   0.277 -0.6236  0.5635  1.9662
 3838SOL    HW223148   2.960   1.157   0.224  0.8029  1.4301  0.1102
 3839SOL     OW23149   2.772   3.283   4.310 -0.6095 -0.0474 -0.6519
 3839SOL    HW123150   2.812   3.310   4.393 -0.6774  0.8920 -0.9196
 3839SOL    HW223151   2.754   3.370   4.275 -1.4853 -0.0262 -0.1682
 3840SOL     OW23152   0.440   2.826  11.878 -0.0559 -0.0314 -0.0338
 3840SOL    HW123153   0.417   2.736  11.854  0.6549 -0.4963  1.0443
 3840SOL    HW223154   0.386   2.849  11.953 -2.1702  0.1332 -1.6006
 3841SOL     OW23155   3.472   0.881   9.110  0.1125  0.3035 -0.0582
 3841SOL    HW123156   3.399   0.919   9.158  1.5035 -0.6952  2.8377
 3841SOL    HW223157   3.493   0.945   9.042 -0.8132 -1.4382 -1.9730
 3842SOL     OW23158   2.106   4.497   3.061 -0.8148  0.0749  0.1186
 3842SOL    HW123159   2.094   4.434   2.990  0.8999 -0.3242  0.1910
 3842SOL    HW223160   2.167   4.558   3.021 -2.0971  0.4300 -1.2792
 3843SOL     OW23161   4.302   4.628   8.628  0.4540 -0.0506  0.0755
 3843SOL    HW123162   4.218   4.629   8.673  1.0660  1.9528  1.1651
 3843SOL    HW223163   4.361   4.635   8.703 -0.2210 -0.3753  0.6413
 3844SOL     OW23164   2.232   4.098   4.968  0.0810 -0.0863  0.1373
 3844SOL    HW123165   2.265   4.020   5.011  1.1874 -0.4371 -1.3334
 3844SOL    HW223166   2.305   4.111   4.907  0.0318  0.6201  0.2275
 3845SOL     OW23167   4.444   3.321   5.064 -0.1741 -0.6792 -0.9736
 3845SOL    HW123168   4.384   3.252   5.037 -1.3552  0.3679 -0.9910
 3845SOL    HW223169   4.526   3.273   5.078  0.3192  0.4564  0.1103
 3846SOL     OW23170   3.721   1.949   4.375 -0.1734 -0.0543  0.0872
 3846SOL    HW123171   3.737   2.036   4.411  1.3547 -0.6454  0.8080
 3846SOL    HW223172   3.658   1.912   4.438 -0.6570  0.4210 -0.1190
 3847SOL     OW23173   3.814   0.181   6.621 -0.4960  0.0172  0.0210
 3847SOL    HW123174   3.894   0.222   6.588 -0.2587  0.8963  1.7479
 3847SOL    HW223175   3.827   0.199   6.714  1.4614 -0.5155 -0.1518
 3848SOL     OW23176   1.616   4.616   9.143 -0.2728  0.3755  0.6065
 3848SOL    HW123177   1.676   4.642   9.072  1.5550 -1.7314  1.3894
 3848SOL    HW223178   1.534   4.650   9.108  0.2349  0.4116 -0.5713
 3849SOL     OW23179   4.718   4.404  10.354  0.0154 -0.2943  0.1003
 3849SOL    HW123180   0.006   4.361  10.435 -2.1555 -0.4713  0.7681
 3849SOL    HW223181   0.065   4.406  10.314 -1.4021 -0.2759 -2.9551
 3850SOL     OW23182   4.666   1.774   3.088 -0.2661 -0.5093  0.1953
 3850SOL    HW123183   4.648   1.690   3.130  0.5514  0.6885  2.9352
 3850SOL    HW223184   4.735   1.807   3.145 -1.1858 -1.3043  1.7402
 3851SOL     OW23185   3.055   4.061   5.701 -0.2734  0.2691  0.2479
 3851SOL    HW123186   3.111   4.092   5.629  0.4858  0.8570  1.0833
 3851SOL    HW223187   3.096   4.095   5.781  1.6851  2.2983 -1.5873
 3852SOL     OW23188   1.188   1.189   5.538 -0.1834  0.0612 -0.0842
 3852SOL    HW123189   1.190   1.172   5.444  3.1381 -1.9397  0.3402
 3852SOL    HW223190   1.232   1.112   5.575 -0.4798 -0.4019 -0.6919
 3853SOL     OW23191   2.434   1.488   7.150  0.4460 -0.1632 -0.3274
 3853SOL    HW123192   2.502   1.509   7.087 -1.0390  2.0839 -1.1648
 3853SOL    HW223193   2.467   1.401   7.174  0.1000 -0.3581 -0.5457
 3854SOL     OW23194   3.600   1.543   9.532  0.0795  0.1402 -0.2150
 3854SOL    HW123195   3.607   1.556   9.437 -0.2488  1.9682  0.0139
 3854SOL    HW223196   3.674   1.486   9.553 -1.1420 -0.6798  1.8544
 3855SOL     OW23197   0.822   1.627   5.554 -0.2486  0.0866  0.0050
 3855SOL    HW123198   0.734   1.589   5.553  1.1156 -3.0673  0.6266
 3855SOL    HW223199   0.891   1.562   5.546  0.4168  0.8797 -0.7162
 3856SOL     OW23200   0.993   2.300   2.445 -0.3115  0.4734  0.2914
 3856SOL    HW123201   1.025   2.322   2.358  1.0747 -1.3538  0.3270
 3856SOL    HW223202   0.909   2.254   2.437 -0.7796  1.3129  0.3554
 3857SOL     OW23203   4.051   0.061   2.794 -0.2966 -0.3296  0.4146
 3857SOL    HW123204   4.039   0.011   2.874  3.8955  1.0557  1.8496
 3857SOL    HW223205   4.145   0.075   2.798 -0.4039  0.3690  0.4403
 3858SOL     OW23206   1.486   2.483  17.065  0.3508 -0.4884 -0.1590
 3858SOL    HW123207   1.431   2.407  17.083 -1.3716  0.8892  0.3949
 3858SOL    HW223208   1.529   2.496  17.149 -3.3369 -1.4811  1.8715
 3859SOL     OW23209   4.560   1.730   1.806  0.6811 -0.2900 -0.4050
 3859SOL    HW123210   4.526   1.733   1.895 -1.5004  0.7513 -1.2802
 3859SOL    HW223211   4.485   1.705   1.753  0.2207  0.3635 -0.0610
 3860SOL     OW23212   2.174   1.598   6.351  0.0663  0.0997 -0.0245
 3860SOL    HW123213   2.109   1.643   6.405 -0.1374 -1.3820  0.9667
 3860SOL    HW223214   2.161   1.508   6.380  3.5465 -0.3370  0.2653
 3861SOL     OW23215   0.039   1.346  13.219  0.3059 -0.3444  0.0098
 3861SOL    HW123216   0.005   1.423  13.264 -0.2510 -0.2243 -0.6167
 3861SOL    HW223217   0.130   1.347  13.249  0.1293 -1.2590  0.5841
 3862SOL     OW23218   0.279   3.582  13.138  0.6930  0.3737 -0.1700
 3862SOL    HW123219   0.264   3.656  13.080  0.3380 -0.6492 -1.3722
 3862SOL    HW223220   0.231   3.511  13.095  1.2369 -0.2325  0.2057
 3863SOL     OW23221   4.219   2.051   9.378 -0.1485 -0.1235 -0.1214
 3863SOL    HW123222   4.304   2.036   9.334 -0.4689 -1.2822 -0.3599
 3863SOL    HW223223   4.234   2.005   9.461  2.9153 -0.1095 -0.6502
 3864SOL     OW23224   4.463   1.494   8.486 -0.0393  0.2505  0.4578
 3864SOL    HW123225   4.553   1.519   8.465 -0.6134 -0.3717 -2.8413
 3864SOL    HW223226   4.424   1.534   8.408  1.3567 -0.8657 -0.8273
 3865SOL     OW23227   4.462   3.615   4.536 -0.2163  0.0298  0.1192
 3865SOL    HW123228   4.453   3.697   4.487  2.6931 -0.4850 -1.3163
 3865SOL    HW223229   4.445   3.551   4.467 -0.3239  0.2345 -0.0422
 3866SOL     OW23230   4.443   3.973   7.422 -0.2334 -0.0238  0.1995
 3866SOL    HW123231   4.428   3.879   7.430  0.9800 -0.1514  1.0521
 3866SOL    HW223232   4.488   3.999   7.503  0.6853  1.8323 -0.8948
 3867SOL     OW23233   4.467   4.080   3.742  0.7346 -0.2586 -0.2581
 3867SOL    HW123234   4.410   4.053   3.669 -0.3862  1.4147 -0.0056
 3867SOL    HW223235   4.526   4.138   3.694  0.1662 -0.5822 -1.3422
 3868SOL     OW23236   2.507   0.502   1.499  0.3971 -0.6115 -0.0900
 3868SOL    HW123237   2.559   0.553   1.561 -0.0735  0.1008 -0.2780
 3868SOL    HW223238   2.510   0.565   1.427 -2.0860  1.3162  1.4429
 3869SOL     OW23239   1.332   1.340  16.674 -0.2525 -0.2217 -0.1630
 3869SOL    HW123240   1.239   1.354  16.694 -0.3970  0.3368 -1.2316
 3869SOL    HW223241   1.336   1.249  16.646 -0.7338 -0.7376  1.4333
 3870SOL     OW23242   2.559   1.330   1.772 -0.4144 -0.3865 -0.6049
 3870SOL    HW123243   2.537   1.413   1.728  0.3476 -0.9218 -2.0080
 3870SOL    HW223244   2.653   1.348   1.783 -0.4515 -0.1505 -0.6760
 3871SOL     OW23245   0.457   1.321   1.395  0.5281  0.3221  0.2015
 3871SOL    HW123246   0.389   1.281   1.449  0.5309 -0.1290 -0.1372
 3871SOL    HW223247   0.537   1.270   1.399  0.3874  0.0060 -1.0434
 3872SOL     OW23248   3.243   0.138  14.416  0.1523 -0.6009 -0.1823
 3872SOL    HW123249   3.174   0.171  14.474 -0.6030 -2.7983  0.1796
 3872SOL    HW223250   3.196   0.129  14.334 -1.3239  1.2352  0.4513
 3873SOL     OW23251   1.538   2.325   5.624  0.3157  0.2108 -0.0734
 3873SOL    HW123252   1.583   2.316   5.540 -0.1089  0.7486 -0.3589
 3873SOL    HW223253   1.598   2.282   5.685  1.1259  2.2427  0.5537
 3874SOL     OW23254   2.028   0.090  15.166 -0.3878  0.0259 -0.6742
 3874SOL    HW123255   1.975   0.012  15.187 -0.9175  0.8909  1.2480
 3874SOL    HW223256   2.086   0.087  15.242 -1.4506  2.9441  0.2574
 3875SOL     OW23257   1.991   0.795   6.980  0.5343 -0.0110 -0.1458
 3875SOL    HW123258   2.056   0.791   6.910 -0.5485  2.5214 -1.3083
 3875SOL    HW223259   1.996   0.701   7.000 -3.9494 -0.2455 -0.2002
 3876SOL     OW23260   3.804   4.102   5.031  0.1584  0.4558  0.0386
 3876SOL    HW123261   3.762   4.044   4.967 -0.6523  1.1246 -0.0245
 3876SOL    HW223262   3.724   4.132   5.072  0.4483  2.3947 -0.8339
 3877SOL     OW23263   4.187   0.895  14.016 -0.4245  1.0673  0.0709
 3877SOL    HW123264   4.268   0.847  14.001 -0.4261  0.7451  1.0368
 3877SOL    HW223265   4.134   0.856  13.946 -0.7779  1.6175  0.0349
 3878SOL     OW23266   3.163   0.098   1.516  0.7880  0.1934 -0.2019
 3878SOL    HW123267   3.221   0.165   1.479  1.9743 -1.1529 -0.7571
 3878SOL    HW223268   3.149   0.045   1.437 -0.8339 -1.6281  1.3256
 3879SOL     OW23269   4.664   1.433   4.044  0.2903 -0.5239  0.1585
 3879SOL    HW123270   4.709   1.493   3.984 -2.6037  2.9572  1.4611
 3879SOL    HW223271   4.653   1.350   3.998  0.3282  0.6332 -1.9350
 3880SOL     OW23272   2.272   3.506   4.157 -0.0627 -0.4286 -0.5953
 3880SOL    HW123273   2.364   3.503   4.182 -0.0826 -0.5223 -0.5328
 3880SOL    HW223274   2.265   3.423   4.108 -2.1140  1.3438 -3.3408
 3881SOL     OW23275   2.829   0.348   9.101 -0.3973  0.1016  0.4939
 3881SOL    HW123276   2.899   0.296   9.062 -0.3239  0.9095 -0.4312
 3881SOL    HW223277   2.839   0.438   9.070 -1.5439 -0.1503 -0.5883
 3882SOL     OW23278   1.504   3.810   8.043  0.1503  0.1939  0.2699
 3882SOL    HW123279   1.527   3.717   8.045  0.5828  0.3173  1.1752
 3882SOL    HW223280   1.586   3.859   8.052 -0.5343  1.3596  0.2055
 3883SOL     OW23281   4.637   3.056  15.192  0.4758 -0.1283 -0.3577
 3883SOL    HW123282   4.657   3.059  15.099 -0.4640  0.8000 -0.5292
 3883SOL    HW223283   4.559   3.111  15.202 -0.1874 -0.5566 -3.0730
 3884SOL     OW23284   1.528   3.563   6.523  1.3803 -0.4290 -0.1638
 3884SOL    HW123285   1.558   3.482   6.564  3.7948  1.0499  1.0108
 3884SOL    HW223286   1.528   3.530   6.433  1.3606 -1.5155  0.2410
 3885SOL     OW23287   0.796   2.578   7.637  0.4640  0.3007 -0.2233
 3885SOL    HW123288   0.876   2.628   7.652  0.5322  0.3432 -0.7485
 3885SOL    HW223289   0.845   2.497   7.621  1.5455  0.9483 -0.2517
 3886SOL     OW23290   4.074   4.614  12.015  0.5965  0.1496  0.8001
 3886SOL    HW123291   4.137   4.607  11.943  2.0537  2.0946  1.8859
 3886SOL    HW223292   4.045   4.523  12.014  1.2064 -0.0287 -0.8059
 3887SOL     OW23293   2.012   3.620   7.563 -0.1481 -0.5426  0.0013
 3887SOL    HW123294   1.974   3.557   7.502 -2.2305 -0.0886  0.8268
 3887SOL    HW223295   1.968   3.702   7.541  0.4985 -0.6828 -1.8288
 3888SOL     OW23296   4.688   3.778  14.905  0.0731  0.3906 -0.5772
 3888SOL    HW123297   4.708   3.697  14.859  1.9773  0.7988 -0.4647
 3888SOL    HW223298   4.697   3.839  14.832 -0.8234  0.0215 -1.0074
 3889SOL     OW23299   3.432   2.903   7.537  0.0805 -0.2190 -0.2339
 3889SOL    HW123300   3.480   2.864   7.610  1.5305  1.8336 -0.1121
 3889SOL    HW223301   3.384   2.969   7.587 -0.2575 -0.4700 -0.2260
 3890SOL     OW23302   1.288   1.207   3.808 -0.0713 -0.4646  0.0279
 3890SOL    HW123303   1.317   1.288   3.852  0.3433  0.4102 -1.8757
 3890SOL    HW223304   1.206   1.237   3.769  0.9433  1.7798 -0.4055
 3891SOL     OW23305   0.182   0.194   2.875 -0.3101  0.0934 -0.9113
 3891SOL    HW123306   0.119   0.130   2.907  2.1329 -0.7582  2.1639
 3891SOL    HW223307   0.234   0.138   2.817  1.5950  0.3728  0.5379
 3892SOL     OW23308   1.781   0.861   7.119 -0.2248  0.0842  0.0788
 3892SOL    HW123309   1.805   0.952   7.135  0.6306  0.0189 -0.8443
 3892SOL    HW223310   1.860   0.840   7.070  0.1989  1.0743  0.3375
 3893SOL     OW23311   1.471   1.586   3.077  0.0090 -0.3238 -0.2746
 3893SOL    HW123312   1.559   1.621   3.092 -0.2688 -1.0849  3.3032
 3893SOL    HW223313   1.446   1.619   2.991 -0.0385  1.2042  0.3175
 3894SOL     OW23314   3.853   2.750   3.876  0.6375 -0.1428  0.1583
 3894SOL    HW123315   3.872   2.657   3.887 -0.2791 -0.2615  0.7127
 3894SOL    HW223316   3.936   2.775   3.834  0.4962 -2.7976 -1.7237
 3895SOL     OW23317   1.580   3.991   2.346 -0.5877 -0.1827 -0.1440
 3895SOL    HW123318   1.609   4.078   2.371 -0.8221  0.5370 -2.4405
 3895SOL    HW223319   1.658   3.936   2.343 -0.4791  0.0013 -0.6454
 3896SOL     OW23320   0.633   2.854   2.052 -0.5205 -0.6658  0.3374
 3896SOL    HW123321   0.649   2.929   1.994  1.0058 -0.3900  1.1055
 3896SOL    HW223322   0.593   2.899   2.126 -1.3290 -4.4507  2.2129
 3897SOL     OW23323   2.343   3.496  13.148 -0.8692 -0.5488  0.1368
 3897SOL    HW123324   2.264   3.477  13.098  0.3385 -3.5727 -0.6153
 3897SOL    HW223325   2.317   3.500  13.240  4.4085  1.5103  1.5289
 3898SOL     OW23326   3.826   4.187   8.482 -0.5072  0.1877  0.2393
 3898SOL    HW123327   3.733   4.202   8.500 -0.2399  0.9583  0.9505
 3898SOL    HW223328   3.862   4.275   8.486  0.3526 -0.1541  0.0486
 3899SOL     OW23329   3.802   4.601   1.552 -0.1957 -0.1218  0.1288
 3899SOL    HW123330   3.858   4.602   1.629  2.5561 -0.7038 -1.9005
 3899SOL    HW223331   3.712   4.622   1.579 -0.4833 -2.1035  0.6902
 3900SOL     OW23332   2.929   1.183   8.311 -0.9435 -0.7366  0.3465
 3900SOL    HW123333   2.937   1.127   8.388  0.0892  1.6139  1.9274
 3900SOL    HW223334   2.996   1.133   8.263  1.2173  0.9347  1.6327
 3901SOL     OW23335   0.202   0.105  11.357 -0.0818  0.6958  0.1657
 3901SOL    HW123336   0.209   0.131  11.449 -1.1873 -0.4979  0.5881
 3901SOL    HW223337   0.130   0.042  11.360  0.7503 -0.3145 -1.0478
 3902SOL     OW23338   3.883   4.721   7.225  0.0845  0.0756 -0.2973
 3902SOL    HW123339   3.917   4.681   7.145  1.0188 -1.9490  1.1181
 3902SOL    HW223340   3.943   0.055   7.232 -0.5101  0.4885  0.3967
 3903SOL     OW23341   2.529   0.047   6.394  0.3192 -0.0760  0.0091
 3903SOL    HW123342   2.477   4.707   6.384  3.3895 -1.9594 -0.8552
 3903SOL    HW223343   2.464   0.102   6.349 -0.5064 -0.5025  0.6736
 3904SOL     OW23344   4.413   3.059  14.983  0.3526  0.2286 -0.5474
 3904SOL    HW123345   4.504   3.038  15.003  1.6833  3.5743 -3.1845
 3904SOL    HW223346   4.387   2.981  14.933 -4.1444  0.7436  1.0037
 3905SOL     OW23347   4.276   2.909   8.387  0.0681  0.2476 -0.2604
 3905SOL    HW123348   4.192   2.949   8.410 -0.1734 -0.0058 -0.7146
 3905SOL    HW223349   4.257   2.815   8.391  1.8718 -0.0778  0.7512
 3906SOL     OW23350   0.821   3.899   3.232 -0.3502  0.1171 -0.4928
 3906SOL    HW123351   0.739   3.884   3.186 -0.8632 -1.3406  0.8924
 3906SOL    HW223352   0.805   3.932   3.320  0.3774 -0.1143 -0.2688
 3907SOL     OW23353   2.472   0.771   3.214  0.0561 -0.9247  0.3390
 3907SOL    HW123354   2.425   0.728   3.285 -2.8014  0.7463 -0.5321
 3907SOL    HW223355   2.546   0.711   3.200  0.8823  0.2023 -0.1478
 3908SOL     OW23356   1.111   3.093   7.799 -0.4567 -0.8033 -0.2274
 3908SOL    HW123357   1.100   3.102   7.894  0.7292  2.0475 -0.3607
 3908SOL    HW223358   1.147   3.005   7.795 -1.0751 -1.1036  0.7059
 3909SOL     OW23359   2.178   3.235   8.151 -0.3418 -1.1241  0.2171
 3909SOL    HW123360   2.261   3.197   8.179  0.3936 -1.3133 -2.2336
 3909SOL    HW223361   2.209   3.283   8.074  0.6192  0.0233  1.3303
 3910SOL     OW23362   4.612   0.203   7.814 -0.2061 -0.0640 -0.7257
 3910SOL    HW123363   4.550   0.274   7.800  2.5943  2.5465 -0.0473
 3910SOL    HW223364   4.689   0.255   7.840 -0.7612  0.3523  0.0692
 3911SOL     OW23365   1.858   2.218   6.490 -0.1996  0.5246  0.2900
 3911SOL    HW123366   1.821   2.301   6.461 -0.3766 -0.7038 -3.0269
 3911SOL    HW223367   1.772   2.196   6.527 -1.3219  1.9127 -1.4921
 3912SOL     OW23368   1.620   2.477   8.852  0.3368 -0.6829  0.3110
 3912SOL    HW123369   1.586   2.406   8.799  1.3166 -0.5088 -0.5493
 3912SOL    HW223370   1.695   2.440   8.899  3.6938  0.5926 -4.0992
 3913SOL     OW23371   1.502   2.561   9.356  0.1225  0.2057 -0.4339
 3913SOL    HW123372   1.465   2.583   9.271 -1.4140 -3.6227 -0.7755
 3913SOL    HW223373   1.510   2.650   9.390 -0.5333  0.6862 -1.5235
 3914SOL     OW23374   0.216   3.520  11.037  0.1232 -0.0603 -0.3886
 3914SOL    HW123375   0.301   3.520  11.079 -0.4867 -0.1653  0.8513
 3914SOL    HW223376   0.232   3.523  10.943  1.5245 -1.8206 -0.1863
 3915SOL     OW23377   0.051   2.376   3.870  0.0309 -0.1168 -0.0181
 3915SOL    HW123378   0.043   2.466   3.902  0.2986  0.4513 -1.5766
 3915SOL    HW223379   4.730   2.377   3.796  0.9694 -1.1312 -0.7825
 3916SOL     OW23380   1.558   2.827  15.039  0.1790 -0.7855 -0.4739
 3916SOL    HW123381   1.621   2.844  14.969  2.5436 -0.8151  1.6939
 3916SOL    HW223382   1.547   2.911  15.083 -0.2603 -2.2783  2.2426
 3917SOL     OW23383   3.189   2.704   9.279  0.0667  0.2913  0.5591
 3917SOL    HW123384   3.220   2.671   9.195 -3.1594  0.7351 -0.8301
 3917SOL    HW223385   3.212   2.630   9.336 -0.8654  0.3027  0.9636
 3918SOL     OW23386   1.312   1.901   7.705  0.3730  0.3132 -0.2345
 3918SOL    HW123387   1.325   1.995   7.718  1.3370 -0.1768  2.2938
 3918SOL    HW223388   1.269   1.872   7.785  1.4267 -0.8539 -0.0916
 3919SOL     OW23389   0.449   4.193   9.008 -0.1889 -0.3676 -0.1791
 3919SOL    HW123390   0.483   4.106   8.984  2.3268  0.9913 -1.4845
 3919SOL    HW223391   0.527   4.232   9.048 -1.1833  1.7310 -0.3451
 3920SOL     OW23392   2.692   4.162   3.489 -0.7436 -0.7589 -0.3134
 3920SOL    HW123393   2.619   4.136   3.433 -0.4452 -0.0339 -1.0486
 3920SOL    HW223394   2.665   4.137   3.577  5.0867 -3.1766  0.7982
 3921SOL     OW23395   3.776   4.329   4.727 -0.0431  0.4741  0.3097
 3921SOL    HW123396   3.778   4.389   4.652 -0.0707  1.6643  1.2467
 3921SOL    HW223397   3.744   4.249   4.686 -0.8238  0.6992  0.4822
 3922SOL     OW23398   4.695   0.985  14.923 -0.2763 -0.4574 -0.6308
 3922SOL    HW123399   4.673   1.064  14.972  1.5818 -0.8031  0.7754
 3922SOL    HW223400   4.621   0.928  14.943 -0.4923  0.6122  1.6253
 3923SOL     OW23401   1.771   2.342   3.658 -0.1079  0.2954 -0.0390
 3923SOL    HW123402   1.837   2.369   3.595  1.7169  0.2518  1.8666
 3923SOL    HW223403   1.710   2.416   3.652 -0.4466 -0.1434 -1.9789
 3924SOL     OW23404   3.005   3.830   8.632  0.5120  0.4044 -0.3818
 3924SOL    HW123405   3.081   3.836   8.689 -0.8208  0.0842  1.4012
 3924SOL    HW223406   3.020   3.749   8.583  0.1262 -0.0857  0.3150
 3925SOL     OW23407   1.692   1.052  15.659  0.1027 -0.3345  0.4665
 3925SOL    HW123408   1.769   0.995  15.650 -0.3783 -1.0010  0.5310
 3925SOL    HW223409   1.697   1.054  15.754 -0.2836 -0.5427  0.4952
 3926SOL     OW23410   3.868   1.089   3.576  0.1861  0.1356 -0.3667
 3926SOL    HW123411   3.960   1.091   3.548  0.1215 -0.9404 -0.6406
 3926SOL    HW223412   3.826   1.016   3.532  0.8269 -0.0075 -0.7383
 3927SOL     OW23413   0.717   3.623   6.266  0.6089 -0.1258 -0.0986
 3927SOL    HW123414   0.708   3.592   6.176  0.5698  0.6315 -0.3527
 3927SOL    HW223415   0.690   3.714   6.254 -1.3493 -0.4672  1.8423
 3928SOL     OW23416   0.634   4.128   8.288  0.3999 -0.1765 -0.0259
 3928SOL    HW123417   0.729   4.139   8.291  0.3332  0.5144 -0.5446
 3928SOL    HW223418   0.608   4.218   8.307  1.9277  0.9298 -3.1889
 3929SOL     OW23419   2.297   4.324   9.403 -0.3829  0.0579  0.6860
 3929SOL    HW123420   2.388   4.301   9.422  0.6254  1.5197 -2.3235
 3929SOL    HW223421   2.307   4.361   9.315 -1.4836 -1.8580 -0.2387
 3930SOL     OW23422   4.181   4.077   4.716 -0.8240 -0.5980 -0.3099
 3930SOL    HW123423   4.132   3.999   4.687 -2.9686  0.3727  0.6714
 3930SOL    HW223424   4.119   4.150   4.713  0.2430  0.2359 -1.7070
 3931SOL     OW23425   0.695   1.412   4.224  0.1188  0.1217 -0.3148
 3931SOL    HW123426   0.684   1.452   4.138  1.3566 -0.6241 -0.8249
 3931SOL    HW223427   0.645   1.334   4.200 -0.1618  0.3555 -0.4864
 3932SOL     OW23428   1.713   3.088   7.208 -0.0354 -0.3642 -0.1566
 3932SOL    HW123429   1.648   3.083   7.138 -1.2358 -3.2994  1.1677
 3932SOL    HW223430   1.654   3.120   7.276  1.7970  0.5405  0.9927
 3933SOL     OW23431   1.871   4.257   6.492  0.0377  0.0856 -0.0279
 3933SOL    HW123432   1.902   4.206   6.567 -0.4253 -0.2362 -0.0503
 3933SOL    HW223433   1.904   4.202   6.422 -0.4076 -0.6140  0.3119
 3934SOL     OW23434   0.197   2.967   5.452 -0.6823  0.2866 -0.1070
 3934SOL    HW123435   0.134   2.935   5.517 -0.8392 -0.3473 -0.5800
 3934SOL    HW223436   0.277   2.959   5.504 -0.6375  1.6847  0.0525
 3935SOL     OW23437   1.520   4.624   7.340  0.4849  0.3167  0.7620
 3935SOL    HW123438   1.576   4.596   7.413  0.4455  0.0426  0.6873
 3935SOL    HW223439   1.475   4.699   7.378  0.5192 -0.1413  1.7123
 3936SOL     OW23440   0.913   3.797   9.527  0.1280 -1.0063  0.0011
 3936SOL    HW123441   0.939   3.781   9.436 -2.2691 -2.4372 -0.4267
 3936SOL    HW223442   0.969   3.871   9.551 -0.6771 -0.6288  0.6992
 3937SOL     OW23443   1.852   0.527   4.327 -0.4258 -0.0976  0.7739
 3937SOL    HW123444   1.907   0.602   4.352  2.5519 -1.8016 -0.6116
 3937SOL    HW223445   1.867   0.466   4.399 -0.4855 -1.5886 -0.4688
 3938SOL     OW23446   4.202   4.542   3.218 -0.3620  0.4264 -0.2790
 3938SOL    HW123447   4.139   4.514   3.285 -1.1157  0.5069 -0.9618
 3938SOL    HW223448   4.279   4.497   3.253 -0.0809  1.7771  0.8269
 3939SOL     OW23449   1.295   1.865   4.709 -0.0517  0.0109 -0.3550
 3939SOL    HW123450   1.270   1.792   4.765 -0.6116 -0.4578 -1.2108
 3939SOL    HW223451   1.388   1.843   4.706  0.0242 -0.0242  2.0234
 3940SOL     OW23452   0.110   0.507   1.263  0.3927  0.0697  0.1643
 3940SOL    HW123453   0.133   0.523   1.354  0.0468 -3.7088  0.9008
 3940SOL    HW223454   0.197   0.524   1.226  0.8488 -2.2035  0.2077
 3941SOL     OW23455   2.647   0.817   2.165  0.1536  0.1086 -0.0312
 3941SOL    HW123456   2.655   0.721   2.166  0.5155  0.1348 -0.6373
 3941SOL    HW223457   2.725   0.840   2.215 -0.1227 -1.1051  0.9685
 3942SOL     OW23458   3.900   1.431   9.182 -0.5114  0.1596 -0.1170
 3942SOL    HW123459   3.953   1.365   9.227  0.0138  0.3851 -0.3954
 3942SOL    HW223460   3.944   1.434   9.097 -1.7601 -1.6993 -0.8089
 3943SOL     OW23461   1.239   1.646   3.234  0.5090  0.3589 -0.2454
 3943SOL    HW123462   1.259   1.661   3.326 -3.4388 -0.0548  0.6511
 3943SOL    HW223463   1.320   1.614   3.193  0.7867  0.7810 -0.0289
 3944SOL     OW23464   4.104   1.746   1.830 -0.5240 -0.0033 -0.1246
 3944SOL    HW123465   4.155   1.666   1.814  0.6920  0.8399 -0.4503
 3944SOL    HW223466   4.172   1.806   1.863 -1.5045 -0.5071  2.7859
 3945SOL     OW23467   3.022   1.018   4.395  0.0680  0.0526  0.5971
 3945SOL    HW123468   3.031   1.028   4.490  1.6229 -1.2278  0.5934
 3945SOL    HW223469   3.084   0.949   4.371 -0.3860 -0.6705  1.4974
 3946SOL     OW23470   1.340   3.395   1.979  0.0155  0.4741  1.0420
 3946SOL    HW123471   1.404   3.448   1.931 -0.4100 -0.4163 -0.5046
 3946SOL    HW223472   1.265   3.426   1.928  0.3189 -0.2196  0.1780
 3947SOL     OW23473   0.396   2.319   1.916  0.3564  0.1221  0.3151
 3947SOL    HW123474   0.302   2.326   1.932  0.7941  0.1018  2.7701
 3947SOL    HW223475   0.437   2.374   1.983 -1.9667  1.3316  0.7541
 3948SOL     OW23476   1.188   0.461   2.484  0.3777 -0.1110 -0.5566
 3948SOL    HW123477   1.185   0.487   2.576 -0.0881 -2.9765  0.2274
 3948SOL    HW223478   1.110   0.407   2.473  0.7111 -1.0529  1.7469
 3949SOL     OW23479   2.661   2.391  10.164 -0.4717  0.4728  0.4497
 3949SOL    HW123480   2.707   2.464  10.122 -1.4297 -1.3619 -3.7983
 3949SOL    HW223481   2.657   2.438  10.247 -0.6831 -0.7758  1.1500
 3950SOL     OW23482   2.412   0.105   6.939  0.5937 -0.6348  0.7522
 3950SOL    HW123483   2.336   0.086   6.994  1.2478  0.5363  2.0491
 3950SOL    HW223484   2.481   0.054   6.981 -1.0193 -1.2770  2.6108
 3951SOL     OW23485   4.267   1.811  16.683 -0.3777  0.1626  0.2950
 3951SOL    HW123486   4.361   1.828  16.685 -0.7067  2.1568 -0.5688
 3951SOL    HW223487   4.255   1.717  16.675  1.9478 -0.2766  1.9109
 3952SOL     OW23488   2.831   3.297  13.930 -0.1129  0.1054 -0.2551
 3952SOL    HW123489   2.860   3.387  13.948 -0.4798 -0.2269  2.0059
 3952SOL    HW223490   2.827   3.268  14.021 -1.7681  0.1427 -0.3183
 3953SOL     OW23491   3.412   1.512   2.791  0.2694  1.1901  0.5507
 3953SOL    HW123492   3.496   1.516   2.746  0.0418  0.8729  0.0937
 3953SOL    HW223493   3.350   1.536   2.722 -0.9584  1.4357  1.7189
 3954SOL     OW23494   1.585   1.929   5.731 -0.6308  0.4892 -0.1735
 3954SOL    HW123495   1.531   1.860   5.692  0.8313 -0.7768  0.0473
 3954SOL    HW223496   1.671   1.894   5.705 -0.6513  0.0901  0.3129
 3955SOL     OW23497   3.511   0.332   8.860 -0.5655  0.5708  0.1593
 3955SOL    HW123498   3.503   0.427   8.868  1.3550  0.7735 -0.3672
 3955SOL    HW223499   3.446   0.312   8.793 -0.2576 -1.7830  0.5667
 3956SOL     OW23500   0.697   1.833   4.247  0.3406 -0.3318  0.2191
 3956SOL    HW123501   0.748   1.780   4.309 -0.0392 -0.2511  0.5984
 3956SOL    HW223502   0.606   1.803   4.246  0.0340  0.7804 -5.4482
 3957SOL     OW23503   4.044   1.612  12.147 -0.6391 -0.4610 -0.5441
 3957SOL    HW123504   3.953   1.614  12.177 -1.3675 -1.3837 -2.6811
 3957SOL    HW223505   4.062   1.519  12.134 -0.5045 -0.2258 -2.1176
 3958SOL     OW23506   1.804   2.852   3.399  0.3668  0.1345  0.3397
 3958SOL    HW123507   1.860   2.915   3.354  0.0634  0.4718  0.4283
 3958SOL    HW223508   1.853   2.772   3.383 -0.2984  0.0962 -1.4720
 3959SOL     OW23509   2.736   4.405   2.064 -0.1135 -0.4931  0.3460
 3959SOL    HW123510   2.810   4.464   2.050  0.5030 -1.1962  0.5986
 3959SOL    HW223511   2.716   4.421   2.157 -2.2677 -0.1812 -0.1711
 3960SOL     OW23512   1.701   1.818   7.995  0.3507 -0.0083  0.0835
 3960SOL    HW123513   1.793   1.836   8.015  0.9496 -0.6318 -2.1077
 3960SOL    HW223514   1.694   1.830   7.901  2.9060 -3.3220 -0.5362
 3961SOL     OW23515   0.986   1.224   0.865 -0.2006  0.3340  0.8624
 3961SOL    HW123516   0.930   1.202   0.790 -0.3325 -1.1879  1.4075
 3961SOL    HW223517   0.914   1.247   0.923  0.6029  1.2682  1.4849
 3962SOL     OW23518   1.702   1.143   7.346  0.3300 -0.1776  0.2370
 3962SOL    HW123519   1.768   1.117   7.281  0.8303  1.8015 -0.0289
 3962SOL    HW223520   1.727   1.232   7.368 -3.0115  0.8964 -0.3137
 3963SOL     OW23521   3.448   2.272   0.205 -0.3214  0.2412  0.4039
 3963SOL    HW123522   3.454   2.341   0.270 -2.4968  0.9347 -0.1417
 3963SOL    HW223523   3.356   2.247   0.204 -0.7303  1.7846  0.1697
 3964SOL     OW23524   2.706   1.417  14.276 -0.2005  0.2371 -0.3104
 3964SOL    HW123525   2.712   1.512  14.272  3.2848  0.1633  2.9475
 3964SOL    HW223526   2.800   1.398  14.275 -0.1626  0.5062 -1.4305
 3965SOL     OW23527   4.552   1.728   2.080 -0.3244 -0.1225  0.1446
 3965SOL    HW123528   4.628   1.786   2.081 -0.8037  0.5228 -0.5645
 3965SOL    HW223529   4.589   1.647   2.116 -3.0074 -2.2786 -1.9511
 3966SOL     OW23530   0.712   1.039   7.416  0.5990 -0.1626  0.1909
 3966SOL    HW123531   0.711   1.132   7.390  0.3258 -1.2456 -3.6177
 3966SOL    HW223532   0.618   1.027   7.432  0.6523  1.4317  1.8131
 3967SOL     OW23533   0.188   1.937  11.715 -0.4943  0.6401 -0.8583
 3967SOL    HW123534   0.182   1.966  11.806  2.0056  1.1892 -0.8533
 3967SOL    HW223535   0.254   1.992  11.673  0.4746 -0.2497 -0.5088
 3968SOL     OW23536   3.673   0.040  12.697 -0.0531  0.7530 -0.0243
 3968SOL    HW123537   3.734   0.108  12.727  0.3081 -0.0222  0.9783
 3968SOL    HW223538   3.610   0.045  12.769 -1.1412 -0.9646 -0.8645
 3969SOL     OW23539   0.344   1.241   7.349  0.2618  0.2059  0.1706
 3969SOL    HW123540   0.371   1.155   7.316  2.8563  0.7002  0.9928
 3969SOL    HW223541   0.404   1.258   7.421  0.6118  0.7872 -0.2582
 3970SOL     OW23542   3.582   4.232   5.124  0.6283 -0.1669 -0.2366
 3970SOL    HW123543   3.604   4.324   5.140  0.6709 -0.2236  0.0385
 3970SOL    HW223544   3.491   4.228   5.152  0.7200 -1.8383 -0.1783
 3971SOL     OW23545   0.369   1.567   5.162 -0.6754 -0.3864 -0.3677
 3971SOL    HW123546   0.438   1.502   5.173 -2.9174 -2.9433 -1.5404
 3971SOL    HW223547   0.312   1.551   5.237 -0.2675  0.3012  0.0862
 3972SOL     OW23548   1.762   3.440  15.274 -0.1791  0.2170 -0.6168
 3972SOL    HW123549   1.703   3.364  15.271 -1.1910  1.0000 -0.8395
 3972SOL    HW223550   1.719   3.480  15.349 -0.2443  1.4894 -1.3370
 3973SOL     OW23551   3.220   2.954   9.440  0.3986 -0.5361  0.3438
 3973SOL    HW123552   3.153   3.012   9.403  1.3439  0.5636  0.3764
 3973SOL    HW223553   3.226   2.878   9.383  2.1440 -1.8743  2.3021
 3974SOL     OW23554   1.814   4.694   1.450  0.7401  0.0587  0.0603
 3974SOL    HW123555   1.846   4.606   1.429  1.6361  0.2558  0.5731
 3974SOL    HW223556   1.891   0.006   1.425 -1.0848  1.4468 -2.6035
 3975SOL     OW23557   0.315   2.934   3.642  0.7831  0.6282 -0.0805
 3975SOL    HW123558   0.391   2.892   3.602 -0.8320 -2.8354  0.5026
 3975SOL    HW223559   0.351   2.972   3.722 -0.6105  2.4757 -0.3423
 3976SOL     OW23560   0.421   1.332   6.580 -0.5200  0.0190  0.6103
 3976SOL    HW123561   0.395   1.241   6.596 -0.4646  0.5012  3.3510
 3976SOL    HW223562   0.516   1.336   6.593 -0.4723  0.7984  0.0397
 3977SOL     OW23563   3.373   3.710   9.004  0.4238 -0.4492  0.3326
 3977SOL    HW123564   3.379   3.666   9.089 -0.9866 -0.7852  0.2509
 3977SOL    HW223565   3.446   3.772   9.012 -0.5719  0.7594  0.1012
 3978SOL     OW23566   2.377   4.671   3.880  0.1343  0.5154  0.2189
 3978SOL    HW123567   2.393   4.596   3.823  0.6180  2.1336 -1.7932
 3978SOL    HW223568   2.312   4.720   3.828 -0.0217  3.3472  3.0926
 3979SOL     OW23569   2.971   2.145   5.126  0.5933  0.5636  0.4284
 3979SOL    HW123570   3.002   2.096   5.050 -1.5680 -0.2639  0.0723
 3979SOL    HW223571   3.026   2.111   5.196  0.3949 -2.6677 -0.9534
 3980SOL     OW23572   1.736   4.447   4.526  0.4675 -0.3914  0.1959
 3980SOL    HW123573   1.701   4.511   4.465 -3.1917 -0.6462  2.0173
 3980SOL    HW223574   1.826   4.478   4.532 -0.4031  2.2536 -0.6026
 3981SOL     OW23575   3.696   0.002   4.018  0.0662  0.2176 -0.0622
 3981SOL    HW123576   3.709   4.647   4.024  0.4132  0.4356  2.9624
 3981SOL    HW223577   3.601   0.002   4.026  0.1787  0.6685  1.3726
 3982SOL     OW23578   3.480   4.251   6.750  0.0632  0.1175 -0.0282
 3982SOL    HW123579   3.549   4.190   6.776  0.0896  0.6987  1.2273
 3982SOL    HW223580   3.532   4.327   6.724  1.3389 -0.9768 -0.7048
 3983SOL     OW23581   4.362   2.065  14.332 -0.3938 -0.9223 -0.3047
 3983SOL    HW123582   4.411   2.009  14.272  2.5176 -1.4280  2.6139
 3983SOL    HW223583   4.338   2.130  14.265 -3.1078 -2.3992 -0.7574
 3984SOL     OW23584   0.333   1.523  12.300 -0.0322 -0.5302  0.2112
 3984SOL    HW123585   0.326   1.470  12.380 -0.6181  1.5250  1.5100
 3984SOL    HW223586   0.427   1.525  12.281  0.2460 -2.4676  1.2913
 3985SOL     OW23587   2.604   3.051   4.617  0.0429 -0.0227 -0.1960
 3985SOL    HW123588   2.534   3.033   4.555 -0.9902  1.3871  0.5707
 3985SOL    HW223589   2.664   2.985   4.583  0.5207  0.7288 -0.8185
 3986SOL     OW23590   3.668   1.778   3.150  0.8061 -0.1048  0.2805
 3986SOL    HW123591   3.725   1.797   3.075 -0.8034 -1.1347 -1.2089
 3986SOL    HW223592   3.597   1.837   3.123 -0.5750 -2.4604 -1.1890
 3987SOL     OW23593   0.442   2.233   4.199 -0.1396  0.3677 -0.1567
 3987SOL    HW123594   0.508   2.231   4.268  0.2023  1.5622 -0.4367
 3987SOL    HW223595   0.451   2.155   4.144  0.2404 -0.7613  1.5300
 3988SOL     OW23596   0.549   2.922   2.970  0.3127 -0.5151  0.2676
 3988SOL    HW123597   0.536   2.922   2.875 -1.0606  1.0883  0.4511
 3988SOL    HW223598   0.577   3.010   2.994 -2.5278  0.2334  0.8014
 3989SOL     OW23599   1.079   2.595   4.157  0.0802  0.2734 -0.4086
 3989SOL    HW123600   1.122   2.675   4.129 -1.8550  0.5554 -2.5647
 3989SOL    HW223601   1.096   2.536   4.083  1.4515 -0.7628  0.7274
 3990SOL     OW23602   2.024   4.550   8.493 -0.3966  0.0126 -0.1698
 3990SOL    HW123603   2.105   4.598   8.474  0.4857 -1.8386 -1.0727
 3990SOL    HW223604   2.066   4.467   8.472 -0.4159 -0.0801  0.1571
 3991SOL     OW23605   4.536   0.389  14.673  0.4691  0.1741 -0.2486
 3991SOL    HW123606   4.464   0.366  14.614  0.1155  1.5908 -0.3816
 3991SOL    HW223607   4.523   0.322  14.740  0.5986  0.9370  0.5486
 3992SOL     OW23608   4.575   4.685   4.442  0.3572  0.3352 -0.5091
 3992SOL    HW123609   4.573   4.656   4.533  0.6338  0.8141 -0.3486
 3992SOL    HW223610   4.644   0.011   4.442  1.9068 -1.2721  1.1875
 3993SOL     OW23611   2.275   2.178   8.068 -0.3598  0.4613  0.2823
 3993SOL    HW123612   2.319   2.120   8.130 -2.5180 -1.7576 -0.2257
 3993SOL    HW223613   2.299   2.124   7.992 -3.5055 -1.8782  0.9630
 3994SOL     OW23614   4.404   3.544   4.781  0.6961  0.1443  0.0207
 3994SOL    HW123615   4.491   3.521   4.813 -0.3203 -2.4855  0.8554
 3994SOL    HW223616   4.422   3.558   4.688  1.3648 -0.7532  0.0152
 3995SOL     OW23617   2.892   3.401   2.591 -0.0813 -0.4503 -0.3140
 3995SOL    HW123618   2.851   3.415   2.505  0.9668 -0.2815 -0.7920
 3995SOL    HW223619   2.843   3.324   2.620  2.2775 -1.2876  1.3587
 3996SOL     OW23620   3.177   0.445  10.794  0.2802  0.2463 -0.2455
 3996SOL    HW123621   3.105   0.384  10.782 -0.0571  1.5498 -4.8814
 3996SOL    HW223622   3.173   0.478  10.705 -1.7350 -1.7003 -0.8858
 3997SOL     OW23623   1.318   0.442  15.210  0.0692  0.0166 -0.0994
 3997SOL    HW123624   1.294   0.438  15.118 -0.8012 -0.6066  0.1522
 3997SOL    HW223625   1.390   0.505  15.205 -0.6803  0.9350  0.6983
 3998SOL     OW23626   0.180   3.116   5.230  0.0136  0.4839 -0.1055
 3998SOL    HW123627   0.223   3.188   5.278  2.5319 -1.8329  1.1276
 3998SOL    HW223628   0.190   3.043   5.291 -0.0284 -0.2958 -1.0509
 3999SOL     OW23629   3.652   1.848   1.967 -0.1805  0.0435  0.1112
 3999SOL    HW123630   3.736   1.809   1.944  0.6616  1.7931  0.1676
 3999SOL    HW223631   3.683   1.938   1.981  1.3397 -0.8740  2.6042
 4000SOL     OW23632   3.236   3.562  13.302  0.0449  0.1434 -0.3450
 4000SOL    HW123633   3.239   3.489  13.240  3.2401  0.2999 -0.3673
 4000SOL    HW223634   3.226   3.639  13.247  1.8073  0.1214 -0.6765
 4001SOL     OW23635   1.423   0.963  15.913  0.1600 -0.1191  0.8791
 4001SOL    HW123636   1.414   1.058  15.904 -0.8238 -0.4210 -1.1396
 4001SOL    HW223637   1.414   0.944  15.820  0.1719  0.1664  0.8195
 4002SOL     OW23638   2.217   2.946   0.102 -0.0851 -0.7291  0.0912
 4002SOL    HW123639   2.158   3.004   0.054 -0.0815  1.2817  2.5563
 4002SOL    HW223640   2.155   2.875   0.122 -0.5204 -0.2159  0.5613
 4003SOL     OW23641   0.331   1.796  16.485  0.0572 -0.4807  0.1208
 4003SOL    HW123642   0.338   1.753  16.570 -1.8919 -0.3700  0.3422
 4003SOL    HW223643   0.423   1.793  16.460  0.5638 -0.1406  1.9096
 4004SOL     OW23644   4.217   3.514   3.784 -0.1319  0.0156 -0.1416
 4004SOL    HW123645   4.172   3.573   3.724  0.9126  0.3462 -0.5946
 4004SOL    HW223646   4.288   3.505   3.721 -0.5418 -1.7170 -0.3644
 4005SOL     OW23647   3.949   4.561  13.205  0.0441  0.2594  0.4283
 4005SOL    HW123648   4.041   4.549  13.179 -0.1175 -2.1836  1.0540
 4005SOL    HW223649   3.899   4.528  13.131 -0.8488 -1.4904  1.8144
 4006SOL     OW23650   3.147   2.343   3.546 -0.1413 -0.0186  0.3860
 4006SOL    HW123651   3.124   2.314   3.634 -0.7169  0.5205  0.4131
 4006SOL    HW223652   3.241   2.341   3.532  0.0015 -0.0694  1.3928
 4007SOL     OW23653   4.464   2.231  13.927  0.3291  0.7863  0.1129
 4007SOL    HW123654   4.527   2.264  13.864 -1.1773 -0.3231 -1.9793
 4007SOL    HW223655   4.382   2.263  13.887 -0.3516  1.3592  1.9697
 4008SOL     OW23656   3.399   3.890   4.242  0.0036 -0.3254  0.3945
 4008SOL    HW123657   3.362   3.858   4.159  0.9555 -0.5784  0.0610
 4008SOL    HW223658   3.376   3.981   4.227 -1.0231 -0.7623 -0.6990
 4009SOL     OW23659   1.977   4.714   6.964 -0.9125  0.0763  0.0778
 4009SOL    HW123660   2.015   0.051   6.920 -2.2579  0.6570 -0.0630
 4009SOL    HW223661   1.885   4.722   6.940 -0.9257  1.0112  0.4395
 4010SOL     OW23662   2.772   3.472  15.909 -0.2539  0.1261 -0.0212
 4010SOL    HW123663   2.696   3.418  15.886 -0.6566 -0.3116  2.4168
 4010SOL    HW223664   2.763   3.537  15.838 -0.5310  0.3702  0.2382
 4011SOL     OW23665   0.864   2.982   9.369  0.2735 -0.5339  0.0082
 4011SOL    HW123666   0.813   3.051   9.327 -0.0486 -0.2706  0.8383
 4011SOL    HW223667   0.913   3.029   9.436 -2.0642  2.5340 -0.4677
 4012SOL     OW23668   3.854   0.934   0.042  0.1426  0.2008  0.2441
 4012SOL    HW123669   3.805   0.860   0.079 -0.7200 -0.9794 -3.2176
 4012SOL    HW223670   3.777   0.966  17.753 -3.5043 -4.6920  2.8794
 4013SOL     OW23671   3.642   1.904   8.181  0.4298  0.3805 -0.1676
 4013SOL    HW123672   3.589   1.933   8.255  1.4166 -1.4990  1.3108
 4013SOL    HW223673   3.617   1.957   8.106  2.1666  1.9734  0.3883
 4014SOL     OW23674   0.620   1.194   1.713 -0.1048 -0.0044  0.0195
 4014SOL    HW123675   0.639   1.145   1.793 -0.8106 -0.0448  0.1619
 4014SOL    HW223676   0.676   1.270   1.727 -3.5812  3.0178 -2.7925
 4015SOL     OW23677   1.326   4.673   2.125  0.0038  0.1563  0.4907
 4015SOL    HW123678   1.294   0.014   2.164 -0.4628 -1.0868  2.6691
 4015SOL    HW223679   1.241   4.640   2.095 -0.8653  0.0058  3.1134
 4016SOL     OW23680   0.885   2.351   1.088  0.0027  0.6255  0.0178
 4016SOL    HW123681   0.820   2.312   1.029 -0.1746 -0.3965  0.8993
 4016SOL    HW223682   0.889   2.435   1.041  2.9581  0.7778  0.5315
 4017SOL     OW23683   0.622   0.834  11.251 -0.1940  0.1568 -0.1131
 4017SOL    HW123684   0.677   0.842  11.329  1.9937  1.6086 -1.8124
 4017SOL    HW223685   0.630   0.917  11.203  0.3541  0.1112 -0.0989
 4018SOL     OW23686   2.857   0.454   7.937 -0.2387 -0.3315  0.0706
 4018SOL    HW123687   2.781   0.504   7.907  1.6121  1.2797 -1.9576
 4018SOL    HW223688   2.915   0.462   7.861 -3.1094 -1.5671 -2.2113
 4019SOL     OW23689   1.431   1.127   8.221 -0.1307 -0.2103  0.0418
 4019SOL    HW123690   1.495   1.183   8.177  0.8227 -0.3150  1.3064
 4019SOL    HW223691   1.472   1.041   8.220 -0.6981 -0.5107  1.9559
 4020SOL     OW23692   2.017   4.511   4.536 -0.0877 -0.2247 -0.4827
 4020SOL    HW123693   2.111   4.520   4.520 -0.5593  2.8656 -1.5657
 4020SOL    HW223694   1.998   4.599   4.570 -1.6602 -0.5403 -0.5511
 4021SOL     OW23695   1.075   4.257   5.992  0.0146  0.5749 -0.0916
 4021SOL    HW123696   1.056   4.163   5.989 -1.1975  0.8750 -1.5110
 4021SOL    HW223697   0.992   4.304   5.981  0.6542  1.5141 -0.9644
 4022SOL     OW23698   0.425   4.280  12.407 -0.0879  0.3027 -0.7229
 4022SOL    HW123699   0.496   4.337  12.438 -0.4121  0.7203 -0.7374
 4022SOL    HW223700   0.470   4.197  12.419  0.5350  0.6725 -0.5108
 4023SOL     OW23701   2.199   3.651  15.785  0.4203  0.5126 -0.1510
 4023SOL    HW123702   2.179   3.604  15.704 -0.2991 -0.3868  0.5443
 4023SOL    HW223703   2.186   3.741  15.756  1.3276  0.3491 -1.0736
 4024SOL     OW23704   3.895   2.873   5.908  0.0360  0.2140  0.0299
 4024SOL    HW123705   3.953   2.947   5.890 -1.8495  1.9918  1.1671
 4024SOL    HW223706   3.805   2.900   5.887  0.0571 -1.5792 -2.3247
 4025SOL     OW23707   4.154   3.439   9.205 -0.1385 -0.2729 -0.0634
 4025SOL    HW123708   4.097   3.514   9.224  0.1429 -0.3218  0.9622
 4025SOL    HW223709   4.091   3.403   9.143  0.0885 -0.9281  0.0946
 4026SOL     OW23710   4.093   1.957   4.151 -0.3918 -0.4568  0.6231
 4026SOL    HW123711   4.087   2.033   4.209  2.4348 -0.1760  0.5534
 4026SOL    HW223712   4.158   1.911   4.205  0.4564  0.7217  0.6177
 4027SOL     OW23713   1.832   1.534   7.578 -0.1957 -0.2710 -0.1798
 4027SOL    HW123714   1.874   1.459   7.620 -1.1442 -0.4966  0.3453
 4027SOL    HW223715   1.869   1.608   7.625 -1.6103  0.2562  0.1020
 4028SOL     OW23716   1.316   2.192  10.480 -0.2076 -0.1482  0.5913
 4028SOL    HW123717   1.384   2.140  10.521 -0.5871 -0.3507  0.9606
 4028SOL    HW223718   1.339   2.279  10.514 -3.4240  0.4517  1.3064
 4029SOL     OW23719   3.754   2.215   2.555 -0.4226 -0.2874 -0.0768
 4029SOL    HW123720   3.748   2.165   2.637  1.3863 -0.4090 -0.0245
 4029SOL    HW223721   3.805   2.295   2.568  0.9096 -1.1243 -0.1480
 4030SOL     OW23722   1.061   2.247   8.529  0.3667  0.0317 -0.3131
 4030SOL    HW123723   1.132   2.241   8.594  0.2875  0.7866 -0.1578
 4030SOL    HW223724   1.099   2.263   8.443 -0.6321 -1.9593 -1.1270
 4031SOL     OW23725   0.860   4.303   3.230 -0.1914  0.2146 -0.4783
 4031SOL    HW123726   0.907   4.374   3.274  1.1090 -0.6809 -0.4191
 4031SOL    HW223727   0.879   4.228   3.286  3.1449  1.2488 -0.2189
 4032SOL     OW23728   4.235   0.747   2.154 -0.1314 -0.2883 -0.3334
 4032SOL    HW123729   4.167   0.784   2.097 -1.8137  0.1494  1.9661
 4032SOL    HW223730   4.207   0.786   2.237  0.3891 -3.3489  1.2762
 4033SOL     OW23731   0.563   0.130   2.409 -0.0420  0.3216 -0.2762
 4033SOL    HW123732   0.606   0.212   2.434 -3.4515  1.8872  0.4442
 4033SOL    HW223733   0.526   0.152   2.323  0.0966 -0.1046 -0.4441
 4034SOL     OW23734   0.346   0.460  13.751 -0.1353 -0.8215  0.3335
 4034SOL    HW123735   0.341   0.430  13.842  2.8276 -0.2147  0.7035
 4034SOL    HW223736   0.376   0.549  13.765  0.7320 -1.2272  1.1037
 4035SOL     OW23737   2.828   4.469   8.254  0.4621  0.2220  0.2789
 4035SOL    HW123738   2.822   4.376   8.231 -3.6077  0.4596  0.4523
 4035SOL    HW223739   2.761   4.470   8.323 -0.8492 -0.2152 -1.0023
 4036SOL     OW23740   1.510   4.215  15.187 -0.3407 -0.2547  0.1781
 4036SOL    HW123741   1.466   4.265  15.256 -3.0624  1.0593 -2.5043
 4036SOL    HW223742   1.531   4.286  15.127 -1.6870  0.1258  0.1476
 4037SOL     OW23743   4.738   2.246  12.505 -0.0829  0.3695  0.4647
 4037SOL    HW123744   0.003   2.207  12.418 -0.6634  0.6060  0.3215
 4037SOL    HW223745   0.091   2.261  12.518  0.2714 -0.5788 -0.9338
 4038SOL     OW23746   2.791   2.415  17.462 -0.3612  0.4692  0.4859
 4038SOL    HW123747   2.790   2.405  17.558 -0.3593 -0.5456  0.3785
 4038SOL    HW223748   2.880   2.389  17.438 -1.3736 -2.2979 -0.1915
 4039SOL     OW23749   1.096   2.682  16.604 -0.1331  0.1376  0.2915
 4039SOL    HW123750   1.140   2.621  16.664 -1.7011  0.7547  2.0796
 4039SOL    HW223751   1.008   2.648  16.589  0.8177 -1.9954 -0.4758
 4040SOL     OW23752   1.071   1.960   2.666 -0.4229 -0.1297 -0.4468
 4040SOL    HW123753   0.983   1.966   2.630  0.2686  3.3098 -1.6474
 4040SOL    HW223754   1.053   1.894   2.733 -1.1436  2.0968  1.5570
 4041SOL     OW23755   2.295   3.810   2.419  0.0669  0.1019 -0.3226
 4041SOL    HW123756   2.379   3.767   2.437  0.2441  1.1363  1.2407
 4041SOL    HW223757   2.242   3.741   2.378 -0.4780  0.1540  0.2895
 4042SOL     OW23758   3.625   0.561  17.612 -0.1215  0.5347 -0.2446
 4042SOL    HW123759   3.719   0.570  17.598  0.1019 -0.2920  0.6968
 4042SOL    HW223760   3.588   0.621  17.547 -0.3528 -0.3752 -0.9586
 4043SOL     OW23761   3.162   0.456   3.878 -0.0003  0.1293 -0.2474
 4043SOL    HW123762   3.223   0.521   3.846 -0.3058  0.6170  0.1686
 4043SOL    HW223763   3.105   0.433   3.804 -0.6217 -1.4947  0.7367
 4044SOL     OW23764   3.647   3.074   8.956 -0.2741 -0.4714 -1.0067
 4044SOL    HW123765   3.576   3.138   8.965  0.2644 -0.0080  0.0371
 4044SOL    HW223766   3.606   3.000   9.000  1.0188 -0.2785  0.5303
 4045SOL     OW23767   1.178   0.673  14.305 -0.1027  0.0127  0.1532
 4045SOL    HW123768   1.175   0.744  14.369  0.0887 -0.9169  1.1812
 4045SOL    HW223769   1.093   0.689  14.265 -0.3581 -1.3483  0.1427
 4046SOL     OW23770   4.402   1.854   8.746 -0.1421  0.1452  0.1310
 4046SOL    HW123771   4.402   1.787   8.815  0.3943  2.2962  2.1915
 4046SOL    HW223772   4.489   1.889   8.764  0.2111 -0.3617 -0.5457
 4047SOL     OW23773   0.768   3.355  17.634  0.0380 -0.6453 -0.2950
 4047SOL    HW123774   0.700   3.319  17.692 -0.7738  4.0389  1.7400
 4047SOL    HW223775   0.808   3.426  17.684 -0.4503 -0.5252 -0.0769
 4048SOL     OW23776   0.512   3.582   9.099 -0.5025 -0.6851 -0.4607
 4048SOL    HW123777   0.446   3.516   9.124 -1.2685  1.1341  2.2735
 4048SOL    HW223778   0.505   3.570   9.005  0.0162  1.3814 -0.7551
 4049SOL     OW23779   1.238   1.085   4.735  0.2790  0.0815 -0.1541
 4049SOL    HW123780   1.187   1.133   4.801 -0.2838 -1.7145  0.7106
 4049SOL    HW223781   1.161   1.042   4.698  0.0489  0.1168  0.2826
 4050SOL     OW23782   1.214   0.613   7.462  0.1761  0.0675  0.0119
 4050SOL    HW123783   1.233   0.587   7.552 -1.1124 -0.6567  0.0796
 4050SOL    HW223784   1.200   0.708   7.467 -0.3948 -0.0750  1.1626
 4051SOL     OW23785   4.248   2.830   1.802 -0.1253  0.4325  0.0563
 4051SOL    HW123786   4.324   2.884   1.821 -0.8121  1.1630  0.7650
 4051SOL    HW223787   4.187   2.864   1.868 -1.0031  1.5363 -1.3303
 4052SOL     OW23788   2.449   0.153   3.094  0.0710 -0.3598 -0.2437
 4052SOL    HW123789   2.533   0.166   3.050 -0.1953 -2.1668 -1.2690
 4052SOL    HW223790   2.430   0.244   3.118  0.3715 -0.0309 -1.2625
 4053SOL     OW23791   0.852   1.723   5.814  0.0739  0.1926 -0.2336
 4053SOL    HW123792   0.849   1.675   5.732 -0.5670  1.2693 -0.8396
 4053SOL    HW223793   0.767   1.768   5.811  0.5651  1.1670  0.1895
 4054SOL     OW23794   0.765   1.235   8.478 -0.3212  0.4402 -0.2531
 4054SOL    HW123795   0.818   1.315   8.480  0.1781  0.1534 -1.9477
 4054SOL    HW223796   0.813   1.182   8.414 -0.6870  1.1103 -1.0873
 4055SOL     OW23797   4.285   1.719   2.143  0.5038  0.2734  0.1175
 4055SOL    HW123798   4.378   1.713   2.121  0.3699  1.4786 -0.7879
 4055SOL    HW223799   4.290   1.740   2.236  3.7975  0.4636 -0.0777
 4056SOL     OW23800   2.876   3.205  12.694  0.2651  0.5129 -0.7847
 4056SOL    HW123801   2.853   3.253  12.773 -0.2693 -0.7509 -0.1624
 4056SOL    HW223802   2.800   3.150  12.672 -0.7097  1.6128 -0.1387
 4057SOL     OW23803   2.508   3.595   9.759 -0.1099  0.0453 -0.0854
 4057SOL    HW123804   2.499   3.677   9.808  2.2092  0.3470 -0.1579
 4057SOL    HW223805   2.416   3.592   9.731  0.1694 -0.0929 -0.9678
 4058SOL     OW23806   2.606   1.953   4.453  0.2621  0.0431  0.2429
 4058SOL    HW123807   2.672   1.975   4.387  1.5280 -1.0378  1.1465
 4058SOL    HW223808   2.537   2.019   4.443 -0.8265 -0.8303  1.8596
 4059SOL     OW23809   4.633   0.568   8.209  0.1613 -0.6808 -0.1455
 4059SOL    HW123810   4.583   0.492   8.181 -0.0160 -0.2309 -1.0454
 4059SOL    HW223811   4.678   0.588   8.127  0.2749 -2.4150 -0.5039
 4060SOL     OW23812   1.390   2.940  10.020  0.0985 -0.3749  0.1229
 4060SOL    HW123813   1.450   2.932   9.946 -0.6497 -3.3042 -0.1730
 4060SOL    HW223814   1.455   2.978  10.079 -1.0162  0.8228  0.5761
 4061SOL     OW23815   4.043   0.635   3.753 -0.0991  0.6049  0.1740
 4061SOL    HW123816   4.071   0.631   3.661  0.0285 -0.1045  0.2437
 4061SOL    HW223817   4.005   0.548   3.763 -0.0981  0.7083  1.0796
 4062SOL     OW23818   0.593   4.174   7.515  0.4798 -0.4727 -0.1556
 4062SOL    HW123819   0.555   4.093   7.483  2.0236 -0.7178 -1.3678
 4062SOL    HW223820   0.614   4.220   7.433  2.0591  2.7462  2.0385
 4063SOL     OW23821   0.722   0.640   3.602  0.3306 -0.0212  0.1812
 4063SOL    HW123822   0.758   0.571   3.546  1.4195  0.9274 -0.2978
 4063SOL    HW223823   0.750   0.713   3.547  0.8118 -1.5653 -1.6427
 4064SOL     OW23824   1.544   1.593   7.575 -0.3155  0.0371  0.2512
 4064SOL    HW123825   1.634   1.586   7.546 -0.3650  0.4086  0.0080
 4064SOL    HW223826   1.493   1.590   7.495  2.2760 -0.7947 -1.3473
 4065SOL     OW23827   2.412   4.019   2.180 -0.0985  0.3749  0.3849
 4065SOL    HW123828   2.411   4.108   2.146 -1.2890  0.6071  1.0486
 4065SOL    HW223829   2.337   4.013   2.239 -0.9985 -1.5492 -0.9720
 4066SOL     OW23830   4.561   1.348   2.744 -0.0355 -0.0407 -0.4958
 4066SOL    HW123831   4.574   1.253   2.746 -2.9022 -0.3708  2.5186
 4066SOL    HW223832   4.469   1.361   2.718 -1.2232 -1.7863  2.8599
 4067SOL     OW23833   0.955   0.100  13.396  0.0822  0.3155 -0.2450
 4067SOL    HW123834   1.009   0.123  13.321  0.0717  0.2543 -0.2712
 4067SOL    HW223835   1.015   0.037  13.437 -1.7725 -2.4753 -1.8487
 4068SOL     OW23836   2.201   0.998  12.770  0.6938 -0.1000  0.4142
 4068SOL    HW123837   2.280   0.956  12.736  1.4273  1.6354 -0.0494
 4068SOL    HW223838   2.137   0.927  12.778 -0.4431  0.8065 -0.4195
 4069SOL     OW23839   2.487   3.141   7.908  0.8439  0.1623 -0.1290
 4069SOL    HW123840   2.442   3.099   7.981  0.7297  1.9681  0.8279
 4069SOL    HW223841   2.513   3.058   7.867  1.6256 -0.1940  1.1135
 4070SOL     OW23842   3.919   3.648   1.931  0.7066 -0.4312  0.5026
 4070SOL    HW123843   3.875   3.598   1.999  2.2747  0.1547  1.9254
 4070SOL    HW223844   3.851   3.652   1.863  1.4585  2.7678 -0.0806
 4071SOL     OW23845   2.943   1.235   0.048 -0.1978  0.2214  0.1997
 4071SOL    HW123846   3.018   1.179   0.028 -0.3800 -0.7498  2.2206
 4071SOL    HW223847   2.910   1.250  17.717 -0.2231  1.0194  0.3430
 4072SOL     OW23848   4.052   1.408   3.519 -0.1851  0.1214  0.4376
 4072SOL    HW123849   4.026   1.424   3.609  0.8245 -1.6899  1.0477
 4072SOL    HW223850   3.975   1.443   3.474 -0.2034  2.0221  1.9138
 4073SOL     OW23851   4.692   2.850   8.234  0.0400  0.3823  0.2897
 4073SOL    HW123852   4.661   2.828   8.146  1.0658  0.2615 -0.0417
 4073SOL    HW223853   4.721   2.761   8.253 -0.3751 -0.0396 -1.0964
 4074SOL     OW23854   1.737   2.530  15.917  0.2378  0.2939 -0.2136
 4074SOL    HW123855   1.677   2.466  15.955  0.1880  0.2529 -0.3605
 4074SOL    HW223856   1.814   2.488  15.955  0.1489  1.2773  1.0425
 4075SOL     OW23857   0.416   2.326  11.430  0.5057  0.2880 -0.2020
 4075SOL    HW123858   0.429   2.391  11.361  2.0721  1.5622  1.2981
 4075SOL    HW223859   0.346   2.372  11.477  1.8411  1.3303  0.7898
 4076SOL     OW23860   0.298   2.585  16.739 -0.1522  0.2461 -0.3557
 4076SOL    HW123861   0.295   2.614  16.831 -1.9201  0.3508 -0.4478
 4076SOL    HW223862   0.383   2.540  16.745  0.3269  1.1695 -0.1813
 4077SOL     OW23863   3.996   0.621  10.870 -0.1187 -0.2808  0.2252
 4077SOL    HW123864   4.086   0.654  10.876 -0.2236 -0.0111  0.3113
 4077SOL    HW223865   3.960   0.710  10.862  0.0906 -0.2305 -0.1699
 4078SOL     OW23866   4.504   3.813   3.827 -0.7463  0.5868 -0.5081
 4078SOL    HW123867   4.469   3.810   3.916  1.2359  0.8060  0.2897
 4078SOL    HW223868   4.500   3.906   3.804 -1.2462  1.3314  2.5725
 4079SOL     OW23869   4.716   3.551  13.098 -0.5677 -0.0829  0.4516
 4079SOL    HW123870   4.725   3.540  13.004 -1.8794 -1.0375  0.4380
 4079SOL    HW223871   4.624   3.529  13.116 -0.4413 -2.3984 -1.8395
 4080SOL     OW23872   2.003   4.024   9.865  0.2402 -0.3154 -0.1033
 4080SOL    HW123873   2.066   4.097   9.862 -0.2001 -0.0022 -1.6443
 4080SOL    HW223874   2.041   3.987   9.945  0.3412  1.2205  0.5719
 4081SOL     OW23875   1.613   2.568   7.665  0.0018  0.5373 -1.2065
 4081SOL    HW123876   1.689   2.578   7.723 -0.3710  1.4443 -0.8859
 4081SOL    HW223877   1.644   2.509   7.596  0.9402  1.0577 -1.2306
 4082SOL     OW23878   0.570   4.218   6.638  0.4369  0.4973  0.1639
 4082SOL    HW123879   0.482   4.181   6.642  0.6208  0.0432 -0.0033
 4082SOL    HW223880   0.609   4.144   6.591  1.4536  0.3240  1.2919
 4083SOL     OW23881   0.319   2.880  12.875 -0.3393 -0.2598  0.2850
 4083SOL    HW123882   0.393   2.887  12.814 -1.0413  0.7745 -0.4356
 4083SOL    HW223883   0.252   2.850  12.814 -0.8180  0.3395  0.5203
 4084SOL     OW23884   3.230   3.887   5.985 -0.4472  0.0900 -0.2792
 4084SOL    HW123885   3.256   3.795   5.981  3.4576  1.2486 -1.3475
 4084SOL    HW223886   3.186   3.880   6.070  1.3598  0.7678  0.7234
 4085SOL     OW23887   1.088   3.736   5.686 -0.0079  0.1785 -0.0250
 4085SOL    HW123888   1.167   3.718   5.635 -0.2746 -1.7718  0.2685
 4085SOL    HW223889   1.030   3.781   5.625 -0.8069  0.4330  0.9209
 4086SOL     OW23890   2.828   0.869   7.813  0.3396 -0.0969  0.1890
 4086SOL    HW123891   2.870   0.784   7.826  0.7738  0.5664  3.1270
 4086SOL    HW223892   2.819   0.887   7.906 -0.9831  0.0680  0.0354
 4087SOL     OW23893   4.353   4.249   4.842 -0.5567  0.4106 -0.6309
 4087SOL    HW123894   4.370   4.306   4.768 -0.7738  0.2302 -0.8185
 4087SOL    HW223895   4.311   4.174   4.801  0.3601 -0.3827 -0.1191
 4088SOL     OW23896   2.714   2.179   2.400  0.1563  0.7271  0.4006
 4088SOL    HW123897   2.622   2.161   2.383  0.7130 -1.8585  0.0289
 4088SOL    HW223898   2.713   2.172   2.495 -0.0342  0.3055  0.3663
 4089SOL     OW23899   1.962   0.655  17.586  0.0914  0.4836  0.4423
 4089SOL    HW123900   1.979   0.655  17.680  0.4211 -1.0893  0.3891
 4089SOL    HW223901   1.880   0.704  17.591  0.4828  1.2014 -0.2960
 4090SOL     OW23902   2.345   4.512  11.732 -0.2024  0.1479 -0.1025
 4090SOL    HW123903   2.257   4.479  11.749  0.2100 -0.0803  1.5291
 4090SOL    HW223904   2.402   4.441  11.703 -0.6121 -0.2405  0.0491
 4091SOL     OW23905   4.665   3.220   8.448 -0.9174  0.1963 -0.2098
 4091SOL    HW123906   4.721   3.231   8.371  0.4823 -1.0760  0.6345
 4091SOL    HW223907   4.609   3.150   8.413 -1.9727  0.8806  0.0896
 4092SOL     OW23908   0.504   0.590  16.066  0.1018  0.7092 -0.0767
 4092SOL    HW123909   0.509   0.608  15.972  1.0912  0.6081 -0.0487
 4092SOL    HW223910   0.585   0.634  16.093  0.0460  0.1601  0.9688
 4093SOL     OW23911   3.279   4.472   1.133 -0.1875  0.4739 -0.0780
 4093SOL    HW123912   3.279   4.524   1.052 -1.9137  0.4272 -0.1113
 4093SOL    HW223913   3.335   4.402   1.098 -0.1977  0.7247 -0.5962
 4094SOL     OW23914   2.329   1.097   9.225  0.7622 -0.7185  0.0269
 4094SOL    HW123915   2.318   1.066   9.315  1.3098 -1.0816 -0.0340
 4094SOL    HW223916   2.308   1.189   9.241 -1.1834 -1.1473 -0.1126
 4095SOL     OW23917   0.480   1.249   8.428  0.0520 -0.3072  0.0439
 4095SOL    HW123918   0.414   1.206   8.483  1.9547 -0.6702  2.0861
 4095SOL    HW223919   0.560   1.235   8.479 -1.0232  0.3484  1.9304
 4096SOL     OW23920   3.502   0.521  10.119 -0.3384 -0.4715  0.5085
 4096SOL    HW123921   3.447   0.533  10.196  1.0153 -0.8991  1.5380
 4096SOL    HW223922   3.590   0.520  10.156  0.1701 -0.3531 -0.7009
 4097SOL     OW23923   2.147   0.703   8.232  1.0530 -0.4066  0.5732
 4097SOL    HW123924   2.124   0.756   8.156  1.3863 -0.8253  0.1801
 4097SOL    HW223925   2.240   0.727   8.238  1.5326 -1.9459 -0.5874
 4098SOL     OW23926   3.822   3.732   3.649 -0.0988  0.5002 -0.0563
 4098SOL    HW123927   3.848   3.700   3.563 -1.6183 -0.9681  0.0253
 4098SOL    HW223928   3.884   3.805   3.652  1.0519 -0.5239  1.4246
 4099SOL     OW23929   1.765   2.823   5.292 -0.5289 -0.0933  0.5632
 4099SOL    HW123930   1.816   2.873   5.356  1.2468  0.4882 -1.2951
 4099SOL    HW223931   1.825   2.765   5.245  0.2549  0.0888  1.3458
 4100SOL     OW23932   0.087   0.802   1.642 -0.0083 -0.6874 -0.3910
 4100SOL    HW123933   0.103   0.708   1.632  4.2179 -0.0424  0.5287
 4100SOL    HW223934   0.128   0.835   1.563  0.8412  1.8529  1.1131
 4101SOL     OW23935   4.220   3.512   6.028 -0.1284 -0.1091 -0.7383
 4101SOL    HW123936   4.163   3.565   5.973  0.9571  2.1572  0.3170
 4101SOL    HW223937   4.171   3.535   6.106  1.7544  3.5771 -0.6402
 4102SOL     OW23938   0.836   4.711   2.123  0.9747  0.2233 -0.4928
 4102SOL    HW123939   0.759   4.654   2.112  2.8003 -1.7731 -3.1607
 4102SOL    HW223940   0.809   0.059   2.098  0.8756  0.5971  0.9341
 4103SOL     OW23941   1.404   2.591   5.017  0.8006  0.0350  0.4261
 4103SOL    HW123942   1.317   2.595   4.979  0.6959 -1.6326  0.5146
 4103SOL    HW223943   1.393   2.539   5.096  0.2602 -1.5521 -0.7073
 4104SOL     OW23944   2.185   0.253   6.595  0.0223 -0.7084  0.0784
 4104SOL    HW123945   2.148   0.329   6.550 -0.5630 -0.7103  0.5628
 4104SOL    HW223946   2.206   0.195   6.522 -0.6456 -1.5906  0.5835
 4105SOL     OW23947   1.244   4.489   9.128  0.0218 -0.1569 -0.0512
 4105SOL    HW123948   1.247   4.582   9.152  0.2682  0.2332 -1.5531
 4105SOL    HW223949   1.156   4.474   9.094  0.2205  0.9268 -1.0506
 4106SOL     OW23950   0.052   2.081   2.019 -0.4917  0.0312 -0.2356
 4106SOL    HW123951   0.059   1.992   2.055 -2.8554  0.6142  1.6761
 4106SOL    HW223952   4.702   2.101   2.043 -0.7322 -1.8953  0.4438
 4107SOL     OW23953   0.857   0.759   2.004 -0.6644 -0.1325 -0.2930
 4107SOL    HW123954   0.909   0.680   1.991  0.6985  0.8461 -0.7342
 4107SOL    HW223955   0.863   0.768   2.099  2.0666 -1.6583 -0.3345
 4108SOL     OW23956   0.559   3.348   0.656 -0.2283 -0.4619  0.0991
 4108SOL    HW123957   0.476   3.306   0.678 -0.3039 -0.6312 -0.5103
 4108SOL    HW223958   0.580   3.300   0.576 -0.8004 -0.9998  0.2707
 4109SOL     OW23959   3.138   2.098   8.356 -0.7637  0.0113  0.2712
 4109SOL    HW123960   3.052   2.056   8.347 -0.3005 -0.4091 -2.4414
 4109SOL    HW223961   3.148   2.136   8.268 -1.2768 -0.9670 -0.2122
 4110SOL     OW23962   1.256   0.556  15.818  0.3401 -0.1644  0.1992
 4110SOL    HW123963   1.314   0.602  15.757  1.0055  1.6116  2.1732
 4110SOL    HW223964   1.278   0.591  15.904  1.4123  1.0768 -0.5811
 4111SOL     OW23965   2.388   3.511   2.291 -0.1387 -0.1013 -0.9175
 4111SOL    HW123966   2.319   3.504   2.357  1.4542  1.2530  0.8820
 4111SOL    HW223967   2.393   3.420   2.262 -1.2289 -0.9084  1.4743
 4112SOL     OW23968   2.408   1.120   8.682 -0.1693  0.4498 -0.1068
 4112SOL    HW123969   2.403   1.056   8.752  1.9003 -0.6074 -0.9026
 4112SOL    HW223970   2.329   1.094   8.635 -0.2300  1.0549 -0.3388
 4113SOL     OW23971   2.753   2.666   7.653  0.5092 -0.3054  0.5218
 4113SOL    HW123972   2.715   2.616   7.581  1.9803 -0.4657 -0.1284
 4113SOL    HW223973   2.677   2.718   7.679  1.0242  0.3054  0.7869
 4114SOL     OW23974   1.728   4.605   4.775  0.6741 -0.0080 -0.4853
 4114SOL    HW123975   1.795   4.667   4.745  0.9734 -0.8015 -1.4550
 4114SOL    HW223976   1.729   4.549   4.698 -1.1621  0.2191 -0.6870
 4115SOL     OW23977   3.442   2.391  15.429  0.2946 -0.7056 -0.4647
 4115SOL    HW123978   3.360   2.347  15.407  0.6824 -1.7051  0.0801
 4115SOL    HW223979   3.500   2.314  15.426  0.2558 -0.8435  2.1778
 4116SOL     OW23980   0.733   3.406   7.386 -0.5321 -0.3934 -0.0023
 4116SOL    HW123981   0.822   3.442   7.387 -0.5492 -0.3753  0.7518
 4116SOL    HW223982   0.698   3.457   7.313 -2.1235  0.8385  1.6239
 4117SOL     OW23983   4.437   2.054   2.894 -0.3379  0.0533  0.1236
 4117SOL    HW123984   4.372   1.984   2.889 -0.7173  0.6337 -2.9460
 4117SOL    HW223985   4.380   2.131   2.892  0.8932  1.0613  4.1241
 4118SOL     OW23986   1.200   4.179   8.250 -0.8031  0.2136 -0.2906
 4118SOL    HW123987   1.233   4.170   8.161  1.1295  1.2247  0.3088
 4118SOL    HW223988   1.211   4.273   8.264  0.2967  0.0378  0.0122
 4119SOL     OW23989   2.609   1.949  16.682 -0.4893 -0.3298 -0.4802
 4119SOL    HW123990   2.514   1.962  16.682 -0.3454  0.7255 -1.7505
 4119SOL    HW223991   2.652   2.027  16.717  0.9443 -1.0883 -0.5324
 4120SOL     OW23992   4.722   2.924   7.658  0.3629  0.3119 -0.6028
 4120SOL    HW123993   4.712   2.836   7.694  0.0928  0.3368 -0.6146
 4120SOL    HW223994   4.632   2.956   7.657  0.2228 -0.0610  0.5130
 4121SOL     OW23995   3.331   4.536   1.744  0.3409 -0.1910  0.4439
 4121SOL    HW123996   3.404   4.593   1.718 -1.1890  2.2098  1.3499
 4121SOL    HW223997   3.358   4.449   1.716  1.0980 -0.0878  0.8491
 4122SOL     OW23998   2.599   3.252   2.281  0.1186 -0.3441  0.3873
 4122SOL    HW123999   2.691   3.235   2.260 -0.4182 -1.1864 -1.3290
 4122SOL    HW224000   2.585   3.174   2.335 -0.9158  0.1919  0.8877
 4123SOL     OW24001   3.510   1.609   9.042 -0.0441 -0.1079  0.5187
 4123SOL    HW124002   3.455   1.651   8.976  0.5812 -2.4647 -1.4888
 4123SOL    HW224003   3.565   1.559   8.982 -0.2334  0.0327  0.2294
 4124SOL     OW24004   4.336   2.718   6.727  0.3122  0.1398 -0.4086
 4124SOL    HW124005   4.339   2.638   6.675 -0.6439 -0.0661 -0.1490
 4124SOL    HW224006   4.408   2.758   6.678  1.7974  2.2347  3.5218
 4125SOL     OW24007   3.634   3.703   2.400 -0.4223  0.7452 -0.3188
 4125SOL    HW124008   3.673   3.677   2.317  0.8373 -2.0750  1.1655
 4125SOL    HW224009   3.553   3.652   2.396  0.5160 -0.7298 -0.0920
 4126SOL     OW24010   1.401   0.192   8.442  0.1140  0.7577  1.2992
 4126SOL    HW124011   1.492   0.161   8.436 -0.7218 -1.0108 -2.1421
 4126SOL    HW224012   1.409   0.280   8.405  0.6369 -0.0009 -0.3644
 4127SOL     OW24013   0.646   0.591  10.629  0.7051 -0.0858  1.2966
 4127SOL    HW124014   0.596   0.611  10.549  1.7940 -0.6857  0.4795
 4127SOL    HW224015   0.704   0.666  10.643 -0.8211  1.1318  1.2126
 4128SOL     OW24016   2.847   4.018   8.516 -0.0485 -0.2477  0.0642
 4128SOL    HW124017   2.904   4.056   8.450 -1.0306 -1.5019 -1.4996
 4128SOL    HW224018   2.898   3.954   8.567  0.1369 -0.8216 -0.8524
 4129SOL     OW24019   0.444   4.730   8.231 -0.2938  0.2894  0.1564
 4129SOL    HW124020   0.376   4.707   8.168 -0.6308  0.4199  0.4690
 4129SOL    HW224021   0.414   4.686   8.310 -1.8342 -0.9438 -1.1128
 4130SOL     OW24022   3.704   1.229   4.978  0.0413 -0.6287 -0.2805
 4130SOL    HW124023   3.646   1.264   5.046 -0.3112  0.4555 -1.1350
 4130SOL    HW224024   3.786   1.279   4.988 -1.9771  2.4549  1.0742
 4131SOL     OW24025   4.492   1.932   4.027  0.1790  0.3408 -0.0319
 4131SOL    HW124026   4.418   1.875   4.004 -0.2107  0.1437  1.6694
 4131SOL    HW224027   4.529   1.955   3.942 -0.0034  1.3363  0.1516
 4132SOL     OW24028   3.516   0.333   4.311  0.2140  0.4694 -0.0436
 4132SOL    HW124029   3.588   0.330   4.249  0.7440  0.8949  0.5555
 4132SOL    HW224030   3.527   0.260   4.372 -0.4932  1.7831  1.6711
 4133SOL     OW24031   3.638   3.923   6.580 -0.0275  0.3384  0.1747
 4133SOL    HW124032   3.543   3.929   6.583 -0.0858 -0.4610 -0.0843
 4133SOL    HW224033   3.672   3.939   6.492 -1.0690 -0.4949 -0.3782
 4134SOL     OW24034   2.310   1.463   5.149 -0.0088  0.1321  0.2138
 4134SOL    HW124035   2.367   1.523   5.198 -1.1996 -0.0836  1.8794
 4134SOL    HW224036   2.344   1.459   5.060 -2.5910  0.0038 -0.7485
 4135SOL     OW24037   4.085   0.706   9.669 -0.0720 -0.8418  0.6764
 4135SOL    HW124038   4.119   0.642   9.732  0.1293 -1.5179 -0.1215
 4135SOL    HW224039   4.160   0.725   9.613 -1.3513  3.0823  0.3483
 4136SOL     OW24040   0.613   1.731   1.592  0.6427 -0.0654 -0.7271
 4136SOL    HW124041   0.595   1.657   1.650  1.3134  2.6555  2.9858
 4136SOL    HW224042   0.575   1.805   1.640  1.1640 -1.0676  1.2492
 4137SOL     OW24043   1.129   3.256   1.746 -0.1364  0.1390 -0.5166
 4137SOL    HW124044   1.161   3.264   1.656 -2.5667 -0.9241 -1.4560
 4137SOL    HW224045   1.133   3.349   1.769  0.9522 -0.1693  0.5328
 4138SOL     OW24046   0.988   0.060   3.520 -0.1453 -0.1469  0.2374
 4138SOL    HW124047   1.058   0.125   3.530 -1.1980  1.1293 -0.6563
 4138SOL    HW224048   0.971   0.065   3.426 -0.4415  0.7061  0.3327
 4139SOL     OW24049   3.950   4.330   5.751  0.0732 -0.5894  0.1186
 4139SOL    HW124050   3.964   4.251   5.803  1.5290 -0.6932 -0.4540
 4139SOL    HW224051   3.936   4.285   5.668  0.7125  1.1699 -0.9369
 4140SOL     OW24052   2.866   0.233   4.630 -0.1431  0.5442 -0.1872
 4140SOL    HW124053   2.877   0.166   4.697 -2.9395  0.1837 -0.0801
 4140SOL    HW224054   2.898   0.313   4.671  3.2469  0.6056 -2.9675
 4141SOL     OW24055   4.500   4.168   2.302 -0.5501 -0.6248  0.1647
 4141SOL    HW124056   4.434   4.209   2.245 -0.9154 -0.1499  0.9378
 4141SOL    HW224057   4.440   4.159   2.375 -2.0140 -0.5605 -1.0209
 4142SOL     OW24058   2.411   3.656   1.713 -0.0325  0.1455 -0.2129
 4142SOL    HW124059   2.352   3.731   1.717 -1.1702 -0.8480  1.6840
 4142SOL    HW224060   2.475   3.682   1.779 -1.3888  1.7071  0.4563
 4143SOL     OW24061   0.125   4.732   6.522 -0.6378  0.6279 -0.6641
 4143SOL    HW124062   0.116   4.641   6.494 -2.6147  1.2800 -2.1773
 4143SOL    HW224063   0.073   4.731   6.603 -1.9133 -0.6668 -1.4853
 4144SOL     OW24064   0.960   3.098   4.961  0.4950 -0.5963  0.2967
 4144SOL    HW124065   0.914   3.162   5.015  0.5334  1.1982 -1.8150
 4144SOL    HW224066   1.050   3.131   4.949  0.7707 -0.7821  1.8372
 4145SOL     OW24067   3.175   3.558   9.815  0.3021  0.2157  0.0328
 4145SOL    HW124068   3.097   3.611   9.799  1.7040  1.8325 -1.4259
 4145SOL    HW224069   3.141   3.473   9.787  0.9676 -0.6022  1.6977
 4146SOL     OW24070   3.016   4.517   3.551  0.4965 -0.1555 -0.5873
 4146SOL    HW124071   3.063   4.574   3.490 -2.0853  0.4853 -1.9934
 4146SOL    HW224072   2.974   4.452   3.494  1.1502 -0.5412 -0.6329
 4147SOL     OW24073   0.265   3.421   7.149  0.1425 -0.0021 -0.4736
 4147SOL    HW124074   0.222   3.463   7.074 -2.6262  0.0876  1.1780
 4147SOL    HW224075   0.357   3.431   7.127  0.7318  0.0458  1.9780
 4148SOL     OW24076   3.371   2.309   6.507  0.4243  0.3596 -0.0485
 4148SOL    HW124077   3.288   2.279   6.470 -0.3702  1.1711  1.0704
 4148SOL    HW224078   3.417   2.226   6.515 -1.4189 -0.6602 -0.0566
 4149SOL     OW24079   3.457   1.657  17.614 -0.0246  0.4811 -0.2891
 4149SOL    HW124080   3.364   1.636  17.604  0.4387 -1.6628 -0.0303
 4149SOL    HW224081   3.497   1.616  17.537 -0.1003 -2.6327  1.3444
 4150SOL     OW24082   1.459   4.283   4.206 -0.0582 -0.6481  0.5660
 4150SOL    HW124083   1.425   4.254   4.291  0.5155  0.7729  1.2783
 4150SOL    HW224084   1.465   4.374   4.235  2.5658 -1.1794  1.6629
 4151SOL     OW24085   3.876   1.581   4.844  0.6771 -0.0783 -0.6375
 4151SOL    HW124086   3.792   1.602   4.886  1.9633  1.2255  1.2956
 4151SOL    HW224087   3.915   1.532   4.916  0.1415  0.8504  0.2954
 4152SOL     OW24088   4.737   4.697   9.286 -0.2229 -0.8102  0.2061
 4152SOL    HW124089   0.001   4.734   9.374  1.1075  0.9974 -0.6222
 4152SOL    HW224090   0.024   0.032   9.233  0.4401 -0.1632  1.4568
 4153SOL     OW24091   0.239   1.709   1.211 -0.0180 -0.4740  0.4799
 4153SOL    HW124092   0.210   1.668   1.292 -1.9098 -1.3582 -0.6163
 4153SOL    HW224093   0.169   1.676   1.153  0.1673  0.9110 -0.5227
 4154SOL     OW24094   1.391   2.673  13.266  0.4653  0.3680  0.1699
 4154SOL    HW124095   1.351   2.596  13.307  3.2312 -0.8473  0.5511
 4154SOL    HW224096   1.325   2.742  13.277 -0.2785  0.0484 -2.3678
 4155SOL     OW24097   4.470   2.525  11.573  0.6225  0.1454  0.0752
 4155SOL    HW124098   4.438   2.590  11.511  0.0292 -0.9611 -0.7576
 4155SOL    HW224099   4.562   2.550  11.586  0.7534 -0.1072 -0.3921
 4156SOL     OW24100   2.558   0.411   3.596 -0.0572 -0.1816  0.1840
 4156SOL    HW124101   2.653   0.398   3.602  0.2161  1.8089  0.2056
 4156SOL    HW224102   2.543   0.453   3.681 -1.7914  2.3398 -1.3761
 4157SOL     OW24103   3.469   0.930   6.981 -0.4327 -0.1744 -0.6800
 4157SOL    HW124104   3.424   0.976   7.052  2.0642  1.4770 -0.1729
 4157SOL    HW224105   3.551   0.909   7.025 -1.5955 -2.4360  0.4241
 4158SOL     OW24106   1.856   4.170   8.573 -0.6112 -0.3355 -0.2921
 4158SOL    HW124107   1.788   4.127   8.522 -0.4277  0.4914 -1.2338
 4158SOL    HW224108   1.808   4.177   8.656  1.0234 -1.4605  0.7729
 4159SOL     OW24109   3.421   2.178  13.853  0.1133 -0.2597 -0.9209
 4159SOL    HW124110   3.448   2.270  13.858  0.7059 -0.4613 -0.5028
 4159SOL    HW224111   3.325   2.182  13.854  0.0493 -2.7480  1.5588
 4160SOL     OW24112   4.278   2.017   9.642 -0.7810 -0.1061  0.4811
 4160SOL    HW124113   4.236   2.012   9.728 -0.6048  0.0244  0.5755
 4160SOL    HW224114   4.369   1.994   9.660 -0.2574  1.8475  0.2933
 4161SOL     OW24115   2.342   3.652   6.379  0.5001  0.0916 -0.3659
 4161SOL    HW124116   2.389   3.577   6.415 -0.0716  0.6463  1.5403
 4161SOL    HW224117   2.251   3.645   6.410 -1.2416  0.8367 -5.2755
 4162SOL     OW24118   2.826   3.044  13.607  0.1604  0.6731  0.4951
 4162SOL    HW124119   2.748   3.038  13.552 -0.0167  0.1209  0.8167
 4162SOL    HW224120   2.881   3.107  13.560 -1.8752  0.6527 -1.9176
 4163SOL     OW24121   1.103   1.266   8.022 -0.0255  0.5878 -0.2361
 4163SOL    HW124122   1.031   1.226   7.974  0.4114 -0.9087  0.3625
 4163SOL    HW224123   1.064   1.323   8.089  0.6907  1.0182 -0.1799
 4164SOL     OW24124   2.557   4.134   6.455 -0.3359  0.8125  0.2454
 4164SOL    HW124125   2.530   4.119   6.546 -1.6391 -2.1421 -0.6073
 4164SOL    HW224126   2.572   4.044   6.427  0.0082  0.6965  0.7888
 4165SOL     OW24127   1.997   2.952   2.437 -0.0266 -0.0136 -0.2587
 4165SOL    HW124128   1.904   2.944   2.417  0.2211  1.0424 -1.8834
 4165SOL    HW224129   2.014   2.858   2.449  2.1421  0.3229 -0.6449
 4166SOL     OW24130   0.931   0.907   7.068  0.0849 -0.0512  0.5134
 4166SOL    HW124131   0.938   0.897   7.163  1.1148 -0.7401  0.3700
 4166SOL    HW224132   0.882   0.989   7.061  1.3943  0.8075  1.2550
 4167SOL     OW24133   0.779   1.976   4.027 -0.1076  0.4908 -0.2549
 4167SOL    HW124134   0.696   2.000   3.985  0.5164  1.8375 -0.7009
 4167SOL    HW224135   0.744   1.926   4.101 -1.7548  1.3406 -0.4579
 4168SOL     OW24136   0.089   4.540   3.412  0.3902  0.2229  0.0492
 4168SOL    HW124137   0.106   4.452   3.379 -0.8311 -0.5714  1.5706
 4168SOL    HW224138   0.174   4.584   3.399 -0.1912  0.9685 -1.2326
 4169SOL     OW24139   3.219   3.999   8.224  0.6386 -0.0642 -0.9158
 4169SOL    HW124140   3.302   4.045   8.212  0.2910  0.8122  0.0834
 4169SOL    HW224141   3.252   3.921   8.179  1.5112 -0.5632  0.6164
 4170SOL     OW24142   0.674   2.833   0.065  0.7274  0.1238 -0.3073
 4170SOL    HW124143   0.629   2.897   0.119 -2.4609 -3.0962  0.8717
 4170SOL    HW224144   0.720   2.886   0.001 -2.8323  0.9238 -2.1943
 4171SOL     OW24145   4.333   1.403   9.378  0.2088  0.3279 -0.4306
 4171SOL    HW124146   4.250   1.361   9.358 -0.7233  2.8126 -1.7439
 4171SOL    HW224147   4.303   1.493   9.382 -1.6289 -0.2659 -0.9068
 4172SOL     OW24148   0.619   4.538   4.665  0.2129 -0.4181 -0.2331
 4172SOL    HW124149   0.527   4.519   4.679 -0.0765  0.2189 -1.3589
 4172SOL    HW224150   0.628   4.510   4.574 -4.2541  0.4049 -0.9154
 4173SOL     OW24151   4.447   0.945  12.878 -0.0291  0.3858 -0.4069
 4173SOL    HW124152   4.375   0.910  12.930  0.3879  1.5712  0.9586
 4173SOL    HW224153   4.519   0.925  12.938  0.0096  0.5072 -0.4127
 4174SOL     OW24154   4.606   3.477   8.602 -0.0140  0.2848  0.2981
 4174SOL    HW124155   4.604   3.523   8.518  1.0858  0.9513  0.6472
 4174SOL    HW224156   4.612   3.385   8.575 -2.3494  0.7797 -1.9693
 4175SOL     OW24157   0.798   3.144  13.943 -0.1140 -0.0429  0.0542
 4175SOL    HW124158   0.860   3.075  13.972 -0.3770 -1.3796 -2.6106
 4175SOL    HW224159   0.814   3.158  13.850 -0.3027 -1.1837 -0.1528
 4176SOL     OW24160   0.576   3.126  11.726 -0.0440  0.0866  0.6199
 4176SOL    HW124161   0.506   3.185  11.755 -1.6303 -1.8423  0.6722
 4176SOL    HW224162   0.586   3.141  11.632  2.3872 -2.7472  0.4283
 4177SOL     OW24163   3.143   2.045  16.765 -0.3405 -0.0149 -0.2998
 4177SOL    HW124164   3.113   2.127  16.725  2.2173  1.4835  0.8725
 4177SOL    HW224165   3.199   2.008  16.697  0.3582 -0.6804  0.6426
 4178SOL     OW24166   2.367   0.192   7.465 -0.0592  0.0304 -0.1092
 4178SOL    HW124167   2.362   0.161   7.556 -0.3897  0.9455  0.1819
 4178SOL    HW224168   2.283   0.159   7.433 -0.9260  1.1454  0.9942
 4179SOL     OW24169   3.978   1.700   9.264 -0.6456  0.0965  0.0349
 4179SOL    HW124170   3.925   1.714   9.343  1.4919  0.9768  1.2887
 4179SOL    HW224171   3.963   1.611   9.231 -2.3525  0.2818  0.2800
 4180SOL     OW24172   1.729   3.927   8.497  0.4571  0.4406  0.0074
 4180SOL    HW124173   1.709   3.895   8.585  1.1883 -1.7723 -0.6310
 4180SOL    HW224174   1.796   3.873   8.455  1.8005  0.9852  1.4176
 4181SOL     OW24175   4.491   2.721  10.904  0.0252  0.0455  0.1676
 4181SOL    HW124176   4.397   2.711  10.887  0.4903  1.3494 -3.1786
 4181SOL    HW224177   4.499   2.628  10.923  0.6766  0.0008 -0.3161
 4182SOL     OW24178   4.051   4.093   5.855  0.2408  0.2313 -0.2508
 4182SOL    HW124179   4.078   4.059   5.941 -0.4255  3.3867  1.2206
 4182SOL    HW224180   4.035   4.011   5.808 -1.6144  0.3155  0.2298
 4183SOL     OW24181   1.003   0.720   6.756  0.0366  0.3353  0.4560
 4183SOL    HW124182   1.061   0.762   6.818  2.5053 -0.8615 -1.0468
 4183SOL    HW224183   0.919   0.741   6.796 -0.5112  0.0248 -0.5089
 4184SOL     OW24184   2.149   1.571   4.759 -0.2950  0.4149  0.1692
 4184SOL    HW124185   2.230   1.556   4.710  0.5824 -3.9109  2.9471
 4184SOL    HW224186   2.109   1.645   4.714  2.9828  2.1220  0.0704
 4185SOL     OW24187   3.090   3.993   2.755  0.1678  0.1948 -0.3397
 4185SOL    HW124188   2.996   3.989   2.776  0.1896  2.1535  0.1043
 4185SOL    HW224189   3.133   3.918   2.796  1.1605  1.2991  0.6287
 4186SOL     OW24190   2.753   0.851  17.696 -0.3148 -0.5495 -0.3627
 4186SOL    HW124191   2.714   0.848   0.026  1.9695 -1.0047  0.6352
 4186SOL    HW224192   2.674   0.830  17.645 -0.7488 -3.0432  1.3292
 4187SOL     OW24193   4.037   2.909   3.730  0.4770  0.1305 -0.0886
 4187SOL    HW124194   4.106   2.933   3.668  1.9106 -0.4742  1.2967
 4187SOL    HW224195   4.077   2.938   3.812 -0.3339  1.1645 -0.0423
 4188SOL     OW24196   2.645   1.282  11.982  0.3095 -0.4481  0.1842
 4188SOL    HW124197   2.593   1.323  11.913  0.9130  0.4346  0.2500
 4188SOL    HW224198   2.693   1.217  11.931  1.7290 -0.7938  1.9517
 4189SOL     OW24199   1.419   4.227   7.332 -0.2032 -0.0911 -0.0977
 4189SOL    HW124200   1.436   4.296   7.397 -0.1450  0.2538 -0.4768
 4189SOL    HW224201   1.352   4.175   7.376 -0.1922  1.0809  1.2921
 4190SOL     OW24202   2.910   1.345   7.436 -0.7568 -0.4110  0.2473
 4190SOL    HW124203   3.003   1.332   7.419 -0.8761 -0.7721 -0.1243
 4190SOL    HW224204   2.893   1.268   7.491  0.6897  0.0392  1.3271
 4191SOL     OW24205   3.478   0.762  17.456  0.1050  0.2249  0.2807
 4191SOL    HW124206   3.500   0.826  17.389  3.3576 -0.0732  1.0613
 4191SOL    HW224207   3.517   0.799  17.535 -1.6028 -1.2282  1.7877
 4192SOL     OW24208   2.315   3.896   1.419  0.0972 -0.0526 -0.2095
 4192SOL    HW124209   2.273   3.830   1.364 -0.6243 -0.8304  1.2958
 4192SOL    HW224210   2.281   3.978   1.383 -2.5249 -1.8184 -1.7689
 4193SOL     OW24211   1.732   0.276   4.274  0.1551  0.0674  0.0685
 4193SOL    HW124212   1.788   0.349   4.246  0.3423  0.0530  0.3988
 4193SOL    HW224213   1.728   0.230   4.191  0.1845 -0.2629  0.2496
 4194SOL     OW24214   1.794   3.977   1.669 -0.2542 -0.5096 -0.0079
 4194SOL    HW124215   1.781   3.917   1.742  0.7531 -1.3972 -0.5422
 4194SOL    HW224216   1.866   3.934   1.622 -0.7208  0.3737 -1.5409
 4195SOL     OW24217   4.655   0.108  14.178 -0.0583  0.1061 -0.4077
 4195SOL    HW124218   4.591   0.150  14.235 -1.2361 -1.1888 -0.7829
 4195SOL    HW224219   4.659   0.171  14.105  4.1406  1.1490  0.7380
 4196SOL     OW24220   3.575   4.704   2.498 -0.3421 -0.2704 -0.1489
 4196SOL    HW124221   3.664   4.703   2.534  0.7861 -2.4823 -2.9700
 4196SOL    HW224222   3.599   0.021   2.424 -0.0710 -1.8804 -1.3079
 4197SOL     OW24223   3.495   3.270   0.388 -0.6092 -0.2605 -0.3642
 4197SOL    HW124224   3.563   3.317   0.438 -0.8655 -0.7652  0.4606
 4197SOL    HW224225   3.477   3.347   0.334 -1.5994 -1.3046 -1.4947
 4198SOL     OW24226   0.823   3.056   5.285  0.2073  0.1607 -0.1521
 4198SOL    HW124227   0.837   3.126   5.221 -1.9568 -0.0838 -0.9131
 4198SOL    HW224228   0.906   3.050   5.332 -0.8408  1.5706  1.8991
 4199SOL     OW24229   3.573   3.966   3.835  0.1927 -0.4612  0.4871
 4199SOL    HW124230   3.601   3.930   3.751  1.8998  0.7642  0.5064
 4199SOL    HW224231   3.636   4.039   3.841  1.3106 -1.4645  1.0064
 4200SOL     OW24232   0.675   0.014   6.965 -0.9064 -0.8623  0.2062
 4200SOL    HW124233   0.707   4.690   7.029  0.7990 -3.4404 -3.1626
 4200SOL    HW224234   0.712   4.714   6.885 -0.0235 -1.9675  1.1625
 4201SOL     OW24235   1.531   3.468  14.623 -0.3255 -0.9235 -0.3971
 4201SOL    HW124236   1.532   3.564  14.616 -0.9796 -0.8853  0.1474
 4201SOL    HW224237   1.611   3.450  14.573  0.8148 -2.4049  2.0017
 4202SOL     OW24238   4.558   2.372  10.067 -0.6526 -0.1534 -0.0986
 4202SOL    HW124239   4.533   2.335  10.151 -0.6800 -0.1484 -0.1047
 4202SOL    HW224240   4.502   2.450  10.070 -3.3958 -2.1582  0.4141
 4203SOL     OW24241   1.949   4.428   1.493 -0.9720  0.4323  0.1175
 4203SOL    HW124242   1.902   4.347   1.475  0.4527 -0.3843  0.1312
 4203SOL    HW224243   1.998   4.416   1.574 -2.6915  0.6763  1.2100
 4204SOL     OW24244   1.902   0.702   9.271 -0.4160  0.3044  0.7055
 4204SOL    HW124245   1.859   0.625   9.309 -0.1687  0.8995  2.2131
 4204SOL    HW224246   1.832   0.766   9.286  0.2141  1.0086  0.6090
 4205SOL     OW24247   4.587   4.604  15.510 -0.0382  0.1565  0.1698
 4205SOL    HW124248   4.585   4.521  15.557  0.4159  0.0313 -0.0306
 4205SOL    HW224249   4.572   4.557  15.429 -1.5555 -0.4673  0.8194
 4206SOL     OW24250   3.985   2.451   7.515 -1.4633 -0.3805 -0.5797
 4206SOL    HW124251   3.898   2.428   7.480 -0.8770 -1.7165 -1.1786
 4206SOL    HW224252   3.961   2.432   7.606  0.1192 -2.2275 -0.5423
 4207SOL     OW24253   3.644   2.171  12.378  0.0694 -0.1223 -0.2372
 4207SOL    HW124254   3.563   2.223  12.380 -0.9794 -1.7895  0.5119
 4207SOL    HW224255   3.670   2.203  12.292  0.7819 -2.1525 -0.7717
 4208SOL     OW24256   1.049   3.527   7.940  0.4609 -0.3736 -0.5786
 4208SOL    HW124257   0.954   3.530   7.948  0.4276  0.9496 -1.5203
 4208SOL    HW224258   1.067   3.617   7.968  0.4008 -0.9201  1.2156
 4209SOL     OW24259   0.070   3.882   3.520 -0.1260  0.4712 -0.3499
 4209SOL    HW124260   0.115   3.894   3.603 -3.0125 -1.3048  1.4475
 4209SOL    HW224261   0.003   3.817   3.541 -0.6021  0.4421 -1.9368
 4210SOL     OW24262   4.003   2.743   0.414 -0.0011  0.4089 -0.0104
 4210SOL    HW124263   3.948   2.687   0.469  0.2165  0.4480  0.2490
 4210SOL    HW224264   3.976   2.708   0.329  0.8005  0.8719 -0.4590
 4211SOL     OW24265   4.253   3.537   4.055  0.3639 -0.5983  0.0136
 4211SOL    HW124266   4.276   3.504   3.968 -0.8073 -0.9656 -0.1488
 4211SOL    HW224267   4.161   3.559   4.042  0.8129  0.4819 -1.3052
 4212SOL     OW24268   0.150   1.709   3.614  0.4056  0.2375 -0.1023
 4212SOL    HW124269   0.092   1.746   3.681  0.7881 -1.1319  0.9914
 4212SOL    HW224270   0.098   1.637   3.580  2.5051 -1.2953 -0.0638
 4213SOL     OW24271   3.937   0.205  17.238 -0.4360 -0.0511  0.3788
 4213SOL    HW124272   3.951   0.297  17.259  2.4014 -0.6957  1.2703
 4213SOL    HW224273   3.965   0.209  17.146  0.7203  1.4257  0.7944
 4214SOL     OW24274   1.982   0.444   8.247 -0.4875 -0.4881 -0.4204
 4214SOL    HW124275   2.049   0.392   8.203 -0.3849 -2.9403  2.6366
 4214SOL    HW224276   2.016   0.533   8.250 -2.0987  0.1036  0.6983
 4215SOL     OW24277   4.456   0.122   8.161 -0.4682 -0.1526 -0.0939
 4215SOL    HW124278   4.394   0.052   8.142 -0.3591  0.4224 -2.5417
 4215SOL    HW224279   4.537   0.076   8.138 -0.5812 -0.7515  0.7042
 4216SOL     OW24280   4.316   4.241  10.001 -0.3572 -0.0941 -0.6094
 4216SOL    HW124281   4.384   4.185   9.962  0.6625 -0.2304  1.3638
 4216SOL    HW224282   4.235   4.196   9.977 -0.3258  0.2635 -1.3909
 4217SOL     OW24283   1.804   0.707   6.649  0.6830  0.6164  0.3123
 4217SOL    HW124284   1.752   0.664   6.717  1.8164  1.4385  1.7072
 4217SOL    HW224285   1.767   0.664   6.572 -1.1067  0.0359  1.4909
 4218SOL     OW24286   4.642   3.106   4.068 -0.5012  0.0406 -0.2413
 4218SOL    HW124287   4.626   3.200   4.055  0.1747  0.3022  0.7739
 4218SOL    HW224288   4.736   3.107   4.086 -0.3685 -0.5254 -0.9250
 4219SOL     OW24289   3.386   0.566   8.868  0.3516 -0.6191 -0.1011
 4219SOL    HW124290   3.309   0.518   8.898  0.2351 -0.1026  0.4134
 4219SOL    HW224291   3.346   0.641   8.825 -1.7029 -0.8139  1.4599
 4220SOL     OW24292   1.362   4.367  15.347 -0.0187  0.2343  0.5301
 4220SOL    HW124293   1.344   4.309  15.420 -1.3173 -0.3782 -0.2663
 4220SOL    HW224294   1.279   4.360  15.300 -0.6930  0.6736  1.6666
 4221SOL     OW24295   0.629   3.908   8.453  0.3937  0.2421  0.2027
 4221SOL    HW124296   0.619   3.996   8.415  0.1426  0.4847  0.8309
 4221SOL    HW224297   0.700   3.874   8.399 -0.8569  0.8325 -1.7932
 4222SOL     OW24298   1.252   2.010  12.337 -0.4843  0.0444 -0.1844
 4222SOL    HW124299   1.339   1.976  12.359 -1.1098 -1.4027  0.0247
 4222SOL    HW224300   1.185   1.959  12.380 -0.9753 -0.6071 -1.7200
 4223SOL     OW24301   0.828   1.143   7.004 -0.4663  0.1673 -0.4602
 4223SOL    HW124302   0.851   1.228   7.042 -0.7384  0.3244 -0.6532
 4223SOL    HW224303   0.873   1.146   6.920 -1.9059 -3.6534 -1.3538
 4224SOL     OW24304   0.497   2.051  10.050 -0.3475  0.3624 -0.8434
 4224SOL    HW124305   0.481   2.011   9.965 -0.5680  1.5603 -1.3536
 4224SOL    HW224306   0.591   2.072  10.045 -0.1334 -0.2367  0.4477
 4225SOL     OW24307   2.541   4.461  15.641  0.3675  0.0798 -0.1131
 4225SOL    HW124308   2.468   4.432  15.586  0.5501 -2.3447  0.9649
 4225SOL    HW224309   2.539   4.554  15.617 -0.4681 -0.3587 -1.7846
 4226SOL     OW24310   0.404   0.289   4.768 -0.4429  0.1003 -0.3194
 4226SOL    HW124311   0.443   0.354   4.709 -0.3686 -1.5753 -2.1435
 4226SOL    HW224312   0.477   0.260   4.823  0.0751  1.7337 -0.1458
 4227SOL     OW24313   0.609   0.962   4.712  0.2632 -0.1698  0.4449
 4227SOL    HW124314   0.536   0.901   4.723 -0.3798  0.1055 -2.1023
 4227SOL    HW224315   0.678   0.909   4.672  0.2225 -1.0104  1.4859
 4228SOL     OW24316   1.392   2.679   1.967  0.3031 -0.3391  0.5139
 4228SOL    HW124317   1.477   2.679   2.011  1.0739  0.9178 -0.9847
 4228SOL    HW224318   1.417   2.718   1.883  0.5016  0.9569  1.1891
 4229SOL     OW24319   0.101   4.012  17.149  0.4082  0.2613  0.0359
 4229SOL    HW124320   0.065   3.923  17.143 -0.9070  0.6371  2.6587
 4229SOL    HW224321   0.193   3.988  17.156  0.2406 -0.1781  0.6701
 4230SOL     OW24322   0.463   1.302   6.274 -0.0277  0.1710 -0.2155
 4230SOL    HW124323   0.510   1.367   6.326 -0.1840  0.9101 -0.9952
 4230SOL    HW224324   0.487   1.218   6.314  0.0161  0.0209 -0.5559
 4231SOL     OW24325   3.231   4.142  16.701  0.4226  0.4143 -0.1996
 4231SOL    HW124326   3.314   4.102  16.726  0.7372  0.0898 -1.8095
 4231SOL    HW224327   3.234   4.212  16.767  2.3347 -2.1721  2.4438
 4232SOL     OW24328   2.258   1.078   3.373  0.6360  0.2957  0.1236
 4232SOL    HW124329   2.174   1.044   3.343  0.6331  0.2485  0.1857
 4232SOL    HW224330   2.303   1.120   3.300 -3.3567  0.1487 -2.4171
 4233SOL     OW24331   2.920   4.625   6.251  0.1443  0.0273  0.0494
 4233SOL    HW124332   2.876   4.683   6.189 -0.4956 -0.3662  0.1407
 4233SOL    HW224333   2.874   4.642   6.333  1.0913 -1.4443  0.8905
 4234SOL     OW24334   2.481   1.707   5.127  0.4372  0.1709 -0.4903
 4234SOL    HW124335   2.403   1.734   5.175  0.3224  2.2042 -1.8201
 4234SOL    HW224336   2.467   1.754   5.045  0.9681 -0.1731 -0.7835
 4235SOL     OW24337   1.327   1.260  16.207  0.0284 -0.2768 -0.2193
 4235SOL    HW124338   1.341   1.268  16.113 -0.7563  1.3006 -0.2070
 4235SOL    HW224339   1.300   1.349  16.227 -4.0409 -1.2959 -1.1391
 4236SOL     OW24340   0.339   3.830   6.992  0.3205 -0.1143 -0.4120
 4236SOL    HW124341   0.306   3.905   6.942  0.5848 -1.0226 -1.9605
 4236SOL    HW224342   0.292   3.842   7.074  0.2691 -2.2298 -0.1165
 4237SOL     OW24343   1.518   0.505   7.987 -0.8281 -0.6114  0.0396
 4237SOL    HW124344   1.573   0.487   8.062 -0.6015 -1.4430 -0.3240
 4237SOL    HW224345   1.579   0.554   7.932 -1.3494 -1.8957 -1.6731
 4238SOL     OW24346   2.542   0.738   9.533 -0.0451 -0.6966  0.0046
 4238SOL    HW124347   2.569   0.824   9.563  1.2078 -0.6335 -1.2569
 4238SOL    HW224348   2.447   0.745   9.531  0.1714  1.7673 -1.9928
 4239SOL     OW24349   1.173   2.833  12.287 -0.5366  0.2552 -0.6127
 4239SOL    HW124350   1.093   2.781  12.278 -0.7952  0.6768 -0.7848
 4239SOL    HW224351   1.164   2.854  12.380  1.8915 -0.5366 -0.2037
 4240SOL     OW24352   4.458   0.853   7.593 -0.9055 -0.9250 -0.0678
 4240SOL    HW124353   4.476   0.876   7.684  0.3263 -2.4159  0.0687
 4240SOL    HW224354   4.546   0.851   7.554 -0.1884  2.0664  1.3380
 4241SOL     OW24355   0.098   4.135   7.505 -0.0481 -0.3038 -0.1429
 4241SOL    HW124356   0.169   4.175   7.555 -0.6640  3.2634 -2.1667
 4241SOL    HW224357   0.128   4.045   7.490 -2.3169 -1.2527  0.9478
 4242SOL     OW24358   0.086   1.125   1.293  0.4710 -0.2163  0.2213
 4242SOL    HW124359   0.119   1.181   1.362 -0.5965 -0.7947  1.2055
 4242SOL    HW224360   4.730   1.135   1.291  0.3590 -1.1598  0.8632
 4243SOL     OW24361   2.583   1.218   2.661  0.0152  0.2149 -0.2502
 4243SOL    HW124362   2.668   1.174   2.664 -0.7661 -1.1483  2.5548
 4243SOL    HW224363   2.610   1.300   2.621  0.1415  0.8863  1.2169
 4244SOL     OW24364   1.677   1.834   6.773 -0.3376 -0.3433  0.1322
 4244SOL    HW124365   1.758   1.861   6.729 -0.7048  0.9738  0.2603
 4244SOL    HW224366   1.657   1.918   6.815  0.8291  0.2721 -0.5236
 4245SOL     OW24367   4.115   0.463   4.587  0.0966  0.4844  0.6120
 4245SOL    HW124368   4.059   0.452   4.663 -1.6956 -0.7600 -0.8841
 4245SOL    HW224369   4.159   0.543   4.613  3.2849 -1.3558  0.8915
 4246SOL     OW24370   3.588   3.003   5.236  0.3339  0.2321  0.0609
 4246SOL    HW124371   3.528   2.946   5.283  0.2112  0.2414 -0.0865
 4246SOL    HW224372   3.577   3.081   5.289 -1.1090  1.0272 -1.4340
 4247SOL     OW24373   1.265   4.341   7.812 -0.0256  0.3873  0.7191
 4247SOL    HW124374   1.217   4.282   7.753  0.6513  1.2828 -0.7246
 4247SOL    HW224375   1.285   4.283   7.885 -2.0140 -0.2359  0.7627
 4248SOL     OW24376   2.445   0.298   5.509 -0.1328  0.7437 -0.4408
 4248SOL    HW124377   2.454   0.292   5.604  0.4081 -5.9133 -0.8553
 4248SOL    HW224378   2.529   0.336   5.482 -0.5651  1.8267 -0.2476
 4249SOL     OW24379   0.033   1.845   8.395  0.1270 -0.4366  0.4264
 4249SOL    HW124380   0.045   1.811   8.483  0.2463  1.5115  1.1596
 4249SOL    HW224381   4.734   1.931   8.408  1.9759  0.5115 -0.2120
 4250SOL     OW24382   4.269   3.134   1.790  0.0552  0.2202  0.2415
 4250SOL    HW124383   4.189   3.157   1.743 -1.4178 -1.8607  1.7305
 4250SOL    HW224384   4.287   3.222   1.823  2.7577  0.3230 -1.5340
 4251SOL     OW24385   3.727   4.094   5.362 -0.7622  0.1453  0.1960
 4251SOL    HW124386   3.726   4.002   5.337 -1.9209 -0.4160  2.3951
 4251SOL    HW224387   3.690   4.136   5.284  0.6289 -0.9286 -1.0613
 4252SOL     OW24388   0.180   1.267   6.319 -0.3040  0.1941  0.1245
 4252SOL    HW124389   0.266   1.307   6.308  0.1186 -1.6876 -3.4329
 4252SOL    HW224390   0.125   1.339   6.351 -0.7196  0.2961 -0.8076
 4253SOL     OW24391   0.306   0.672   5.835  0.5222  0.5783  0.4903
 4253SOL    HW124392   0.255   0.628   5.767  1.4123  0.9960 -0.4541
 4253SOL    HW224393   0.292   0.766   5.822  0.1993  0.1234 -2.4818
 4254SOL     OW24394   3.746   2.657   6.773 -0.2357 -0.3341  0.3078
 4254SOL    HW124395   3.785   2.608   6.700 -0.5866  1.2900 -0.9569
 4254SOL    HW224396   3.760   2.750   6.752 -0.7673 -0.0999  1.0000
 4255SOL     OW24397   0.650   0.998  17.392 -0.0664 -0.2343  0.4441
 4255SOL    HW124398   0.721   1.001  17.456  0.6951  2.3163 -0.5283
 4255SOL    HW224399   0.664   1.082  17.349  0.4345 -1.1192 -1.0991
 4256SOL     OW24400   3.564   2.527   7.014  0.6001 -0.2642  0.1829
 4256SOL    HW124401   3.480   2.528   6.968  1.4457 -0.6702 -1.3494
 4256SOL    HW224402   3.619   2.565   6.946 -0.3442  2.0752  0.7071
 4257SOL     OW24403   2.068   3.208  12.281  0.6968  0.3056 -0.9648
 4257SOL    HW124404   2.008   3.269  12.237 -0.7567  0.0615  0.6765
 4257SOL    HW224405   2.125   3.264  12.334  0.1821 -2.0619  2.0329
 4258SOL     OW24406   2.154   0.166   4.485  0.1006 -0.3297 -0.2506
 4258SOL    HW124407   2.150   0.214   4.568 -1.4809  0.1858 -0.6365
 4258SOL    HW224408   2.207   0.222   4.429  1.9077 -0.5239  1.2464
 4259SOL     OW24409   2.027   3.418   0.726 -0.0710  0.2857 -0.2118
 4259SOL    HW124410   2.085   3.343   0.742 -1.7168 -1.5558 -3.0780
 4259SOL    HW224411   2.083   3.495   0.717  0.8688 -0.4179 -0.3501
 4260SOL     OW24412   1.136   2.786   8.159  0.6961  0.3845  0.3740
 4260SOL    HW124413   1.138   2.870   8.204  2.6821  0.2850  0.4634
 4260SOL    HW224414   1.226   2.784   8.128  1.1037  2.5784  1.4182
 4261SOL     OW24415   0.497   3.772   4.208  0.4810  0.2750  0.1267
 4261SOL    HW124416   0.536   3.701   4.259  0.0479 -0.8267 -1.0635
 4261SOL    HW224417   0.516   3.848   4.263 -0.4322  1.1785 -0.7907
 4262SOL     OW24418   4.226   1.078   9.495  0.2005  0.2953  0.2693
 4262SOL    HW124419   4.213   1.012   9.427 -1.9268 -0.5446  1.4922
 4262SOL    HW224420   4.318   1.070   9.520 -0.5231 -1.9779  2.2445
 4263SOL     OW24421   4.715   2.792   6.982 -0.4364  0.5487  0.1501
 4263SOL    HW124422   4.722   2.736   6.904 -3.1120  1.0499 -0.4417
 4263SOL    HW224423   4.696   2.728   7.050 -0.3806  1.7162  1.2579
 4264SOL     OW24424   4.486   1.596  16.819 -0.0487  0.8440  0.1702
 4264SOL    HW124425   4.573   1.565  16.843 -0.3990 -2.1084 -2.3864
 4264SOL    HW224426   4.507   1.682  16.783  1.1435  0.2359 -0.5579
 4265SOL     OW24427   4.615   3.386   4.047 -0.2929  0.3091 -0.2903
 4265SOL    HW124428   4.573   3.446   4.108  2.6705 -1.3373  3.2974
 4265SOL    HW224429   4.643   3.437   3.971 -1.0343  1.1507  0.0099
 4266SOL     OW24430   3.728   1.452   5.789 -0.0637  0.6983 -0.0340
 4266SOL    HW124431   3.678   1.516   5.840 -1.8542 -0.6538 -0.0587
 4266SOL    HW224432   3.791   1.506   5.744  0.4132  0.2028  0.0380
 4267SOL     OW24433   4.722   2.857  16.525  0.6220 -0.1171 -0.3249
 4267SOL    HW124434   0.060   2.843  16.471  0.6308 -1.3753  0.0047
 4267SOL    HW224435   4.725   2.951  16.538 -1.0508 -0.6621  3.9362
 4268SOL     OW24436   0.655   2.429   1.769 -0.1289  0.0400 -0.0501
 4268SOL    HW124437   0.727   2.409   1.829 -0.2497 -0.5105 -0.0886
 4268SOL    HW224438   0.599   2.465   1.837 -2.4124 -2.4373 -0.6338
 4269SOL     OW24439   0.346   3.947  17.216  0.1854  0.0129 -0.2129
 4269SOL    HW124440   0.365   3.984  17.302 -2.8314 -1.0491  0.8938
 4269SOL    HW224441   0.435   3.954  17.182  0.2675 -0.0759 -0.0144
 4270SOL     OW24442   4.151   1.257   1.677 -0.5165 -0.1619 -0.5056
 4270SOL    HW124443   4.245   1.268   1.691 -0.4286  1.0862 -2.1724
 4270SOL    HW224444   4.150   1.213   1.592  0.8150 -0.3247 -0.4380
 4271SOL     OW24445   3.429   1.970   5.012 -0.1585 -0.6698  0.1745
 4271SOL    HW124446   3.401   2.054   5.048  0.6164 -0.3359 -0.0018
 4271SOL    HW224447   3.383   1.967   4.927  2.3368 -1.8267 -1.1345
 4272SOL     OW24448   2.686   2.075  12.308 -0.5065  0.4313 -0.5238
 4272SOL    HW124449   2.742   1.997  12.311 -0.3920  0.4903 -1.2721
 4272SOL    HW224450   2.620   2.053  12.374  1.0189  0.8770  1.1515
 4273SOL     OW24451   0.748   0.341  15.332  0.3773  0.5248 -0.0173
 4273SOL    HW124452   0.791   0.404  15.390 -0.1236  1.3851 -0.5920
 4273SOL    HW224453   0.811   0.331  15.261 -0.0589 -1.3333 -0.1487
 4274SOL     OW24454   0.020   2.407   9.549  0.1973  0.0800  0.2949
 4274SOL    HW124455   0.104   2.452   9.558  0.2844  0.0778 -0.4599
 4274SOL    HW224456   4.730   2.400   9.639  0.4655 -0.4890  0.3417
 4275SOL     OW24457   2.155   1.602   4.263  0.1500  0.2836  0.1705
 4275SOL    HW124458   2.170   1.518   4.306 -2.5868  0.3173  1.2188
 4275SOL    HW224459   2.072   1.588   4.217  0.5041 -1.1464 -0.0455
 4276SOL     OW24460   3.982   4.634   4.131 -0.0012  0.3547  0.3443
 4276SOL    HW124461   4.025   4.634   4.045  1.8804 -2.4228  1.2902
 4276SOL    HW224462   4.004   4.715   4.178  0.6131  0.0214  0.6300
 4277SOL     OW24463   0.422   1.242   4.342  0.1576 -0.4917  0.5264
 4277SOL    HW124464   0.467   1.242   4.427  1.0503  0.5129  0.0576
 4277SOL    HW224465   0.337   1.212   4.374  0.2152 -1.5276 -0.3019
 4278SOL     OW24466   0.260   0.069   3.227  0.3632  0.1842  0.1272
 4278SOL    HW124467   0.274   4.733   3.170 -0.7754 -1.3702  1.9290
 4278SOL    HW224468   0.262   0.144   3.168 -0.0762  0.0421 -0.0670
 4279SOL     OW24469   4.110   2.305   7.266 -0.2518  0.1096  0.4715
 4279SOL    HW124470   4.194   2.302   7.220  0.1809  0.0209  1.2482
 4279SOL    HW224471   4.081   2.396   7.267 -2.2353 -0.4990 -1.3627
 4280SOL     OW24472   1.142   0.407   8.964 -0.0749 -0.0296 -0.0482
 4280SOL    HW124473   1.104   0.320   8.972  2.3453 -0.9130  1.9038
 4280SOL    HW224474   1.099   0.435   8.883 -0.5542  3.9247  1.6050
 4281SOL     OW24475   1.857   3.597   1.506  0.1648 -0.0953  0.0385
 4281SOL    HW124476   1.787   3.622   1.446  1.5584  3.3255 -0.1755
 4281SOL    HW224477   1.910   3.677   1.509 -1.0912  0.6886  1.5207
 4282SOL     OW24478   0.269   0.354   8.452  0.4129 -0.0160 -0.2810
 4282SOL    HW124479   0.219   0.277   8.476  1.6151  0.2827  3.0893
 4282SOL    HW224480   0.192   0.408   8.435  0.7551  0.1815 -1.2327
 4283SOL     OW24481   4.485   2.423   7.345 -0.5498  0.2016 -0.1103
 4283SOL    HW124482   4.429   2.406   7.269  1.3245 -1.2524 -1.1701
 4283SOL    HW224483   4.425   2.413   7.418  1.8608  2.1440  2.1202
 4284SOL     OW24484   4.573   2.902   0.079 -0.0967 -0.0874 -0.5987
 4284SOL    HW124485   4.589   2.996   0.072  0.6329 -0.1764 -0.0673
 4284SOL    HW224486   4.480   2.914   0.099 -0.3594 -0.8086 -1.3610
 4285SOL     OW24487   4.679   2.803   3.121  0.1010  0.3675 -0.2272
 4285SOL    HW124488   4.714   2.761   3.199 -0.1098 -0.5561 -0.6291
 4285SOL    HW224489   4.652   2.893   3.143 -1.9612 -0.3326  0.1593
 4286SOL     OW24490   1.506   1.870   9.345 -0.5627  0.4392  0.6734
 4286SOL    HW124491   1.489   1.912   9.429 -0.2643  0.7739  0.5667
 4286SOL    HW224492   1.520   1.948   9.291 -0.1543 -0.9919 -1.2789
 4287SOL     OW24493   0.334   4.446   5.829 -0.3436 -0.2164  0.4666
 4287SOL    HW124494   0.369   4.485   5.749 -2.5258  1.2033  0.1939
 4287SOL    HW224495   0.259   4.504   5.839  0.6291  1.2252 -0.7107
 4288SOL     OW24496   4.507   1.474   5.468 -0.4635  0.7520 -0.3478
 4288SOL    HW124497   4.522   1.510   5.555  1.3026  1.3993 -0.9317
 4288SOL    HW224498   4.535   1.548   5.415  0.0249  0.8134 -0.0071
 4289SOL     OW24499   4.528   0.945   5.738  0.0484 -0.0958 -0.6199
 4289SOL    HW124500   4.573   0.865   5.711  2.6549  0.9417  0.5777
 4289SOL    HW224501   4.465   0.958   5.667 -1.4164 -2.7031  0.2273
 4290SOL     OW24502   3.117   2.615   6.421  0.1434 -0.1528 -0.1820
 4290SOL    HW124503   3.109   2.708   6.440  0.5373 -0.1434 -0.0721
 4290SOL    HW224504   3.208   2.620   6.450  0.7176  3.9295 -2.6543
 4291SOL     OW24505   0.826   1.669  17.518 -0.3700 -0.1897 -0.1619
 4291SOL    HW124506   0.767   1.681  17.592 -0.2060 -1.7423  0.2303
 4291SOL    HW224507   0.825   1.574  17.506  0.1598  0.1412 -2.7176
 4292SOL     OW24508   3.677   0.133   2.312  0.1365 -0.3539 -0.7601
 4292SOL    HW124509   3.595   0.151   2.265  0.4775  0.8643 -0.8816
 4292SOL    HW224510   3.733   0.173   2.245  0.4491  0.7942  0.2044
 4293SOL     OW24511   0.241   1.961  17.599 -0.3396  0.1164 -0.0840
 4293SOL    HW124512   0.152   1.929  17.616 -0.4148  1.1354  1.4476
 4293SOL    HW224513   0.249   2.039  17.653  2.6418 -0.6688  0.5962
 4294SOL     OW24514   2.925   0.853   1.726 -0.4347 -0.0006  0.2372
 4294SOL    HW124515   2.955   0.826   1.813  2.3578  1.3642 -0.2977
 4294SOL    HW224516   2.845   0.901   1.747 -0.6655 -0.2199 -0.1358
 4295SOL     OW24517   4.150   3.442  14.483  0.4158  0.0396 -0.1542
 4295SOL    HW124518   4.082   3.501  14.450 -0.2889 -0.7353 -0.0681
 4295SOL    HW224519   4.129   3.424  14.575  1.4118 -0.8246 -0.0982
 4296SOL     OW24520   4.726   3.797   2.593 -0.6194  0.5557 -0.3134
 4296SOL    HW124521   4.645   3.827   2.633 -0.7968  0.5835 -0.6939
 4296SOL    HW224522   0.032   3.879   2.609 -0.0237  0.4318 -1.3771
 4297SOL     OW24523   2.197   4.267   5.208 -0.2642  0.0405 -1.0638
 4297SOL    HW124524   2.121   4.219   5.241  1.5235 -0.5422  2.1345
 4297SOL    HW224525   2.177   4.253   5.115 -3.7753 -2.6146  0.0682
 4298SOL     OW24526   3.994   2.234   6.713 -0.6916  0.7302  0.0123
 4298SOL    HW124527   3.953   2.220   6.799  1.6085  2.3712  1.3876
 4298SOL    HW224528   4.083   2.256   6.741 -0.9446  1.3770  0.3038
 4299SOL     OW24529   1.077   1.214  17.368 -0.2632  0.1356  0.5427
 4299SOL    HW124530   0.992   1.234  17.407  0.2243  0.9791  1.1729
 4299SOL    HW224531   1.056   1.155  17.296 -0.6000 -0.2221  0.9361
 4300SOL     OW24532   0.027   0.606  14.886  0.1049  0.4221 -0.2026
 4300SOL    HW124533   4.672   0.609  14.899  0.4005 -1.3652  2.3721
 4300SOL    HW224534   0.063   0.558  14.960 -0.0234 -0.0172 -0.4246
 4301SOL     OW24535   0.321   2.117   4.764 -0.2659  0.5813  0.2230
 4301SOL    HW124536   0.248   2.169   4.732  1.5908  1.9967 -1.7505
 4301SOL    HW224537   0.368   2.104   4.681  0.1052 -2.3072  0.8861
 4302SOL     OW24538   1.674   2.681   2.029 -0.3481  0.3385  0.0540
 4302SOL    HW124539   1.759   2.690   2.073  0.0354  0.1343 -0.6340
 4302SOL    HW224540   1.696   2.614   1.965 -1.0132 -0.7367  0.9637
 4303SOL     OW24541   1.587   0.753   3.843  0.1984  0.7607 -0.4399
 4303SOL    HW124542   1.543   0.837   3.846  0.8262  0.9492  2.7822
 4303SOL    HW224543   1.550   0.716   3.763 -1.8488 -0.7813  1.2123
 4304SOL     OW24544   3.442   1.964  16.844 -0.3757 -0.1016  0.0970
 4304SOL    HW124545   3.349   1.988  16.840 -0.4296 -0.5462 -1.3366
 4304SOL    HW224546   3.467   2.017  16.769 -0.4223  1.6649  1.3241
 4305SOL     OW24547   1.487   4.041   9.870 -0.0824  0.1738 -0.1347
 4305SOL    HW124548   1.564   3.988   9.849 -2.5401 -3.2546 -0.3637
 4305SOL    HW224549   1.507   4.121   9.820  3.9215  0.8712  2.4814
 4306SOL     OW24550   1.595   4.727   3.584 -0.2340  0.4385  0.8266
 4306SOL    HW124551   1.661   4.693   3.523 -0.4341 -0.3991  1.0866
 4306SOL    HW224552   1.610   0.080   3.563 -2.0555  0.1246 -1.8637
 4307SOL     OW24553   3.185   1.283  15.663  0.0421 -0.1293  0.2177
 4307SOL    HW124554   3.215   1.211  15.719  1.5576  0.3487  0.0113
 4307SOL    HW224555   3.246   1.286  15.590  0.3034 -0.2830  0.4272
 4308SOL     OW24556   3.770   0.652   2.952  0.1891  0.5703  0.3024
 4308SOL    HW124557   3.805   0.737   2.926  1.9519 -0.5916 -1.1036
 4308SOL    HW224558   3.855   0.624   2.986 -0.5970  0.6225  2.3504
 4309SOL     OW24559   4.149   3.247   8.248 -1.0273  0.2841 -0.2876
 4309SOL    HW124560   4.242   3.270   8.240 -0.5844 -1.2444  0.4669
 4309SOL    HW224561   4.150   3.176   8.311 -0.4385 -0.3876 -1.0499
 4310SOL     OW24562   4.364   3.512   5.669 -0.1424  0.2689 -0.2351
 4310SOL    HW124563   4.353   3.526   5.575  0.3067  0.2911 -0.2821
 4310SOL    HW224564   4.345   3.597   5.708  1.9558  0.1554  1.0265
 4311SOL     OW24565   2.420   3.786   4.866  0.1712  0.1859 -0.1026
 4311SOL    HW124566   2.473   3.716   4.904  2.3550  1.0100 -1.6695
 4311SOL    HW224567   2.382   3.825   4.945  2.5427  0.2200  1.0372
 4312SOL     OW24568   0.864   0.682   8.673  0.6142  0.2618 -0.6613
 4312SOL    HW124569   0.814   0.749   8.719  0.0007 -1.0911  0.6183
 4312SOL    HW224570   0.795   0.636   8.624  1.1977  0.1212 -1.3554
 4313SOL     OW24571   3.490   1.223  16.973  0.0257  0.0968  0.4889
 4313SOL    HW124572   3.583   1.220  16.996 -0.5595 -2.0806  2.6539
 4313SOL    HW224573   3.494   1.309  16.932 -0.4191 -0.6205 -1.0566
 4314SOL     OW24574   4.523   1.561   6.013 -0.1826 -0.1173  0.1834
 4314SOL    HW124575   4.536   1.479   6.060  2.1483  1.4805  2.3738
 4314SOL    HW224576   4.436   1.593   6.035 -0.5995 -1.6515  0.7198
 4315SOL     OW24577   0.635   2.032  15.768 -0.3101  0.1384 -0.8469
 4315SOL    HW124578   0.680   2.114  15.751 -0.0464  0.2285  0.2974
 4315SOL    HW224579   0.683   1.977  15.706  1.6031  0.3546  0.4348
 4316SOL     OW24580   4.729   1.557   2.746  0.0966  0.1310  0.0461
 4316SOL    HW124581   4.684   1.628   2.792  0.7983  0.2606  0.5277
 4316SOL    HW224582   4.661   1.490   2.735  0.5762 -0.1785 -0.9992
 4317SOL     OW24583   3.302   3.462   6.185 -0.7397  0.4446  0.6069
 4317SOL    HW124584   3.228   3.429   6.133 -0.3840  1.3148 -0.4500
 4317SOL    HW224585   3.340   3.377   6.209 -1.8880 -0.2387  0.0216
 4318SOL     OW24586   4.194   3.608   1.089  0.3766 -0.4718  0.1615
 4318SOL    HW124587   4.105   3.642   1.088  0.4613 -0.2508  0.0913
 4318SOL    HW224588   4.230   3.662   1.159 -1.4992 -0.4101  1.0790
 4319SOL     OW24589   2.181   4.074  14.480  0.0562 -0.2955 -0.3403
 4319SOL    HW124590   2.203   4.045  14.391 -2.4277  1.0409 -1.3844
 4319SOL    HW224591   2.142   4.161  14.470  1.4986  0.4044  0.1188
 4320SOL     OW24592   0.341   1.513   7.238 -0.1182  0.4650 -0.3566
 4320SOL    HW124593   0.320   1.420   7.234  2.7553 -0.2433  0.7961
 4320SOL    HW224594   0.274   1.550   7.296  0.8394  1.3480  0.2001
 4321SOL     OW24595   1.297   4.579  13.192  0.1300  0.0867  0.5352
 4321SOL    HW124596   1.393   4.581  13.195  0.1483  0.0121 -0.0564
 4321SOL    HW224597   1.269   4.616  13.276  0.6346  1.9140 -0.0980
 4322SOL     OW24598   3.154   3.448   5.034  0.3314  0.0286 -0.7723
 4322SOL    HW124599   3.140   3.540   5.011  1.1943  0.7363  1.5173
 4322SOL    HW224600   3.211   3.458   5.110 -1.0532  1.6726  0.0676
 4323SOL     OW24601   3.669   2.189   3.511  0.6239  0.0432  0.1152
 4323SOL    HW124602   3.722   2.225   3.582  1.0081 -1.2976  0.5181
 4323SOL    HW224603   3.734   2.165   3.444 -0.9679  1.6168 -2.0064
 4324SOL     OW24604   3.790   3.363  10.602  0.0769  0.3378 -0.5397
 4324SOL    HW124605   3.796   3.450  10.642 -1.5111 -0.4290  1.4220
 4324SOL    HW224606   3.736   3.322  10.670  0.3420  0.4738 -0.2443
 4325SOL     OW24607   3.796   4.015   2.974  0.2843 -0.3592  0.6541
 4325SOL    HW124608   3.758   4.003   2.887 -1.4593 -2.0145  1.6146
 4325SOL    HW224609   3.748   4.095   2.996  0.9048  0.5383 -1.3065
 4326SOL     OW24610   1.788   0.802   2.202  0.4194 -0.1066  0.3779
 4326SOL    HW124611   1.876   0.770   2.182 -0.1263 -1.4330  0.0378
 4326SOL    HW224612   1.747   0.735   2.257 -1.1358  2.1170  1.8815
 4327SOL     OW24613   2.365   2.935   1.623  0.0978  0.3738  0.0507
 4327SOL    HW124614   2.287   2.971   1.667 -0.0030 -1.4812  1.3811
 4327SOL    HW224615   2.395   3.014   1.579  1.4843 -0.2371 -0.0943
 4328SOL     OW24616   2.899   2.461   6.147  0.2039  0.0596 -0.3351
 4328SOL    HW124617   2.894   2.527   6.077  1.2768  1.3416  0.7954
 4328SOL    HW224618   2.816   2.418   6.129 -0.0792  0.5929 -0.3012
 4329SOL     OW24619   0.464   4.377   8.550 -0.0672  0.6846 -0.1603
 4329SOL    HW124620   0.423   4.403   8.632 -0.1704 -0.4992  0.1689
 4329SOL    HW224621   0.478   4.285   8.573  1.0535  0.1169 -3.0807
 4330SOL     OW24622   0.007   4.566  13.018 -0.9124  0.3469  0.1781
 4330SOL    HW124623   4.672   4.624  13.035  0.0194  0.9517  2.2853
 4330SOL    HW224624   0.042   4.612  12.942 -2.4932  1.5947  0.2024
 4331SOL     OW24625   4.255   4.665   4.897 -0.4964 -0.6089  0.0050
 4331SOL    HW124626   4.235   0.018   4.893 -1.3633 -0.7144  1.7315
 4331SOL    HW224627   4.342   4.667   4.858  0.7097 -0.3727  2.6724
 4332SOL     OW24628   0.253   2.567  14.153  0.3895 -0.0021  0.4833
 4332SOL    HW124629   0.182   2.539  14.094 -0.7697  1.2546  1.2732
 4332SOL    HW224630   0.221   2.649  14.191 -0.2643 -0.7729  1.5899
 4333SOL     OW24631   0.646   2.326  14.318  0.5247 -0.1423  0.1838
 4333SOL    HW124632   0.553   2.308  14.304  1.2789 -2.8950 -1.3684
 4333SOL    HW224633   0.690   2.298  14.238  2.1919  1.0871  0.6612
 4334SOL     OW24634   0.838   1.815   9.324  0.5230  0.4115 -0.2862
 4334SOL    HW124635   0.761   1.870   9.308  1.8328  2.8396  1.7667
 4334SOL    HW224636   0.815   1.761   9.249  0.6127 -1.5088  1.0626
 4335SOL     OW24637   3.729   1.177   8.288 -0.1221  0.1136  0.5635
 4335SOL    HW124638   3.722   1.085   8.315 -0.8555 -0.3069 -1.1188
 4335SOL    HW224639   3.743   1.231   8.366  0.1118  0.3294  0.3726
 4336SOL     OW24640   2.580   0.874   4.656 -0.1661  0.1182  0.3622
 4336SOL    HW124641   2.572   0.831   4.571 -1.1731 -0.1148  0.5661
 4336SOL    HW224642   2.614   0.796   4.700 -3.0532 -0.7866  1.0445
 4337SOL     OW24643   3.151   0.000  12.525 -0.3314  1.0035  0.1669
 4337SOL    HW124644   3.205   4.736  12.446 -0.5757 -1.8010  0.1509
 4337SOL    HW224645   3.063   4.734  12.487 -0.5485 -1.1786  1.0224
 4338SOL     OW24646   1.071   1.954   8.653 -0.3437  0.2580  0.3634
 4338SOL    HW124647   1.140   2.019   8.641 -1.1266  0.9357 -0.4922
 4338SOL    HW224648   0.996   2.013   8.664 -0.4776 -0.1216  1.4267
 4339SOL     OW24649   1.901   0.309   7.675 -0.5146 -0.2455 -0.3325
 4339SOL    HW124650   1.829   0.357   7.714 -1.3995 -0.8926 -1.1825
 4339SOL    HW224651   1.893   0.222   7.716 -2.5239 -0.0342 -0.2817
 4340SOL     OW24652   1.025   2.282   8.062 -0.1053  0.3898 -0.1684
 4340SOL    HW124653   1.000   2.189   8.058  1.3900  0.0904 -2.4203
 4340SOL    HW224654   0.943   2.322   8.091 -0.8670 -0.9225 -0.5110
 4341SOL     OW24655   2.752   1.261   8.508 -0.4013 -0.2535  0.5454
 4341SOL    HW124656   2.714   1.347   8.528 -0.9172 -0.2642 -0.3940
 4341SOL    HW224657   2.802   1.283   8.429  0.3725  2.3048  1.7585
 4342SOL     OW24658   3.926   1.428  16.003  0.3004 -0.1575 -0.0336
 4342SOL    HW124659   4.005   1.429  16.056  1.7356 -1.5232 -2.1617
 4342SOL    HW224660   3.966   1.447  15.918 -1.4007  0.5962 -0.6816
 4343SOL     OW24661   2.175   2.663   5.415 -0.1861 -0.0154 -0.3047
 4343SOL    HW124662   2.260   2.665   5.460 -1.7268  0.5882  2.5618
 4343SOL    HW224663   2.181   2.754   5.387 -1.5917 -0.1242 -0.9353
 4344SOL     OW24664   3.024   1.186  11.054  0.1940  0.1395  0.1288
 4344SOL    HW124665   2.931   1.188  11.079  0.5534 -1.0333  1.5819
 4344SOL    HW224666   3.079   1.183  11.132 -2.7541  1.5924  2.2748
 4345SOL     OW24667   0.175   3.736   7.731 -0.5895  0.3485  0.4033
 4345SOL    HW124668   0.210   3.684   7.803 -2.3140 -0.0236  0.9614
 4345SOL    HW224669   0.088   3.756   7.765  0.0688  0.4181  2.0635
 4346SOL     OW24670   2.846   1.731   5.142 -0.1472  0.0820 -0.1189
 4346SOL    HW124671   2.797   1.649   5.134  0.4368 -0.3137  0.3510
 4346SOL    HW224672   2.775   1.789   5.115 -1.0798 -0.6006  0.8025
 4347SOL     OW24673   3.908   0.108   5.997 -0.4412 -0.0589 -0.8927
 4347SOL    HW124674   3.870   0.165   5.930 -1.4234 -1.0740 -1.1903
 4347SOL    HW224675   3.953   0.047   5.938  0.5920  1.1581 -1.3719
 4348SOL     OW24676   0.638   0.878   8.299 -0.7711  0.2213 -0.2536
 4348SOL    HW124677   0.638   0.820   8.222  0.6773  3.5254 -2.7516
 4348SOL    HW224678   0.654   0.812   8.367 -3.4047 -1.6775 -1.4472
 4349SOL     OW24679   0.956   3.846   5.493 -0.1041  0.0007 -0.1506
 4349SOL    HW124680   0.995   3.927   5.458  0.0288  0.2428  0.5566
 4349SOL    HW224681   0.939   3.800   5.411 -0.7217  1.2967 -0.7570
 4350SOL     OW24682   3.923   0.642   1.098  0.3444  0.3293 -0.7758
 4350SOL    HW124683   3.897   0.709   1.161  1.8839  0.1731  0.0121
 4350SOL    HW224684   3.841   0.637   1.048 -0.6756  1.1832  0.8355
 4351SOL     OW24685   0.980   2.402   6.529 -0.1937  0.2496  0.5582
 4351SOL    HW124686   0.905   2.454   6.559  1.3670  1.5333  2.2371
 4351SOL    HW224687   0.971   2.336   6.598  1.5223 -1.6972 -1.0951
 4352SOL     OW24688   3.854   2.178   0.048  0.4533 -0.0862  0.3731
 4352SOL    HW124689   3.906   2.119  17.751  1.0334  0.7119  0.0755
 4352SOL    HW224690   3.903   2.260   0.044  0.3649 -0.1564 -2.3607
 4353SOL     OW24691   3.489   2.568  17.622  0.2951 -0.3607 -0.0237
 4353SOL    HW124692   3.494   2.536  17.712  3.8557 -0.7565 -0.3590
 4353SOL    HW224693   3.503   2.486  17.573  2.6992 -0.1210  0.2807
 4354SOL     OW24694   2.881   0.371   8.414 -0.3131  0.2207  0.7621
 4354SOL    HW124695   2.859   0.362   8.507 -1.0055  0.3215  0.6030
 4354SOL    HW224696   2.972   0.394   8.434 -1.1463  3.6514  0.4919
 4355SOL     OW24697   3.758   4.688   6.512  0.9521 -0.2919 -0.1587
 4355SOL    HW124698   3.769   0.036   6.547  1.3419 -1.1074  1.7564
 4355SOL    HW224699   3.850   4.670   6.491  1.0919 -0.5030  0.6267
 4356SOL     OW24700   4.189   3.308   9.498  0.4512  0.5825 -0.0228
 4356SOL    HW124701   4.102   3.300   9.458  0.9399  0.8542 -1.1583
 4356SOL    HW224702   4.223   3.221   9.475  0.4340  0.6298 -0.2270
 4357SOL     OW24703   4.600   4.569   0.267  0.1444  0.0379  0.7629
 4357SOL    HW124704   4.540   4.639   0.295  0.1952  0.3121  0.1957
 4357SOL    HW224705   4.686   4.588   0.304 -0.5685  1.0037  1.9253
 4358SOL     OW24706   4.271   3.763   5.701 -0.0142  0.5996 -0.5913
 4358SOL    HW124707   4.284   3.792   5.611 -0.1670  1.1704 -0.4277
 4358SOL    HW224708   4.213   3.833   5.731  1.3305  0.2871  2.7993
 4359SOL     OW24709   1.510   3.271   3.777  0.1022 -0.1158 -0.0962
 4359SOL    HW124710   1.415   3.285   3.772  0.5547  3.7427  2.2721
 4359SOL    HW224711   1.542   3.332   3.844  1.8696  0.6894 -1.6859
 4360SOL     OW24712   2.537   2.540   9.130  0.0420  0.3706  0.2383
 4360SOL    HW124713   2.584   2.457   9.139  0.5112  0.8360  1.9179
 4360SOL    HW224714   2.473   2.533   9.201 -2.4756  0.5950 -2.0080
 4361SOL     OW24715   3.425   3.364  16.113 -0.1436  0.0214 -0.2413
 4361SOL    HW124716   3.384   3.450  16.116 -1.9367 -0.8606  0.2183
 4361SOL    HW224717   3.398   3.320  16.194 -0.3708 -0.5530 -0.6349
 4362SOL     OW24718   3.958   2.957  14.443 -0.7512 -0.0084  0.1045
 4362SOL    HW124719   3.880   2.967  14.497 -0.4685 -1.0768  0.7109
 4362SOL    HW224720   3.955   2.864  14.423  1.1452  0.0083 -0.2886
 4363SOL     OW24721   3.614   3.096  16.024  0.6125  0.1327 -0.3901
 4363SOL    HW124722   3.611   3.101  16.120  0.2906  1.8823 -0.4958
 4363SOL    HW224723   3.699   3.061  15.999 -0.6843 -2.1494 -1.6106
 4364SOL     OW24724   4.161   4.318  11.731 -0.1297 -0.9127 -0.2708
 4364SOL    HW124725   4.065   4.322  11.735 -0.0021  1.5432  0.7538
 4364SOL    HW224726   4.184   4.411  11.729 -0.9636 -0.6812  0.7032
 4365SOL     OW24727   0.368   0.442   9.551 -0.1243  0.1237 -0.1563
 4365SOL    HW124728   0.327   0.370   9.597 -1.0123  1.0257  0.4527
 4365SOL    HW224729   0.350   0.515   9.610  0.5767  0.2089 -0.0436
 4366SOL     OW24730   0.941   0.067   2.394 -0.8418 -0.0865 -0.0576
 4366SOL    HW124731   0.912   0.027   2.312 -1.5238  0.3824 -0.0405
 4366SOL    HW224732   0.931   4.731   2.452  0.2977 -0.8048 -0.7999
 4367SOL     OW24733   1.401   4.263   3.049 -0.1936 -0.1569  0.0590
 4367SOL    HW124734   1.454   4.223   3.118  0.1691  1.5514  0.7619
 4367SOL    HW224735   1.459   4.263   2.973 -1.7974 -1.0298 -1.1854
 4368SOL     OW24736   2.160   3.098   1.726  0.5115 -0.0290  0.1727
 4368SOL    HW124737   2.164   3.148   1.645 -0.7549 -0.0443  0.1082
 4368SOL    HW224738   2.128   3.166   1.786  2.7268  2.6406 -1.6979
 4369SOL     OW24739   3.427   1.214  11.668 -0.3193  0.6279  0.1459
 4369SOL    HW124740   3.436   1.262  11.750  0.4813  0.0496  0.3944
 4369SOL    HW224741   3.362   1.145  11.679 -0.1157  0.1786 -1.3580
 4370SOL     OW24742   1.420   1.202   1.461  0.0084 -0.5363  0.1406
 4370SOL    HW124743   1.474   1.123   1.457 -2.0744 -1.9493 -0.3599
 4370SOL    HW224744   1.343   1.160   1.499 -0.1496  0.0994  0.5167
 4371SOL     OW24745   4.284   2.430   4.836 -0.0707  0.4472  0.3632
 4371SOL    HW124746   4.363   2.387   4.869  2.9854  2.1243 -4.8077
 4371SOL    HW224747   4.242   2.354   4.796  0.5053 -0.0056  0.6217
 4372SOL     OW24748   3.284   1.690   0.702 -0.9706 -0.3525 -0.0413
 4372SOL    HW124749   3.327   1.743   0.769  0.3365  0.4248 -1.4936
 4372SOL    HW224750   3.347   1.699   0.631 -0.3185 -3.9778  0.0717
 4373SOL     OW24751   0.414   1.338   1.939  0.8504 -0.0050  0.1549
 4373SOL    HW124752   0.432   1.260   1.991  0.1772 -0.5377 -0.4093
 4373SOL    HW224753   0.333   1.324   1.890  0.8719  2.1607 -0.5124
 4374SOL     OW24754   2.491   1.291   1.310  0.2031 -0.2673 -0.3975
 4374SOL    HW124755   2.558   1.263   1.373 -0.3274  0.7040  0.6024
 4374SOL    HW224756   2.550   1.337   1.251  1.0826  0.2507  0.8818
 4375SOL     OW24757   4.178   1.910   4.845  0.7131 -0.3421 -0.8655
 4375SOL    HW124758   4.188   1.831   4.898 -1.2906 -0.9366 -1.3820
 4375SOL    HW224759   4.142   1.981   4.898  0.9777  0.1374 -1.3323
 4376SOL     OW24760   3.141   4.311   7.815  0.5020  0.1143  0.2557
 4376SOL    HW124761   3.208   4.356   7.866  0.0072  2.7846 -1.4245
 4376SOL    HW224762   3.111   4.246   7.878  0.7764 -0.0948  0.1719
 4377SOL     OW24763   2.134   1.139   3.681  0.4542 -0.8073 -0.5161
 4377SOL    HW124764   2.142   1.123   3.586  1.0654 -2.6680 -0.1648
 4377SOL    HW224765   2.220   1.109   3.709  0.7498  1.9235  1.4438
 4378SOL     OW24766   2.752   3.557   2.387 -0.3589  0.3735  0.2377
 4378SOL    HW124767   2.808   3.632   2.368 -0.0942  0.7050  2.3903
 4378SOL    HW224768   2.785   3.492   2.324 -0.6029  0.2095  0.2757
 4379SOL     OW24769   4.593   3.107   3.055  0.0168 -0.3819  0.2133
 4379SOL    HW124770   4.508   3.091   3.095  0.0371 -0.8173  0.0811
 4379SOL    HW224771   4.638   3.152   3.127  0.4458 -2.0077  0.9644
 4380SOL     OW24772   1.341   2.073   8.542  0.2826  0.0785  0.3453
 4380SOL    HW124773   1.287   2.048   8.467  0.2467  1.5368 -0.1285
 4380SOL    HW224774   1.402   2.133   8.497  0.4923  0.1293  0.6991
 4381SOL     OW24775   2.985   0.526  17.142  1.0137  0.3352  0.1178
 4381SOL    HW124776   3.073   0.494  17.124  1.5581  1.8759  0.0327
 4381SOL    HW224777   2.994   0.620  17.125  0.1881  0.4905  0.5210
 4382SOL     OW24778   3.303   2.542   6.942  0.1309 -0.0598  0.3579
 4382SOL    HW124779   3.295   2.580   6.854  0.7798  1.0208  0.7636
 4382SOL    HW224780   3.264   2.456   6.928  0.0752 -0.6926  4.4056
 4383SOL     OW24781   3.529   2.475   0.684 -0.4107 -0.1407 -0.1345
 4383SOL    HW124782   3.593   2.416   0.724 -0.4090 -0.4784 -0.6278
 4383SOL    HW224783   3.468   2.489   0.756  0.4168 -2.8143  1.1106
 4384SOL     OW24784   1.527   0.184   5.500  0.2544  0.2765  0.1575
 4384SOL    HW124785   1.566   0.269   5.478 -1.8521  1.0958 -0.3794
 4384SOL    HW224786   1.435   0.208   5.509 -0.2000 -1.0056 -1.0903
 4385SOL     OW24787   1.190   4.665   4.759 -0.1540 -0.3114 -0.1910
 4385SOL    HW124788   1.270   4.700   4.799 -0.3751  0.8864 -0.8001
 4385SOL    HW224789   1.139   4.740   4.790 -1.0618 -0.5044 -1.2477
 4386SOL     OW24790   3.549   3.840   8.105  0.2212  0.0375  0.0101
 4386SOL    HW124791   3.463   3.832   8.064  0.7778 -0.5903 -1.0494
 4386SOL    HW224792   3.529   3.839   8.199  3.2266  0.3419  0.6600
 4387SOL     OW24793   1.837   3.437   1.836  0.9820 -0.0671  0.0509
 4387SOL    HW124794   1.814   3.528   1.817  0.9236  0.3220  1.9115
 4387SOL    HW224795   1.757   3.398   1.870 -0.6839  2.0980 -1.3950
 4388SOL     OW24796   3.997   0.616   9.291 -0.8962  0.3548 -0.0352
 4388SOL    HW124797   3.925   0.602   9.353 -0.3833  0.1910  0.5295
 4388SOL    HW224798   4.015   0.525   9.269  0.1269  0.1005  1.8625
 4389SOL     OW24799   4.658   3.791   8.137 -0.3128 -0.2912  0.1297
 4389SOL    HW124800   4.605   3.809   8.214 -1.7983 -1.1598 -0.6874
 4389SOL    HW224801   0.002   3.801   8.182 -1.4207  1.4005  1.8167
 4390SOL     OW24802   3.573   0.149   0.197  0.1714 -0.0804  0.2338
 4390SOL    HW124803   3.535   0.062   0.202  1.3204 -0.5496  0.8873
 4390SOL    HW224804   3.666   0.129   0.181  0.0939  0.0582 -0.4116
 4391SOL     OW24805   1.671   0.140   8.408  0.1409 -0.4120 -0.1481
 4391SOL    HW124806   1.689   0.046   8.403 -0.2929 -0.4025 -2.0513
 4391SOL    HW224807   1.753   0.167   8.366 -0.3723  1.9602  0.3825
 4392SOL     OW24808   2.815   3.452   6.218 -0.5314 -0.0856  0.1445
 4392SOL    HW124809   2.762   3.372   6.216  1.3338 -1.3450  2.0122
 4392SOL    HW224810   2.770   3.494   6.144  0.1290 -0.1408 -0.2924
 4393SOL     OW24811   1.114   2.800   6.960 -0.3096 -0.1374 -0.1328
 4393SOL    HW124812   1.102   2.740   7.033  1.2271  0.9191  0.9825
 4393SOL    HW224813   1.163   2.866   7.010  0.9543 -3.3330  2.8522
 4394SOL     OW24814   1.560   1.613   5.693  0.0617  0.5448 -0.2970
 4394SOL    HW124815   1.474   1.638   5.660 -0.5310 -3.0963 -1.5010
 4394SOL    HW224816   1.539   1.616   5.787  2.3645  0.3424  0.2250
 4395SOL     OW24817   3.982   3.829   5.726  0.3083 -0.1831 -0.0417
 4395SOL    HW124818   4.009   3.747   5.767 -1.5545 -1.1344 -0.7364
 4395SOL    HW224819   3.944   3.789   5.648 -0.7498 -1.8612  1.3394
 4396SOL     OW24820   0.625   0.137   6.187  0.3097  0.0999 -0.0754
 4396SOL    HW124821   0.689   0.203   6.215 -1.0680  0.9641  1.0523
 4396SOL    HW224822   0.595   0.093   6.267  1.4068 -0.7640 -0.1356
 4397SOL     OW24823   1.458   1.599   9.379  0.0365  0.6405  0.6730
 4397SOL    HW124824   1.474   1.693   9.386 -0.6927  0.8007  0.2507
 4397SOL    HW224825   1.430   1.595   9.287 -0.9873  2.2578  0.9122
 4398SOL     OW24826   3.674   2.298   5.197  0.8283 -0.2337 -0.2967
 4398SOL    HW124827   3.647   2.299   5.105  0.7352 -1.4186 -0.2772
 4398SOL    HW224828   3.633   2.383   5.214  1.3219  0.0570 -0.5725
 4399SOL     OW24829   0.853   2.591   6.822  0.2530  0.2112  0.2287
 4399SOL    HW124830   0.854   2.619   6.730  2.1854  1.8546  0.7402
 4399SOL    HW224831   0.776   2.639   6.852 -0.6568 -0.6808 -0.6995
 4400SOL     OW24832   2.517   0.256   2.820 -0.0748 -0.1926 -0.4123
 4400SOL    HW124833   2.565   0.180   2.786  0.7245  1.4451 -2.8805
 4400SOL    HW224834   2.432   0.263   2.778 -0.2756 -0.8587 -0.1305
 4401SOL     OW24835   1.523   0.669   3.584 -0.4797 -0.3089  0.1670
 4401SOL    HW124836   1.464   0.596   3.564 -0.8286  0.1094 -0.3575
 4401SOL    HW224837   1.591   0.654   3.517 -0.5466  0.4803 -0.0771
 4402SOL     OW24838   4.297   2.871  16.777 -0.2296  0.8353 -0.5828
 4402SOL    HW124839   4.221   2.925  16.800 -1.2753 -2.1236  2.9976
 4402SOL    HW224840   4.330   2.914  16.698 -1.1991 -0.8201 -1.8783
 4403SOL     OW24841   0.658   4.628   6.370  0.2750 -0.1313 -0.0313
 4403SOL    HW124842   0.663   4.591   6.281  2.2547 -1.1945  0.5246
 4403SOL    HW224843   0.703   4.558   6.418 -1.1407 -2.0897 -1.5161
 4404SOL     OW24844   3.464   4.647  10.059  0.0446  0.4066  0.6960
 4404SOL    HW124845   3.421   4.709  10.118  2.8608  1.3291  1.7949
 4404SOL    HW224846   3.521   4.592  10.114 -1.4569 -2.1054 -0.3072
 4405SOL     OW24847   3.432   4.240  12.063  0.4764  0.2742 -0.1811
 4405SOL    HW124848   3.445   4.327  12.099 -1.1368  1.1707 -1.7903
 4405SOL    HW224849   3.506   4.195  12.105 -0.0777  1.2344  1.8206
 4406SOL     OW24850   2.819   3.818  15.497 -0.1470 -0.4043 -0.1094
 4406SOL    HW124851   2.841   3.901  15.457  0.0400  0.8391  2.6000
 4406SOL    HW224852   2.738   3.788  15.455  0.1661 -1.8746  0.3159
 4407SOL     OW24853   1.249   2.264   0.776  0.3395  0.2944  0.1255
 4407SOL    HW124854   1.322   2.280   0.717 -0.2148 -1.1756 -0.9749
 4407SOL    HW224855   1.242   2.172   0.748 -1.5837 -0.3539  2.6762
 4408SOL     OW24856   4.101   1.622   5.039  0.0444 -0.2700  0.1555
 4408SOL    HW124857   4.112   1.690   5.106  1.6697 -1.9272  1.5575
 4408SOL    HW224858   4.042   1.563   5.085  0.4561 -0.8099 -0.0119
 4409SOL     OW24859   1.708   1.430   1.317  0.7044 -0.1587 -0.1614
 4409SOL    HW124860   1.632   1.376   1.299  0.5148  0.6492 -1.7836
 4409SOL    HW224861   1.765   1.419   1.241  2.5765  1.6700  0.9324
 4410SOL     OW24862   0.924   1.167  11.760  0.3561 -0.5518 -0.2985
 4410SOL    HW124863   0.928   1.080  11.719  0.0031 -0.3687 -0.7285
 4410SOL    HW224864   0.829   1.173  11.771  0.8199  1.1853  2.4248
 4411SOL     OW24865   4.578   4.480   3.983 -0.2611  0.2047  0.1796
 4411SOL    HW124866   4.494   4.517   4.011  0.4854  2.3076 -0.3264
 4411SOL    HW224867   4.638   4.518   4.047  0.6861 -0.5782 -0.2485
 4412SOL     OW24868   1.833   1.981   0.892  1.0924  0.0257  0.2257
 4412SOL    HW124869   1.840   1.919   0.964  0.1228  0.7962  0.9748
 4412SOL    HW224870   1.787   1.930   0.825 -0.7930  1.4095  0.5071
 4413SOL     OW24871   4.301   3.619   3.355 -0.2655 -0.7001  0.5420
 4413SOL    HW124872   4.379   3.566   3.373 -0.7206 -0.5861  2.8865
 4413SOL    HW224873   4.348   3.660   3.283 -1.4171 -1.2466 -0.5218
 4414SOL     OW24874   4.513   0.073  10.178 -0.2202 -0.0455 -0.2125
 4414SOL    HW124875   4.434   0.066  10.231  1.0005  1.7032  1.8473
 4414SOL    HW224876   4.477   0.082  10.090  1.0870 -1.6961 -0.9105
 4415SOL     OW24877   3.756   1.672   8.735 -0.0815  0.7361  0.0264
 4415SOL    HW124878   3.708   1.605   8.782  2.3398 -0.9722  0.0582
 4415SOL    HW224879   3.781   1.723   8.812 -2.3212  0.2926  1.0544
 4416SOL     OW24880   2.568   3.721   8.799 -0.2151  0.2908  0.1590
 4416SOL    HW124881   2.572   3.630   8.770 -1.8853 -0.3328  1.9080
 4416SOL    HW224882   2.605   3.761   8.720  3.7079 -0.8552  1.4009
 4417SOL     OW24883   3.353   0.679   5.214 -0.0618  0.3687 -0.3338
 4417SOL    HW124884   3.298   0.685   5.135 -0.5126 -2.1574 -0.1898
 4417SOL    HW224885   3.313   0.745   5.271  0.6807 -1.3462  2.1154
 4418SOL     OW24886   2.078   2.368   1.938 -0.2780 -0.2644 -0.5386
 4418SOL    HW124887   2.164   2.405   1.922  0.2116 -1.5674 -0.9093
 4418SOL    HW224888   2.024   2.427   1.886 -0.7182  1.5153  1.9063
 4419SOL     OW24889   2.891   3.968   9.203  0.0271  0.2637 -0.2364
 4419SOL    HW124890   2.856   4.004   9.284  0.1035 -0.8151  0.2799
 4419SOL    HW224891   2.816   3.987   9.146  1.0170  0.0095 -1.6432
 4420SOL     OW24892   0.881   0.359   4.643  0.2291 -0.1341 -0.1580
 4420SOL    HW124893   0.884   0.393   4.733 -0.5759  0.1973 -0.2615
 4420SOL    HW224894   0.943   0.414   4.596 -1.4940 -1.0396 -3.4613
 4421SOL     OW24895   1.595   2.391   8.518 -0.1738 -0.1613  0.1575
 4421SOL    HW124896   1.557   2.462   8.466 -1.9441 -0.3550  1.1794
 4421SOL    HW224897   1.609   2.328   8.447  0.2134 -0.2878  0.3516
 4422SOL     OW24898   2.857   3.630   6.797  0.3918  0.0298  0.2887
 4422SOL    HW124899   2.914   3.614   6.722 -3.2005 -1.6815 -2.0457
 4422SOL    HW224900   2.923   3.665   6.858  1.0505 -2.5757  1.0546
 4423SOL     OW24901   4.186   1.297  16.374 -0.7840  0.0976  0.0883
 4423SOL    HW124902   4.201   1.297  16.280 -1.5464  1.7429 -0.0265
 4423SOL    HW224903   4.105   1.348  16.376 -0.0930  1.1357  1.8336
 4424SOL     OW24904   1.375   3.881  15.980 -0.4204  0.3979  0.3801
 4424SOL    HW124905   1.310   3.817  16.009  0.4196 -0.3965  0.5085
 4424SOL    HW224906   1.379   3.938  16.056  1.7717  1.3138 -0.4152
 4425SOL     OW24907   1.923   2.993   4.162  0.1501 -0.6902 -0.3665
 4425SOL    HW124908   1.998   2.957   4.116  1.1889  0.4068  0.4617
 4425SOL    HW224909   1.881   2.918   4.203  0.5685 -1.5623 -1.5448
 4426SOL     OW24910   1.306   1.122  11.708 -0.0881  0.4504  0.9499
 4426SOL    HW124911   1.357   1.129  11.788  0.0312 -0.8672  0.9926
 4426SOL    HW224912   1.269   1.209  11.695  0.4562  0.6748  0.8906
 4427SOL     OW24913   3.804   0.161   1.247  0.2050 -0.6667  0.1896
 4427SOL    HW124914   3.720   0.153   1.291  0.9033  1.5986  1.9487
 4427SOL    HW224915   3.783   0.231   1.185  1.7629  0.2189  0.6546
 4428SOL     OW24916   0.981   2.312   8.951 -0.8032  0.2031 -0.0740
 4428SOL    HW124917   0.913   2.256   8.989  0.8720 -1.1528  0.8753
 4428SOL    HW224918   0.945   2.350   8.871 -3.2876  0.2171  1.0344
 4429SOL     OW24919   1.438   4.397  10.294  0.7574 -0.3280 -0.0287
 4429SOL    HW124920   1.520   4.349  10.307  2.3846  2.8038  1.3966
 4429SOL    HW224921   1.454   4.490  10.275  0.0670 -0.6563 -2.2372
 4430SOL     OW24922   3.592   1.296   6.545  0.5670  0.3359  0.5483
 4430SOL    HW124923   3.551   1.376   6.514 -0.4587 -1.1715 -1.9458
 4430SOL    HW224924   3.529   1.266   6.610  0.6763  1.6409  1.2445
 4431SOL     OW24925   1.177   2.767   2.309  0.1764  0.1422 -0.5862
 4431SOL    HW124926   1.140   2.738   2.226  1.1248  0.5894 -1.1615
 4431SOL    HW224927   1.267   2.735   2.300  0.1108  0.0207 -0.7993
 4432SOL     OW24928   4.271   0.814  12.600  0.3818  0.4449  0.6014
 4432SOL    HW124929   4.250   0.766  12.520  3.1004  0.1437  0.0746
 4432SOL    HW224930   4.321   0.889  12.567  1.1035 -1.1722 -1.9152
 4433SOL     OW24931   3.798   3.721   8.080  1.1146  0.4622 -0.5853
 4433SOL    HW124932   3.711   3.760   8.079  0.5045 -0.9196 -2.7779
 4433SOL    HW224933   3.804   3.683   8.168  0.0773 -0.0712 -0.7448
 4434SOL     OW24934   0.211   3.900   7.201 -0.5198 -0.1493 -0.4908
 4434SOL    HW124935   0.214   3.912   7.296 -0.6831 -0.4085 -0.4530
 4434SOL    HW224936   0.177   3.985   7.174 -0.6923  0.1716  0.7111
 4435SOL     OW24937   2.715   1.343   5.320 -0.9722  0.4741  0.5132
 4435SOL    HW124938   2.804   1.366   5.348 -1.6664  1.8958  1.5188
 4435SOL    HW224939   2.696   1.396   5.243  1.6418 -0.4792 -0.7950
 4436SOL     OW24940   2.253   3.294   7.035 -0.3424 -0.1776  0.6157
 4436SOL    HW124941   2.289   3.247   6.960  0.8392  0.6221  0.6729
 4436SOL    HW224942   2.332   3.329   7.076 -0.2277 -1.2744  1.3414
 4437SOL     OW24943   3.922   1.959  15.963 -0.1048  0.3247 -0.1664
 4437SOL    HW124944   3.858   1.977  16.032 -1.3675 -1.9886 -0.7347
 4437SOL    HW224945   3.898   1.868  15.943  2.5258 -0.3225 -0.4208
 4438SOL     OW24946   2.048   1.583   8.254  0.8482 -0.0739  0.0400
 4438SOL    HW124947   2.042   1.487   8.257 -2.3160  0.1474  0.5859
 4438SOL    HW224948   2.103   1.603   8.179 -0.1493  1.7311 -0.1960
 4439SOL     OW24949   1.625   1.091   7.918 -0.3495 -0.4370  0.3790
 4439SOL    HW124950   1.546   1.058   7.875 -0.7906  0.6152  0.3786
 4439SOL    HW224951   1.638   1.175   7.875  0.0019 -1.5784 -1.6973
 4440SOL     OW24952   4.448   0.290   7.270  0.1451  0.0453 -0.9099
 4440SOL    HW124953   4.521   0.263   7.326  0.4172  2.9382  0.1595
 4440SOL    HW224954   4.460   0.385   7.279 -2.6820  0.3160 -0.2790
 4441SOL     OW24955   3.679   4.063   6.017 -0.2391  0.6327  0.1058
 4441SOL    HW124956   3.770   4.033   6.028 -0.3600  0.3418  0.2992
 4441SOL    HW224957   3.666   4.147   6.061  1.5068  1.1530 -0.3740
 4442SOL     OW24958   0.763   2.705  12.820  0.3952  0.0371 -0.9967
 4442SOL    HW124959   0.729   2.621  12.790  0.4422  0.3320 -1.8799
 4442SOL    HW224960   0.804   2.747  12.744  2.4587  0.5693  0.4038
 4443SOL     OW24961   0.995   0.635  13.321  0.6276 -0.4395 -0.4375
 4443SOL    HW124962   1.056   0.656  13.392  0.4329 -1.7385  0.1088
 4443SOL    HW224963   0.953   0.718  13.297 -1.1927 -1.3944 -0.5078
 4444SOL     OW24964   0.602   0.921   5.236  0.1721  0.1026 -0.0517
 4444SOL    HW124965   0.697   0.928   5.248  0.5918 -0.8639 -2.7153
 4444SOL    HW224966   0.581   0.964   5.153  1.1746  1.3584  0.3502
 4445SOL     OW24967   2.345   2.266   8.646 -0.2647  0.3379 -0.4689
 4445SOL    HW124968   2.318   2.207   8.576  0.8037  0.0577 -0.6535
 4445SOL    HW224969   2.280   2.249   8.714 -1.0283  0.3933 -1.1840
 4446SOL     OW24970   0.215   0.550   4.970 -0.5129 -0.2265  0.5149
 4446SOL    HW124971   0.297   0.599   4.974 -1.2171  1.1189 -0.9846
 4446SOL    HW224972   0.244   0.475   4.918 -1.7452 -2.0235  2.4665
 4447SOL     OW24973   4.331   3.632   1.971  0.0149  0.4527 -0.2081
 4447SOL    HW124974   4.264   3.699   1.986 -2.3905 -1.6153 -1.6284
 4447SOL    HW224975   4.401   3.684   2.010 -0.2993  0.5136  0.2796
 4448SOL     OW24976   1.375   3.311   9.785 -0.3197 -0.0356 -0.2451
 4448SOL    HW124977   1.433   3.383   9.761 -1.3747  0.9859  0.2490
 4448SOL    HW224978   1.399   3.274   9.869  0.9334  0.9889 -0.1407
 4449SOL     OW24979   0.559   3.983  16.594 -0.0741  0.2518  0.4906
 4449SOL    HW124980   0.630   3.957  16.653  0.8136  2.4247  0.3912
 4449SOL    HW224981   0.542   3.897  16.556 -0.9349  0.0739  1.2804
 4450SOL     OW24982   2.143   0.681   5.881  0.2627  0.0560  0.3425
 4450SOL    HW124983   2.169   0.710   5.794  2.4680 -0.5568  0.8054
 4450SOL    HW224984   2.219   0.624   5.896  1.0063  0.5542 -1.5392
 4451SOL     OW24985   2.034   3.212  15.891 -0.0896 -0.2139  0.8181
 4451SOL    HW124986   1.987   3.132  15.865 -3.7504  2.3079 -0.2675
 4451SOL    HW224987   1.965   3.276  15.903  2.2339  2.3753  0.2607
 4452SOL     OW24988   3.220   1.049  16.734 -0.2535 -0.0163 -0.4002
 4452SOL    HW124989   3.150   1.019  16.677 -2.1549 -0.7440  2.3055
 4452SOL    HW224990   3.216   1.144  16.734  0.7516  0.0341  0.2273
 4453SOL     OW24991   0.239   3.286   9.204  0.1148 -0.1627 -0.1460
 4453SOL    HW124992   0.147   3.261   9.198  0.2740 -1.0973  1.1856
 4453SOL    HW224993   0.232   3.361   9.145  0.0623  0.0273  0.1003
 4454SOL     OW24994   3.810   3.733   6.894  0.3508 -0.3336 -0.0448
 4454SOL    HW124995   3.769   3.691   6.819  0.0369 -1.6591  0.8755
 4454SOL    HW224996   3.747   3.718   6.964 -1.6934 -1.6579 -2.1972
 4455SOL     OW24997   0.616   2.961   0.742  0.0112  0.5478 -0.4675
 4455SOL    HW124998   0.521   2.962   0.753  0.0045  0.3444 -0.5221
 4455SOL    HW224999   0.617   3.009   0.659  0.7300 -0.0877 -0.8210
 4456SOL     OW25000   0.270   0.000   3.810  0.6749 -0.2926  0.1512
 4456SOL    HW125001   0.230   0.033   3.890  2.2522  0.8453  0.4828
 4456SOL    HW225002   0.303   0.089   3.793 -0.6110 -0.0463 -1.1272
 4457SOL     OW25003   0.234   0.730   3.750  0.4505  0.5313  0.7129
 4457SOL    HW125004   0.193   0.657   3.702  4.2643  0.0502 -1.8221
 4457SOL    HW225005   0.324   0.707   3.730 -0.2670 -1.2164 -0.5213
 4458SOL     OW25006   0.677   0.745  12.696  0.0361 -0.0678 -0.1763
 4458SOL    HW125007   0.601   0.790  12.731 -0.0059 -1.4100  1.4264
 4458SOL    HW225008   0.647   0.654  12.701 -0.0121 -0.0973 -0.9156
 4459SOL     OW25009   1.711   1.572   3.968  0.2551 -0.0667  0.0865
 4459SOL    HW125010   1.650   1.567   3.894 -0.8820 -1.4673  1.1072
 4459SOL    HW225011   1.759   1.654   3.958 -0.9383  0.3924 -2.0093
 4460SOL     OW25012   2.082   4.048   8.889 -0.0904 -0.0516 -0.6147
 4460SOL    HW125013   2.174   4.049   8.862  0.0724 -0.1117 -0.0587
 4460SOL    HW225014   2.047   3.963   8.861 -1.6542  0.4407 -0.1443
 4461SOL     OW25015   4.520   3.664   3.169  0.0036  0.2954  0.4059
 4461SOL    HW125016   4.575   3.734   3.133 -0.4966  0.5070  0.0585
 4461SOL    HW225017   4.523   3.602   3.096 -2.0085  1.8229 -0.9765
 4462SOL     OW25018   2.946   0.614   2.534  0.3109 -0.0679  0.3105
 4462SOL    HW125019   2.903   0.699   2.536 -3.4301 -1.9525 -0.5963
 4462SOL    HW225020   2.937   0.583   2.625  0.6719  0.3428  0.4870
 4463SOL     OW25021   3.953   1.234   5.847  0.1416 -0.6219 -0.0130
 4463SOL    HW125022   3.863   1.234   5.814  0.4913  0.5122 -0.9624
 4463SOL    HW225023   3.990   1.320   5.827 -0.1803 -0.8649 -1.6900
 4464SOL     OW25024   4.620   1.267   5.280 -0.2886 -0.4725  0.5311
 4464SOL    HW125025   4.596   1.328   5.350  0.2459 -0.2881  0.5511
 4464SOL    HW225026   4.532   1.241   5.253 -0.2879 -0.2552  0.3210
 4465SOL     OW25027   1.454   3.550   2.269  0.4371  0.6525  0.3845
 4465SOL    HW125028   1.382   3.488   2.257 -0.4242  1.9312 -1.1251
 4465SOL    HW225029   1.446   3.578   2.361  0.6330 -0.0024  0.5979
 4466SOL     OW25030   1.416   3.182   3.314  0.4331  0.1333  0.2635
 4466SOL    HW125031   1.417   3.127   3.392  0.4345 -0.5373 -0.2116
 4466SOL    HW225032   1.324   3.168   3.293  0.5172 -2.9506  2.0132
 4467SOL     OW25033   2.061   4.523  14.108 -0.0626 -0.2613  0.4497
 4467SOL    HW125034   2.024   4.597  14.060  0.5765 -1.8782 -2.5901
 4467SOL    HW225035   2.023   4.539  14.194 -3.7906  1.2586 -1.5233
 4468SOL     OW25036   2.522   1.727   2.487  0.0636  0.2704 -0.1367
 4468SOL    HW125037   2.473   1.772   2.557  0.1384  2.6762 -1.6221
 4468SOL    HW225038   2.481   1.750   2.404 -0.6443 -0.1317  0.0970
 4469SOL     OW25039   0.598   3.048   0.490 -0.3862  0.0120 -0.0410
 4469SOL    HW125040   0.675   3.033   0.434  0.6737  0.4696  1.3022
 4469SOL    HW225041   0.536   3.064   0.418 -2.6854  1.1351  2.1962
 4470SOL     OW25042   2.709   2.964   1.821  0.3162 -0.3479 -0.3014
 4470SOL    HW125043   2.651   3.040   1.813 -1.7660 -1.7840  1.4659
 4470SOL    HW225044   2.666   2.899   1.766  3.8567 -2.5613 -0.4435
 4471SOL     OW25045   2.866   2.901  15.774 -0.6883  0.3771 -0.3694
 4471SOL    HW125046   2.856   2.859  15.688  0.2326  1.3236 -0.9330
 4471SOL    HW225047   2.845   2.989  15.744  2.6099  0.9178 -1.0466
 4472SOL     OW25048   1.791   0.889   7.990 -0.8227 -0.1520 -0.1152
 4472SOL    HW125049   1.733   0.964   7.979 -1.5570 -1.2346 -3.6366
 4472SOL    HW225050   1.751   0.822   7.935 -0.5152 -2.0331  1.9573
 4473SOL     OW25051   0.810   1.078   8.234  0.0559 -0.7888  0.2471
 4473SOL    HW125052   0.839   1.039   8.151  0.7551  0.2421  0.0108
 4473SOL    HW225053   0.748   1.014   8.269 -0.6298  1.0448  2.3624
 4474SOL     OW25054   1.650   3.776   1.394  0.3554  0.1135  0.3732
 4474SOL    HW125055   1.622   3.801   1.306  2.5870 -0.2796 -0.4230
 4474SOL    HW225056   1.711   3.848   1.402  4.1567 -2.9501 -1.3750
 4475SOL     OW25057   1.297   0.807   4.621 -0.0904  0.9409 -0.6730
 4475SOL    HW125058   1.220   0.812   4.678 -1.7024  0.8730 -2.8507
 4475SOL    HW225059   1.366   0.835   4.682  0.1492  1.7104 -1.3075
 4476SOL     OW25060   2.112   1.555   6.096  0.1258 -0.9477  0.7977
 4476SOL    HW125061   2.143   1.465   6.088 -2.5814 -1.8054 -0.0093
 4476SOL    HW225062   2.114   1.581   6.188 -0.2084  2.1703 -0.0574
 4477SOL     OW25063   4.190   1.170   4.086 -0.3518 -0.0195 -0.2753
 4477SOL    HW125064   4.281   1.145   4.073 -0.6643 -0.9991 -0.5552
 4477SOL    HW225065   4.189   1.168   4.182  0.0580  0.2695 -0.2635
 4478SOL     OW25066   3.887   1.483   7.855  0.0009 -0.1979 -0.1578
 4478SOL    HW125067   3.878   1.571   7.892 -1.4139 -1.0674  1.5742
 4478SOL    HW225068   3.838   1.429   7.917  0.0538 -2.2666 -1.9210
 4479SOL     OW25069   0.876   3.538   8.611  0.3456 -0.0019 -0.2980
 4479SOL    HW125070   0.965   3.506   8.619  0.0624 -0.9645 -0.9455
 4479SOL    HW225071   0.868   3.591   8.532 -0.8212 -1.9276 -1.4847
 4480SOL     OW25072   2.017   0.947   2.877 -0.0086  0.6648 -0.1651
 4480SOL    HW125073   2.021   0.894   2.797 -0.5149 -1.5737  1.2980
 4480SOL    HW225074   2.089   1.008   2.865  1.8270 -1.7360 -1.3032
 4481SOL     OW25075   0.278   0.350  14.014 -0.2379  0.4710  0.0497
 4481SOL    HW125076   0.227   0.431  14.022 -0.9583  0.0733 -0.4756
 4481SOL    HW225077   0.216   0.288  14.054 -0.6684  2.1087  1.9238
 4482SOL     OW25078   3.147   3.214   9.038 -0.3997 -0.1991  0.2137
 4482SOL    HW125079   3.115   3.247   9.121  2.4285  2.7231  0.1428
 4482SOL    HW225080   3.076   3.248   8.983  1.5696  2.0250 -0.9670
 4483SOL     OW25081   0.679   1.487   5.978 -0.0354 -0.6967  0.0278
 4483SOL    HW125082   0.693   1.415   5.917  0.7355 -0.3911 -0.1478
 4483SOL    HW225083   0.625   1.550   5.930  0.6030  0.2124  0.4930
 4484SOL     OW25084   4.670   2.003   8.075 -0.0507  0.0755  0.5979
 4484SOL    HW125085   4.727   1.927   8.085 -0.0705 -0.1373 -0.8688
 4484SOL    HW225086   4.728   2.066   8.118  0.8108  0.4564 -1.1363
 4485SOL     OW25087   0.609   1.398   7.927 -0.0431  0.4661  0.1031
 4485SOL    HW125088   0.602   1.346   8.007  0.3946 -0.1693 -0.2681
 4485SOL    HW225089   0.518   1.404   7.899 -0.4463 -2.1025  0.8579
 4486SOL     OW25090   3.819   3.011   5.636  0.0736  0.3575  0.2761
 4486SOL    HW125091   3.909   2.992   5.663 -0.7866 -2.1314  1.3822
 4486SOL    HW225092   3.836   3.026   5.543 -1.8127  2.5145  0.2603
 4487SOL     OW25093   4.458   2.170   9.931  0.3955 -0.6668 -0.2418
 4487SOL    HW125094   4.371   2.207   9.916  0.9272  0.6113 -0.1528
 4487SOL    HW225095   4.489   2.251   9.971  0.6378 -0.1867 -1.3959
 4488SOL     OW25096   2.901   2.489   9.056  0.8614  0.3618 -0.3235
 4488SOL    HW125097   2.987   2.453   9.034 -0.1244 -1.6955 -0.8435
 4488SOL    HW225098   2.849   2.477   8.976 -0.8328  0.8422  0.6923
 4489SOL     OW25099   1.709   3.288   6.633 -0.2115  0.3441  0.5391
 4489SOL    HW125100   1.788   3.320   6.591 -1.0668  0.7100 -0.7861
 4489SOL    HW225101   1.747   3.201   6.644 -0.0236  0.2829 -0.6412
 4490SOL     OW25102   4.033   2.767   3.438  0.2466  0.1201  0.3938
 4490SOL    HW125103   3.975   2.700   3.475  1.1463 -1.3347 -0.7941
 4490SOL    HW225104   4.088   2.783   3.514  1.0758  0.1143 -0.2107
 4491SOL     OW25105   3.652   4.609   3.245  0.7292  0.2731 -0.1619
 4491SOL    HW125106   3.583   4.675   3.235  1.4575  1.0890  0.1577
 4491SOL    HW225107   3.602   4.529   3.262 -0.1349  0.3777 -2.2954
 4492SOL     OW25108   2.742   4.560   0.369 -0.1136  0.1098  0.6431
 4492SOL    HW125109   2.680   4.487   0.364  0.1719 -0.0432 -0.6158
 4492SOL    HW225110   2.692   4.622   0.422 -0.5606 -0.5187  0.9570
 4493SOL     OW25111   2.281   2.645  11.843  0.2710 -0.0197  0.0348
 4493SOL    HW125112   2.250   2.629  11.754  0.7634 -0.5200 -0.0489
 4493SOL    HW225113   2.281   2.740  11.853  1.6583  0.0663 -0.7056
 4494SOL     OW25114   4.058   4.009   5.477 -0.3270  0.0340  0.1520
 4494SOL    HW125115   4.052   3.916   5.456  2.1034 -0.4794  1.6507
 4494SOL    HW225116   4.154   4.011   5.483 -0.2196  1.5247 -2.4506
 4495SOL     OW25117   2.197   3.647   3.098 -0.2284 -0.1146 -0.3837
 4495SOL    HW125118   2.271   3.625   3.041 -1.5024 -0.4302 -1.9288
 4495SOL    HW225119   2.243   3.641   3.181  0.4126 -2.4993 -0.9152
 4496SOL     OW25120   2.176   2.808   2.917  0.0897  0.1626  0.2635
 4496SOL    HW125121   2.090   2.848   2.905 -0.1043  0.1918  1.7410
 4496SOL    HW225122   2.173   2.798   3.012 -0.4657 -1.0951  0.1155
 4497SOL     OW25123   2.755   1.287   8.825  0.0546 -0.0872 -0.1609
 4497SOL    HW125124   2.660   1.293   8.816  0.0737 -0.9455 -0.9213
 4497SOL    HW225125   2.769   1.216   8.762 -0.6338 -0.7909  0.4848
 4498SOL     OW25126   1.246   1.409   6.412 -0.1683 -0.3258 -0.5454
 4498SOL    HW125127   1.303   1.370   6.478  0.0603  0.6458 -0.1621
 4498SOL    HW225128   1.225   1.496   6.446  1.6995  0.6766 -1.9314
 4499SOL     OW25129   3.882   0.397   9.705 -0.0967  0.1497 -0.3025
 4499SOL    HW125130   3.971   0.417   9.674 -0.7066  1.9141 -0.9212
 4499SOL    HW225131   3.880   0.319   9.649  0.2043 -2.1918  2.9497
 4500SOL     OW25132   1.332   1.673   2.187  0.7291  0.2965 -0.5442
 4500SOL    HW125133   1.398   1.621   2.143  1.9957  1.4897 -0.0499
 4500SOL    HW225134   1.267   1.681   2.117  1.9061 -1.2369 -1.7869
 4501SOL     OW25135   2.522   1.944   7.396  0.4190  0.2624 -0.7039
 4501SOL    HW125136   2.444   1.967   7.346 -0.2679 -0.4104  0.0440
 4501SOL    HW225137   2.512   1.849   7.390  2.3915 -0.0251  0.5731
 4502SOL     OW25138   0.634   0.172   9.910 -0.1382  0.1361  0.1541
 4502SOL    HW125139   0.663   0.133   9.992  1.7419 -1.9813 -1.5174
 4502SOL    HW225140   0.613   0.264   9.928 -1.1823  0.1721 -1.2161
 4503SOL     OW25141   3.121   1.752   2.631  0.3384  0.1091  0.1186
 4503SOL    HW125142   3.097   1.794   2.548  0.4485 -1.8010 -0.8751
 4503SOL    HW225143   3.133   1.833   2.679  1.0022 -0.0096  0.1489
 4504SOL     OW25144   0.403   3.690   9.409  0.0486  0.5358  0.4033
 4504SOL    HW125145   0.453   3.770   9.390 -0.4440  0.3271 -1.7010
 4504SOL    HW225146   0.360   3.709   9.493 -0.3575  2.5139 -0.2493
 4505SOL     OW25147   2.478   0.803  10.192  0.5629  0.4601  0.1771
 4505SOL    HW125148   2.447   0.892  10.203  1.2737  0.5824  1.1240
 4505SOL    HW225149   2.524   0.818  10.109  1.6705 -3.9780 -0.0227
 4506SOL     OW25150   3.137   0.255   7.809 -0.3405  0.5264  0.6192
 4506SOL    HW125151   3.112   0.224   7.722  0.0712 -0.0693  0.7191
 4506SOL    HW225152   3.190   0.181   7.839 -3.9368 -1.9279  0.8654
 4507SOL     OW25153   4.443   4.509  12.780 -0.5487 -0.0833 -0.0064
 4507SOL    HW125154   4.380   4.440  12.802 -0.2297 -0.9279 -1.7205
 4507SOL    HW225155   4.518   4.470  12.735 -1.1261 -0.9047 -0.2735
 4508SOL     OW25156   2.758   3.940  13.172 -0.3423 -0.0275 -0.0634
 4508SOL    HW125157   2.726   3.924  13.083  1.0169 -1.2461 -0.3416
 4508SOL    HW225158   2.675   3.943  13.218 -0.9176 -1.1419 -1.0299
 4509SOL     OW25159   0.358   3.482   0.148  0.1486  0.1854 -0.1616
 4509SOL    HW125160   0.363   3.567   0.193 -0.2232 -0.4944  1.1560
 4509SOL    HW225161   0.332   3.512   0.061  1.1445 -1.1945 -0.9187
 4510SOL     OW25162   1.051   1.881  12.478 -0.4719  0.3622  0.8479
 4510SOL    HW125163   0.969   1.918  12.446 -0.1065 -0.0870 -0.5839
 4510SOL    HW225164   1.027   1.789  12.485  1.3535 -0.1080  0.9800
 4511SOL     OW25165   2.299   0.255  13.212  0.1330  0.7254 -0.1804
 4511SOL    HW125166   2.353   0.255  13.133 -0.0820  2.1368 -0.3311
 4511SOL    HW225167   2.361   0.249  13.285 -1.2594 -0.3085  0.9304
 4512SOL     OW25168   0.286   0.118  11.105 -0.1812 -0.3343  0.1858
 4512SOL    HW125169   0.250   0.103  11.193 -0.9917 -0.3218 -0.1504
 4512SOL    HW225170   0.249   0.044  11.058 -0.0889 -1.2038  1.4897
 4513SOL     OW25171   4.040   2.018  14.840  0.1458  0.2601 -0.2792
 4513SOL    HW125172   4.123   2.006  14.886 -1.0503  1.8579  2.3031
 4513SOL    HW225173   4.023   2.107  14.872  0.6183  0.0725  0.5058
 4514SOL     OW25174   2.820   3.098  15.540  0.3536  0.4240  0.5602
 4514SOL    HW125175   2.848   3.051  15.462 -0.2419 -0.2999  0.7769
 4514SOL    HW225176   2.910   3.109  15.569  0.5165 -2.0750  1.0041
 4515SOL     OW25177   1.863   0.095   3.403  0.1527  0.3676  0.1044
 4515SOL    HW125178   1.832   0.168   3.349 -1.0875  1.4539  2.2913
 4515SOL    HW225179   1.818   0.022   3.360  0.8173 -0.3515  0.6101
 4516SOL     OW25180   2.642   0.987   3.303 -0.0304 -0.3375 -0.0598
 4516SOL    HW125181   2.597   1.071   3.296 -1.1123 -1.0207 -1.3276
 4516SOL    HW225182   2.573   0.922   3.288 -0.1044 -0.5616  1.2341
 4517SOL     OW25183   4.286   0.781   3.800 -0.3709  0.1403 -0.0734
 4517SOL    HW125184   4.223   0.710   3.808  0.3494 -0.1685  2.7383
 4517SOL    HW225185   4.297   0.811   3.890  2.0758  0.9164 -0.6397
 4518SOL     OW25186   2.661   2.998   3.220 -0.0243  0.0797 -0.2585
 4518SOL    HW125187   2.710   3.076   3.194 -0.3218  0.7480  1.2180
 4518SOL    HW225188   2.670   3.008   3.315  1.5175 -0.3824 -0.3465
 4519SOL     OW25189   1.185   3.671  10.267 -0.7375 -0.0309  0.3671
 4519SOL    HW125190   1.165   3.658  10.174  0.5234 -0.1734  0.1073
 4519SOL    HW225191   1.111   3.625  10.306  0.4836  0.1123  2.8588
 4520SOL     OW25192   0.935   0.333   6.547  0.6497 -0.2654 -0.4731
 4520SOL    HW125193   0.985   0.270   6.599 -0.2337 -0.6673 -0.1158
 4520SOL    HW225194   0.978   0.416   6.569  0.4213 -0.2004 -0.2695
 4521SOL     OW25195   2.432   2.320   7.520  0.0454 -0.3369 -0.1467
 4521SOL    HW125196   2.351   2.307   7.471  0.7214 -1.0408 -1.0764
 4521SOL    HW225197   2.483   2.365   7.452 -0.2174 -2.4355 -1.7480
 4522SOL     OW25198   2.883   1.588   7.793  0.1191  0.4841 -0.2283
 4522SOL    HW125199   2.979   1.585   7.801  0.0349  1.0420  1.0527
 4522SOL    HW225200   2.867   1.597   7.699 -2.3408 -2.2660 -0.0706
 4523SOL     OW25201   3.922   1.575   6.406  0.6010  0.2064 -0.3378
 4523SOL    HW125202   3.954   1.566   6.316  2.2819 -2.5219  0.5308
 4523SOL    HW225203   3.915   1.482   6.428 -2.9883  0.4278 -0.5296
 4524SOL     OW25204   3.922   2.463   3.965  0.3516  0.0133 -0.2408
 4524SOL    HW125205   3.971   2.384   3.943 -0.6188 -0.2642 -1.4531
 4524SOL    HW225206   3.967   2.505   4.038 -1.6100  2.0516 -0.2069
 4525SOL     OW25207   1.471   1.257  15.916 -0.0552  0.6156  0.6873
 4525SOL    HW125208   1.383   1.283  15.888 -0.0979 -1.3500 -1.0162
 4525SOL    HW225209   1.531   1.301  15.855  2.0779 -0.5762  1.9326
 4526SOL     OW25210   1.703   1.326  13.816  0.3863  0.0495 -0.1778
 4526SOL    HW125211   1.782   1.274  13.833 -0.7880 -1.4161  0.8012
 4526SOL    HW225212   1.732   1.366  13.734 -0.3912 -2.1107 -1.4759
 4527SOL     OW25213   1.769   0.855   5.420 -0.5100 -0.5293 -0.3196
 4527SOL    HW125214   1.800   0.937   5.458 -3.3459  0.4010 -0.0411
 4527SOL    HW225215   1.835   0.829   5.355  0.4523 -1.3702  0.9852
 4528SOL     OW25216   2.940   3.789   6.082 -0.4064 -0.3020  0.9077
 4528SOL    HW125217   2.851   3.757   6.093 -0.9732  0.5986 -0.9927
 4528SOL    HW225218   2.928   3.881   6.060 -4.8038 -1.3944 -1.3303
 4529SOL     OW25219   4.530   2.607  12.485 -0.0539  0.2924 -0.2458
 4529SOL    HW125220   4.497   2.550  12.415  0.8240 -0.8564  0.2672
 4529SOL    HW225221   4.559   2.543  12.551 -1.0553 -1.0067 -1.0507
 4530SOL     OW25222   0.603   2.136  11.412  0.4203 -0.1334 -0.4318
 4530SOL    HW125223   0.609   2.085  11.332 -0.7972 -0.8090 -0.0894
 4530SOL    HW225224   0.531   2.196  11.396 -1.0249 -0.9572  3.0034
 4531SOL     OW25225   2.848   1.324   6.862 -0.0253  0.0114  0.2386
 4531SOL    HW125226   2.808   1.318   6.775 -1.1716  0.3873  0.7415
 4531SOL    HW225227   2.773   1.360   6.909 -0.1771  0.3610 -0.2715
 4532SOL     OW25228   4.624   2.764   7.962 -0.2118  0.1973 -0.1218
 4532SOL    HW125229   4.543   2.794   7.920  0.3667  3.7191  1.2502
 4532SOL    HW225230   4.657   2.707   7.893  2.6617 -0.9778  2.2166
 4533SOL     OW25231   3.377   3.879   7.708 -0.1771  0.6119 -0.1923
 4533SOL    HW125232   3.402   3.862   7.618 -0.2087  2.1449 -0.4858
 4533SOL    HW225233   3.452   3.932   7.734  0.8527 -0.9467  0.0181
 4534SOL     OW25234   1.742   4.553   9.381  0.1489 -0.1018 -0.7371
 4534SOL    HW125235   1.828   4.594   9.372 -0.1322  0.1779 -2.2251
 4534SOL    HW225236   1.701   4.563   9.295  0.5645  0.7885 -0.8356
 4535SOL     OW25237   2.715   1.423   2.095  0.5386  1.0358  0.6253
 4535SOL    HW125238   2.789   1.473   2.061  0.2870  0.6671 -0.4568
 4535SOL    HW225239   2.728   1.446   2.188  0.9779  0.7325  0.6386
 4536SOL     OW25240   3.440   0.835   8.295 -0.4139 -0.0731 -0.3223
 4536SOL    HW125241   3.440   0.814   8.388 -4.1305 -0.4811 -0.4057
 4536SOL    HW225242   3.437   0.750   8.250  1.4973  1.1934 -2.8158
 4537SOL     OW25243   2.685   3.803   3.376 -0.2614  0.6477 -0.4158
 4537SOL    HW125244   2.640   3.755   3.446 -1.1168  1.9266 -0.0988
 4537SOL    HW225245   2.627   3.879   3.369  1.0847  1.4454 -2.7482
 4538SOL     OW25246   1.469   4.357   9.296  0.0241  0.9175 -0.2897
 4538SOL    HW125247   1.554   4.379   9.258 -0.3156 -1.2671 -2.3562
 4538SOL    HW225248   1.423   4.433   9.261 -3.0325 -1.9430 -2.5314
 4539SOL     OW25249   3.450   2.368   3.587 -0.2479  0.3069  0.0921
 4539SOL    HW125250   3.498   2.288   3.567 -1.8396 -0.1211 -2.0474
 4539SOL    HW225251   3.512   2.441   3.581 -0.8840  0.7452 -1.2315
 4540SOL     OW25252   4.149   0.379   5.682  0.3007 -0.2631  0.0105
 4540SOL    HW125253   4.189   0.462   5.657  0.4628 -0.7621 -1.3770
 4540SOL    HW225254   4.113   0.404   5.767 -2.1513 -1.2944 -0.7165
 4541SOL     OW25255   0.306   3.152   1.633 -0.2389 -0.2655  0.3933
 4541SOL    HW125256   0.341   3.081   1.687  0.5671 -1.1255 -1.2546
 4541SOL    HW225257   0.227   3.165   1.685  1.3182 -0.8982  2.9078
 4542SOL     OW25258   2.028   3.831   0.547  0.1640  0.0094  0.3516
 4542SOL    HW125259   2.089   3.858   0.615  0.1090  0.7462  0.1060
 4542SOL    HW225260   2.063   3.744   0.527  0.0281  0.2642 -1.0087
 4543SOL     OW25261   1.454   0.285   9.564 -0.6391 -0.1813  0.3424
 4543SOL    HW125262   1.468   0.270   9.471 -0.2185 -0.5650  0.4700
 4543SOL    HW225263   1.525   0.238   9.607 -1.1748 -0.1249  1.3081
 4544SOL     OW25264   3.153   2.199   5.981 -0.0494  0.5467 -0.3010
 4544SOL    HW125265   3.101   2.240   5.913 -1.6120  1.3184  1.3393
 4544SOL    HW225266   3.112   2.229   6.063  0.6493  0.3183  0.1394
 4545SOL     OW25267   1.167   4.077  16.896 -0.4508 -0.1259 -0.2588
 4545SOL    HW125268   1.168   4.159  16.847  1.1642  2.5503  4.3173
 4545SOL    HW225269   1.164   4.014  16.824 -1.0681 -0.4771  0.0707
 4546SOL     OW25270   1.843   2.994   5.902  0.3895  0.0447 -0.3393
 4546SOL    HW125271   1.748   2.981   5.903  0.6063 -1.5717  0.3519
 4546SOL    HW225272   1.863   3.061   5.838  0.8775  0.0084 -0.2233
 4547SOL     OW25273   2.129   3.090   2.198 -0.2850 -0.0416  0.1836
 4547SOL    HW125274   2.118   3.096   2.293 -2.5483 -0.6659 -0.0418
 4547SOL    HW225275   2.189   3.162   2.179  0.8666 -0.8142  0.8646
 4548SOL     OW25276   2.431   3.427   5.522 -0.1010 -0.1766 -0.7450
 4548SOL    HW125277   2.414   3.509   5.475 -0.6167 -0.3016 -0.7839
 4548SOL    HW225278   2.405   3.363   5.456  5.6133 -4.1740  0.9135
 4549SOL     OW25279   0.718   0.365   2.501  0.0428  0.5412 -0.1323
 4549SOL    HW125280   0.746   0.418   2.426  0.9464 -1.7918 -1.4236
 4549SOL    HW225281   0.633   0.408   2.516 -0.7556 -1.3980  0.8311
 4550SOL     OW25282   1.029   0.957   2.306  0.5793 -0.6587 -0.3332
 4550SOL    HW125283   1.031   1.024   2.374 -3.3958 -0.8287 -0.0348
 4550SOL    HW225284   1.121   0.931   2.301  1.0686  0.8671  0.8870
 4551SOL     OW25285   2.930   2.119  17.159  0.4004  0.3789 -0.2794
 4551SOL    HW125286   2.835   2.134  17.160  0.5462  1.2619  0.6030
 4551SOL    HW225287   2.927   2.068  17.078 -1.1361  0.4560 -0.2733
 4552SOL     OW25288   0.216   4.389   8.114  0.0318  0.1371  0.6323
 4552SOL    HW125289   0.307   4.365   8.096 -0.7931 -2.2773 -0.4077
 4552SOL    HW225290   0.163   4.322   8.068 -0.8565 -0.1353  2.0604
 4553SOL     OW25291   1.288   3.615   3.128 -0.2632 -0.6348 -0.2692
 4553SOL    HW125292   1.296   3.657   3.042  2.6277 -2.2513 -0.7870
 4553SOL    HW225293   1.345   3.539   3.113  2.9831  2.0680 -1.6479
 4554SOL     OW25294   2.343   3.708   4.405 -0.1267  1.0494  0.0052
 4554SOL    HW125295   2.325   3.751   4.488  1.8558 -1.8899  1.9559
 4554SOL    HW225296   2.325   3.617   4.426 -2.3746  1.4089 -0.3322
 4555SOL     OW25297   1.949   0.087   5.066 -0.1582 -0.6078 -0.3960
 4555SOL    HW125298   1.903   0.161   5.105 -0.4413 -0.7212 -0.5148
 4555SOL    HW225299   1.882   0.019   5.056 -0.4545 -0.3620 -0.0683
 4556SOL     OW25300   2.465   0.209  13.410  0.5250  0.4315 -0.0675
 4556SOL    HW125301   2.558   0.210  13.387  0.2355  0.9956 -1.1916
 4556SOL    HW225302   2.449   0.115  13.417  1.4267  0.2388 -0.5229
 4557SOL     OW25303   0.673   3.338   7.021 -0.8220 -0.1233 -0.4702
 4557SOL    HW125304   0.745   3.276   7.010  0.8473  1.6640  0.5453
 4557SOL    HW225305   0.653   3.375   6.935  1.4468 -1.4488 -1.5554
 4558SOL     OW25306   1.187   2.112   9.112 -0.3316  0.1020  0.0814
 4558SOL    HW125307   1.198   2.081   9.022 -0.4341  0.2658  0.0131
 4558SOL    HW225308   1.258   2.176   9.121 -0.0540 -0.2865  0.6767
 4559SOL     OW25309   1.178   3.434   6.792  0.2260  0.0727  0.2581
 4559SOL    HW125310   1.263   3.399   6.765  0.8144  0.8839  1.0045
 4559SOL    HW225311   1.157   3.470   6.706  1.1123 -1.5553 -0.6478
 4560SOL     OW25312   0.035   2.781   0.387 -0.0123 -0.3711 -0.1681
 4560SOL    HW125313   0.080   2.773   0.302 -1.5188 -0.7567 -0.9322
 4560SOL    HW225314   0.086   2.852   0.426 -0.2807 -0.1225 -0.2728
 4561SOL     OW25315   3.792   3.579  14.833 -0.1887  0.6742 -0.3490
 4561SOL    HW125316   3.800   3.633  14.754  1.0168 -0.2848 -0.8899
 4561SOL    HW225317   3.702   3.597  14.858  0.6565  1.7098  1.9577
 4562SOL     OW25318   1.339   1.608   5.238  0.1454  0.0058 -0.1799
 4562SOL    HW125319   1.405   1.539   5.244  0.8144  0.5241 -1.7420
 4562SOL    HW225320   1.381   1.685   5.202 -1.0585  0.6060 -0.3165
 4563SOL     OW25321   4.721   4.703   5.686 -0.1653  0.4650 -0.0139
 4563SOL    HW125322   4.737   4.649   5.763  5.3956  0.3481 -1.2638
 4563SOL    HW225323   4.700   0.044   5.733 -0.4636 -1.3047  2.9031
 4564SOL     OW25324   0.877   4.686   2.664  0.1627 -0.0285  0.8706
 4564SOL    HW125325   0.852   4.669   2.755  1.5834 -0.9680  1.0903
 4564SOL    HW225326   0.970   4.704   2.673  0.5445 -0.5366 -2.1386
 4565SOL     OW25327   1.009   1.311  14.662  0.9290  0.1213  0.5333
 4565SOL    HW125328   1.014   1.330  14.755  0.4990 -0.9343  0.7672
 4565SOL    HW225329   0.921   1.334  14.634  2.1116  1.6917 -1.9516
 4566SOL     OW25330   3.011   4.583  11.758  0.6083  0.1247  0.8300
 4566SOL    HW125331   2.987   4.492  11.777  1.9522 -0.2682  0.6404
 4566SOL    HW225332   3.036   4.589  11.666  0.5700 -1.0464  0.7485
 4567SOL     OW25333   2.018   1.409   5.469  0.1819 -0.0539  0.1831
 4567SOL    HW125334   1.972   1.475   5.521  0.8763  0.1046  0.6069
 4567SOL    HW225335   1.957   1.336   5.471 -2.3891  2.0862 -1.0468
 4568SOL     OW25336   3.340   1.752   5.175  0.2826 -0.2671  0.1034
 4568SOL    HW125337   3.279   1.765   5.102  0.1184  0.5388  0.3873
 4568SOL    HW225338   3.415   1.793   5.132  0.2437 -0.0344  0.2609
 4569SOL     OW25339   0.763   3.781   0.146  0.1263  0.1410 -0.0573
 4569SOL    HW125340   0.808   3.697   0.142 -0.1331 -0.0314  0.6534
 4569SOL    HW225341   0.805   3.824   0.221 -2.5555  3.0431 -0.2135
 4570SOL     OW25342   3.982   2.494   3.212  0.1090 -0.3681 -0.1892
 4570SOL    HW125343   3.891   2.514   3.231 -0.1331  1.3029 -3.1639
 4570SOL    HW225344   4.027   2.488   3.296  0.5978  1.8708 -0.2859
 4571SOL     OW25345   4.480   2.316   3.080 -0.3464  0.5300  0.7275
 4571SOL    HW125346   4.508   2.372   3.008 -1.6553 -1.3290 -1.2016
 4571SOL    HW225347   4.394   2.295   3.044 -0.5884  0.4597  1.3364
 4572SOL     OW25348   1.327   1.139   4.273 -0.0905 -0.1459 -0.1210
 4572SOL    HW125349   1.264   1.188   4.220  1.5392 -0.0036 -1.9588
 4572SOL    HW225350   1.340   1.197   4.348  1.3535  1.4503 -1.5701
 4573SOL     OW25351   3.635   3.829   5.346  0.1187  0.2232  0.5077
 4573SOL    HW125352   3.688   3.773   5.290 -2.6079  0.2732 -2.1427
 4573SOL    HW225353   3.586   3.758   5.388 -1.3341  1.9273  1.7099
 4574SOL     OW25354   2.244   3.990   6.361  0.2426 -0.3220 -0.4097
 4574SOL    HW125355   2.216   3.948   6.443  1.1665 -0.0355  0.0584
 4574SOL    HW225356   2.164   3.971   6.312  1.6822 -0.6807 -2.6237
 4575SOL     OW25357   2.234   4.038  16.163  0.7305 -0.6086 -0.1853
 4575SOL    HW125358   2.175   4.007  16.095 -0.2872 -0.1730  0.5073
 4575SOL    HW225359   2.188   4.118  16.187  1.5039 -0.2893  0.2263
 4576SOL     OW25360   3.529   4.510   2.268 -0.2525 -1.0026  0.2650
 4576SOL    HW125361   3.519   4.415   2.266  0.5144 -1.0605 -0.4821
 4576SOL    HW225362   3.526   4.534   2.361 -1.1989 -2.1157  0.5223
 4577SOL     OW25363   1.050   2.396   6.978 -0.3125  0.2694 -0.0232
 4577SOL    HW125364   1.099   2.427   7.054  1.3428  0.4135 -1.1718
 4577SOL    HW225365   0.990   2.469   6.962 -0.4374  0.0567 -0.5324
 4578SOL     OW25366   3.236   4.460   5.531 -0.2239  0.0459 -0.0358
 4578SOL    HW125367   3.303   4.415   5.583  0.2254 -0.6949 -1.2626
 4578SOL    HW225368   3.160   4.420   5.574 -3.0405  1.8453 -3.3294
 4579SOL     OW25369   4.288   4.227   5.561  0.0917 -0.5056  0.3882
 4579SOL    HW125370   4.352   4.156   5.566 -1.9072 -2.2410  1.3579
 4579SOL    HW225371   4.305   4.284   5.637 -1.9723  0.8616 -0.1775
 4580SOL     OW25372   0.317   1.354   0.713 -0.3804 -0.1847  0.0046
 4580SOL    HW125373   0.269   1.317   0.639 -1.2040  0.5668  0.1603
 4580SOL    HW225374   0.407   1.324   0.705  0.2333  1.2280  1.6721
 4581SOL     OW25375   0.192   2.763   5.273  0.1945 -0.5332 -0.4902
 4581SOL    HW125376   0.096   2.764   5.280  0.1004  0.9241 -1.9624
 4581SOL    HW225377   0.208   2.820   5.348 -0.0107 -0.3215 -0.6036
 4582SOL     OW25378   4.461   4.609   5.543 -0.1205 -0.0327  0.0560
 4582SOL    HW125379   4.407   4.689   5.544  0.8774  0.6486 -0.3023
 4582SOL    HW225380   4.541   4.641   5.584  0.3524 -0.4126 -0.5788
 4583SOL     OW25381   2.881   0.189   4.343 -0.2621  0.3879  0.1681
 4583SOL    HW125382   2.861   0.198   4.436 -4.2701 -2.3008 -0.4083
 4583SOL    HW225383   2.946   0.257   4.328 -0.5378  0.9690  1.6654
 4584SOL     OW25384   3.374   4.634   4.897  0.4222 -0.2345 -0.2346
 4584SOL    HW125385   3.304   4.664   4.956 -0.1739  1.2122 -1.6659
 4584SOL    HW225386   3.352   4.679   4.815  1.0261 -1.8161 -1.2601
 4585SOL     OW25387   0.016   3.655  12.771 -0.5792 -0.1009  0.2518
 4585SOL    HW125388   0.020   3.689  12.681  0.0375  0.7057  0.5819
 4585SOL    HW225389   4.668   3.681  12.796 -0.2511 -0.1178  1.4353
 4586SOL     OW25390   0.121   0.799   6.135 -0.0910 -0.4917 -0.5290
 4586SOL    HW125391   0.083   0.854   6.067 -1.1262 -0.3376  0.1686
 4586SOL    HW225392   0.183   0.863   6.171  1.0460 -1.4759 -0.7629
 4587SOL     OW25393   2.706   1.057   9.019 -0.1976  0.4265 -0.3329
 4587SOL    HW125394   2.616   1.055   8.986 -0.2967  0.5364 -0.0636
 4587SOL    HW225395   2.744   1.059   8.931  2.0117 -1.6775  0.5835
 4588SOL     OW25396   2.421   4.583  10.186  0.2623  0.1944 -0.2991
 4588SOL    HW125397   2.505   4.545  10.210  0.0899  0.7223  1.1155
 4588SOL    HW225398   2.385   4.507  10.139 -0.3213  1.3782 -1.7790
 4589SOL     OW25399   3.317   4.677  10.300 -0.0894  0.2303 -0.1790
 4589SOL    HW125400   3.248   4.697  10.363  1.5076 -1.5112  2.1013
 4589SOL    HW225401   3.386   4.650  10.360  0.0716 -2.8482 -1.7550
 4590SOL     OW25402   4.011   2.678   2.975  0.1104 -0.0327 -0.2317
 4590SOL    HW125403   3.969   2.741   3.033  1.6449  0.3509  0.4529
 4590SOL    HW225404   4.040   2.607   3.033  2.7125  0.5278 -0.8129
 4591SOL     OW25405   1.932   0.803   7.446 -0.2406  0.5220 -0.4801
 4591SOL    HW125406   2.027   0.804   7.447 -0.2400  0.2295 -0.2270
 4591SOL    HW225407   1.925   0.711   7.421  1.9322  0.0962  0.4681
 4592SOL     OW25408   0.597   3.078   8.152  0.5264 -0.2574 -0.1103
 4592SOL    HW125409   0.660   3.134   8.197  0.7673  0.8813 -1.8918
 4592SOL    HW225410   0.580   3.023   8.228 -1.8779 -0.2107 -0.6163
 4593SOL     OW25411   0.628   2.454   2.875 -0.0639 -0.0998 -0.3206
 4593SOL    HW125412   0.548   2.405   2.891  0.1013  0.2304  1.4730
 4593SOL    HW225413   0.640   2.426   2.784 -1.2732  1.7541 -1.0511
 4594SOL     OW25414   2.405   3.151   2.939 -0.3556  0.2194  0.6769
 4594SOL    HW125415   2.334   3.187   2.885  0.5370  1.9251  0.6554
 4594SOL    HW225416   2.356   3.089   2.994 -0.0996 -0.2855  0.3379
 4595SOL     OW25417   4.294   0.249   9.648  0.8109  0.2017  0.1314
 4595SOL    HW125418   4.207   0.283   9.669  0.9688  1.1058 -0.6671
 4595SOL    HW225419   4.353   0.323   9.662  0.1619  0.8189 -0.4469
 4596SOL     OW25420   3.550   1.044   5.843 -0.2749 -0.3554  0.5134
 4596SOL    HW125421   3.588   1.125   5.878 -0.4353 -0.2834  0.5192
 4596SOL    HW225422   3.603   1.031   5.764  0.8286 -0.2979  1.2429
 4597SOL     OW25423   4.238   3.887   2.903  0.0024 -0.2043 -0.4701
 4597SOL    HW125424   4.193   3.954   2.852 -0.1184  1.3031  1.5832
 4597SOL    HW225425   4.198   3.812   2.860 -0.7363 -0.2421  0.2977
 4598SOL     OW25426   4.569   4.604   4.691  0.3054 -0.4721 -0.4561
 4598SOL    HW125427   4.624   4.541   4.737 -1.8438 -1.6057  0.5465
 4598SOL    HW225428   4.503   4.540   4.664  0.4400 -0.6889 -0.2751
 4599SOL     OW25429   4.153   1.953   8.690  0.1330 -0.2530 -0.3279
 4599SOL    HW125430   4.178   2.036   8.648 -0.3618  0.1590  0.1774
 4599SOL    HW225431   4.239   1.912   8.689 -0.2971 -1.1446 -0.1704
 4600SOL     OW25432   4.459   2.360   5.822  0.8072 -0.2927  0.0898
 4600SOL    HW125433   4.396   2.396   5.761  1.3629  1.6252  0.6256
 4600SOL    HW225434   4.431   2.414   5.896  0.8939  1.5657 -1.2512
 4601SOL     OW25435   4.031   3.195  12.120 -0.1287 -0.1168  1.0198
 4601SOL    HW125436   3.949   3.160  12.154  0.2842 -0.3317  1.8009
 4601SOL    HW225437   4.078   3.212  12.202  0.1061 -3.0079  1.5055
 4602SOL     OW25438   2.013   3.929   8.291  0.4781 -0.2852 -0.2381
 4602SOL    HW125439   2.043   3.986   8.361 -0.2440 -0.9774  0.6283
 4602SOL    HW225440   2.064   3.853   8.318  0.1583 -0.5258 -0.3071
 4603SOL     OW25441   4.515   4.152  12.506  0.5283 -0.0900  0.1710
 4603SOL    HW125442   4.496   4.210  12.432 -1.3596 -2.6584 -1.3858
 4603SOL    HW225443   4.597   4.191  12.535  0.5727 -1.5884  2.0765
 4604SOL     OW25444   0.637   1.148  14.541  0.7476 -0.0080 -0.2173
 4604SOL    HW125445   0.705   1.201  14.581 -0.4750  0.3568  1.3889
 4604SOL    HW225446   0.668   1.063  14.571 -0.7170  0.2310  1.9662
 4605SOL     OW25447   2.488   1.039   2.346  0.0384  0.5455 -0.4599
 4605SOL    HW125448   2.407   1.045   2.295 -1.5912  1.7063  2.2686
 4605SOL    HW225449   2.549   1.079   2.285 -0.1546 -1.8628 -2.2417
 4606SOL     OW25450   0.573   3.877  17.067  0.6039  0.6072  0.6056
 4606SOL    HW125451   0.522   3.903  16.990  0.3335  0.1524  0.6354
 4606SOL    HW225452   0.663   3.880  17.033  0.7647 -1.4049  0.8697
 4607SOL     OW25453   2.665   4.040  16.873 -0.0607 -0.7138 -0.1145
 4607SOL    HW125454   2.622   3.955  16.867  0.0369 -0.8244  0.7655
 4607SOL    HW225455   2.627   4.091  16.802  0.9957 -0.1930 -0.3089
 4608SOL     OW25456   1.385   1.790   8.354  0.3341 -0.2089 -0.6043
 4608SOL    HW125457   1.462   1.847   8.365  1.3042 -1.0933 -2.7601
 4608SOL    HW225458   1.409   1.763   8.265  1.2052  0.1835 -0.4948
 4609SOL     OW25459   0.074   3.798  14.633 -0.0903  0.0203 -0.7127
 4609SOL    HW125460   4.724   3.773  14.611  0.2229 -0.6936 -1.1887
 4609SOL    HW225461   0.089   3.869  14.571 -1.5576  0.1991 -0.8620
 4610SOL     OW25462   1.062   3.492   5.171  0.0387  0.0697  0.0873
 4610SOL    HW125463   1.079   3.537   5.088 -0.8607 -0.5505 -0.4307
 4610SOL    HW225464   1.149   3.489   5.211  0.6694  2.0787 -1.0890
 4611SOL     OW25465   3.878   1.679   7.517 -0.6851  0.7115  0.3292
 4611SOL    HW125466   3.926   1.597   7.509 -0.4918  0.7273  1.2331
 4611SOL    HW225467   3.787   1.651   7.526 -0.8581  1.0699 -0.3661
 4612SOL     OW25468   4.024   1.324  11.470 -0.0200 -0.2634  0.2792
 4612SOL    HW125469   3.979   1.390  11.417  1.6103  1.1161  0.6545
 4612SOL    HW225470   4.115   1.350  11.475  0.0398  0.0042 -1.9611
 4613SOL     OW25471   0.646   1.553  14.877 -0.3497  0.4478  0.4058
 4613SOL    HW125472   0.731   1.587  14.905 -0.1877  2.1394 -2.0768
 4613SOL    HW225473   0.590   1.561  14.954  0.9255  0.0314  1.3617
 4614SOL     OW25474   3.934   2.907  15.424 -0.3425  0.0558 -0.4680
 4614SOL    HW125475   3.985   2.985  15.443 -0.4308 -0.2055  0.7803
 4614SOL    HW225476   3.921   2.870  15.511  0.4315 -1.3161 -0.9402
 4615SOL     OW25477   1.774   2.689   6.349 -0.2675 -0.1185 -0.2098
 4615SOL    HW125478   1.729   2.658   6.270 -0.2008  0.8474 -0.6330
 4615SOL    HW225479   1.821   2.763   6.309 -0.0923  0.1617  0.5165
 4616SOL     OW25480   3.205   4.248   6.768  0.0149 -0.5115 -0.7281
 4616SOL    HW125481   3.299   4.237   6.753  0.3914 -0.0218  1.3409
 4616SOL    HW225482   3.202   4.214   6.857 -0.3482  0.8834 -0.2068
 4617SOL     OW25483   2.228   4.361   8.874 -0.3545 -0.0188 -0.1208
 4617SOL    HW125484   2.309   4.369   8.925 -1.5803  2.8029  1.4217
 4617SOL    HW225485   2.163   4.380   8.942  1.2430  2.7223  0.6631
 4618SOL     OW25486   1.388   1.893   5.070 -0.5108 -0.0212  0.2872
 4618SOL    HW125487   1.313   1.834   5.074  1.5511 -2.6971 -0.7984
 4618SOL    HW225488   1.395   1.939   5.154  4.0502 -1.1731  0.5415
 4619SOL     OW25489   1.214   1.994   2.439  0.3039 -0.2162 -0.1104
 4619SOL    HW125490   1.192   1.991   2.532 -2.0183 -1.0425 -0.6939
 4619SOL    HW225491   1.144   1.939   2.404 -0.6036  1.6810 -1.2651
 4620SOL     OW25492   1.719   3.284   9.285 -0.1746  0.4011 -0.5249
 4620SOL    HW125493   1.741   3.363   9.335 -0.8902 -0.9431  1.8778
 4620SOL    HW225494   1.692   3.327   9.204 -0.4042  0.5467 -0.3713
 4621SOL     OW25495   3.420   4.270  14.831  0.2467  0.0141  0.1151
 4621SOL    HW125496   3.367   4.333  14.782 -0.1344  1.2391  2.0969
 4621SOL    HW225497   3.385   4.289  14.918  2.1641 -0.8217  1.0649
 4622SOL     OW25498   1.570   1.526   3.452  0.0383 -0.4140  0.0411
 4622SOL    HW125499   1.607   1.525   3.541  0.0851 -0.7053  0.0211
 4622SOL    HW225500   1.489   1.478   3.469 -0.6097  0.3589 -0.8789
 4623SOL     OW25501   0.352   3.680  17.167  0.1967  0.6073 -0.3651
 4623SOL    HW125502   0.370   3.774  17.160  1.5694  0.5120  2.1461
 4623SOL    HW225503   0.270   3.682  17.217  0.2736 -2.1119 -0.1550
 4624SOL     OW25504   4.598   3.157   0.003  0.3960 -0.4615  0.3381
 4624SOL    HW125505   4.526   3.161  17.698  0.9509  1.2932 -0.1811
 4624SOL    HW225506   4.638   3.243  17.752  0.2278 -0.3061  1.0841
 4625SOL     OW25507   2.176   1.624   3.808  0.3690  0.0093 -0.6270
 4625SOL    HW125508   2.202   1.587   3.892  0.4179  0.0408 -0.6283
 4625SOL    HW225509   2.177   1.544   3.755  0.3652  0.1877 -0.8961
 4626SOL     OW25510   0.157   2.038   5.358 -0.8251  0.5787 -0.4279
 4626SOL    HW125511   0.088   2.102   5.378 -0.7679 -0.3759  2.8076
 4626SOL    HW225512   0.104   1.959   5.364  1.6185 -1.0127 -0.2798
 4627SOL     OW25513   1.341   4.264   5.263 -0.5501 -0.7144  0.0161
 4627SOL    HW125514   1.412   4.289   5.323  0.8392 -0.1691 -1.8436
 4627SOL    HW225515   1.298   4.349   5.263 -0.3618 -0.6158  2.2102
 4628SOL     OW25516   4.323   0.594   5.566  0.3969  0.2179 -0.2606
 4628SOL    HW125517   4.264   0.621   5.496  2.5260 -0.7469 -2.4261
 4628SOL    HW225518   4.386   0.533   5.528 -0.0380 -0.6279  0.3699
 4629SOL     OW25519   3.531   0.528  17.194 -0.1054 -0.3404 -0.2546
 4629SOL    HW125520   3.471   0.557  17.125  1.5287  3.4776 -0.0872
 4629SOL    HW225521   3.482   0.542  17.276  0.0476  0.9973 -0.3835
 4630SOL     OW25522   4.412   2.510   6.552  0.3182  0.0179  0.4495
 4630SOL    HW125523   4.479   2.522   6.485 -1.3579  0.1404 -1.2090
 4630SOL    HW225524   4.449   2.428   6.585 -0.0689 -0.5224 -0.4567
 4631SOL     OW25525   3.709   4.244   4.214 -0.0616 -0.5762 -0.3802
 4631SOL    HW125526   3.675   4.162   4.249  0.6809 -1.0876 -0.8627
 4631SOL    HW225527   3.650   4.269   4.144  0.1133  1.2976  0.1333
 4632SOL     OW25528   1.944   1.800  13.328 -0.3021 -0.7497 -0.4263
 4632SOL    HW125529   1.928   1.880  13.278 -1.9556  0.7270  2.4846
 4632SOL    HW225530   2.028   1.769  13.294 -0.3802 -0.8032 -0.5746
 4633SOL     OW25531   2.271   4.394   7.001 -0.2646 -0.0022 -0.1983
 4633SOL    HW125532   2.219   4.331   6.952 -1.4075 -0.1084  1.1493
 4633SOL    HW225533   2.264   4.471   6.944 -0.2553 -0.9887 -1.5240
 4634SOL     OW25534   2.023   0.794  12.726 -0.0760  0.2639  0.0832
 4634SOL    HW125535   1.990   0.732  12.791 -0.0276  0.9517  0.7659
 4634SOL    HW225536   1.957   0.821  12.662 -0.3227 -0.7221 -0.0749
 4635SOL     OW25537   4.732   3.162  11.396  0.6963  0.1943 -0.6405
 4635SOL    HW125538   4.717   3.092  11.460 -0.9329  0.0983 -1.1239
 4635SOL    HW225539   4.685   3.120  11.323  1.3893  0.6039 -1.3205
 4636SOL     OW25540   3.292   1.276  13.814 -0.1217  0.4619 -0.2409
 4636SOL    HW125541   3.277   1.362  13.854 -2.0170  0.1892 -0.3631
 4636SOL    HW225542   3.247   1.235  13.887 -1.0864  3.4074  0.8060
 4637SOL     OW25543   3.757   1.167   2.208  0.1550  0.0120  0.5437
 4637SOL    HW125544   3.807   1.113   2.147 -1.8752  1.2134 -2.1768
 4637SOL    HW225545   3.818   1.226   2.252  0.7367  0.1209 -0.4180
 4638SOL     OW25546   0.282   1.163  14.839  0.2833  0.1629  0.3201
 4638SOL    HW125547   0.324   1.116  14.767 -2.3548 -0.4100 -0.8379
 4638SOL    HW225548   0.363   1.198  14.875  0.2441  0.4782  0.1021
 4639SOL     OW25549   1.175   0.076  13.871  0.2198  0.2790  0.1509
 4639SOL    HW125550   1.083   0.050  13.876  0.5082 -0.8840 -0.7941
 4639SOL    HW225551   1.173   0.172  13.877  1.0644  0.4241 -2.2624
 4640SOL     OW25552   3.741   2.185   0.354 -0.6114  0.3250  0.1146
 4640SOL    HW125553   3.729   2.159   0.263 -0.2862  1.0019 -0.1204
 4640SOL    HW225554   3.814   2.129   0.381  0.6299  2.0223  0.3523
 4641SOL     OW25555   4.062   3.806   6.898 -0.0906  0.0722  0.3971
 4641SOL    HW125556   4.062   3.894   6.937 -0.2519  0.6380 -0.8779
 4641SOL    HW225557   3.974   3.773   6.916  0.2938 -0.6467  0.9669
 4642SOL     OW25558   2.690   1.830  13.008  0.4246 -0.3157  0.0851
 4642SOL    HW125559   2.667   1.780  12.929 -0.9907  1.0967 -0.4007
 4642SOL    HW225560   2.763   1.879  12.969  0.3352  0.6191  1.0909
 4643SOL     OW25561   1.709   4.215  13.918  0.3224 -0.0192  0.2532
 4643SOL    HW125562   1.733   4.122  13.925 -0.0327 -0.1407 -0.1249
 4643SOL    HW225563   1.792   4.254  13.946  0.2202  0.3032  0.1035
 4644SOL     OW25564   2.674   4.064   9.034  0.2756 -0.1286  0.4091
 4644SOL    HW125565   2.617   4.098   9.103  0.4774 -1.1016  1.0435
 4644SOL    HW225566   2.625   4.088   8.955  0.3663  0.6157  0.5815
 4645SOL     OW25567   4.050   1.586   7.038 -0.0104  0.2195  0.1074
 4645SOL    HW125568   3.955   1.593   7.025 -0.2991  2.2689  3.2791
 4645SOL    HW225569   4.057   1.660   7.097 -1.3685 -1.8356  2.8498
 4646SOL     OW25570   3.853   0.845  10.800 -0.0227  0.1869 -0.0175
 4646SOL    HW125571   3.843   0.932  10.840  0.0176  0.3622 -0.3966
 4646SOL    HW225572   3.848   0.852  10.705  0.7219  0.7592 -0.0068
 4647SOL     OW25573   4.500   2.507   0.145  0.0656  0.4716  0.4436
 4647SOL    HW125574   4.530   2.526   0.233 -0.3898  0.5449  0.5835
 4647SOL    HW225575   4.557   2.571   0.102 -2.9876  1.9624 -1.3965
 4648SOL     OW25576   2.435   1.729  15.033 -0.4237  0.4808 -0.1433
 4648SOL    HW125577   2.339   1.727  15.039 -0.6134  0.3708 -2.8850
 4648SOL    HW225578   2.455   1.663  15.099  0.4097 -0.4005 -1.2719
 4649SOL     OW25579   3.876   1.613  17.727  0.1516  0.6916 -0.3358
 4649SOL    HW125580   3.943   1.613  17.659  0.2310 -0.8916 -0.2570
 4649SOL    HW225581   3.834   1.689  17.688 -1.8044  0.1324  0.6561
 4650SOL     OW25582   2.735   4.608   5.442 -0.0763  0.1814 -0.3698
 4650SOL    HW125583   2.744   4.515   5.457  1.9750  0.4101 -0.2220
 4650SOL    HW225584   2.696   4.619   5.355 -0.2453 -2.0201 -0.5501
 4651SOL     OW25585   4.138   4.573   5.535  0.1570  0.1035 -0.3661
 4651SOL    HW125586   4.105   4.483   5.532 -2.4953  1.0720 -0.5301
 4651SOL    HW225587   4.230   4.565   5.556  0.5443  2.2060 -1.2559
 4652SOL     OW25588   3.763   4.327   7.124 -0.0638  0.4920 -0.3513
 4652SOL    HW125589   3.825   4.395   7.098 -0.2823  0.2617 -1.4581
 4652SOL    HW225590   3.700   4.334   7.052  0.5432  0.0704 -0.9198
 4653SOL     OW25591   1.767   1.833   1.833 -0.3041 -0.8776 -0.1048
 4653SOL    HW125592   1.701   1.786   1.782 -0.2997  2.0500 -2.8514
 4653SOL    HW225593   1.842   1.819   1.775 -1.3097  0.9386 -1.8425
 4654SOL     OW25594   2.310   2.906   8.367 -0.2792  0.2533  0.3887
 4654SOL    HW125595   2.238   2.843   8.376  0.9234 -1.2874 -0.8290
 4654SOL    HW225596   2.292   2.951   8.449  0.1541 -1.0505  1.1935
 4655SOL     OW25597   1.161   3.919  11.548  0.2033 -0.4566 -0.0200
 4655SOL    HW125598   1.242   3.874  11.522  0.7478 -0.1162  1.1199
 4655SOL    HW225599   1.131   3.857  11.614 -0.6323 -0.6742 -0.5993
 4656SOL     OW25600   2.539   1.485   9.559 -0.0431  0.4706  0.1751
 4656SOL    HW125601   2.554   1.577   9.534 -0.5529  0.3476 -0.5876
 4656SOL    HW225602   2.524   1.438   9.477  1.4509 -2.1437  1.4155
 4657SOL     OW25603   3.193   1.462  14.203 -0.1418 -0.3960  0.3481
 4657SOL    HW125604   3.283   1.480  14.230 -0.5419  0.4208  1.1457
 4657SOL    HW225605   3.169   1.545  14.163 -0.4949 -0.7452 -0.1670
 4658SOL     OW25606   1.993   3.878  16.188  0.3680  0.1511  0.0648
 4658SOL    HW125607   1.922   3.921  16.140  1.5953  2.3022  0.2198
 4658SOL    HW225608   2.002   3.798  16.136  2.1364  0.1752  0.3415
 4659SOL     OW25609   1.173   0.961   4.401 -0.7012  0.1844  0.5014
 4659SOL    HW125610   1.235   1.023   4.362 -1.8731  1.0367 -0.0279
 4659SOL    HW225611   1.227   0.922   4.470  0.3826 -0.2011 -0.5704
 4660SOL     OW25612   4.703   3.439  14.022 -0.3890 -0.1174  0.1459
 4660SOL    HW125613   4.699   3.534  14.023 -3.5378 -0.2408  0.0978
 4660SOL    HW225614   4.632   3.427  13.959 -1.2292 -0.2710  1.1339
 4661SOL     OW25615   1.215   3.788   5.245  0.1680  0.3723  0.5108
 4661SOL    HW125616   1.122   3.767   5.237  0.6261 -1.0833 -0.8765
 4661SOL    HW225617   1.210   3.884   5.244 -1.3059  0.2814 -0.7617
 4662SOL     OW25618   2.456   1.312   2.017  0.4630  0.5207  0.7260
 4662SOL    HW125619   2.548   1.334   2.025  0.6393 -0.4122  1.2346
 4662SOL    HW225620   2.456   1.301   1.922 -1.5176  0.0845  0.7629
 4663SOL     OW25621   0.566   0.228  11.078  0.1721 -0.7748  0.7222
 4663SOL    HW125622   0.559   0.311  11.030  0.5682 -0.4296  1.2614
 4663SOL    HW225623   0.484   0.187  11.051  0.8769 -0.7114 -1.5298
 4664SOL     OW25624   0.869   2.927   6.991  0.0302 -0.5590  0.1711
 4664SOL    HW125625   0.940   2.990   6.981 -1.2313  0.7578 -0.4649
 4664SOL    HW225626   0.909   2.854   7.039  0.6429 -0.3183  0.0212
 4665SOL     OW25627   0.200   3.423   8.145 -0.5388  0.6204  0.3728
 4665SOL    HW125628   0.131   3.370   8.184 -1.6232  0.7828 -1.3324
 4665SOL    HW225629   0.266   3.357   8.124 -1.9895 -1.1959  1.6145
 4666SOL     OW25630   3.309   2.207   5.109 -0.1695 -0.0852 -0.2933
 4666SOL    HW125631   3.308   2.299   5.138 -1.1028  0.2541 -1.3647
 4666SOL    HW225632   3.271   2.161   5.184  0.1306 -0.0019 -0.0908
 4667SOL     OW25633   2.740   4.461   6.641  0.1138  0.6298 -0.3995
 4667SOL    HW125634   2.751   4.420   6.727  0.5872  1.6671  0.0345
 4667SOL    HW225635   2.829   4.474   6.609  0.9862 -1.3125  1.2142
 4668SOL     OW25636   3.374   3.346   4.868  0.5641 -0.5723 -0.2839
 4668SOL    HW125637   3.385   3.256   4.901  0.6740 -0.4210  0.0874
 4668SOL    HW225638   3.303   3.373   4.926  1.1519 -1.6683  0.9518
 4669SOL     OW25639   2.787   3.890  17.107 -0.5525 -0.1702  0.0320
 4669SOL    HW125640   2.771   3.829  17.036  1.8128  1.2464 -1.7213
 4669SOL    HW225641   2.816   3.828  17.174 -0.5546  0.6457  0.7912
 4670SOL     OW25642   2.351   4.063   8.875 -0.2687 -0.2410  0.5634
 4670SOL    HW125643   2.348   4.117   8.954  1.2912 -1.7336  1.6391
 4670SOL    HW225644   2.425   4.095   8.822 -2.1671  3.1173 -0.0878
 4671SOL     OW25645   2.658   0.717   8.120  0.3907 -0.3982  0.0730
 4671SOL    HW125646   2.712   0.785   8.160 -2.9727  0.8176  2.5221
 4671SOL    HW225647   2.694   0.635   8.153 -2.7957 -1.5029  0.7403
 4672SOL     OW25648   3.398   2.249   2.778 -0.0995 -0.4368  0.5242
 4672SOL    HW125649   3.453   2.327   2.787 -0.6059 -0.3496  2.7458
 4672SOL    HW225650   3.427   2.214   2.693 -0.3497 -1.2400  0.7751
 4673SOL     OW25651   2.570   0.254   2.017  0.2962  0.2516 -0.1033
 4673SOL    HW125652   2.505   0.187   2.041  1.0865 -1.2980 -2.2590
 4673SOL    HW225653   2.645   0.197   2.036  1.2820  1.7099  0.3050
 4674SOL     OW25654   0.563   0.994  16.065  0.0156  0.5261 -0.0841
 4674SOL    HW125655   0.587   1.073  16.017  0.6881 -0.1118 -0.8087
 4674SOL    HW225656   0.474   1.019  16.091  0.6962  0.9450  1.8154
 4675SOL     OW25657   1.674   1.305   4.221 -0.4913  0.5565 -0.8885
 4675SOL    HW125658   1.747   1.355   4.184 -0.7126  1.2729 -0.3516
 4675SOL    HW225659   1.715   1.246   4.285 -1.5089  2.2850  1.3625
 4676SOL     OW25660   1.335   3.805  11.102 -0.5428  0.0592 -0.4271
 4676SOL    HW125661   1.353   3.712  11.110 -1.4114  0.1540  2.4633
 4676SOL    HW225662   1.268   3.809  11.034  0.4690 -1.8078 -1.5255
 4677SOL     OW25663   2.641   4.264   4.670 -0.9398  0.4380  0.6256
 4677SOL    HW125664   2.641   4.359   4.661 -3.4228  0.3477 -0.2626
 4677SOL    HW225665   2.601   4.247   4.755 -1.4862  0.2889  0.3371
 4678SOL     OW25666   4.333   2.774   8.108  0.2628  0.2416  0.5533
 4678SOL    HW125667   4.347   2.868   8.094 -1.3985  0.3658 -0.3471
 4678SOL    HW225668   4.292   2.728   8.034  2.9374 -3.1242  1.1663
 4679SOL     OW25669   4.255   1.360   5.501  0.5265 -0.1489  0.1591
 4679SOL    HW125670   4.264   1.304   5.578 -2.7377 -0.7614  0.1034
 4679SOL    HW225671   4.339   1.406   5.495  0.4283  0.1674  1.2924
 4680SOL     OW25672   3.039   4.136   8.365 -0.0142 -0.3451  0.5735
 4680SOL    HW125673   3.103   4.094   8.307  0.1453 -0.7236  1.0140
 4680SOL    HW225674   3.085   4.125   8.449 -0.5924 -0.9000  0.8168
 4681SOL     OW25675   4.109   2.809   2.601 -0.1222  0.1540 -0.6622
 4681SOL    HW125676   4.198   2.779   2.621 -0.1318  1.9614  2.0607
 4681SOL    HW225677   4.117   2.800   2.506  1.1515 -3.0385 -0.2710
 4682SOL     OW25678   2.311   3.122  15.455 -0.1100 -0.3307 -0.3300
 4682SOL    HW125679   2.285   3.177  15.529 -1.3239  1.1896 -1.8920
 4682SOL    HW225680   2.295   3.196  15.396  0.3249  0.9624  1.1937
 4683SOL     OW25681   1.506   1.108   4.727  0.9340  0.1446  0.2096
 4683SOL    HW125682   1.522   1.014   4.739 -4.6768 -0.6191  1.7819
 4683SOL    HW225683   1.411   1.117   4.732  1.0338  0.0910  2.2793
 4684SOL     OW25684   1.031   3.131   3.009 -0.0214 -0.3064  0.3642
 4684SOL    HW125685   1.028   3.041   2.977 -1.5444 -0.5003  1.0712
 4684SOL    HW225686   0.948   3.162   2.973  0.3793  1.4653  0.9454
 4685SOL     OW25687   1.497   1.657   7.846  0.4686  0.2793 -0.1444
 4685SOL    HW125688   1.512   1.675   7.753  1.1111 -0.6448 -0.2276
 4685SOL    HW225689   1.440   1.579   7.846 -1.1990  1.4962 -1.0095
 4686SOL     OW25690   2.726   0.541   4.333 -0.1995  0.1402  0.0976
 4686SOL    HW125691   2.684   0.476   4.276  0.1410 -0.0328  0.0402
 4686SOL    HW225692   2.752   0.599   4.262 -0.8611 -1.1364 -1.2061
 4687SOL     OW25693   1.265   1.125   3.434  0.1729 -0.1532 -0.9516
 4687SOL    HW125694   1.272   1.045   3.487 -1.6400  0.6684  0.5326
 4687SOL    HW225695   1.279   1.083   3.349  0.0179  0.7358 -1.4116
 4688SOL     OW25696   2.417   0.619   9.095  0.1774 -0.2547 -0.1377
 4688SOL    HW125697   2.443   0.527   9.099  0.5185 -0.0863  1.2971
 4688SOL    HW225698   2.325   0.617   9.122 -0.7357  0.9368 -3.0676
 4689SOL     OW25699   1.320   3.708   7.294 -0.1592 -0.1271  0.2703
 4689SOL    HW125700   1.365   3.624   7.287  0.8529  0.5243 -1.0666
 4689SOL    HW225701   1.286   3.705   7.383  0.5976  1.8553  0.6192
 4690SOL     OW25702   0.234   1.730  12.118  0.6250  0.0889 -0.0946
 4690SOL    HW125703   0.225   1.672  12.193 -1.0293  0.8028  0.2673
 4690SOL    HW225704   0.174   1.682  12.062  1.5973 -0.8302 -0.3524
 4691SOL     OW25705   0.654   4.529   7.440 -0.1038  0.5981  0.1825
 4691SOL    HW125706   0.664   4.616   7.477  1.1668  0.4973  0.0742
 4691SOL    HW225707   0.620   4.481   7.515 -2.1555 -1.0133 -1.7721
 4692SOL     OW25708   0.025   1.691   4.427 -0.7464  0.5038 -0.4868
 4692SOL    HW125709   4.711   1.737   4.363 -0.6603  0.5337 -0.5385
 4692SOL    HW225710   0.062   1.617   4.379 -2.2060 -1.1657  0.9517
 4693SOL     OW25711   3.930   2.962   4.439  0.6820  0.4895 -0.0754
 4693SOL    HW125712   3.976   2.896   4.386  0.3435  0.1303  0.0817
 4693SOL    HW225713   4.006   3.008   4.476  2.8360 -0.3568 -3.3664
 4694SOL     OW25714   1.297   3.124   5.962  0.3122 -0.1132  0.2822
 4694SOL    HW125715   1.309   3.215   5.988  2.2692 -0.7798  1.6909
 4694SOL    HW225716   1.387   3.104   5.937 -0.1396  0.4914 -1.8072
 4695SOL     OW25717   2.055   1.475   2.690  0.3678 -0.6269 -0.0659
 4695SOL    HW125718   2.108   1.463   2.769 -0.0441 -0.6915  0.2069
 4695SOL    HW225719   2.111   1.442   2.620 -0.5871 -0.6565 -0.8164
 4696SOL     OW25720   3.459   0.428   8.484 -0.1796 -0.2423  0.1070
 4696SOL    HW125721   3.433   0.348   8.531 -1.2249  0.0653  0.0430
 4696SOL    HW225722   3.543   0.447   8.527  0.0757  1.5676 -1.2149
 4697SOL     OW25723   1.907   0.173   8.257 -0.2687 -0.2725 -0.1626
 4697SOL    HW125724   1.930   0.257   8.296 -0.6946 -0.2369  0.0005
 4697SOL    HW225725   1.929   0.176   8.164 -2.8293 -0.4962 -0.7772
 4698SOL     OW25726   3.608   4.200   3.001  0.4493  0.4745  0.2926
 4698SOL    HW125727   3.621   4.295   3.000  1.7783  0.2878  0.5101
 4698SOL    HW225728   3.522   4.190   2.960  1.2479  0.0477 -1.3035
 4699SOL     OW25729   0.873   3.702   7.580 -0.3341 -0.0734  0.3790
 4699SOL    HW125730   0.850   3.702   7.487  0.2730 -1.3606  0.2344
 4699SOL    HW225731   0.803   3.644   7.608 -1.9805  1.4232 -0.6273
 4700SOL     OW25732   2.501   3.378  10.618 -0.4020  0.2645  0.2081
 4700SOL    HW125733   2.449   3.457  10.599  0.1835  0.3342 -1.1460
 4700SOL    HW225734   2.587   3.405  10.584 -1.0641  0.9810 -0.9108
 4701SOL     OW25735   2.957   1.727   1.094 -0.2160 -0.3608  0.5007
 4701SOL    HW125736   2.883   1.696   1.146 -0.5001  1.0951  0.9623
 4701SOL    HW225737   2.921   1.720   1.006  0.8651  1.6913 -0.0982
 4702SOL     OW25738   1.150   1.701   5.407 -0.4320  0.4508 -0.2652
 4702SOL    HW125739   1.100   1.623   5.433 -0.2767  0.3126 -0.3790
 4702SOL    HW225740   1.227   1.657   5.372  0.0646  1.0563  0.0576
 4703SOL     OW25741   4.705   0.645   6.311 -0.1551 -0.0060 -0.2038
 4703SOL    HW125742   0.017   0.716   6.273 -1.4852  1.8386  1.4109
 4703SOL    HW225743   0.028   0.576   6.330 -2.0178 -1.4421  0.7704
 4704SOL     OW25744   3.735   3.226  16.489  0.2517  0.4891  0.3901
 4704SOL    HW125745   3.801   3.206  16.554  1.1594 -0.0801 -0.7025
 4704SOL    HW225746   3.734   3.143  16.441  1.8330  0.0579  1.1225
 4705SOL     OW25747   0.039   3.634  11.232  0.3916 -0.1339  0.2334
 4705SOL    HW125748   4.714   3.572  11.265  0.8693 -0.9669 -0.4045
 4705SOL    HW225749   0.101   3.591  11.174 -0.1659 -1.3585  0.5538
 4706SOL     OW25750   0.139   4.529   8.669  0.7050  0.3286  0.1106
 4706SOL    HW125751   0.220   4.500   8.711 -0.0518  0.0712  1.3795
 4706SOL    HW225752   0.109   4.578   8.746  1.3672  0.3075  0.3870
 4707SOL     OW25753   4.488   0.834   8.157 -0.0802  0.3725 -0.1523
 4707SOL    HW125754   4.542   0.758   8.178 -0.2315  0.1498 -0.5671
 4707SOL    HW225755   4.475   0.861   8.247 -1.4985 -0.9999  0.0443
 4708SOL     OW25756   4.366   1.604   4.199  0.2754 -0.2639 -0.3863
 4708SOL    HW125757   4.289   1.651   4.231  0.4575 -1.6371  2.0878
 4708SOL    HW225758   4.340   1.515   4.225 -0.6542  0.3909  0.9499
 4709SOL     OW25759   0.372   2.190   5.643  0.2385 -0.0142  0.1523
 4709SOL    HW125760   0.336   2.207   5.730 -1.7297  0.3575 -0.7340
 4709SOL    HW225761   0.332   2.266   5.600 -0.5122 -1.2504 -1.3499
 4710SOL     OW25762   4.518   0.247   0.685  0.1923 -0.0308 -0.0159
 4710SOL    HW125763   4.431   0.229   0.650  0.7554 -1.2334 -0.7842
 4710SOL    HW225764   4.544   0.315   0.623  0.2887 -0.5420 -0.5247
 4711SOL     OW25765   1.653   1.480   0.939  0.2357 -0.4052  0.1702
 4711SOL    HW125766   1.635   1.443   0.852 -0.4107 -0.1052  0.1768
 4711SOL    HW225767   1.611   1.416   0.997  1.0348 -2.4498 -1.5093
 4712SOL     OW25768   1.095   1.909   6.501  0.4850 -0.0639  0.2648
 4712SOL    HW125769   1.019   1.865   6.463 -0.3007  2.0325 -0.5838
 4712SOL    HW225770   1.141   1.952   6.428 -1.6053  1.8624  0.1119
 4713SOL     OW25771   3.178   1.991   2.233 -0.3347  0.1807  0.4802
 4713SOL    HW125772   3.101   2.028   2.276  0.9155 -0.4294  3.2699
 4713SOL    HW225773   3.248   2.011   2.296 -1.4627  0.2880  1.6781
 4714SOL     OW25774   0.475   2.424   4.460 -0.4886 -0.4783  0.0713
 4714SOL    HW125775   0.408   2.367   4.423 -0.1243 -0.1712 -1.0545
 4714SOL    HW225776   0.554   2.391   4.418 -0.0450  0.9075 -0.1736
 4715SOL     OW25777   3.410   3.937  11.636  0.6174  0.0942  0.3578
 4715SOL    HW125778   3.422   4.027  11.665 -3.0012  1.1478 -1.4251
 4715SOL    HW225779   3.330   3.909  11.682 -0.8173  2.9246 -0.4463
 4716SOL     OW25780   0.521   4.137  13.307  0.2268  1.0414  0.0815
 4716SOL    HW125781   0.610   4.168  13.323  1.5251 -1.3411 -2.4877
 4716SOL    HW225782   0.542   4.044  13.299 -1.5224  0.5213  1.3850
 4717SOL     OW25783   3.363   1.221   5.351 -0.2266  0.5956 -0.9174
 4717SOL    HW125784   3.341   1.272   5.429  0.3796  0.7990 -0.8773
 4717SOL    HW225785   3.280   1.188   5.316  0.2380  1.1409 -2.5331
 4718SOL     OW25786   2.730   4.724   7.294 -0.2414  0.1379 -0.0413
 4718SOL    HW125787   2.699   4.654   7.351  1.3712 -1.3187 -0.9728
 4718SOL    HW225788   2.823   4.701   7.284 -0.3164 -0.6112  0.9576
 4719SOL     OW25789   2.875   4.009   9.794  0.7636 -0.4170  0.4832
 4719SOL    HW125790   2.954   4.044   9.754  0.8501 -1.0841  0.0707
 4719SOL    HW225791   2.912   3.929   9.833  0.4211 -0.1461  1.3687
 4720SOL     OW25792   4.127   2.069  11.474 -0.1648 -0.1440  0.3711
 4720SOL    HW125793   4.136   1.976  11.498 -0.4118 -0.7352 -1.8681
 4720SOL    HW225794   4.056   2.103  11.529  1.6623  2.0338  1.3557
 4721SOL     OW25795   3.897   3.121   3.206 -0.0384 -0.9079  0.4646
 4721SOL    HW125796   3.805   3.113   3.233 -0.0651  1.1917  1.0043
 4721SOL    HW225797   3.947   3.123   3.287  0.8127  2.9672 -0.1193
 4722SOL     OW25798   2.167   4.573   9.666 -0.4181 -0.1821  0.1735
 4722SOL    HW125799   2.098   4.510   9.646 -0.7945 -0.5100  2.4651
 4722SOL    HW225800   2.210   4.583   9.581  0.9896  0.6732  0.9868
 4723SOL     OW25801   3.407   4.201   3.797 -0.2292  0.0414  0.2612
 4723SOL    HW125802   3.423   4.226   3.888  0.3777  1.6139 -0.2664
 4723SOL    HW225803   3.408   4.105   3.802 -1.6339  0.0302  0.3324
 4724SOL     OW25804   3.279   2.603   9.567  0.2780  0.3429  0.2992
 4724SOL    HW125805   3.323   2.519   9.562  0.4219  0.5779 -2.7792
 4724SOL    HW225806   3.351   2.665   9.578 -0.9128  1.8149 -0.1397
 4725SOL     OW25807   1.870   1.522   3.206  0.4483  0.0906  0.2081
 4725SOL    HW125808   1.788   1.473   3.202  0.2327  0.5882 -1.5439
 4725SOL    HW225809   1.928   1.447   3.218  1.9129  1.3686  1.1492
 4726SOL     OW25810   3.022   0.067   9.187 -0.6271 -0.0277  0.7694
 4726SOL    HW125811   3.007   0.109   9.272  0.1307 -1.0522  1.4179
 4726SOL    HW225812   3.108   0.098   9.159 -1.6850  2.3252  0.1406
 4727SOL     OW25813   3.838   1.901   0.084  0.3060 -0.4383 -0.1974
 4727SOL    HW125814   3.775   1.972   0.082  0.3152 -0.4505 -1.0514
 4727SOL    HW225815   3.882   1.915  17.757  2.1731  0.4000  0.9090
 4728SOL     OW25816   3.910   0.681   4.279  0.0234 -0.2472  0.5207
 4728SOL    HW125817   3.827   0.718   4.311  0.2558 -2.2643  3.4812
 4728SOL    HW225818   3.902   0.590   4.306 -1.6249  0.1370  1.3339
 4729SOL     OW25819   4.327   2.963   6.240  0.2762  0.7522  0.8866
 4729SOL    HW125820   4.320   3.018   6.318 -2.8225  0.9240  0.4754
 4729SOL    HW225821   4.251   2.984   6.185 -0.1595  1.3171  1.7090
 4730SOL     OW25822   1.498   0.782   0.185 -0.4072  0.4936 -0.6793
 4730SOL    HW125823   1.433   0.712   0.178 -0.5923  0.6449 -0.4922
 4730SOL    HW225824   1.443   0.861   0.179 -0.3809  0.3510 -2.9242
 4731SOL     OW25825   3.330   1.512   6.121  0.0430  0.3647 -0.5196
 4731SOL    HW125826   3.236   1.510   6.141 -0.1555 -0.7890 -1.5912
 4731SOL    HW225827   3.367   1.472   6.200 -0.0111  1.0028 -0.1704
 4732SOL     OW25828   1.736   0.125   7.386 -0.2809  0.4738 -0.0711
 4732SOL    HW125829   1.641   0.139   7.384 -0.3145  0.1755 -0.6192
 4732SOL    HW225830   1.756   0.101   7.476 -1.4935  1.3646  0.4340
 4733SOL     OW25831   2.261   0.273   2.216  0.0474 -0.1599 -0.1818
 4733SOL    HW125832   2.309   0.346   2.176  2.0878 -1.4347 -0.0667
 4733SOL    HW225833   2.294   0.197   2.168 -0.4518 -0.3928 -0.1606
 4734SOL     OW25834   3.822   0.256   5.778  0.1892 -0.3018 -0.5671
 4734SOL    HW125835   3.786   0.326   5.723  0.3983 -0.2253 -0.6055
 4734SOL    HW225836   3.795   0.176   5.734 -3.6530 -1.0412  3.1301
 4735SOL     OW25837   0.749   3.920  16.780 -0.4295  0.1110 -0.3686
 4735SOL    HW125838   0.787   4.007  16.797  2.2479 -1.0039 -0.6994
 4735SOL    HW225839   0.776   3.867  16.855  2.9084  1.1373 -0.8531
 4736SOL     OW25840   2.238   0.731  14.794  0.0036  0.0161 -0.1035
 4736SOL    HW125841   2.234   0.752  14.887 -2.0311  1.6940 -0.5676
 4736SOL    HW225842   2.205   0.807  14.745  0.8798 -1.7721 -3.4791
 4737SOL     OW25843   4.220   0.777   7.145 -0.4703 -0.6050  0.7575
 4737SOL    HW125844   4.315   0.765   7.151 -0.5982 -2.6475 -1.3020
 4737SOL    HW225845   4.213   0.846   7.211 -0.7666 -0.0995  0.1977
 4738SOL     OW25846   3.182   0.990  14.881 -0.0021 -0.3388  0.2796
 4738SOL    HW125847   3.162   1.015  14.972 -1.8668 -0.0043 -0.2283
 4738SOL    HW225848   3.157   0.898  14.888 -1.1420 -0.1271 -1.0499
 4739SOL     OW25849   3.037   3.808   5.425 -0.0239 -0.2423 -0.1110
 4739SOL    HW125850   3.037   3.904   5.429 -2.1199 -0.2098 -1.0767
 4739SOL    HW225851   3.129   3.786   5.413  1.0220  4.6715 -1.1509
 4740SOL     OW25852   1.908   4.060   3.760 -0.1044  0.0288  0.3475
 4740SOL    HW125853   1.862   4.065   3.844 -1.4884  0.9778 -0.4732
 4740SOL    HW225854   1.999   4.046   3.789  0.5647  0.0017 -1.7323
 4741SOL     OW25855   0.685   2.891   2.413  0.0232  0.2381 -0.4297
 4741SOL    HW125856   0.773   2.860   2.392 -0.7544 -1.7571 -0.7461
 4741SOL    HW225857   0.696   2.977   2.371 -1.6305  0.0635 -1.2201
 4742SOL     OW25858   4.237   0.741   6.526 -0.5668 -0.3475  0.6254
 4742SOL    HW125859   4.150   0.776   6.508 -1.0848 -1.2837  1.3343
 4742SOL    HW225860   4.300   0.813   6.531 -2.2015  1.2628 -2.0686
 4743SOL     OW25861   3.523   3.998   8.778 -0.1708  0.0003 -0.3718
 4743SOL    HW125862   3.526   3.905   8.801  0.3111  0.3024  0.7443
 4743SOL    HW225863   3.608   4.036   8.801 -0.9271  1.6386 -0.2528
 4744SOL     OW25864   0.586   0.165   4.913  0.8646 -0.0169  0.2741
 4744SOL    HW125865   0.659   0.166   4.975  0.5725 -1.8764  0.6273
 4744SOL    HW225866   0.623   0.149   4.826 -0.2371  2.2189 -0.6164
 4745SOL     OW25867   3.187   0.330   9.046 -0.1787  0.2927  0.6643
 4745SOL    HW125868   3.233   0.253   9.080 -2.2466  0.5966  4.1471
 4745SOL    HW225869   3.169   0.377   9.127  0.7224  1.1745  0.3542
 4746SOL     OW25870   2.735   4.216  14.255  0.2617 -0.1546 -0.1371
 4746SOL    HW125871   2.707   4.168  14.177  1.0306 -1.0383  0.1373
 4746SOL    HW225872   2.808   4.265  14.217 -1.8802  1.9267 -1.5657
 4747SOL     OW25873   1.340   0.956   8.672 -0.1077 -0.5084  0.2835
 4747SOL    HW125874   1.340   0.889   8.603 -0.4947  0.0230 -0.2369
 4747SOL    HW225875   1.429   0.986   8.654  0.3610 -1.7244  0.5719
 4748SOL     OW25876   2.262   0.961   9.474  0.2845 -0.0563 -0.4871
 4748SOL    HW125877   2.168   0.966   9.457  0.5263  0.5737 -1.6276
 4748SOL    HW225878   2.273   0.868   9.494 -0.3232 -0.1408 -0.5278
 4749SOL     OW25879   0.334   2.147   2.249 -0.2391 -0.0755 -0.1531
 4749SOL    HW125880   0.329   2.239   2.222  0.2634  0.4126  1.4177
 4749SOL    HW225881   0.275   2.136   2.323  2.5860 -2.2633  1.7273
 4750SOL     OW25882   2.315   4.348  16.669 -0.0433 -0.5772 -0.2508
 4750SOL    HW125883   2.353   4.417  16.615  0.3750  1.4909  2.6903
 4750SOL    HW225884   2.226   4.383  16.677 -0.4654 -1.2761 -1.8656
 4751SOL     OW25885   1.355   0.251   7.651 -0.1825 -0.2944  0.4748
 4751SOL    HW125886   1.380   0.246   7.559  0.7101  0.4373  0.6743
 4751SOL    HW225887   1.442   0.260   7.690 -0.1516 -1.6706  0.7187
 4752SOL     OW25888   0.890   4.110   8.241  0.4643  0.0435 -0.7377
 4752SOL    HW125889   0.920   4.126   8.152 -0.8325 -2.6599 -1.6401
 4752SOL    HW225890   0.972   4.105   8.290 -0.4744  2.1642  1.0810
 4753SOL     OW25891   1.515   0.541   5.530  0.4076 -0.3940  0.5448
 4753SOL    HW125892   1.560   0.592   5.597 -1.8769 -0.1661  1.8871
 4753SOL    HW225893   1.583   0.478   5.505 -1.8598 -1.7943 -2.0936
 4754SOL     OW25894   3.030   3.589   7.795  0.0481  0.3752  0.2841
 4754SOL    HW125895   2.987   3.672   7.771  0.2187 -0.2090 -2.0615
 4754SOL    HW225896   2.986   3.568   7.877 -1.9394  0.3218 -0.8009
 4755SOL     OW25897   4.624   1.998   8.810  0.1435  0.1967 -0.0535
 4755SOL    HW125898   4.695   2.061   8.810 -0.4388  0.8648 -2.3244
 4755SOL    HW225899   4.605   1.993   8.904 -0.1541  0.6290 -0.0874
 4756SOL     OW25900   0.069   3.028  12.443 -0.0028 -0.2431  0.1454
 4756SOL    HW125901   0.139   2.965  12.457 -0.1183 -0.4331 -0.1224
 4756SOL    HW225902   4.740   2.963  12.432  0.3070 -0.3688 -1.0810
 4757SOL     OW25903   2.659   3.732  16.877 -0.2083  0.4228  0.2881
 4757SOL    HW125904   2.685   3.718  16.786 -0.4653  3.2208 -0.2143
 4757SOL    HW225905   2.601   3.663  16.907 -0.4065 -0.4130 -1.9836
 4758SOL     OW25906   2.179   1.628   8.027 -0.0891 -0.4030 -0.0957
 4758SOL    HW125907   2.219   1.552   7.985 -0.4383 -1.4287  1.4410
 4758SOL    HW225908   2.086   1.623   8.007 -0.4317 -0.2665  1.4455
 4759SOL     OW25909   3.469   0.316   4.599 -0.6410 -0.8741  0.6713
 4759SOL    HW125910   3.412   0.257   4.649 -0.2767  0.6806  2.9278
 4759SOL    HW225911   3.524   0.257   4.549 -1.3141 -1.5285  0.6979
 4760SOL     OW25912   0.482   4.290   7.038  0.4356  0.5474  0.5391
 4760SOL    HW125913   0.395   4.254   7.054 -0.2518  0.5895 -3.0479
 4760SOL    HW225914   0.457   4.354   6.971  0.4130  0.2175  0.2311
 4761SOL     OW25915   3.299   2.215   7.409  1.0104 -0.3996 -0.2084
 4761SOL    HW125916   3.237   2.175   7.348 -1.6282  1.9847  0.9238
 4761SOL    HW225917   3.328   2.293   7.362 -0.1404 -1.1908 -2.2559
 4762SOL     OW25918   1.480   1.922   2.192  0.0722  0.5030  0.2902
 4762SOL    HW125919   1.413   1.857   2.211  0.1304  0.2159 -0.4832
 4762SOL    HW225920   1.534   1.874   2.129  0.0122 -2.1526  2.2722
 4763SOL     OW25921   3.998   0.275  17.002 -0.4913  0.3036 -0.3495
 4763SOL    HW125922   3.936   0.255  16.932 -0.0555 -0.7325 -0.4484
 4763SOL    HW225923   4.049   0.348  16.967  2.8914 -1.4345  0.9707
 4764SOL     OW25924   0.250   2.948   9.142 -0.2433  0.5707  0.1623
 4764SOL    HW125925   0.205   2.912   9.066 -0.7436  2.3526 -0.3799
 4764SOL    HW225926   0.182   2.998   9.186 -2.4941 -1.9811 -0.3709
 4765SOL     OW25927   2.723   3.439   9.741  0.0544  0.4651 -0.1682
 4765SOL    HW125928   2.663   3.507   9.773 -0.2178 -0.5006  1.3911
 4765SOL    HW225929   2.722   3.470   9.651  0.0550  0.1362 -0.2816
 4766SOL     OW25930   3.501   0.758   8.553  0.2069  0.4020 -0.4113
 4766SOL    HW125931   3.563   0.692   8.585 -1.3391 -0.1298  1.4740
 4766SOL    HW225932   3.431   0.747   8.618 -0.1450  0.7907 -0.7219
 4767SOL     OW25933   1.416   2.071  11.266  0.4432 -0.2778  0.1771
 4767SOL    HW125934   1.405   2.020  11.347 -0.6347  0.6836  0.6416
 4767SOL    HW225935   1.329   2.100  11.239 -0.1189 -1.6841  0.4468
 4768SOL     OW25936   1.543   4.413   6.744  1.0533  0.3501 -0.5499
 4768SOL    HW125937   1.507   4.499   6.766  1.6925  0.6794 -0.7845
 4768SOL    HW225938   1.499   4.365   6.814  1.2040 -1.5194 -1.7447
 4769SOL     OW25939   1.002   4.145   5.705  0.3324  0.0192  0.4028
 4769SOL    HW125940   0.995   4.106   5.792 -0.5027 -1.2742 -0.2442
 4769SOL    HW225941   1.090   4.182   5.702 -0.0090  0.6723 -1.4331
 4770SOL     OW25942   4.120   2.166  14.563  0.3246  0.0330 -0.9820
 4770SOL    HW125943   4.080   2.252  14.571 -0.3595  0.0296 -4.4341
 4770SOL    HW225944   4.091   2.134  14.478  0.1840 -0.9645 -0.5579
 4771SOL     OW25945   3.656   1.556   9.269  0.0439  0.1376  0.2219
 4771SOL    HW125946   3.640   1.595   9.183 -3.1287 -0.0417  0.7269
 4771SOL    HW225947   3.746   1.523   9.267 -0.1823 -0.5319  1.0832
 4772SOL     OW25948   1.092   1.970   4.541  0.5238  0.0071  0.6924
 4772SOL    HW125949   1.143   1.947   4.619  0.7920  0.8333  0.7668
 4772SOL    HW225950   1.167   1.970   4.481 -0.7770 -1.8441 -0.9305
 4773SOL     OW25951   2.066   1.583   5.015 -0.3871  0.0866  0.0627
 4773SOL    HW125952   2.099   1.582   4.925 -1.2097 -0.3514 -0.2337
 4773SOL    HW225953   2.148   1.591   5.064 -0.2919 -0.1764 -0.0528
 4774SOL     OW25954   1.031   1.070   2.044  0.0235  0.0095  0.1451
 4774SOL    HW125955   1.035   1.050   2.138 -4.1434 -1.5129  0.0123
 4774SOL    HW225956   1.081   1.005   1.995  0.7634  0.2986  0.5148
 4775SOL     OW25957   4.259   1.037   6.520 -0.0187  0.7951 -0.0612
 4775SOL    HW125958   4.245   1.050   6.614  0.3396 -0.7317  0.1949
 4775SOL    HW225959   4.239   1.125   6.487 -0.3106  0.4891 -0.6917
 4776SOL     OW25960   2.736   2.273   8.463  0.3505  0.0855  0.0109
 4776SOL    HW125961   2.689   2.213   8.405 -0.1424  1.8394 -1.4118
 4776SOL    HW225962   2.688   2.254   8.543 -1.4489  0.2983 -1.0004
 4777SOL     OW25963   0.811   0.628   8.991  0.0708 -0.1581 -0.3710
 4777SOL    HW125964   0.735   0.576   9.020 -1.1663  0.9224 -1.6604
 4777SOL    HW225965   0.842   0.558   8.935 -0.7051  0.0657 -1.0816
 4778SOL     OW25966   4.487   1.546   9.182 -0.7114 -0.5675 -0.0533
 4778SOL    HW125967   4.511   1.577   9.270 -1.3885 -0.4878  0.1020
 4778SOL    HW225968   4.532   1.461   9.182  2.9805  1.3864  1.2166
 4779SOL     OW25969   1.297   0.749   2.609  0.1699 -0.2709  0.1125
 4779SOL    HW125970   1.376   0.695   2.620  0.3496  0.1721  1.0104
 4779SOL    HW225971   1.239   0.693   2.660 -0.7187  0.5750  0.0178
 4780SOL     OW25972   4.170   1.684   5.732 -0.2860 -0.3740  0.8044
 4780SOL    HW125973   4.202   1.719   5.648 -3.0108  0.1228 -0.0093
 4780SOL    HW225974   4.185   1.763   5.784  2.4260 -0.9915  0.9817
 4781SOL     OW25975   3.327   2.153   7.074 -0.0639  0.4396  0.1297
 4781SOL    HW125976   3.247   2.120   7.034  1.3091 -2.9375  0.2029
 4781SOL    HW225977   3.333   2.228   7.014  1.7605  0.4495  0.3295
 4782SOL     OW25978   2.293   4.542   9.901 -0.6633  0.0675 -0.4570
 4782SOL    HW125979   2.257   4.570   9.817  1.2242 -0.6123 -1.5057
 4782SOL    HW225980   2.215   4.534   9.955 -0.3996  2.2747  0.2425
 4783SOL     OW25981   1.683   3.509  11.081  0.3835 -0.3878  0.0307
 4783SOL    HW125982   1.756   3.471  11.131  0.2694 -1.6482 -0.7594
 4783SOL    HW225983   1.699   3.604  11.081  0.6852 -0.4355 -1.3688
 4784SOL     OW25984   3.631   2.572   8.929  0.0385 -0.2695  0.4007
 4784SOL    HW125985   3.568   2.501   8.934 -1.3761  1.0379  1.5017
 4784SOL    HW225986   3.697   2.553   8.995 -0.4651  1.0285  1.2885
 4785SOL     OW25987   2.492   1.666   1.854 -0.0327  0.3350  0.1920
 4785SOL    HW125988   2.471   1.755   1.827  1.1571  0.1811 -1.2712
 4785SOL    HW225989   2.418   1.624   1.810 -0.1617  1.3948 -0.5910
 4786SOL     OW25990   4.511   4.221  11.239 -0.1405  0.1585 -0.3922
 4786SOL    HW125991   4.557   4.302  11.218 -1.9092  0.8070 -1.7323
 4786SOL    HW225992   4.540   4.213  11.330  0.2043  1.0975 -0.4171
 4787SOL     OW25993   1.494   1.431   8.107  0.9129  0.0446 -0.0528
 4787SOL    HW125994   1.415   1.441   8.055  0.6424 -0.8399  0.2028
 4787SOL    HW225995   1.499   1.499   8.175  0.7621  1.6720 -1.6554
 4788SOL     OW25996   2.665   2.140  17.135  0.0472  0.4795 -0.1561
 4788SOL    HW125997   2.617   2.112  17.213 -1.0849 -1.7384 -1.6600
 4788SOL    HW225998   2.662   2.235  17.145  0.4755  0.5567 -0.8203
 4789SOL     OW25999   2.249   2.047   3.203  0.0556 -0.0767 -0.6700
 4789SOL    HW126000   2.185   2.002   3.258 -1.0932  0.0957 -1.8708
 4789SOL    HW226001   2.206   2.051   3.118 -1.6259 -1.7659  0.0978
 4790SOL     OW26002   4.501   4.039  13.222  0.3185  0.6129 -0.3545
 4790SOL    HW126003   4.586   4.057  13.264 -0.7318  0.9792  1.6044
 4790SOL    HW226004   4.521   4.028  13.129 -1.1036  0.5494 -0.6511
 4791SOL     OW26005   2.453   2.822   9.255 -0.1398  0.3958 -0.0591
 4791SOL    HW126006   2.425   2.731   9.268 -3.1834  1.1462 -1.3375
 4791SOL    HW226007   2.400   2.852   9.181 -1.2689  0.4450  0.7574
 4792SOL     OW26008   2.593   4.097   5.625 -0.0573 -0.1279  0.2771
 4792SOL    HW126009   2.549   4.013   5.637  1.2297 -0.5379  2.0537
 4792SOL    HW226010   2.584   4.137   5.712 -3.3741 -1.3530  0.4949
 4793SOL     OW26011   4.038   2.641  12.299 -0.1588  0.1013  0.1202
 4793SOL    HW126012   4.089   2.563  12.274  1.3155  0.7214  1.1955
 4793SOL    HW226013   4.051   2.637  12.394 -4.1507  1.8041  0.7269
 4794SOL     OW26014   2.662   2.952  16.106 -0.7915  0.5254 -0.1038
 4794SOL    HW126015   2.744   2.910  16.081 -1.3862 -0.9606  0.4440
 4794SOL    HW226016   2.676   2.948  16.200 -0.3513 -1.2891 -0.2570
 4795SOL     OW26017   3.519   2.929  15.724  0.3357 -0.0035  0.2138
 4795SOL    HW126018   3.542   2.939  15.632  0.2006  2.6814  0.4740
 4795SOL    HW226019   3.424   2.937  15.725  0.3136 -0.1924 -0.2097
 4796SOL     OW26020   2.484   3.190   8.708 -0.8532 -0.0841  0.3797
 4796SOL    HW126021   2.498   3.185   8.614  0.4512  0.0319  0.5615
 4796SOL    HW226022   2.534   3.112   8.730  0.2223  0.5454  0.1588
 4797SOL     OW26023   3.185   1.190   3.076  0.1841  0.2643  0.4396
 4797SOL    HW126024   3.165   1.129   3.004 -2.6502 -0.1208  1.5573
 4797SOL    HW226025   3.123   1.260   3.055 -0.0359 -0.0977 -0.1430
 4798SOL     OW26026   4.276   1.815  10.455 -0.3055  0.0542  0.6575
 4798SOL    HW126027   4.285   1.773  10.370  1.7644 -0.0282  0.9199
 4798SOL    HW226028   4.307   1.903  10.432 -0.0420  0.3006  1.9547
 4799SOL     OW26029   1.190   2.633   4.411  0.4529  0.0389 -0.0831
 4799SOL    HW126030   1.132   2.675   4.475  0.0508  0.4498 -0.7240
 4799SOL    HW226031   1.123   2.603   4.350  0.3648  1.3749 -0.6389
 4800SOL     OW26032   3.332   1.707   8.844 -0.2698  0.2171  0.2670
 4800SOL    HW126033   3.315   1.624   8.800 -0.8648 -0.1108  1.1214
 4800SOL    HW226034   3.243   1.731   8.867  0.8547  3.0370  1.6756
 4801SOL     OW26035   1.212   1.175   2.330 -0.1485 -0.7475 -0.2006
 4801SOL    HW126036   1.277   1.162   2.262  1.5025  1.2862  0.9895
 4801SOL    HW226037   1.262   1.174   2.412  1.7927  0.8430 -1.3864
 4802SOL     OW26038   2.644   2.546   5.731  0.0060  0.3561  0.0369
 4802SOL    HW126039   2.624   2.586   5.647 -1.8514 -0.4640  0.0771
 4802SOL    HW226040   2.556   2.549   5.768  0.6482  2.5219  1.3984
 4803SOL     OW26041   3.725   2.256  15.458  0.4803  0.1690  0.2313
 4803SOL    HW126042   3.677   2.199  15.517  2.5942 -2.2256 -0.3298
 4803SOL    HW226043   3.759   2.184  15.404  0.7545  0.7196 -0.3309
 4804SOL     OW26044   0.033   3.263   3.792 -0.0088  0.1511 -0.0566
 4804SOL    HW126045   0.063   3.221   3.873 -0.3916  0.2611  0.1416
 4804SOL    HW226046   4.681   3.234   3.792  0.3888 -1.1352 -0.1039
 4805SOL     OW26047   3.889   0.760   2.158  0.0503  0.1780 -0.6063
 4805SOL    HW126048   3.887   0.844   2.203 -1.1328 -0.1992  0.0465
 4805SOL    HW226049   3.944   0.784   2.083  1.9968 -0.3284  0.6436
 4806SOL     OW26050   2.831   2.233   0.595 -0.0685  0.3250 -0.3346
 4806SOL    HW126051   2.870   2.279   0.669  2.0219 -1.5412 -0.2918
 4806SOL    HW226052   2.916   2.207   0.560 -0.8344 -1.8534 -0.5639
 4807SOL     OW26053   3.485   3.548   8.219 -0.3221 -0.1479 -0.6169
 4807SOL    HW126054   3.482   3.514   8.129 -2.9563  1.0146 -0.9903
 4807SOL    HW226055   3.404   3.508   8.252 -1.0597  2.0620  0.3026
 4808SOL     OW26056   4.501   0.846  16.090 -0.1378 -0.3930 -0.0696
 4808SOL    HW126057   4.453   0.901  16.028 -1.6518 -1.6850 -0.0535
 4808SOL    HW226058   4.425   0.799  16.125 -0.8297  0.1695 -0.8188
 4809SOL     OW26059   2.590   3.801   5.842 -0.5088  0.3400 -0.0992
 4809SOL    HW126060   2.593   3.733   5.774  2.4860 -0.6099  0.9943
 4809SOL    HW226061   2.681   3.830   5.835  0.0068 -0.8310  1.7289
 4810SOL     OW26062   2.148   0.573   0.910  0.2912 -0.4663 -0.0171
 4810SOL    HW126063   2.171   0.640   0.846  0.6100 -1.0347 -0.5022
 4810SOL    HW226064   2.232   0.557   0.954  0.4066  0.6566  0.1804
 4811SOL     OW26065   1.280   4.344   6.642  0.5563 -0.2597 -0.5352
 4811SOL    HW126066   1.308   4.331   6.733 -0.6068  0.1186 -0.1211
 4811SOL    HW226067   1.201   4.289   6.641 -0.0957  0.6027  2.5593
 4812SOL     OW26068   2.000   3.333   6.190  0.2841  0.3050  0.5375
 4812SOL    HW126069   2.033   3.261   6.136  2.0837  0.7614  1.0343
 4812SOL    HW226070   2.070   3.398   6.184  0.8974 -0.5202 -1.2346
 4813SOL     OW26071   1.405   2.461   4.365  0.7358  0.0379  0.1299
 4813SOL    HW126072   1.349   2.528   4.404  2.9269  1.1493  1.3216
 4813SOL    HW226073   1.347   2.386   4.383  3.4124 -1.5343  2.1930
 4814SOL     OW26074   3.978   1.809   7.280 -0.5711  0.0272  0.0039
 4814SOL    HW126075   4.010   1.741   7.338  0.6200 -0.2661 -1.0072
 4814SOL    HW226076   3.939   1.863   7.349  2.1465  2.2701 -0.1898
 4815SOL     OW26077   3.046   1.155   1.088 -0.5762 -0.3262 -0.0712
 4815SOL    HW126078   3.077   1.074   1.129 -0.7458 -1.1689 -1.6313
 4815SOL    HW226079   2.951   1.148   1.075 -0.9085  3.6308  0.0355
 4816SOL     OW26080   0.995   4.229   8.727  0.5870 -0.3555 -0.2853
 4816SOL    HW126081   1.076   4.228   8.676  0.8358 -0.9492  0.1256
 4816SOL    HW226082   1.025   4.285   8.799 -1.1638 -0.5412  0.5957
 4817SOL     OW26083   0.899   2.919   8.827  0.1404 -0.2241 -0.1132
 4817SOL    HW126084   0.878   2.827   8.838 -2.4240  0.5629  1.7487
 4817SOL    HW226085   0.815   2.961   8.847  0.9973  1.7930 -0.7419
 4818SOL     OW26086   1.243   1.436  13.727  0.5545 -0.0685  0.0937
 4818SOL    HW126087   1.297   1.472  13.657  0.7929 -0.6826 -0.0386
 4818SOL    HW226088   1.256   1.492  13.804 -0.4761  0.5739 -0.2003
 4819SOL     OW26089   2.220   0.914  15.313  0.6720  0.6986 -0.1248
 4819SOL    HW126090   2.193   0.941  15.401  0.6500  1.5349 -0.3901
 4819SOL    HW226091   2.134   0.926  15.272 -0.0886 -0.4990  1.1151
 4820SOL     OW26092   0.274   3.341   4.679 -1.2258  0.1698  0.2256
 4820SOL    HW126093   0.230   3.260   4.654 -3.0300  0.6120  1.9285
 4820SOL    HW226094   0.365   3.310   4.671 -1.1620  0.7584 -1.2329
 4821SOL     OW26095   1.105   2.937  12.510  0.5545  0.4166 -0.0880
 4821SOL    HW126096   1.045   2.997  12.555  0.0523 -1.1467  1.3427
 4821SOL    HW226097   1.182   2.993  12.503 -0.7289  2.1551 -0.1886
 4822SOL     OW26098   3.580   2.604  16.755  0.0767 -0.4521  0.3057
 4822SOL    HW126099   3.537   2.582  16.672  1.3396  1.4365 -0.8722
 4822SOL    HW226100   3.660   2.552  16.755  0.0039 -0.6017 -2.5772
 4823SOL     OW26101   2.055   1.196   9.448  0.0031 -0.2394  0.0472
 4823SOL    HW126102   2.018   1.108   9.458 -1.7019  0.4066 -0.5629
 4823SOL    HW226103   1.983   1.250   9.416 -0.5295 -1.4813 -0.8678
 4824SOL     OW26104   3.676   3.156   3.331  0.2554 -0.0019  0.4009
 4824SOL    HW126105   3.588   3.149   3.293  1.1405 -0.6589 -1.5362
 4824SOL    HW226106   3.670   3.231   3.390 -0.1171  0.1624  0.1519
 4825SOL     OW26107   3.260   1.538   2.573  0.5389  0.1889 -0.7848
 4825SOL    HW126108   3.209   1.615   2.600  1.4899  1.7113 -3.2685
 4825SOL    HW226109   3.303   1.580   2.499 -0.1287 -2.0885 -2.4566
 4826SOL     OW26110   0.393   3.209   9.412 -0.4606  0.3294  0.2637
 4826SOL    HW126111   0.336   3.233   9.338  0.5667 -0.0872 -0.6616
 4826SOL    HW226112   0.426   3.298   9.426 -0.1922 -0.0990  2.2743
 4827SOL     OW26113   1.832   0.368  10.828 -0.0334 -0.4385 -0.4810
 4827SOL    HW126114   1.836   0.363  10.732 -1.2119 -2.0251 -0.4347
 4827SOL    HW226115   1.754   0.314  10.840 -0.9000  1.2930  1.7163
 4828SOL     OW26116   2.337   4.032   4.531 -0.3009 -0.0848  0.3713
 4828SOL    HW126117   2.429   4.040   4.506 -1.3446  0.0322 -3.3714
 4828SOL    HW226118   2.322   4.124   4.554  0.3550  0.7068 -2.4656
 4829SOL     OW26119   4.101   2.862  15.982 -0.0520 -0.1962 -0.5627
 4829SOL    HW126120   4.080   2.777  16.022 -0.6387  0.1696 -0.0926
 4829SOL    HW226121   4.181   2.846  15.932 -0.0139  0.0447 -0.5768
 4830SOL     OW26122   0.230   2.494  13.626 -0.5195 -0.0104  0.2416
 4830SOL    HW126123   0.139   2.498  13.656 -0.8546  1.9018 -1.0406
 4830SOL    HW226124   0.254   2.557  13.694  3.5988  0.2945 -1.5471
 4831SOL     OW26125   4.573   0.983   6.560 -0.4196 -0.3623  0.2465
 4831SOL    HW126126   4.592   0.900   6.605  0.2596 -1.6559 -2.4173
 4831SOL    HW226127   4.663   0.993   6.531 -0.5870 -0.2299 -0.2168
 4832SOL     OW26128   4.243   2.108   6.093  0.3340 -0.2372  0.0788
 4832SOL    HW126129   4.162   2.066   6.125  1.1766  0.3729  3.0791
 4832SOL    HW226130   4.203   2.133   6.010  0.0620 -1.2835 -0.1101
 4833SOL     OW26131   2.727   4.235  10.718 -0.2541 -0.6799 -0.5918
 4833SOL    HW126132   2.776   4.300  10.668  2.1700 -1.9996  0.0801
 4833SOL    HW226133   2.787   4.163  10.738  0.3932 -0.2523 -0.9870
 4834SOL     OW26134   0.517   1.160  12.820  0.1478 -0.1277 -0.4253
 4834SOL    HW126135   0.447   1.135  12.759 -0.6269 -2.2584  1.3205
 4834SOL    HW226136   0.521   1.254  12.804  2.0880 -0.6428 -3.1301
 4835SOL     OW26137   3.241   0.382  16.526 -0.0523  0.4808 -0.3762
 4835SOL    HW126138   3.153   0.348  16.510  1.0229 -1.2786 -2.5496
 4835SOL    HW226139   3.248   0.435  16.447 -0.4313  1.3989  0.2120
 4836SOL     OW26140   0.194   2.974   3.212 -0.2547 -0.6329  0.4875
 4836SOL    HW126141   0.215   2.927   3.131  0.4276  0.6513 -0.0703
 4836SOL    HW226142   0.188   3.060   3.170 -1.0767 -0.1399  1.6087
 4837SOL     OW26143   0.376   3.803   8.445 -0.5314 -0.4025 -0.1948
 4837SOL    HW126144   0.457   3.849   8.469 -1.0398  0.1772  0.4102
 4837SOL    HW226145   0.408   3.726   8.398 -2.8876 -0.1660 -2.2388
 4838SOL     OW26146   0.795   1.268   5.420  0.7779 -0.5699  0.2816
 4838SOL    HW126147   0.827   1.214   5.348 -0.6738 -3.1251  1.5538
 4838SOL    HW226148   0.727   1.208   5.449 -1.3116  1.8965  0.5259
 4839SOL     OW26149   1.275   1.397   9.279  0.0791 -0.6951  0.3223
 4839SOL    HW126150   1.214   1.470   9.281  0.3934 -0.3991 -0.5824
 4839SOL    HW226151   1.224   1.338   9.224 -0.0601  0.7956 -1.1545
 4840SOL     OW26152   2.978   0.032  12.887  0.4479  0.2451  0.3166
 4840SOL    HW126153   2.893   0.017  12.847  0.2257  0.5579  0.6698
 4840SOL    HW226154   3.016   0.075  12.810  0.6910 -0.5539 -0.0079
 4841SOL     OW26155   1.653   2.018  13.263 -0.0501 -0.1978  0.4448
 4841SOL    HW126156   1.631   1.926  13.248 -3.1740  0.0184  3.7825
 4841SOL    HW226157   1.574   2.064  13.234  0.4009  1.1472  1.3459
 4842SOL     OW26158   4.269   2.118   7.532  0.3429  0.2513 -0.0157
 4842SOL    HW126159   4.363   2.113   7.513  0.5419  0.0074  1.0101
 4842SOL    HW226160   4.247   2.041   7.585 -0.3787 -0.1283 -0.8566
 4843SOL     OW26161   4.416   3.794   4.091 -0.4721  0.1383 -0.4625
 4843SOL    HW126162   4.365   3.872   4.071 -0.6157  0.3058  0.5169
 4843SOL    HW226163   4.360   3.723   4.061 -0.0726 -0.1453 -0.5428
 4844SOL     OW26164   1.078   3.669   3.311  0.4582 -0.3594 -0.1523
 4844SOL    HW126165   1.010   3.726   3.275  0.2974 -0.4693 -0.0192
 4844SOL    HW226166   1.139   3.664   3.237 -0.2431 -0.9607 -0.6863
 4845SOL     OW26167   2.206   1.114   4.641  0.4706  0.2542  0.2773
 4845SOL    HW126168   2.273   1.099   4.708  2.8940  3.5305 -1.4168
 4845SOL    HW226169   2.256   1.152   4.569  1.0980  0.4267  0.8032
 4846SOL     OW26170   2.037   3.211  14.084 -0.1971 -0.0565  0.3509
 4846SOL    HW126171   2.013   3.293  14.041 -0.8289  0.1854  1.1567
 4846SOL    HW226172   1.951   3.168  14.091 -0.5456  0.1603 -2.4256
 4847SOL     OW26173   2.224   2.606   2.545 -0.1514 -0.2119  0.6009
 4847SOL    HW126174   2.136   2.635   2.567  0.4266 -0.0284  2.6929
 4847SOL    HW226175   2.259   2.687   2.507  1.6852 -0.8609  0.8985
 4848SOL     OW26176   4.624   1.963   4.764 -0.0265  0.0631  0.0531
 4848SOL    HW126177   4.591   1.987   4.851  0.7273 -0.0213  0.3628
 4848SOL    HW226178   4.547   1.985   4.712 -1.0585  0.4383  1.7258
 4849SOL     OW26179   4.458   0.831   5.261 -0.0053 -0.4524  0.6100
 4849SOL    HW126180   4.535   0.885   5.274 -1.2699  1.5205 -0.1924
 4849SOL    HW226181   4.393   0.880   5.313 -0.4296 -2.6026  2.1244
 4850SOL     OW26182   0.493   1.715   7.334 -0.1199  0.1487 -0.0494
 4850SOL    HW126183   0.455   1.645   7.282 -1.0820 -0.1915  1.1023
 4850SOL    HW226184   0.511   1.674   7.419  0.2485  1.5553  0.5665
 4851SOL     OW26185   3.435   1.884   6.958  0.3049 -0.1691 -0.3749
 4851SOL    HW126186   3.479   1.966   6.938 -0.2442  0.4749  1.0323
 4851SOL    HW226187   3.389   1.919   7.034 -0.2006 -0.0143 -0.7459
 4852SOL     OW26188   1.617   0.062   3.017 -0.1494  0.6354 -0.1688
 4852SOL    HW126189   1.578   4.722   3.053  1.3622  0.1437  0.3682
 4852SOL    HW226190   1.563   0.074   2.938 -0.3875  2.1006  0.2305
 4853SOL     OW26191   4.185   0.679  14.267  0.6002 -0.2573  0.3201
 4853SOL    HW126192   4.111   0.643  14.218  0.0360  0.6533  0.4998
 4853SOL    HW226193   4.153   0.770  14.267  1.4443  0.0319  2.0867
 4854SOL     OW26194   2.140   2.902   1.933 -0.2191 -0.5660 -0.3162
 4854SOL    HW126195   2.093   2.935   2.009 -1.3422  1.4482 -1.8872
 4854SOL    HW226196   2.108   2.959   1.863 -0.4340  0.3858  0.5584
 4855SOL     OW26197   2.685   2.028   6.261 -0.2304 -0.1176 -0.1845
 4855SOL    HW126198   2.624   1.969   6.304 -0.0904 -0.5950 -0.6367
 4855SOL    HW226199   2.648   2.006   6.176  0.1059  1.1540 -0.6686
 4856SOL     OW26200   1.964   4.707   9.365  0.0806 -0.1238 -0.5591
 4856SOL    HW126201   1.955   0.042   9.423  3.1794 -0.0207 -0.1726
 4856SOL    HW226202   2.042   4.665   9.402  0.7840 -0.5064 -2.4840
 4857SOL     OW26203   0.830   0.853   1.186  0.2012 -0.1126  0.2635
 4857SOL    HW126204   0.801   0.935   1.147  0.7183  0.3368  0.8028
 4857SOL    HW226205   0.828   0.874   1.280  0.9845  0.6368  0.1192
 4858SOL     OW26206   3.739   2.237   8.662  0.6808 -0.1723 -0.1392
 4858SOL    HW126207   3.764   2.149   8.632  0.8864  0.2045 -1.0821
 4858SOL    HW226208   3.733   2.287   8.581  0.7954  1.7791  1.0628
 4859SOL     OW26209   0.678   3.885  14.869 -0.1200  0.3081 -0.5356
 4859SOL    HW126210   0.589   3.853  14.883  0.0129 -0.1406 -0.7238
 4859SOL    HW226211   0.731   3.813  14.903  0.6751  1.4805  0.7502
 4860SOL     OW26212   0.922   3.065  17.397  0.5786 -0.4217 -0.1078
 4860SOL    HW126213   0.861   3.016  17.343  0.7474 -0.9542  0.1887
 4860SOL    HW226214   1.011   3.046  17.365  0.6599  0.0482 -0.1655
 4861SOL     OW26215   3.611   3.536   2.786  0.7676  0.0548  0.3838
 4861SOL    HW126216   3.643   3.521   2.875 -0.6688 -2.3342  0.5145
 4861SOL    HW226217   3.686   3.570   2.737  0.7177 -1.1719 -0.5444
 4862SOL     OW26218   3.356   0.623  11.614  0.0102  0.4678 -0.1976
 4862SOL    HW126219   3.324   0.663  11.534 -0.1045 -0.0368 -0.4073
 4862SOL    HW226220   3.431   0.571  11.583  0.4241  1.3123 -0.6025
 4863SOL     OW26221   1.872   3.225   4.286 -0.0466  0.6408  0.0954
 4863SOL    HW126222   1.873   3.137   4.249 -1.3985  0.3392  0.8089
 4863SOL    HW226223   1.904   3.275   4.210 -0.1064  1.8152  0.8367
 4864SOL     OW26224   3.904   2.260   6.947  0.2346 -0.2377 -0.2960
 4864SOL    HW126225   3.942   2.190   7.001 -1.1557  0.0445  1.0435
 4864SOL    HW226226   3.866   2.308   7.020  0.7765 -1.0332  0.5098
 4865SOL     OW26227   1.690   1.627   4.243 -0.0492 -0.3538  0.3637
 4865SOL    HW126228   1.639   1.593   4.170  1.8790  0.5122 -1.3883
 4865SOL    HW226229   1.775   1.646   4.202 -0.1580  0.1213  0.3564
 4866SOL     OW26230   3.377   1.726   6.342  0.2749  0.1697 -0.1533
 4866SOL    HW126231   3.324   1.767   6.273 -0.2816 -0.2427  0.0276
 4866SOL    HW226232   3.313   1.744   6.411 -1.4050 -0.6568 -1.4667
 4867SOL     OW26233   0.506   3.749   1.315  0.5771 -1.1169 -0.2919
 4867SOL    HW126234   0.519   3.660   1.349 -0.4369 -0.8608  0.7581
 4867SOL    HW226235   0.442   3.779   1.380  1.7804  0.4226  0.1588
 4868SOL     OW26236   4.132   0.847   5.789 -0.1071  0.4927  0.2270
 4868SOL    HW126237   4.110   0.864   5.881  0.0854 -0.1667  0.3940
 4868SOL    HW226238   4.217   0.805   5.803 -0.6816 -0.4463  0.8936
 4869SOL     OW26239   4.299   1.886   5.906  0.6199  0.4445  0.7144
 4869SOL    HW126240   4.361   1.931   5.848 -2.8888  2.8356 -1.1999
 4869SOL    HW226241   4.301   1.954   5.973 -0.7193 -1.3433  2.5570
 4870SOL     OW26242   0.242   0.754   8.022 -0.0307  0.1672 -0.8816
 4870SOL    HW126243   0.299   0.698   8.075 -1.7201  0.5025  1.3061
 4870SOL    HW226244   0.166   0.696   8.013 -1.0305  1.5756 -1.4729
 4871SOL     OW26245   0.471   0.430   5.687 -0.0690  0.4440  0.2231
 4871SOL    HW126246   0.560   0.457   5.709  0.0598  1.0094 -0.9782
 4871SOL    HW226247   0.420   0.502   5.724 -0.7858 -1.1681  2.3418
 4872SOL     OW26248   0.189   1.987  11.993  0.0648 -0.6481  0.2730
 4872SOL    HW126249   0.268   2.029  12.028  1.0291 -0.0721 -2.6036
 4872SOL    HW226250   0.208   1.893  12.005 -4.9855 -1.5580  0.9577
 4873SOL     OW26251   1.480   4.539   1.409 -0.1278  0.1116 -0.2212
 4873SOL    HW126252   1.534   4.586   1.472  0.0813 -1.1034  0.5002
 4873SOL    HW226253   1.447   4.468   1.464  0.5465 -0.9789 -1.2063
 4874SOL     OW26254   1.715   0.895   9.328 -0.1433 -0.0753 -0.2500
 4874SOL    HW126255   1.698   0.986   9.306 -3.2328 -0.9341 -1.4352
 4874SOL    HW226256   1.628   0.859   9.310  0.1882 -1.6727  1.3944
 4875SOL     OW26257   2.896   4.177  14.464  0.0688  0.5937  0.0750
 4875SOL    HW126258   2.824   4.186  14.402 -0.1116  0.1241  0.2206
 4875SOL    HW226259   2.845   4.141  14.536  0.5010  1.4635  0.8124
 4876SOL     OW26260   3.746   0.483   4.459 -0.0098  0.1235 -0.6651
 4876SOL    HW126261   3.720   0.538   4.533  0.5746 -1.9096  1.0394
 4876SOL    HW226262   3.659   0.457   4.428 -1.3842  0.2353  3.0169
 4877SOL     OW26263   1.098   1.826   6.774  0.0320 -0.2894 -0.0243
 4877SOL    HW126264   1.168   1.880   6.812  0.8096 -2.0009  0.9789
 4877SOL    HW226265   1.109   1.855   6.684 -0.4278 -1.0993 -0.3414
 4878SOL     OW26266   0.322   0.848   2.156  0.6165 -0.1500  0.3246
 4878SOL    HW126267   0.368   0.930   2.170 -0.2703  0.4940 -0.5303
 4878SOL    HW226268   0.246   0.877   2.106 -0.2369 -1.6596  0.7326
 4879SOL     OW26269   3.102   3.232   2.518 -0.2664 -0.2239 -0.9072
 4879SOL    HW126270   3.026   3.186   2.553  0.7116 -0.9499  0.2405
 4879SOL    HW226271   3.138   3.279   2.593  1.5241 -2.3087 -0.4640
 4880SOL     OW26272   0.980   3.821   7.796  0.2718 -0.4361 -0.7840
 4880SOL    HW126273   1.053   3.871   7.759  0.1461  1.2995  1.2977
 4880SOL    HW226274   0.931   3.778   7.725  0.7193 -0.2788 -1.1948
 4881SOL     OW26275   2.547   3.693   2.498  0.4240 -0.6153 -0.1358
 4881SOL    HW126276   2.506   3.618   2.541 -0.3234 -0.4927 -0.6314
 4881SOL    HW226277   2.618   3.650   2.452  1.0272  1.3363 -1.0393
 4882SOL     OW26278   4.004   1.864   2.638 -0.3862  0.1198 -0.3484
 4882SOL    HW126279   3.960   1.829   2.560  1.5838  1.9040 -2.2286
 4882SOL    HW226280   4.071   1.797   2.650  0.6526  0.8833 -1.9528
 4883SOL     OW26281   1.223   2.872   9.831  0.3037  0.3310  0.4059
 4883SOL    HW126282   1.254   2.795   9.879  2.0528  0.1226 -1.0364
 4883SOL    HW226283   1.266   2.937   9.887  0.6046  1.2080 -0.8437
 4884SOL     OW26284   0.452   3.157  14.384  0.4948 -0.0569 -0.0042
 4884SOL    HW126285   0.466   3.206  14.465 -1.1647  1.8914 -0.8976
 4884SOL    HW226286   0.504   3.208  14.322 -0.1229  0.2470 -0.2706
 4885SOL     OW26287   2.338   0.925   3.820  0.2242  0.0528 -0.3629
 4885SOL    HW126288   2.254   0.899   3.781  0.7597  0.5310 -1.8316
 4885SOL    HW226289   2.395   0.898   3.748  0.8066  2.6461 -0.8569
 4886SOL     OW26290   1.830   1.398   6.124 -0.1352 -0.0537 -0.4108
 4886SOL    HW126291   1.917   1.360   6.112 -0.5061 -1.8227  2.5520
 4886SOL    HW226292   1.868   1.481   6.154  0.0438  0.1920 -1.3090
 4887SOL     OW26293   4.740   1.562  16.938  0.3432 -0.4087  0.3393
 4887SOL    HW126294   0.033   1.572  16.850  0.3819 -0.2526  0.3722
 4887SOL    HW226295   0.078   1.521  16.974  0.1035 -0.2361  1.0601
 4888SOL     OW26296   3.958   1.898   7.647  0.5424 -0.3072  0.2084
 4888SOL    HW126297   3.885   1.919   7.588 -0.6939 -1.6534  1.2577
 4888SOL    HW226298   3.949   1.803   7.644 -0.0962 -0.2137 -1.0057
 4889SOL     OW26299   1.251   4.299   6.203 -0.2111  1.0551  0.4738
 4889SOL    HW126300   1.329   4.293   6.149 -0.4050  1.2175  0.1772
 4889SOL    HW226301   1.183   4.277   6.140  0.6014  0.2373 -0.1069
 4890SOL     OW26302   2.698   1.709  16.178  0.3081 -0.3268 -0.4995
 4890SOL    HW126303   2.784   1.717  16.137  1.2682  0.9965  1.7662
 4890SOL    HW226304   2.716   1.733  16.269  1.6454  2.3895 -1.4558
 4891SOL     OW26305   3.889   2.339  15.184  0.1921  0.0657 -0.4718
 4891SOL    HW126306   3.902   2.289  15.265  1.9363 -0.1949 -0.9140
 4891SOL    HW226307   3.848   2.420  15.213 -0.2628  0.7125 -2.9450
 4892SOL     OW26308   2.576   0.911   4.139 -0.5461 -0.0202  0.3982
 4892SOL    HW126309   2.505   0.969   4.112 -1.0963 -0.0606  1.8084
 4892SOL    HW226310   2.644   0.936   4.076  0.9070 -1.5010  1.3655
 4893SOL     OW26311   2.741   2.292   5.149  0.2269  0.1863 -0.2788
 4893SOL    HW126312   2.831   2.263   5.139  0.8271  2.0261 -0.2249
 4893SOL    HW226313   2.728   2.249   5.234  1.9516  0.1442 -0.0336
 4894SOL     OW26314   2.607   1.152   4.613  0.3236 -0.1028 -0.1213
 4894SOL    HW126315   2.581   1.060   4.621  2.0336 -0.6492 -0.8218
 4894SOL    HW226316   2.534   1.177   4.556  0.7581 -1.6598 -1.3593
 4895SOL     OW26317   4.421   0.651   4.520  0.0974  0.3857  0.3912
 4895SOL    HW126318   4.398   0.581   4.581 -0.0377  0.8910  0.9205
 4895SOL    HW226319   4.468   0.711   4.577  1.1807 -0.3097  0.2386
 4896SOL     OW26320   0.305   0.962  13.059 -0.5627 -0.0195  0.2172
 4896SOL    HW126321   0.257   0.880  13.050 -0.0106 -0.1983 -1.0957
 4896SOL    HW226322   0.229   1.017  13.080 -1.0254 -0.4406 -0.3662
 4897SOL     OW26323   3.867   2.467   6.617 -0.2925  0.2859  0.2135
 4897SOL    HW126324   3.935   2.481   6.550  0.0879  2.1837  1.0050
 4897SOL    HW226325   3.906   2.388   6.655  0.5008  0.5183 -0.1130
 4898SOL     OW26326   2.977   1.690   3.161  0.1868  0.7979  0.3940
 4898SOL    HW126327   2.933   1.619   3.207  0.0907 -0.9304 -2.4092
 4898SOL    HW226328   2.900   1.743   3.142 -0.8300  0.0041  2.2726
 4899SOL     OW26329   1.773   2.132   5.591 -0.7516  0.1630  0.2675
 4899SOL    HW126330   1.803   2.156   5.678 -0.3521 -1.2072  0.4985
 4899SOL    HW226331   1.744   2.042   5.603  3.0096 -0.9626  0.9301
 4900SOL     OW26332   1.420   3.242  14.719  0.1068  0.0477 -0.0667
 4900SOL    HW126333   1.500   3.219  14.767 -0.4807  0.2724  1.0187
 4900SOL    HW226334   1.445   3.329  14.690  1.7865 -0.3750  0.0787
 4901SOL     OW26335   4.443   3.222  10.727 -0.5500  0.1587  0.4826
 4901SOL    HW126336   4.441   3.316  10.712  1.7126  0.4226  1.8787
 4901SOL    HW226337   4.463   3.184  10.642  0.4792  2.3163 -0.2320
 4902SOL     OW26338   1.001   4.617   7.325  0.3098  0.4200  0.3098
 4902SOL    HW126339   1.054   4.625   7.404 -1.1193  0.4026  1.2738
 4902SOL    HW226340   0.915   4.603   7.364 -1.2508  1.6137 -2.7245
 4903SOL     OW26341   4.344   1.116  15.249  1.4158  0.5103 -0.0281
 4903SOL    HW126342   4.307   1.193  15.292  0.3589 -0.2991  0.5320
 4903SOL    HW226343   4.299   1.047  15.298  2.0206 -0.9705 -1.5576
 4904SOL     OW26344   2.520   1.977   5.392  0.0398 -0.5743 -0.3559
 4904SOL    HW126345   2.436   2.003   5.356 -1.0123 -0.4673  2.1742
 4904SOL    HW226346   2.523   2.040   5.465 -1.6568  1.5171 -2.1185
 4905SOL     OW26347   3.934   2.989   4.762 -0.5302 -0.6716  0.3413
 4905SOL    HW126348   3.923   3.060   4.825  0.1375 -0.9956  0.8231
 4905SOL    HW226349   4.016   3.003   4.714 -1.3991  0.9917 -0.6684
 4906SOL     OW26350   0.396   3.302   3.290  0.1666  0.2037  0.0381
 4906SOL    HW126351   0.380   3.264   3.376  1.4475 -0.2884  0.0634
 4906SOL    HW226352   0.461   3.372   3.299  1.4648 -1.0123  0.1807
 4907SOL     OW26353   3.492   4.625   6.606 -0.4184  0.6764 -0.6070
 4907SOL    HW126354   3.409   4.648   6.564 -0.7727 -0.3870 -0.4798
 4907SOL    HW226355   3.549   4.682   6.554  0.4564 -0.3566 -0.7819
 4908SOL     OW26356   3.320   4.153   4.223 -0.1554 -0.1011 -0.1662
 4908SOL    HW126357   3.228   4.170   4.203 -0.2422 -0.7107 -0.2919
 4908SOL    HW226358   3.358   4.206   4.154  1.7493  0.6185  1.4567
 4909SOL     OW26359   4.613   3.891  16.558  0.0357 -0.3232 -0.4461
 4909SOL    HW126360   4.550   3.908  16.488 -2.6206  1.7485  2.4599
 4909SOL    HW226361   4.686   3.870  16.500  0.4054 -0.4790  0.0742
 4910SOL     OW26362   0.503   1.894   8.662  0.2197  0.0765 -0.2751
 4910SOL    HW126363   0.419   1.855   8.639  0.7785 -0.0921 -2.0180
 4910SOL    HW226364   0.559   1.856   8.594 -0.2356  0.1804 -0.7125
 4911SOL     OW26365   1.533   4.631   8.257  0.2508 -0.4109 -0.2438
 4911SOL    HW126366   1.590   4.593   8.323 -0.0086  1.4124  1.0253
 4911SOL    HW226367   1.456   4.656   8.308 -0.7862  1.4672 -2.6648
 4912SOL     OW26368   2.032   3.320  11.609  0.0644 -0.6819 -0.4119
 4912SOL    HW126369   1.997   3.398  11.653 -0.3421 -0.6935 -0.7101
 4912SOL    HW226370   1.953   3.304  11.558  0.4423 -0.1020 -1.1812
 4913SOL     OW26371   4.420   4.136   4.089 -0.3218  0.5149 -0.7565
 4913SOL    HW126372   4.451   4.175   4.007  1.7402 -0.3435 -0.3622
 4913SOL    HW226373   4.344   4.085   4.061 -0.6657  1.2763 -1.2317
 4914SOL     OW26374   4.294   3.079   4.997 -0.4631  0.5231 -0.2015
 4914SOL    HW126375   4.291   3.051   4.906  0.2578  0.6803 -0.2766
 4914SOL    HW226376   4.213   3.044   5.032 -1.3656 -0.5280 -3.4124
 4915SOL     OW26377   2.204   0.245   7.213  0.4815 -0.0332 -0.4756
 4915SOL    HW126378   2.138   0.267   7.278  1.1462  0.2952  0.0924
 4915SOL    HW226379   2.189   0.152   7.197 -0.7674  0.1381 -0.2743
 4916SOL     OW26380   2.529   0.525  13.444 -0.1635  0.0997  0.3608
 4916SOL    HW126381   2.489   0.439  13.455 -2.3782  1.1837  0.7149
 4916SOL    HW226382   2.448   0.571  13.466 -0.6211 -1.0789  1.1325
 4917SOL     OW26383   0.989   1.325   2.279 -0.1072  0.0443 -0.4606
 4917SOL    HW126384   1.074   1.281   2.285 -0.5861 -0.7321  0.5947
 4917SOL    HW226385   1.000   1.407   2.325  1.0961  0.2535 -1.1246
 4918SOL     OW26386   3.919   3.471  16.462 -0.1715 -0.6596  0.5310
 4918SOL    HW126387   4.010   3.442  16.473 -0.3302 -0.6688  1.8012
 4918SOL    HW226388   3.908   3.526  16.540  0.8132 -0.6513  0.6631
 4919SOL     OW26389   1.931   2.054   2.411  0.0742 -0.2478 -0.8668
 4919SOL    HW126390   1.845   2.012   2.423  0.1118 -0.0389  0.1637
 4919SOL    HW226391   1.988   1.980   2.428  1.3048  0.6668 -1.0524
 4920SOL     OW26392   1.444   4.415   2.444  0.3125  0.0622 -0.6626
 4920SOL    HW126393   1.424   4.392   2.353  0.1543 -0.3623 -0.5230
 4920SOL    HW226394   1.363   4.397   2.491  0.5119 -0.4050 -0.4943
 4921SOL     OW26395   0.356   3.527   5.588  0.1413 -0.2398 -0.0407
 4921SOL    HW126396   0.344   3.436   5.614  0.6914 -0.1594  0.4715
 4921SOL    HW226397   0.438   3.514   5.540 -0.1437  0.7673 -0.8209
 4922SOL     OW26398   0.232   1.853   7.246  0.0512 -0.2206  0.4982
 4922SOL    HW126399   0.230   1.758   7.260  0.9133 -0.2724  0.2723
 4922SOL    HW226400   0.191   1.890   7.324  0.4578 -0.7528  0.9668
 4923SOL     OW26401   3.475   2.230   8.698 -0.0791 -0.3038  0.0653
 4923SOL    HW126402   3.566   2.240   8.726 -0.0585 -0.1467 -0.0609
 4923SOL    HW226403   3.465   2.149   8.748 -2.8739 -0.4215 -0.6475
 4924SOL     OW26404   0.259   3.450   3.773  0.1577 -0.4764 -0.1300
 4924SOL    HW126405   0.179   3.414   3.736 -0.0729  0.7557 -0.8420
 4924SOL    HW226406   0.243   3.480   3.862  0.8445  2.1958 -0.9077
 4925SOL     OW26407   2.616   1.684  12.268  0.0431  0.9289  0.1062
 4925SOL    HW126408   2.651   1.665  12.355  2.6021  1.0559 -0.8950
 4925SOL    HW226409   2.663   1.611  12.227 -2.2590  0.8907 -2.4178
 4926SOL     OW26410   3.660   1.882  12.519 -0.1455 -1.0681 -0.5663
 4926SOL    HW126411   3.734   1.855  12.574 -0.1798  0.6511  0.3409
 4926SOL    HW226412   3.688   1.968  12.485 -3.0810 -0.3420 -1.0976
 4927SOL     OW26413   4.736   4.607  10.132  0.7541  0.5275 -0.4250
 4927SOL    HW126414   4.690   4.690  10.142 -1.2785 -0.8958  1.9714
 4927SOL    HW226415   4.666   4.546  10.153  3.3119 -2.1265  0.4420
 4928SOL     OW26416   1.007   4.010   5.970 -0.1268 -0.4883 -0.1179
 4928SOL    HW126417   1.014   3.915   5.960  1.4343 -0.4632  0.6703
 4928SOL    HW226418   0.930   4.018   6.026  0.7986 -0.8738  1.2028
 4929SOL     OW26419   1.036   3.402   0.298  0.2498  0.0000 -0.0576
 4929SOL    HW126420   1.111   3.362   0.344  0.3261 -0.0392 -0.2140
 4929SOL    HW226421   0.988   3.325   0.267  0.3639 -0.8353  1.8769
 4930SOL     OW26422   0.263   0.933   1.440  0.0241 -0.1199  0.3954
 4930SOL    HW126423   0.226   0.989   1.372  0.8610  0.1580  0.1694
 4930SOL    HW226424   0.299   0.996   1.503  1.3257  0.4579 -0.9254
 4931SOL     OW26425   3.999   4.066  14.367 -0.1874  0.2338  0.2267
 4931SOL    HW126426   3.981   4.132  14.433  4.9384 -2.4908  4.4218
 4931SOL    HW226427   4.084   4.091  14.331  0.7370 -3.5324 -0.2589
 4932SOL     OW26428   2.525   0.818  15.097 -0.0648  0.5517  0.0401
 4932SOL    HW126429   2.524   0.901  15.051 -0.8613  0.4979 -0.0298
 4932SOL    HW226430   2.438   0.782  15.083  0.7124 -1.3992  0.1268
 4933SOL     OW26431   4.211   4.407   1.463  0.0724 -0.1802 -0.1304
 4933SOL    HW126432   4.251   4.419   1.549  1.0767 -0.2023 -0.5949
 4933SOL    HW226433   4.172   4.494   1.457 -0.4082 -0.3846  0.0936
 4934SOL     OW26434   1.643   2.192   3.298 -0.1632 -0.0493 -0.0431
 4934SOL    HW126435   1.646   2.162   3.207 -0.4974 -2.9481  0.9292
 4934SOL    HW226436   1.699   2.269   3.285  1.4113 -0.9717  1.3928
 4935SOL     OW26437   2.442   0.731   2.736 -0.5815 -0.5298  0.7695
 4935SOL    HW126438   2.406   0.812   2.773  1.1001  0.2712  0.6789
 4935SOL    HW226439   2.445   0.763   2.646  0.1380 -1.2122  0.5485
 4936SOL     OW26440   0.508   3.892   9.210  0.0502 -0.0265 -0.3578
 4936SOL    HW126441   0.477   3.824   9.149 -0.7938  1.0050 -1.0733
 4936SOL    HW226442   0.601   3.897   9.189 -0.1470  1.3068 -0.8890
 4937SOL     OW26443   3.761   1.387   8.092 -0.2702  0.2466 -0.1052
 4937SOL    HW126444   3.672   1.421   8.085  0.8484  3.0822 -0.5710
 4937SOL    HW226445   3.758   1.323   8.163  0.3464 -0.5332 -0.7845
 4938SOL     OW26446   2.807   2.980   7.301 -0.3736 -0.2842  0.4131
 4938SOL    HW126447   2.862   2.912   7.264  1.6103  2.3341 -1.4488
 4938SOL    HW226448   2.872   3.028   7.352  1.2730 -0.7387 -1.2900
 4939SOL     OW26449   3.589   1.479  13.983  0.4305  0.5559 -0.1344
 4939SOL    HW126450   3.516   1.517  13.933 -0.9095  0.0631  1.4590
 4939SOL    HW226451   3.631   1.412  13.929  0.2113 -0.0762  0.4806
 4940SOL     OW26452   0.555   1.601   3.467  0.2191 -0.3518  0.5124
 4940SOL    HW126453   0.499   1.594   3.545 -1.1519 -1.6074 -0.5934
 4940SOL    HW226454   0.531   1.541   3.397 -1.3737  1.1535 -0.2294
 4941SOL     OW26455   0.279   3.216  11.254 -0.0492  0.1248 -0.0152
 4941SOL    HW126456   0.194   3.216  11.298  1.4124  0.9268  2.7740
 4941SOL    HW226457   0.328   3.189  11.331  1.3311 -0.1522 -0.9860
 4942SOL     OW26458   1.694   1.121   1.706 -0.3305  0.6099  0.0897
 4942SOL    HW126459   1.745   1.124   1.625  0.4671 -0.0189  0.5661
 4942SOL    HW226460   1.647   1.037   1.699  0.0733  0.2930  1.1567
 4943SOL     OW26461   4.219   1.654   6.810 -0.5237  0.7437  0.1047
 4943SOL    HW126462   4.185   1.667   6.899  2.0781  0.1484  1.1682
 4943SOL    HW226463   4.142   1.632   6.757  0.0261  0.2105 -0.4629
 4944SOL     OW26464   0.838   2.908   7.402 -0.2554  0.1841  0.1761
 4944SOL    HW126465   0.823   2.841   7.336 -0.1572  1.5077 -1.1783
 4944SOL    HW226466   0.805   2.989   7.364  2.5311  0.3380 -1.9586
 4945SOL     OW26467   0.679   0.578   6.216 -0.6810  0.0880 -0.0445
 4945SOL    HW126468   0.690   0.580   6.121 -1.5381 -0.7384 -0.1583
 4945SOL    HW226469   0.762   0.553   6.256 -0.0577 -1.6184 -2.4246
 4946SOL     OW26470   4.597   1.353   3.471  0.0730  0.0038  0.0062
 4946SOL    HW126471   4.637   1.304   3.400 -2.2085  0.7879 -1.8313
 4946SOL    HW226472   4.667   1.360   3.535 -3.2268 -0.2684  3.6501
 4947SOL     OW26473   0.169   1.050  11.213  0.5899 -0.2221 -0.5186
 4947SOL    HW126474   0.235   0.990  11.245  2.8746  2.9508  0.7174
 4947SOL    HW226475   0.092   0.993  11.210  0.6608 -0.2068 -3.2702
 4948SOL     OW26476   0.950   2.393   3.191 -0.3312 -0.1402  0.6867
 4948SOL    HW126477   0.867   2.438   3.175  1.1932  2.3219 -0.2582
 4948SOL    HW226478   0.969   2.361   3.103 -1.1585 -0.0823  0.4883
 4949SOL     OW26479   3.717   0.344   8.010 -0.5208  0.6020 -0.0390
 4949SOL    HW126480   3.809   0.363   7.991 -0.0538 -0.8678  0.7348
 4949SOL    HW226481   3.717   0.250   8.029 -2.5230  0.4708 -0.6379
 4950SOL     OW26482   2.534   1.745   5.714  0.1881  0.2137 -0.3182
 4950SOL    HW126483   2.593   1.763   5.640 -0.6895  0.0091 -1.0762
 4950SOL    HW226484   2.540   1.650   5.716 -2.4194  0.0451 -1.3125
 4951SOL     OW26485   1.072   0.389   5.124 -0.0386 -0.3429  0.4525
 4951SOL    HW126486   1.149   0.340   5.150 -0.5115 -0.4174  1.7255
 4951SOL    HW226487   1.005   0.352   5.182  0.4217 -0.4116  0.9368
 4952SOL     OW26488   1.331   3.299   5.693 -0.2107 -0.2967 -0.0670
 4952SOL    HW126489   1.309   3.282   5.785  2.9521 -0.9220  0.5971
 4952SOL    HW226490   1.369   3.386   5.697  0.1551 -0.4894  0.8076
 4953SOL     OW26491   1.988   3.962  10.193 -0.3649  0.6111  0.4891
 4953SOL    HW126492   1.907   3.922  10.161 -0.5735  0.8788  0.6821
 4953SOL    HW226493   1.947   4.041  10.227 -0.6795  0.4458  0.4982
 4954SOL     OW26494   1.598   2.502  17.379 -0.3118  0.4162  0.1768
 4954SOL    HW126495   1.594   2.598  17.376  0.2032  0.5131  2.3404
 4954SOL    HW226496   1.691   2.490  17.365 -0.4580 -0.5732  0.0412
 4955SOL     OW26497   3.586   1.001   8.008 -0.3975 -0.1356  0.1339
 4955SOL    HW126498   3.616   1.018   8.097  0.5561 -0.1080 -0.1931
 4955SOL    HW226499   3.611   0.912   7.981 -1.4777 -0.6136  0.6742
 4956SOL     OW26500   4.497   3.018   4.300  0.1253 -0.0572 -0.4042
 4956SOL    HW126501   4.554   3.038   4.226 -0.3442  2.7338 -0.0037
 4956SOL    HW226502   4.524   2.927   4.314 -0.4151 -0.1247  0.1881
 4957SOL     OW26503   0.607   4.119   8.679 -0.6154  0.3801 -0.8409
 4957SOL    HW126504   0.593   4.086   8.768  2.2025  2.4288  0.3491
 4957SOL    HW226505   0.591   4.039   8.629 -0.2309  0.2698 -0.7892
 4958SOL     OW26506   0.664   3.490   0.299  0.4205  0.0083 -0.0281
 4958SOL    HW126507   0.730   3.511   0.234  0.7866  0.5830  0.5284
 4958SOL    HW226508   0.676   3.572   0.347 -0.2512  0.4346 -0.5832
 4959SOL     OW26509   4.438   2.876   2.573  0.1552 -0.1781 -0.1438
 4959SOL    HW126510   4.423   2.880   2.668 -0.0133  0.5063 -0.2006
 4959SOL    HW226511   4.503   2.807   2.560 -1.2192 -1.0406 -2.4051
 4960SOL     OW26512   3.291   0.798   8.747  0.4296 -0.5557  0.2812
 4960SOL    HW126513   3.234   0.803   8.671  1.7490  3.0419 -0.4750
 4960SOL    HW226514   3.327   0.885   8.764  0.4159 -0.3230 -0.8758
 4961SOL     OW26515   3.989   3.412   7.217 -0.1037  0.4142 -0.0571
 4961SOL    HW126516   4.063   3.407   7.157 -0.5462  0.3163 -0.5982
 4961SOL    HW226517   3.921   3.362   7.171 -0.6109  1.3579 -0.3431
 4962SOL     OW26518   1.234   3.604   1.337  0.3993  0.1244  0.0382
 4962SOL    HW126519   1.274   3.626   1.421 -2.1465 -1.0783  1.5795
 4962SOL    HW226520   1.149   3.635   1.369  0.7634  0.6631  0.4716
 4963SOL     OW26521   3.267   3.810  13.157  0.1196 -1.0125 -0.1660
 4963SOL    HW126522   3.342   3.795  13.099  0.9140  0.8051  0.3761
 4963SOL    HW226523   3.297   3.884  13.211  0.3001 -0.8662 -0.4700
 4964SOL     OW26524   1.712   3.647   4.176 -0.2237 -0.3715 -0.3709
 4964SOL    HW126525   1.788   3.618   4.228 -0.4822  0.4743  0.4812
 4964SOL    HW226526   1.753   3.662   4.091 -2.0330  1.4404 -0.9331
 4965SOL     OW26527   0.095   0.780   9.237  0.1017 -0.1301 -0.1245
 4965SOL    HW126528   0.155   0.706   9.249  0.6997  0.5566  1.0827
 4965SOL    HW226529   0.047   0.789   9.320  1.9757  3.1846  0.6020
 4966SOL     OW26530   1.588   0.740   5.908  0.1469  0.3138  0.2488
 4966SOL    HW126531   1.633   0.823   5.925 -2.2251  1.3935  1.1804
 4966SOL    HW226532   1.600   0.747   5.813 -0.1494 -0.9053  0.1152
 4967SOL     OW26533   0.216   0.362   5.899  0.5130  0.6179 -0.2133
 4967SOL    HW126534   0.173   0.398   5.977  2.9446 -0.2813  1.5406
 4967SOL    HW226535   0.292   0.324   5.943  1.5763  1.1774 -1.5731
 4968SOL     OW26536   1.653   3.235   2.008  0.0870 -0.1433 -0.4519
 4968SOL    HW126537   1.619   3.148   1.988  0.7562 -0.8583  1.5159
 4968SOL    HW226538   1.741   3.216   2.040 -0.1800  0.4251  0.6344
 4969SOL     OW26539   1.491   1.732   8.703  0.4221 -0.0954  0.9085
 4969SOL    HW126540   1.405   1.734   8.661  1.0202  2.6373 -0.1904
 4969SOL    HW226541   1.466   1.690   8.786  0.3124  0.5471  1.1978
 4970SOL     OW26542   0.354   1.377   2.418  0.7265 -0.4605 -0.8542
 4970SOL    HW126543   0.294   1.450   2.431  0.6796 -0.8443  1.1381
 4970SOL    HW226544   0.353   1.329   2.501 -3.7485  0.1764 -0.5199
 4971SOL     OW26545   4.358   4.177   8.472 -0.0333  0.0878  0.2145
 4971SOL    HW126546   4.442   4.169   8.518 -0.3997  1.8665  1.1620
 4971SOL    HW226547   4.384   4.231   8.397  1.2067 -2.3371 -1.1309
 4972SOL     OW26548   3.818   0.953  16.125  0.0650  0.1533 -0.0134
 4972SOL    HW126549   3.758   0.927  16.055 -1.3890 -0.7992  1.5934
 4972SOL    HW226550   3.875   1.013  16.076  0.5880 -0.6166 -0.3364
 4973SOL     OW26551   3.100   1.153   0.532 -0.0006 -0.0708  0.1727
 4973SOL    HW126552   3.009   1.144   0.560  0.7605 -2.0601  2.0396
 4973SOL    HW226553   3.095   1.111   0.447  1.6330 -3.6394  1.8473
 4974SOL     OW26554   2.152   0.349   4.014  0.3603 -0.1373  0.5823
 4974SOL    HW126555   2.063   0.376   4.038 -0.1752 -1.6332  0.2654
 4974SOL    HW226556   2.159   0.269   4.066  2.0171 -0.2069  0.2508
 4975SOL     OW26557   2.046   3.530   5.531  0.0724  0.3938 -0.1267
 4975SOL    HW126558   2.040   3.434   5.536  0.2543  0.3024 -1.4831
 4975SOL    HW226559   2.051   3.534   5.435 -1.6847 -1.6322 -0.3080
 4976SOL     OW26560   1.757   1.213   2.485  0.0909 -0.4298 -0.2967
 4976SOL    HW126561   1.787   1.186   2.572 -1.7309  0.2468  0.5474
 4976SOL    HW226562   1.807   1.168   2.417  1.6131  0.2530  0.3880
 4977SOL     OW26563   4.097   4.431   2.337 -0.0279 -0.2254 -0.0331
 4977SOL    HW126564   4.102   4.427   2.433  1.6795 -2.4398 -0.2092
 4977SOL    HW226565   4.003   4.424   2.320  0.2187  1.4023 -2.1167
 4978SOL     OW26566   1.672   0.681   3.066  0.5693  0.3592  0.1451
 4978SOL    HW126567   1.637   0.594   3.044  1.5464  0.1246 -0.4579
 4978SOL    HW226568   1.669   0.717   2.977  1.5961 -0.5464 -0.2528
 4979SOL     OW26569   0.970   2.736   7.939  0.7310 -0.2003 -0.1610
 4979SOL    HW126570   0.884   2.723   7.978  1.1068  1.9011  1.3187
 4979SOL    HW226571   1.026   2.742   8.016  0.3449 -1.6634  0.2291
 4980SOL     OW26572   1.344   4.420   3.761  0.0984  0.0816 -0.3760
 4980SOL    HW126573   1.371   4.363   3.833 -1.1952  0.6670  0.5572
 4980SOL    HW226574   1.396   4.498   3.783  0.5019 -0.2719 -0.0636
 4981SOL     OW26575   1.186   2.882   2.579 -0.6759  0.1038  0.0236
 4981SOL    HW126576   1.186   2.911   2.488  3.4919  0.6155  0.1786
 4981SOL    HW226577   1.164   2.791   2.558  0.2788 -0.3029  0.7678
 4982SOL     OW26578   2.522   1.403   4.352 -0.0274  0.1180  0.2189
 4982SOL    HW126579   2.593   1.392   4.290  1.2044  0.6065  1.5294
 4982SOL    HW226580   2.526   1.498   4.361 -2.1146  0.1734  0.6824
 4983SOL     OW26581   2.417   1.037   5.860  0.6395 -0.3134  0.0619
 4983SOL    HW126582   2.347   0.994   5.810  1.0228  2.1024 -2.5542
 4983SOL    HW226583   2.389   1.044   5.951  0.2979  1.6880 -0.1869
 4984SOL     OW26584   0.616   1.513  12.120 -0.1365  0.0055 -0.4999
 4984SOL    HW126585   0.681   1.577  12.150  0.2179 -0.5902  0.0019
 4984SOL    HW226586   0.574   1.556  12.045 -0.4528  0.5706  0.0047
 4985SOL     OW26587   0.722   2.628  11.111 -0.1555 -0.5520 -0.3599
 4985SOL    HW126588   0.787   2.653  11.046  2.0624  0.7691  2.3847
 4985SOL    HW226589   0.643   2.661  11.067 -1.4609 -1.2690  1.4224
 4986SOL     OW26590   2.671   2.314   6.126  0.6252 -0.3076  0.4160
 4986SOL    HW126591   2.689   2.231   6.169  1.4112  0.2080  1.0771
 4986SOL    HW226592   2.616   2.288   6.052  1.1260  0.9026 -0.3860
 4987SOL     OW26593   1.891   3.710   1.826 -0.7643 -0.4384  0.0977
 4987SOL    HW126594   1.850   3.781   1.875 -2.2537 -1.2558  0.0298
 4987SOL    HW226595   1.983   3.736   1.830 -0.7706 -0.1721 -1.4836
 4988SOL     OW26596   3.637   3.025   4.831  0.4382 -0.2477  0.0996
 4988SOL    HW126597   3.681   2.975   4.900  0.9948 -2.0543 -1.5944
 4988SOL    HW226598   3.667   2.977   4.754 -1.2923 -1.3046  0.0820
 4989SOL     OW26599   4.294   1.788   2.404  0.5992  0.2074  0.4470
 4989SOL    HW126600   4.295   1.882   2.426 -0.8802  0.3606 -0.1148
 4989SOL    HW226601   4.335   1.756   2.484  0.2268 -0.4887  0.3566
 4990SOL     OW26602   1.940   0.465   1.630 -0.7825 -0.1206  0.5070
 4990SOL    HW126603   1.887   0.446   1.553  0.2931  0.8557 -0.4846
 4990SOL    HW226604   1.935   0.383   1.679  1.5275  1.0446  2.7311
 4991SOL     OW26605   3.978   3.611  14.374 -0.4596 -0.4890 -0.1784
 4991SOL    HW126606   3.918   3.675  14.337 -1.6591 -1.0254  0.8437
 4991SOL    HW226607   4.059   3.644  14.334 -0.2467  0.5329  1.0993
 4992SOL     OW26608   3.496   2.986   8.037 -0.2439 -0.6281 -0.0366
 4992SOL    HW126609   3.533   2.910   8.084  0.0885 -0.6890 -0.3939
 4992SOL    HW226610   3.541   3.057   8.082 -0.5120 -0.4410 -0.0667
 4993SOL     OW26611   2.518   2.888   7.813 -0.0373  0.3348  0.2236
 4993SOL    HW126612   2.597   2.845   7.847 -0.2595 -0.6305 -0.4792
 4993SOL    HW226613   2.542   2.901   7.721 -1.2125 -0.4826 -0.2036
 4994SOL     OW26614   4.453   0.640   1.815  1.1640 -0.1264  0.1666
 4994SOL    HW126615   4.430   0.560   1.768 -0.4084  0.2390  0.3145
 4994SOL    HW226616   4.481   0.596   1.895  1.3323  0.9856  0.7118
 4995SOL     OW26617   1.119   0.790  17.710  0.1471  0.0682  0.3484
 4995SOL    HW126618   1.156   0.877  17.722 -0.0986  0.4520 -1.6638
 4995SOL    HW226619   1.111   0.788  17.615 -0.9885 -1.0798  0.4693
 4996SOL     OW26620   0.394   2.442   7.920  0.1841  0.0149 -0.1967
 4996SOL    HW126621   0.377   2.366   7.866  0.9627 -1.2413  1.3183
 4996SOL    HW226622   0.438   2.505   7.863  0.1379 -0.9826 -1.3097
 4997SOL     OW26623   0.554   1.125   2.699  0.1986 -0.2892 -0.4433
 4997SOL    HW126624   0.609   1.203   2.695  0.5764 -0.5182  0.2430
 4997SOL    HW226625   0.604   1.055   2.657 -0.8091 -2.5519  2.0410
 4998SOL     OW26626   4.233   4.548   2.735 -0.1631 -0.2134 -0.3301
 4998SOL    HW126627   4.232   4.556   2.830 -2.1772  0.1099 -0.3818
 4998SOL    HW226628   4.285   4.624   2.709 -0.4738 -0.0426 -0.4506
 4999SOL     OW26629   1.258   2.294   2.577 -0.2746  0.0743  0.3340
 4999SOL    HW126630   1.177   2.292   2.527 -0.1107 -0.2004  0.0781
 4999SOL    HW226631   1.318   2.253   2.514 -0.7086  2.8450 -1.8820
 5000SOL     OW26632   1.996   4.693   2.356  0.0369 -0.3209 -0.1858
 5000SOL    HW126633   1.933   4.712   2.425 -1.6096 -1.8412 -1.2632
 5000SOL    HW226634   1.943   4.627   2.311  1.2204 -1.2936 -0.1444
 5001SOL     OW26635   0.306   2.736   4.726 -0.3960 -0.2074 -0.0116
 5001SOL    HW126636   0.241   2.665   4.714 -0.8001  0.2129 -0.3213
 5001SOL    HW226637   0.255   2.812   4.698  0.4987  0.1536 -0.6549
 5002SOL     OW26638   1.555   4.496   1.898  0.3262 -0.2744 -0.5000
 5002SOL    HW126639   1.578   4.517   1.808 -1.3002  1.9634 -0.4029
 5002SOL    HW226640   1.468   4.460   1.884 -0.1072  0.6218 -0.1132
 5003SOL     OW26641   1.419   3.520   9.354 -0.0745  0.0248  0.0074
 5003SOL    HW126642   1.334   3.552   9.383  0.1029  1.5209 -1.1418
 5003SOL    HW226643   1.445   3.600   9.310 -0.6098 -0.1533 -0.6340
 5004SOL     OW26644   0.461   2.325   1.132  0.9787  0.1623 -0.1066
 5004SOL    HW126645   0.388   2.364   1.085 -0.6089 -3.0365 -0.3193
 5004SOL    HW226646   0.449   2.230   1.126 -0.4011  0.2989  0.6392
 5005SOL     OW26647   0.453   3.474  14.479 -0.0584 -0.0908 -0.5300
 5005SOL    HW126648   0.544   3.503  14.469 -1.2867  3.5972 -1.1573
 5005SOL    HW226649   0.458   3.445  14.570 -0.9633  1.7835  0.1210
 5006SOL     OW26650   1.670   0.511   9.763 -0.9533  0.0755  0.2004
 5006SOL    HW126651   1.738   0.567   9.727 -0.0023 -0.6442  0.8889
 5006SOL    HW226652   1.706   0.424   9.748 -1.2113 -0.0372  0.2201
 5007SOL     OW26653   4.498   1.564   3.143 -0.2453  0.2223 -0.4216
 5007SOL    HW126654   4.431   1.592   3.080 -1.0967 -1.4070 -0.2359
 5007SOL    HW226655   4.435   1.532   3.207  0.0421  0.7912  0.1380
 5008SOL     OW26656   0.187   0.567   5.606  0.2172  0.3663 -0.5599
 5008SOL    HW126657   0.213   0.590   5.517  0.2898 -2.1336 -1.1973
 5008SOL    HW226658   0.157   0.477   5.592  1.0145 -0.2274  1.4151
 5009SOL     OW26659   3.352   2.938  11.530  0.3524  0.3171 -0.5166
 5009SOL    HW126660   3.286   2.869  11.538  1.2078 -0.4357 -0.0128
 5009SOL    HW226661   3.398   2.944  11.613 -0.2075  0.3928 -0.2065
 5010SOL     OW26662   3.809   0.027   0.188 -0.0089  0.2175 -0.0815
 5010SOL    HW126663   3.855   0.076   0.119  1.7518 -0.9665  0.2540
 5010SOL    HW226664   3.813   4.674   0.166  1.8581  0.8961 -2.6177
 5011SOL     OW26665   2.699   3.020   3.498 -0.0896  0.1696 -0.7772
 5011SOL    HW126666   2.793   3.003   3.507  0.4635  1.4681 -4.0316
 5011SOL    HW226667   2.659   2.933   3.491  0.1081  0.0233 -0.1175
 5012SOL     OW26668   3.070   1.624   8.892 -0.4952  0.0096  0.1360
 5012SOL    HW126669   3.070   1.596   8.983 -0.5961 -3.6983 -1.0138
 5012SOL    HW226670   2.984   1.594   8.862  0.2827 -0.9248 -1.1447
 5013SOL     OW26671   1.633   2.830   5.855 -0.3541 -0.3336  0.1122
 5013SOL    HW126672   1.564   2.842   5.790 -0.3194  0.1000  0.1552
 5013SOL    HW226673   1.585   2.767   5.908 -1.6553 -1.7382 -2.7439
 5014SOL     OW26674   2.282   2.573   8.856  0.4182 -0.4380 -0.3659
 5014SOL    HW126675   2.227   2.573   8.934 -1.6481  0.3236 -1.8389
 5014SOL    HW226676   2.336   2.496   8.874 -1.2964 -1.1733  1.5798
 5015SOL     OW26677   0.837   2.693  11.753  0.5900  0.6784 -0.2270
 5015SOL    HW126678   0.885   2.773  11.773  1.0466  0.2775  0.2922
 5015SOL    HW226679   0.877   2.632  11.815  0.2498 -0.6379 -1.3008
 5016SOL     OW26680   2.992   3.031   5.795 -0.5692 -0.5085 -0.1399
 5016SOL    HW126681   3.062   3.014   5.858  0.3028  2.4744 -0.3191
 5016SOL    HW226682   2.985   3.126   5.805 -0.1243 -0.5733  0.8126
 5017SOL     OW26683   0.437   0.338  16.145  0.6508  0.5679  0.2469
 5017SOL    HW126684   0.515   0.304  16.100 -0.5324 -2.0591  0.2171
 5017SOL    HW226685   0.451   0.429  16.118 -3.5954  0.8298 -1.0567
 5018SOL     OW26686   2.153   4.120   2.696  0.1313 -0.3854  0.0840
 5018SOL    HW126687   2.186   4.066   2.624 -1.9883  0.3954 -1.4611
 5018SOL    HW226688   2.101   4.049   2.733  1.3744 -1.2989  0.0836
 5019SOL     OW26689   3.894   4.546   6.097 -0.0410 -0.1343  0.3200
 5019SOL    HW126690   3.955   4.617   6.081  0.4383 -0.4297  0.8290
 5019SOL    HW226691   3.841   4.550   6.017 -0.1952  0.7070  0.4640
 5020SOL     OW26692   1.405   1.955   3.318  1.0211  0.2161 -0.0003
 5020SOL    HW126693   1.450   1.939   3.235  4.1963  1.9840  1.3840
 5020SOL    HW226694   1.470   1.916   3.376  0.1144  0.0718  0.9214
 5021SOL     OW26695   0.202   2.094   9.824  0.3497 -0.4546 -0.2043
 5021SOL    HW126696   0.174   2.120   9.736  0.4181  0.7417  0.1266
 5021SOL    HW226697   0.288   2.133   9.835  1.2913 -2.3723 -0.7897
 5022SOL     OW26698   1.057   0.562   4.511 -0.5215  0.0633 -0.1447
 5022SOL    HW126699   1.071   0.531   4.422  2.3685  0.4156  0.2039
 5022SOL    HW226700   1.146   0.575   4.544 -0.9318 -1.2167  1.4744
 5023SOL     OW26701   2.587   4.183   8.781 -0.1883  0.6722 -0.5267
 5023SOL    HW126702   2.659   4.171   8.719 -0.8716  0.1827 -1.2249
 5023SOL    HW226703   2.585   4.278   8.798  2.2505  0.7091 -0.4148
 5024SOL     OW26704   2.207   4.595   6.811 -0.1538  0.0780 -0.2368
 5024SOL    HW126705   2.133   4.626   6.863  0.6245 -1.2187  1.6227
 5024SOL    HW226706   2.159   4.593   6.728 -2.8048 -2.6493  1.3577
 5025SOL     OW26707   4.203   0.196   2.504  0.3655  0.1747  0.1857
 5025SOL    HW126708   4.160   0.254   2.567  1.2213 -0.1349  1.0680
 5025SOL    HW226709   4.130   0.141   2.477 -0.0637  1.3656 -1.0694
 5026SOL     OW26710   4.291   3.262  11.681  0.0281 -0.3243 -0.6165
 5026SOL    HW126711   4.268   3.237  11.770  0.1308  2.0697  0.0711
 5026SOL    HW226712   4.297   3.175  11.642 -0.4027 -0.3338 -0.6573
 5027SOL     OW26713   0.960   2.403   4.630  0.7938 -0.0526 -0.4933
 5027SOL    HW126714   0.956   2.371   4.720 -2.0057 -0.5097 -0.7946
 5027SOL    HW226715   0.877   2.371   4.596  0.1070  2.0764 -0.8142
 5028SOL     OW26716   3.638   2.741   2.619  0.1252  0.3414  0.2137
 5028SOL    HW126717   3.730   2.761   2.632  0.3485  0.0035 -0.8526
 5028SOL    HW226718   3.602   2.828   2.638 -0.1053  0.3771 -0.3775
 5029SOL     OW26719   2.100   4.434  12.645  0.3961  0.1880  0.2179
 5029SOL    HW126720   2.081   4.528  12.656  0.0016  0.3838 -2.1833
 5029SOL    HW226721   2.087   4.408  12.736 -1.2245  1.4538  0.3498
 5030SOL     OW26722   0.486   0.127   0.112 -0.1133  0.3459 -0.4849
 5030SOL    HW126723   0.417   0.191   0.097  0.7895  1.8113  1.6385
 5030SOL    HW226724   0.488   0.102   0.019 -1.8325  0.5116 -0.5536
 5031SOL     OW26725   0.378   4.661   2.086 -0.6017 -0.0957  0.1286
 5031SOL    HW126726   0.283   4.664   2.083 -0.5157  1.0641 -1.3273
 5031SOL    HW226727   0.402   0.013   2.089 -0.1537 -0.2518  1.1450
 5032SOL     OW26728   4.509   4.453  16.933  0.2860 -0.4303  0.3124
 5032SOL    HW126729   4.519   4.407  16.849  0.2023  1.8515 -0.9684
 5032SOL    HW226730   4.505   4.544  16.902  0.5029 -0.8714 -1.0018
 5033SOL     OW26731   2.457   0.062   5.078 -0.6282 -0.4814  0.4865
 5033SOL    HW126732   2.451   0.157   5.081 -0.5193 -0.4234 -1.2990
 5033SOL    HW226733   2.366   0.032   5.070 -1.4682  2.8021 -2.1278
 5034SOL     OW26734   0.556   1.485  16.806  0.4250  0.0258  0.3868
 5034SOL    HW126735   0.569   1.473  16.900 -0.2322 -2.2076  0.1900
 5034SOL    HW226736   0.507   1.405  16.785  0.7643  0.1625 -0.9353
 5035SOL     OW26737   4.649   1.365   7.498  0.0723 -0.2510  0.2447
 5035SOL    HW126738   4.564   1.408   7.510  0.2179 -0.3291  1.5341
 5035SOL    HW226739   4.668   1.360   7.592  0.8404  1.6925  0.1959
 5036SOL     OW26740   3.395   0.348   6.302  0.1512 -0.0325  0.6077
 5036SOL    HW126741   3.439   0.264   6.285 -1.1079 -0.0392 -2.6306
 5036SOL    HW226742   3.306   0.331   6.331  0.2134 -0.5300  0.5100
 5037SOL     OW26743   2.767   0.652  12.659  0.2153 -0.0025  0.2078
 5037SOL    HW126744   2.674   0.644  12.638  0.5080  1.6635 -1.6738
 5037SOL    HW226745   2.808   0.681  12.578  1.4819  0.6714  1.0870
 5038SOL     OW26746   2.743   3.066  16.828 -0.4786  0.8648 -0.1334
 5038SOL    HW126747   2.773   2.996  16.770 -0.9565 -1.0319  1.9157
 5038SOL    HW226748   2.812   3.132  16.829 -1.0541  1.4771 -1.1089
 5039SOL     OW26749   1.566   2.609  13.085 -0.0106 -0.2730 -0.1093
 5039SOL    HW126750   1.505   2.617  13.158  2.9973 -1.4753  2.5124
 5039SOL    HW226751   1.533   2.683  13.033  0.7030  1.9547  2.6302
 5040SOL     OW26752   2.577   0.380  14.497 -0.7027  0.5689 -0.1083
 5040SOL    HW126753   2.576   0.463  14.545 -0.0377  0.3207  0.3421
 5040SOL    HW226754   2.497   0.369  14.445 -2.5591  0.6470  2.7044
 5041SOL     OW26755   3.821   3.096   6.087 -0.0959  0.1546  0.3027
 5041SOL    HW126756   3.737   3.079   6.044  0.5211 -2.3672  0.1146
 5041SOL    HW226757   3.781   3.114   6.172 -0.6285 -2.0212  0.5210
 5042SOL     OW26758   3.396   3.988   2.414  0.4406 -0.4211 -0.2730
 5042SOL    HW126759   3.338   3.928   2.460  1.1134 -0.3177  0.7096
 5042SOL    HW226760   3.401   3.960   2.323  0.4254  1.9301 -1.0190
 5043SOL     OW26761   4.034   0.968   8.665 -0.2945 -0.2379  0.4453
 5043SOL    HW126762   4.101   0.958   8.732  0.5013  2.3160  0.0421
 5043SOL    HW226763   3.953   0.950   8.713 -1.0330 -0.4795 -0.8704
 5044SOL     OW26764   1.516   1.844   1.199 -0.5141 -0.2780  0.1019
 5044SOL    HW126765   1.493   1.933   1.225 -0.0704  0.3917 -1.7964
 5044SOL    HW226766   1.538   1.803   1.282  0.7888 -1.8477 -1.0196
 5045SOL     OW26767   2.957   2.332   5.812  0.0165  0.0697 -0.5029
 5045SOL    HW126768   2.888   2.267   5.825  1.0387 -0.6387  1.2955
 5045SOL    HW226769   2.901   2.399   5.771 -0.7246 -0.0481  0.3130
 5046SOL     OW26770   3.641   0.286   7.060 -0.6765 -0.1614 -0.4444
 5046SOL    HW126771   3.551   0.320   7.059 -1.4896 -2.2740  1.2763
 5046SOL    HW226772   3.626   0.214   7.121 -0.7867  1.9352  1.9820
 5047SOL     OW26773   3.015   3.555  10.636 -0.2542 -0.1986  0.1532
 5047SOL    HW126774   3.006   3.506  10.555  0.1741 -1.1302  0.6589
 5047SOL    HW226775   3.058   3.488  10.691  1.1094  1.9372  1.7222
 5048SOL     OW26776   0.396   1.485   4.203 -0.3696  0.0323 -0.5925
 5048SOL    HW126777   0.416   1.462   4.112  1.5494 -0.5346 -0.0415
 5048SOL    HW226778   0.406   1.405   4.255 -0.4083 -1.1925 -2.4722
 5049SOL     OW26779   1.453   1.520   2.025  0.0045 -0.8276  0.0776
 5049SOL    HW126780   1.424   1.463   1.954  0.9420 -1.8328  0.4949
 5049SOL    HW226781   1.547   1.503   2.033  0.1882  0.9600  1.7390
 5050SOL     OW26782   1.013   1.954   5.941  0.4504 -0.1553 -0.0628
 5050SOL    HW126783   0.957   1.885   5.904 -0.5501  0.9943 -0.6754
 5050SOL    HW226784   0.963   2.029   5.909  0.6411 -0.5920 -1.3699
 5051SOL     OW26785   2.242   3.374   9.373  0.0254  0.3978 -0.4278
 5051SOL    HW126786   2.317   3.322   9.401 -0.3224 -0.5098 -1.2010
 5051SOL    HW226787   2.272   3.456   9.333 -1.0647  1.0779  0.1574
 5052SOL     OW26788   1.621   2.654   9.689  0.1547  0.1849  0.1862
 5052SOL    HW126789   1.540   2.604   9.688  1.2929 -1.6521  0.2091
 5052SOL    HW226790   1.683   2.596   9.733 -1.0415 -1.1155  0.1456
 5053SOL     OW26791   2.449   0.545   6.659  0.1718 -0.2684 -0.0777
 5053SOL    HW126792   2.438   0.500   6.743  1.9791 -0.2376  0.1938
 5053SOL    HW226793   2.501   0.479   6.614 -1.8979 -1.9741  0.0240
 5054SOL     OW26794   1.202   2.296  14.582 -0.5472  0.3664  0.1609
 5054SOL    HW126795   1.136   2.234  14.614  0.2881 -1.2128 -1.1569
 5054SOL    HW226796   1.250   2.300  14.665 -0.4061 -0.4095  0.1203
 5055SOL     OW26797   2.912   1.311   2.902  0.2171  0.1817  0.2721
 5055SOL    HW126798   2.945   1.354   2.823 -0.5352 -0.4267 -0.3697
 5055SOL    HW226799   2.872   1.389   2.941  2.4238  1.0233  0.9120
 5056SOL     OW26800   3.662   1.178   3.156 -0.3742  0.0835 -0.1002
 5056SOL    HW126801   3.638   1.100   3.107  1.5667 -0.1606 -0.6864
 5056SOL    HW226802   3.750   1.159   3.189 -0.7021 -0.1946  0.6208
 5057SOL     OW26803   3.663   0.320  11.081  0.8331 -0.1104  0.0865
 5057SOL    HW126804   3.728   0.379  11.044 -1.5517  2.0422 -0.6392
 5057SOL    HW226805   3.709   0.237  11.067 -2.4235 -1.7137 -1.0951
 5058SOL     OW26806   1.969   1.183  10.389 -0.1338  0.0379  0.2435
 5058SOL    HW126807   2.050   1.134  10.403  0.2703  0.0636 -1.9944
 5058SOL    HW226808   2.002   1.273  10.397  1.9646 -0.6222 -0.9040
 5059SOL     OW26809   1.668   1.742   9.086  0.3642 -0.8222 -0.3781
 5059SOL    HW126810   1.654   1.818   9.029 -0.0968  0.1345  1.0263
 5059SOL    HW226811   1.742   1.782   9.131  0.3517 -1.2064 -0.0181
 5060SOL     OW26812   2.871   1.824  14.057  0.1138  0.0484 -0.4273
 5060SOL    HW126813   2.855   1.877  13.979 -0.8810  1.1587  0.5318
 5060SOL    HW226814   2.788   1.777  14.063  1.1227 -1.7964 -1.1825
 5061SOL     OW26815   1.003   2.415   6.027 -0.2102 -0.0988 -0.3468
 5061SOL    HW126816   1.012   2.345   6.092  2.1956 -0.7247 -1.3700
 5061SOL    HW226817   0.920   2.384   5.990 -0.5062  0.3425 -0.0632
 5062SOL     OW26818   1.106   2.229   4.273  0.1485 -0.1323 -0.4254
 5062SOL    HW126819   1.131   2.246   4.364 -0.0126 -0.0366 -0.3988
 5062SOL    HW226820   1.187   2.238   4.223 -0.7981  0.4906 -1.8230
 5063SOL     OW26821   1.092   1.463   3.630 -0.4754  0.2368 -0.2921
 5063SOL    HW126822   1.091   1.555   3.655  3.2122 -0.2191  1.5330
 5063SOL    HW226823   1.028   1.467   3.559  1.2287  1.7511 -1.7248
 5064SOL     OW26824   2.258   4.182  11.661 -0.2906 -0.1810 -0.3293
 5064SOL    HW126825   2.280   4.207  11.571  2.8554 -0.9432  0.2148
 5064SOL    HW226826   2.203   4.251  11.697  1.2866  0.7303  0.3129
 5065SOL     OW26827   4.304   3.563  15.490 -0.6105 -0.6748 -0.2884
 5065SOL    HW126828   4.213   3.593  15.489 -0.7521 -1.1098 -2.2125
 5065SOL    HW226829   4.305   3.546  15.395  1.4512  3.1768 -0.9497
 5066SOL     OW26830   1.604   1.966   7.302 -0.2848  0.3772  0.1223
 5066SOL    HW126831   1.636   1.876   7.310  1.4535  0.9946 -0.0204
 5066SOL    HW226832   1.531   1.957   7.240 -0.4727  1.4242  0.1827
 5067SOL     OW26833   3.036   4.111   3.559  0.2775 -0.2161  0.1628
 5067SOL    HW126834   3.014   4.033   3.509 -0.0387  0.2094 -0.3590
 5067SOL    HW226835   2.963   4.171   3.547  0.0588 -0.6225 -0.4752
 5068SOL     OW26836   4.113   0.748   2.651 -0.3336  0.6068 -0.1951
 5068SOL    HW126837   4.030   0.722   2.612 -0.7966  2.4001 -0.3720
 5068SOL    HW226838   4.146   0.662   2.679 -0.8354  0.9079  1.2975
 5069SOL     OW26839   4.722   1.054   7.784  0.2231 -0.6983  0.1425
 5069SOL    HW126840   4.633   1.062   7.820  0.8373 -1.4900  1.8515
 5069SOL    HW226841   4.716   0.967   7.744  3.9711 -0.4408 -0.8784
 5070SOL     OW26842   3.934   1.946   5.797 -0.2805  0.3746  0.4528
 5070SOL    HW126843   3.864   2.003   5.764  0.5735  0.0536 -1.9147
 5070SOL    HW226844   4.000   2.013   5.814  1.5012 -1.7286  1.7775
 5071SOL     OW26845   4.361   2.032  10.262 -0.4208  0.5469  0.2626
 5071SOL    HW126846   4.419   2.101  10.296  3.2269 -2.2055 -0.3373
 5071SOL    HW226847   4.285   2.075  10.224  0.5525  0.8695 -1.3576
 5072SOL     OW26848   3.223   4.721   5.462 -0.2154  0.4069 -0.5548
 5072SOL    HW126849   3.261   4.637   5.486 -1.5770 -0.0884 -0.1279
 5072SOL    HW226850   3.158   4.697   5.397 -0.0136 -0.8513 -0.2809
 5073SOL     OW26851   2.215   2.072   1.197 -0.3105 -0.6289  0.4476
 5073SOL    HW126852   2.266   2.033   1.268  0.9009 -0.7542 -0.4854
 5073SOL    HW226853   2.282   2.129   1.160  0.3435 -3.1829 -2.2769
 5074SOL     OW26854   1.543   4.290   6.142  0.0026  0.3354  0.3091
 5074SOL    HW126855   1.596   4.265   6.066  0.7457  1.8889  0.3357
 5074SOL    HW226856   1.550   4.215   6.200  0.2114  0.5991  0.6194
 5075SOL     OW26857   3.985   0.768  15.204 -0.1135  0.0548  0.3791
 5075SOL    HW126858   3.913   0.776  15.266  0.1135 -1.8882  0.8783
 5075SOL    HW226859   4.014   0.681  15.229  0.6805  0.7196  1.7249
 5076SOL     OW26860   4.673   3.683   5.367  0.5097 -0.3730 -0.2560
 5076SOL    HW126861   4.708   3.707   5.281  2.0779  0.6346  0.6581
 5076SOL    HW226862   4.622   3.760   5.392  1.2987 -0.1051  0.5352
 5077SOL     OW26863   3.953   4.031   1.624 -0.4871  0.1644  0.1273
 5077SOL    HW126864   4.037   4.002   1.590 -0.8965  1.5225 -2.0394
 5077SOL    HW226865   3.947   4.125   1.604  0.7321  0.2941  0.4000
 5078SOL     OW26866   3.762   2.888   9.238 -0.0283 -0.8149  0.5343
 5078SOL    HW126867   3.667   2.894   9.240  0.1294  1.6341  0.9853
 5078SOL    HW226868   3.793   2.798   9.226  2.0674 -0.2419  1.5793
 5079SOL     OW26869   2.851   1.947   7.827 -0.3356 -0.1928 -0.5145
 5079SOL    HW126870   2.794   2.024   7.822  1.3909  1.2068  1.1653
 5079SOL    HW226871   2.790   1.890   7.780  0.1186 -1.2309  0.1550
 5080SOL     OW26872   3.724   2.982   4.054  0.2289  0.1106 -0.2235
 5080SOL    HW126873   3.703   2.905   4.002 -3.7572 -0.8379  2.8114
 5080SOL    HW226874   3.642   3.032   4.046  0.8629  1.0748 -0.7616
 5081SOL     OW26875   1.676   4.226   1.950 -0.2252  0.0306 -0.0096
 5081SOL    HW126876   1.662   4.320   1.947 -1.4982 -0.1643 -0.4374
 5081SOL    HW226877   1.603   4.195   1.895  0.3774  1.1808 -1.4675
 5082SOL     OW26878   0.672   1.751   6.668  0.3742 -0.5162 -0.3219
 5082SOL    HW126879   0.682   1.656   6.665  0.4905 -0.4358 -2.1556
 5082SOL    HW226880   0.726   1.754   6.748 -0.4219 -0.0665  0.1959
 5083SOL     OW26881   2.008   4.633  15.597 -0.2564  0.4039 -0.3753
 5083SOL    HW126882   1.935   4.693  15.609 -0.6173 -0.1001 -0.0141
 5083SOL    HW226883   1.961   4.570  15.542 -0.4151  0.2151 -0.0277
 5084SOL     OW26884   3.980   0.311   2.962  0.4974  0.5585 -0.6422
 5084SOL    HW126885   4.007   0.250   2.893  2.5592  0.4284  0.2738
 5084SOL    HW226886   3.947   0.383   2.908 -1.6680 -0.1818 -0.3245
 5085SOL     OW26887   0.512   0.370   4.515 -0.0672 -0.1264 -0.2367
 5085SOL    HW126888   0.554   0.455   4.533  1.4115 -0.7574 -0.6775
 5085SOL    HW226889   0.579   0.327   4.462 -1.5255 -0.5170 -1.7575
 5086SOL     OW26890   1.181   0.555   9.658 -0.0963 -0.0781  0.6115
 5086SOL    HW126891   1.189   0.632   9.714 -1.7303  0.1594  0.5041
 5086SOL    HW226892   1.154   0.600   9.579 -0.2604 -1.6678 -0.2425
 5087SOL     OW26893   2.838   2.774  14.526 -0.1766  0.0846 -0.3743
 5087SOL    HW126894   2.764   2.754  14.469  0.3275 -1.7294 -0.3930
 5087SOL    HW226895   2.906   2.767  14.459  1.5204  1.9293  1.1653
 5088SOL     OW26896   0.550   3.046   7.836 -0.3844 -0.8600 -0.1752
 5088SOL    HW126897   0.552   3.012   7.925  0.4316 -0.1566  0.0793
 5088SOL    HW226898   0.612   2.990   7.790  1.6096  0.1175  1.3539
 5089SOL     OW26899   4.196   2.085  15.890  0.0670 -0.6287 -0.5521
 5089SOL    HW126900   4.121   2.037  15.926  0.6154 -2.5289 -1.9344
 5089SOL    HW226901   4.147   2.165  15.870 -1.1516 -1.4394 -0.8195
 5090SOL     OW26902   0.962   0.051   9.953  0.1303  0.2804  0.4615
 5090SOL    HW126903   0.883   0.008   9.920 -0.0974 -0.6867  2.2744
 5090SOL    HW226904   0.962   0.021  10.044  0.2614  0.1664  0.4235
 5091SOL     OW26905   1.271   4.347  16.572 -0.1114 -0.7631  0.2546
 5091SOL    HW126906   1.361   4.322  16.593 -0.1677 -0.5886  0.6823
 5091SOL    HW226907   1.225   4.325  16.653  0.7004  2.1258  1.4785
 5092SOL     OW26908   2.692   3.759   4.706 -0.2449  0.2789  0.0015
 5092SOL    HW126909   2.742   3.791   4.782  0.0702  2.1469 -0.9768
 5092SOL    HW226910   2.622   3.715   4.753 -1.8187  3.3926  0.5972
 5093SOL     OW26911   0.475   4.520   4.014 -0.0205  0.4939 -0.2830
 5093SOL    HW126912   0.546   4.456   4.010 -1.2648 -1.0198  1.4562
 5093SOL    HW226913   0.437   4.513   3.927  2.1900  0.1470 -1.2107
 5094SOL     OW26914   4.054   3.636  16.971  0.1588 -0.3234  0.4937
 5094SOL    HW126915   4.100   3.660  16.890 -1.2542  0.3896 -0.1016
 5094SOL    HW226916   3.963   3.636  16.942  0.1031 -0.6070  0.6695
 5095SOL     OW26917   4.117   2.406  12.071 -0.1111  0.1962  0.5021
 5095SOL    HW126918   4.102   2.325  12.120  0.3463  0.0999  0.4784
 5095SOL    HW226919   4.194   2.384  12.020  0.0965  1.8042  0.1133
 5096SOL     OW26920   1.415   3.506  10.137  0.3666 -0.3124  0.2399
 5096SOL    HW126921   1.390   3.414  10.139 -1.4433  0.2088  1.3587
 5096SOL    HW226922   1.332   3.550  10.120  1.2425  0.1351 -2.8729
 5097SOL     OW26923   1.512   3.140   7.371 -0.2471  0.5360  0.1519
 5097SOL    HW126924   1.524   3.175   7.459  2.7923  0.2866 -0.1577
 5097SOL    HW226925   1.471   3.055   7.385  0.8501 -0.2642 -1.4678
 5098SOL     OW26926   3.394   1.355   9.393  0.3048 -0.4357 -0.2068
 5098SOL    HW126927   3.342   1.332   9.470  0.5495 -2.0711 -0.5311
 5098SOL    HW226928   3.437   1.432   9.429 -0.9053  1.0285 -1.8909
 5099SOL     OW26929   0.512   2.876  12.697  0.2004 -0.2257 -0.1206
 5099SOL    HW126930   0.509   2.922  12.614  1.1509 -0.3246 -0.2129
 5099SOL    HW226931   0.603   2.845  12.694 -0.1955 -1.7844  3.0229
 5100SOL     OW26932   3.499   1.142   2.086  0.2938 -0.5125 -0.3879
 5100SOL    HW126933   3.573   1.151   2.146  1.2589  2.3873 -2.0504
 5100SOL    HW226934   3.515   1.056   2.048  0.5649 -0.3341 -0.6764
 5101SOL     OW26935   0.576   3.050   5.410 -0.4621 -0.4670 -0.6006
 5101SOL    HW126936   0.668   3.046   5.383  0.1577 -1.6496  1.6777
 5101SOL    HW226937   0.537   3.003   5.336 -0.5157 -1.9474  0.3712
 5102SOL     OW26938   2.307   2.162   2.112  0.6796  0.7135 -0.7994
 5102SOL    HW126939   2.252   2.235   2.142  0.7808  0.4508  0.0464
 5102SOL    HW226940   2.359   2.195   2.039 -0.5243 -0.7858 -2.3087
 5103SOL     OW26941   0.913   4.724   6.696  0.4114  0.6734 -0.0403
 5103SOL    HW126942   0.831   0.013   6.655 -1.3105 -1.9013  1.5937
 5103SOL    HW226943   0.979   0.048   6.672 -0.2555  1.9595  1.6262
 5104SOL     OW26944   3.815   2.796  12.098 -0.3778 -0.4045  0.1859
 5104SOL    HW126945   3.836   2.839  12.015  1.6918 -1.8988 -0.0676
 5104SOL    HW226946   3.840   2.709  12.066  1.1388  0.4622 -0.9902
 5105SOL     OW26947   1.503   1.122   5.797 -0.0151  0.2900 -0.0384
 5105SOL    HW126948   1.498   1.215   5.819 -0.2648  0.2799 -0.0459
 5105SOL    HW226949   1.427   1.086   5.843 -0.5451 -0.0041 -1.1445
 5106SOL     OW26950   0.116   4.718  11.611 -0.1205  0.6914  0.8440
 5106SOL    HW126951   0.065   4.689  11.687  0.3989 -3.3068 -0.3062
 5106SOL    HW226952   0.201   0.001  11.649  0.6722 -1.1651  0.2233
 5107SOL     OW26953   3.332   0.134  10.551 -0.4462  0.1554 -0.2681
 5107SOL    HW126954   3.325   0.189  10.629 -2.7618  1.7586 -1.6208
 5107SOL    HW226955   3.244   0.101  10.535 -0.5527  0.6760 -0.7580
 5108SOL     OW26956   3.846   0.789   3.868  0.4133  0.1387 -0.1112
 5108SOL    HW126957   3.906   0.734   3.817 -2.5948 -2.2381 -1.0642
 5108SOL    HW226958   3.903   0.865   3.882  1.1016 -0.6231  1.2374
 5109SOL     OW26959   1.961   0.108   2.144  0.4827 -0.4950  0.1758
 5109SOL    HW126960   2.004   0.058   2.213 -1.5258 -1.9771  0.3480
 5109SOL    HW226961   1.913   0.180   2.186 -1.2238 -1.3959 -0.2410
 5110SOL     OW26962   3.486   1.923  13.802 -0.9393  0.2515  0.0507
 5110SOL    HW126963   3.530   1.938  13.718  0.7314  0.3140  0.9481
 5110SOL    HW226964   3.471   2.015  13.820 -1.8335  0.2200 -0.5099
 5111SOL     OW26965   3.472   0.262   5.884 -0.4783 -0.2862  0.0991
 5111SOL    HW126966   3.392   0.213   5.905  0.3427 -1.6365  0.0583
 5111SOL    HW226967   3.515   0.293   5.963  0.0404 -1.1148  0.1401
 5112SOL     OW26968   3.702   2.423   7.477  0.0819  0.2866 -0.3709
 5112SOL    HW126969   3.710   2.328   7.472  0.7619  0.2555  1.3162
 5112SOL    HW226970   3.619   2.442   7.434 -0.2782  0.2302  0.2986
 5113SOL     OW26971   2.111   4.427   3.540  0.2059  0.9885  0.5317
 5113SOL    HW126972   2.039   4.423   3.603 -0.6326  1.3736 -0.4104
 5113SOL    HW226973   2.061   4.462   3.466  0.7677 -0.3449 -0.4926
 5114SOL     OW26974   2.753   0.972  11.644 -0.1673  0.5830 -0.9508
 5114SOL    HW126975   2.817   0.904  11.620  0.8053  1.1764 -0.0145
 5114SOL    HW226976   2.807   1.049  11.630  0.2361  0.0795 -2.1330
 5115SOL     OW26977   0.189   4.086  14.812  0.5044 -0.3139 -0.0759
 5115SOL    HW126978   0.243   4.148  14.764 -2.1928  0.7500 -1.7314
 5115SOL    HW226979   0.255   4.035  14.859  0.4728  0.6886  1.0622
 5116SOL     OW26980   3.727   2.958   2.431 -0.2849  0.0501 -0.2828
 5116SOL    HW126981   3.654   3.001   2.386 -1.5855 -2.0768 -0.1796
 5116SOL    HW226982   3.705   2.990   2.519 -2.8814 -0.6826 -0.6819
 5117SOL     OW26983   1.313   2.652   9.153  0.1045  0.3395 -0.5032
 5117SOL    HW126984   1.270   2.706   9.220 -0.6108  0.9993 -1.4867
 5117SOL    HW226985   1.240   2.614   9.104 -0.3436  0.1994  0.2786
 5118SOL     OW26986   2.090   1.072   7.336  0.3333 -0.3038 -0.1768
 5118SOL    HW126987   2.146   1.086   7.413 -1.7898  0.8657  1.1661
 5118SOL    HW226988   2.011   1.029   7.368  1.2574 -2.6945 -1.1145
 5119SOL     OW26989   3.571   2.057   3.998 -0.5003 -0.5530 -0.2153
 5119SOL    HW126990   3.533   1.992   3.939  0.2634  0.2165 -1.5608
 5119SOL    HW226991   3.553   2.140   3.954  2.0239  0.1947  0.2007
 5120SOL     OW26992   3.230   0.542  16.000  0.4972  0.1630  0.2852
 5120SOL    HW126993   3.298   0.499  15.947 -1.2415  0.2345 -2.0238
 5120SOL    HW226994   3.159   0.553  15.937  1.0249  0.9196 -0.1732
 5121SOL     OW26995   2.987   2.245   7.785 -0.1539 -0.5501 -0.1166
 5121SOL    HW126996   3.075   2.281   7.798 -1.2617  1.7379  0.9020
 5121SOL    HW226997   2.936   2.324   7.800  2.5466  1.3008 -0.7163
 5122SOL     OW26998   3.763   2.087   2.799  0.1248  0.1010  0.4435
 5122SOL    HW126999   3.707   2.132   2.862 -1.5181 -0.8673 -0.3317
 5122SOL    HW227000   3.785   2.004   2.842  2.4838  0.9902  0.9213
 5123SOL     OW27001   2.889   2.576   1.539  0.3075 -0.0368  0.1748
 5123SOL    HW127002   2.934   2.501   1.579 -0.0298 -0.9070 -1.0734
 5123SOL    HW227003   2.955   2.603   1.475 -0.1665  1.9734  0.5254
 5124SOL     OW27004   1.422   1.902   2.578  0.3090 -0.3674 -0.3695
 5124SOL    HW127005   1.470   1.828   2.541 -0.9876 -2.3297  1.8810
 5124SOL    HW227006   1.380   1.932   2.497  0.2493  2.3454  0.6669
 5125SOL     OW27007   1.134   2.733   2.018  0.0784  0.1943  0.5556
 5125SOL    HW127008   1.091   2.660   1.972  1.6524  1.3300 -2.7223
 5125SOL    HW227009   1.223   2.734   1.981 -0.6229 -0.3823 -1.1527
 5126SOL     OW27010   0.523   3.095  13.237 -0.3417 -0.0222  0.0673
 5126SOL    HW127011   0.545   3.051  13.318  1.4412  1.5122  0.4205
 5126SOL    HW227012   0.520   3.019  13.179 -1.9370  0.7731 -0.8922
 5127SOL     OW27013   2.828   4.711   4.770  0.6101  0.4873  0.6585
 5127SOL    HW127014   2.750   4.663   4.741  1.3266  0.3588 -1.0644
 5127SOL    HW227015   2.894   4.665   4.718  1.9017 -0.0241  2.7500
 5128SOL     OW27016   1.073   0.014   4.064  0.4456 -0.2940  0.1677
 5128SOL    HW127017   1.072   0.083   3.998  1.4814  0.3867  0.8732
 5128SOL    HW227018   1.164   0.012   4.092  0.9076  0.4724 -1.3116
 5129SOL     OW27019   1.217   0.700  15.499  0.3773  0.4504 -0.0658
 5129SOL    HW127020   1.213   0.716  15.404 -1.1183  0.1096 -0.0662
 5129SOL    HW227021   1.174   0.616  15.515  1.4177 -0.1238 -0.2965
 5130SOL     OW27022   1.675   3.068   6.349  0.1600 -0.3338  0.3091
 5130SOL    HW127023   1.759   3.023   6.348  0.2974 -0.0556 -0.9879
 5130SOL    HW227024   1.667   3.097   6.258  1.4057 -2.8249 -0.5931
 5131SOL     OW27025   3.004   0.621  12.197 -0.0318  0.0937 -0.1164
 5131SOL    HW127026   3.078   0.617  12.137  0.7325  1.6748  0.7029
 5131SOL    HW227027   2.940   0.682  12.161  1.0269  1.0020 -0.4831
 5132SOL     OW27028   0.331   2.914   2.303 -0.3384  0.1329 -0.1929
 5132SOL    HW127029   0.383   2.959   2.368  0.6299 -3.4830  1.5348
 5132SOL    HW227030   0.341   2.822   2.327  4.5171 -0.2311 -3.5869
 5133SOL     OW27031   0.371   3.047   2.071 -0.3098 -0.1667  0.2828
 5133SOL    HW127032   0.442   3.110   2.084 -0.5178  0.1614 -0.1755
 5133SOL    HW227033   0.369   2.993   2.150 -0.9025 -2.4511 -1.3073
 5134SOL     OW27034   4.084   4.537   4.685 -0.1878  0.1023  0.5163
 5134SOL    HW127035   4.117   4.627   4.687  0.2198 -0.0474  0.6227
 5134SOL    HW227036   3.991   4.555   4.678  0.0499  0.6963 -1.1807
 5135SOL     OW27037   3.488   4.008   3.242  0.5577 -0.7088 -0.0410
 5135SOL    HW127038   3.473   3.923   3.202 -1.9933 -0.8011  1.1129
 5135SOL    HW227039   3.518   4.049   3.161 -0.8266  0.0428 -0.1773
 5136SOL     OW27040   4.498   3.890   2.740 -0.0340  0.0799 -0.8263
 5136SOL    HW127041   4.458   3.906   2.825  2.8525  0.9352  0.3471
 5136SOL    HW227042   4.457   3.957   2.685 -1.2284 -0.8252 -1.0307
 5137SOL     OW27043   0.799   3.202   0.688 -0.2469  0.2998  0.5555
 5137SOL    HW127044   0.777   3.213   0.596 -2.4285 -3.0936  0.6476
 5137SOL    HW227045   0.731   3.254   0.732  0.5633  1.3936  0.4821
 5138SOL     OW27046   0.843   4.370   8.082  0.3974 -0.0393  0.4000
 5138SOL    HW127047   0.903   4.434   8.043 -0.5423  1.6884  1.7813
 5138SOL    HW227048   0.844   4.302   8.016  2.8630  3.1190 -2.8484
 5139SOL     OW27049   0.741   3.324   3.517  0.1912 -0.1967  0.0837
 5139SOL    HW127050   0.670   3.382   3.542 -0.1359 -0.1080 -1.0774
 5139SOL    HW227051   0.751   3.261   3.588  1.0742  0.6440  0.7115
 5140SOL     OW27052   2.487   1.513  17.323 -0.3171  0.2317  0.0568
 5140SOL    HW127053   2.521   1.568  17.394 -1.4892 -1.0839  1.6243
 5140SOL    HW227054   2.397   1.499  17.353  0.7499 -0.7090  2.8335
 5141SOL     OW27055   1.351   1.973   9.705 -0.3716  0.0526 -0.2529
 5141SOL    HW127056   1.343   1.902   9.769 -0.2312  0.2871  0.0174
 5141SOL    HW227057   1.444   1.959   9.688 -0.3252  1.6173 -1.2417
 5142SOL     OW27058   3.673   2.540   6.365 -0.3207 -0.6053 -0.0678
 5142SOL    HW127059   3.742   2.512   6.306  0.0074 -1.0825  0.5395
 5142SOL    HW227060   3.709   2.591   6.438 -0.4656 -0.1773 -0.2962
 5143SOL     OW27061   3.600   2.524   5.807  0.1011  0.4368 -0.2453
 5143SOL    HW127062   3.598   2.443   5.859 -0.6459 -0.9245 -2.3664
 5143SOL    HW227063   3.611   2.585   5.880 -0.5439 -0.1985  0.3922
 5144SOL     OW27064   1.448   0.711   1.427  0.3644 -0.0325  0.8323
 5144SOL    HW127065   1.498   0.678   1.502  0.3944 -0.9760  0.4003
 5144SOL    HW227066   1.384   0.640   1.420 -2.5649  2.6174  0.8003
 5145SOL     OW27067   1.633   4.070  16.782  0.5093  0.0423 -0.2848
 5145SOL    HW127068   1.708   4.124  16.807  0.7527 -0.0837 -0.7649
 5145SOL    HW227069   1.588   4.092  16.864 -0.0600  3.6295 -1.5193
 5146SOL     OW27070   1.827   0.292   2.457  0.4294 -0.4244 -0.6929
 5146SOL    HW127071   1.908   0.329   2.423  0.1538  1.2840  0.5382
 5146SOL    HW227072   1.858   0.214   2.503  0.7973 -0.3472 -0.8102
 5147SOL     OW27073   3.261   2.051   1.764 -0.2146 -0.2663  0.0983
 5147SOL    HW127074   3.341   2.018   1.722 -0.3349 -0.6135  0.1501
 5147SOL    HW227075   3.295   2.106   1.835 -1.0489 -2.1854  1.9584
 5148SOL     OW27076   2.133   0.871   9.047 -0.0996  0.6244 -0.1968
 5148SOL    HW127077   2.046   0.873   9.006  0.2465 -0.0113 -0.9615
 5148SOL    HW227078   2.128   0.803   9.114  0.1224 -1.3383 -2.1899
 5149SOL     OW27079   1.186   2.484   7.529  0.7143 -0.0808 -0.3455
 5149SOL    HW127080   1.122   2.414   7.520  0.6255 -0.0323 -0.1019
 5149SOL    HW227081   1.137   2.557   7.568 -0.4314 -1.1029  0.1296
 5150SOL     OW27082   0.973   1.022   5.025 -0.0547 -0.4921  0.7138
 5150SOL    HW127083   0.921   1.069   5.091  0.1472  0.9467 -0.1592
 5150SOL    HW227084   0.938   0.934   5.038 -2.3129 -0.3498 -4.5643
 5151SOL     OW27085   0.749   2.412   7.920 -0.3262 -0.4769  0.4841
 5151SOL    HW127086   0.676   2.425   7.860 -0.1504 -0.9147  0.1822
 5151SOL    HW227087   0.791   2.334   7.884  0.5637  0.0793  0.3131
 5152SOL     OW27088   1.499   1.135   3.701  0.0033 -0.5510  0.2005
 5152SOL    HW127089   1.426   1.156   3.760  0.3728 -0.1155  0.5007
 5152SOL    HW227090   1.444   1.080   3.645 -0.6218  1.2150 -0.9266
 5153SOL     OW27091   1.834   4.627   7.233  0.4147  0.1131  0.1402
 5153SOL    HW127092   1.865   4.652   7.146  2.5060  2.1802  1.4971
 5153SOL    HW227093   1.773   4.693   7.265 -0.9802  0.1029 -2.4620
 5154SOL     OW27094   0.409   2.009   7.546 -0.5975  0.1220 -0.7488
 5154SOL    HW127095   0.352   1.973   7.479 -0.2275  0.1546 -1.0853
 5154SOL    HW227096   0.347   2.019   7.618  1.4184  2.6140  0.6542
 5155SOL     OW27097   0.428   0.705   6.813  0.5744 -0.0541  0.3307
 5155SOL    HW127098   0.439   0.709   6.718 -0.4770 -0.3729  0.1890
 5155SOL    HW227099   0.370   0.781   6.820 -2.3405 -2.3302  1.1490
 5156SOL     OW27100   4.685   4.025   6.299 -0.4391  0.1695  0.5516
 5156SOL    HW127101   4.605   3.985   6.333 -0.7701  1.9292  1.8829
 5156SOL    HW227102   0.008   3.957   6.324 -1.3178 -0.9705 -0.3496
 5157SOL     OW27103   0.913   1.580   7.063  0.1773 -0.0066 -0.0157
 5157SOL    HW127104   0.875   1.629   6.991 -0.0765 -1.5953 -0.9550
 5157SOL    HW227105   0.997   1.625   7.078  0.9353 -1.3064 -0.3163
 5158SOL     OW27106   3.126   2.307   9.002  0.3253  0.1334  0.6304
 5158SOL    HW127107   3.172   2.313   9.086  1.0676  2.6495  0.0424
 5158SOL    HW227108   3.170   2.228   8.969  0.2077  1.7057 -3.3555
 5159SOL     OW27109   3.931   1.547   3.025 -0.1612  0.2775  0.1045
 5159SOL    HW127110   3.993   1.488   3.067  0.5658 -1.2677 -3.1448
 5159SOL    HW227111   3.844   1.508   3.029 -0.2141  0.2986 -0.9388
 5160SOL     OW27112   2.710   3.282   7.924  0.1513  1.0390  0.1782
 5160SOL    HW127113   2.622   3.243   7.926  0.9848 -0.9560 -2.1403
 5160SOL    HW227114   2.737   3.248   7.839  3.3874  0.1849  1.5283
 5161SOL     OW27115   3.873   0.774   5.985 -0.4380  0.1358  0.5975
 5161SOL    HW127116   3.886   0.732   6.070  2.1851  2.6325  1.3925
 5161SOL    HW227117   3.851   0.860   6.020 -2.2861  0.8814 -2.3974
 5162SOL     OW27118   4.058   1.097   9.855  0.1693  0.2311  0.0349
 5162SOL    HW127119   4.007   1.021   9.882  0.7187 -1.0511 -2.4714
 5162SOL    HW227120   3.989   1.141   9.805 -0.0452  0.6930  0.7328
 5163SOL     OW27121   1.350   1.821   9.120  0.1220  0.1578 -0.4826
 5163SOL    HW127122   1.281   1.870   9.166 -0.0536 -0.3634 -0.1923
 5163SOL    HW227123   1.409   1.828   9.195  0.0957  0.1353 -0.4598
 5164SOL     OW27124   4.071   2.941   7.886  0.0033  0.5502 -0.0325
 5164SOL    HW127125   4.018   2.868   7.854  0.0793  1.1289 -1.4409
 5164SOL    HW227126   4.028   3.010   7.836 -2.5573 -1.2309 -0.3229
 5165SOL     OW27127   3.427   4.297   4.493 -0.0247 -0.1671 -0.1150
 5165SOL    HW127128   3.389   4.247   4.422  1.1913  0.6527 -1.3415
 5165SOL    HW227129   3.407   4.244   4.570 -0.4427 -3.1990 -2.3054
 5166SOL     OW27130   1.110   3.656   2.035 -0.6834  0.5885 -0.3695
 5166SOL    HW127131   1.053   3.582   2.055  0.2329  0.9784  3.7111
 5166SOL    HW227132   1.118   3.694   2.123 -2.1229  2.1656 -0.9280
 5167SOL     OW27133   1.771   0.020   7.634 -0.0231 -0.4572  0.6927
 5167SOL    HW127134   1.739   4.671   7.649  2.3661 -1.3216  0.8221
 5167SOL    HW227135   1.857   0.019   7.677  0.3097  0.3490  0.0414
 5168SOL     OW27136   4.535   3.303   2.002  0.6078 -0.2889 -1.0629
 5168SOL    HW127137   4.519   3.211   1.979  1.5172 -0.7437  0.1302
 5168SOL    HW227138   4.459   3.343   1.960 -1.7856 -0.5643  3.0230
 5169SOL     OW27139   2.483   3.400   4.363 -0.4511 -0.0482  0.4078
 5169SOL    HW127140   2.571   3.435   4.371  0.7432 -2.1378 -3.7118
 5169SOL    HW227141   2.434   3.458   4.422 -0.3843 -0.5341  0.9478
 5170SOL     OW27142   2.953   3.883  13.642  0.2090  0.5280  0.5096
 5170SOL    HW127143   2.900   3.818  13.689  0.9974 -2.2078 -2.4471
 5170SOL    HW227144   2.977   3.832  13.566  1.0939  0.3306  0.9276
 5171SOL     OW27145   0.182   2.488   6.040 -0.6974 -0.3276 -0.3475
 5171SOL    HW127146   0.150   2.433   6.111 -0.9516  1.1148  0.6534
 5171SOL    HW227147   0.261   2.532   6.073 -1.4443  0.4501  0.3878
 5172SOL     OW27148   1.397   2.815   6.776  0.4507 -0.0161 -0.5786
 5172SOL    HW127149   1.483   2.855   6.766  0.7876 -0.3722  0.8648
 5172SOL    HW227150   1.416   2.730   6.817 -3.1971 -1.1354 -1.1848
 5173SOL     OW27151   1.664   0.590   9.103  0.4132 -0.2439  0.0603
 5173SOL    HW127152   1.716   0.565   9.179 -0.5478 -1.9812  0.1396
 5173SOL    HW227153   1.575   0.573   9.133  0.3511 -0.8150 -0.4589
 5174SOL     OW27154   0.356   3.160  16.982  0.3487  0.2840  0.1023
 5174SOL    HW127155   0.337   3.110  16.902 -1.8208  0.1376  0.7161
 5174SOL    HW227156   0.394   3.237  16.941  0.9850  0.4507  1.0118
 5175SOL     OW27157   1.860   0.571   8.681 -0.2027  0.1108 -0.2867
 5175SOL    HW127158   1.789   0.563   8.617  1.1371  1.5332 -1.9534
 5175SOL    HW227159   1.824   0.531   8.760  1.8390  2.4227  1.8118
 5176SOL     OW27160   2.234   1.335   7.501  0.2951 -0.4154 -0.4774
 5176SOL    HW127161   2.164   1.283   7.542 -0.6154  1.0202 -0.2193
 5176SOL    HW227162   2.301   1.326   7.569  1.1001 -0.2887 -1.2494
 5177SOL     OW27163   3.349   0.256   0.335 -0.0491  0.1842 -0.5475
 5177SOL    HW127164   3.284   0.297   0.278  0.3709 -1.3224 -2.1255
 5177SOL    HW227165   3.418   0.239   0.270  0.2757  3.4336 -1.0406
 5178SOL     OW27166   2.188   3.688   3.416 -0.4725  0.1580  0.3285
 5178SOL    HW127167   2.268   3.637   3.399 -0.7502 -0.4875  0.9705
 5178SOL    HW227168   2.233   3.740   3.483  0.5452 -0.9729  0.5317
 5179SOL     OW27169   3.081   3.811  11.534 -0.4456 -0.5568  0.6641
 5179SOL    HW127170   3.097   3.885  11.593  1.1562  0.0657 -0.5703
 5179SOL    HW227171   3.155   3.754  11.556  1.5096  1.6428 -0.3194
 5180SOL     OW27172   4.719   0.610   4.594 -0.1892 -0.3877 -0.6208
 5180SOL    HW127173   0.071   0.590   4.581  0.5132  1.0957  2.0580
 5180SOL    HW227174   4.709   0.688   4.649  2.7083  0.7456 -1.7605
 5181SOL     OW27175   4.287   0.327   0.906  0.0568  0.2624 -0.0424
 5181SOL    HW127176   4.201   0.367   0.893 -1.0361 -1.3443  2.3474
 5181SOL    HW227177   4.292   0.312   1.001  0.7313 -1.0199 -0.2813
 5182SOL     OW27178   0.922   4.535  14.737  0.5913 -0.1584 -0.4188
 5182SOL    HW127179   0.850   4.597  14.742 -0.0779 -0.8884 -0.9416
 5182SOL    HW227180   0.930   4.516  14.643  2.2538  1.1112 -0.5319
 5183SOL     OW27181   1.474   3.299  12.320  0.1005  0.3048  0.0864
 5183SOL    HW127182   1.410   3.360  12.357  0.2256  0.7200 -0.3867
 5183SOL    HW227183   1.491   3.345  12.238  0.2501 -2.0800 -1.2235
 5184SOL     OW27184   0.412   3.512   4.433 -0.6315  0.3309  0.0653
 5184SOL    HW127185   0.499   3.477   4.451 -0.7349  0.9984  1.7761
 5184SOL    HW227186   0.383   3.518   4.523 -3.6038  2.1840 -1.0254
 5185SOL     OW27187   1.845   3.641   3.942 -0.6795  0.3906 -0.4350
 5185SOL    HW127188   1.857   3.680   3.855  0.6734  1.0121  0.0430
 5185SOL    HW227189   1.937   3.631   3.966 -0.9737 -3.3290 -0.9323
 5186SOL     OW27190   0.810   4.331   8.562 -0.4194  0.3826 -0.0055
 5186SOL    HW127191   0.869   4.291   8.627  0.2235  0.0254 -0.8147
 5186SOL    HW227192   0.733   4.278   8.582  0.9909 -1.2908  0.9861
 5187SOL     OW27193   3.405   4.366   6.300 -0.1655  0.2580  1.2015
 5187SOL    HW127194   3.314   4.337   6.304  0.0327 -0.2148  2.4866
 5187SOL    HW227195   3.395   4.459   6.321  0.9089  0.6202  0.0820
 5188SOL     OW27196   1.442   2.882   7.430 -0.1341  0.1013 -0.0237
 5188SOL    HW127197   1.529   2.851   7.455  0.1585  1.0478  0.1051
 5188SOL    HW227198   1.395   2.852   7.509  1.3877  0.1571  0.9051
 5189SOL     OW27199   4.009   3.742   5.449  0.2477 -0.5443  0.2483
 5189SOL    HW127200   3.974   3.655   5.430 -0.6627 -0.1416  0.1109
 5189SOL    HW227201   4.103   3.724   5.454  0.0831 -0.9127  1.9372
 5190SOL     OW27202   3.084   3.948   4.044 -0.6101 -0.5748  0.4376
 5190SOL    HW127203   3.088   4.002   4.124  1.5471  0.2479 -0.2182
 5190SOL    HW227204   3.088   4.020   3.982  1.5596 -0.8751  0.2150
 5191SOL     OW27205   1.057   3.946   1.643 -0.2170  0.1132 -0.1612
 5191SOL    HW127206   1.138   3.919   1.685  0.9146  1.0717 -1.7181
 5191SOL    HW227207   1.072   4.037   1.614 -0.6710  0.4082  0.5293
 5192SOL     OW27208   2.601   4.127  15.860 -0.1593  0.4896  0.1768
 5192SOL    HW127209   2.506   4.129  15.860 -0.1879 -1.0334 -0.9597
 5192SOL    HW227210   2.607   4.103  15.953  2.4304 -0.7707 -0.3053
 5193SOL     OW27211   3.485   0.798   1.076 -0.2443  0.3869 -0.5366
 5193SOL    HW127212   3.429   0.836   1.008 -0.5345  3.1585  1.2541
 5193SOL    HW227213   3.484   0.854   1.154  0.3965  1.0459 -0.9974
 5194SOL     OW27214   0.334   1.381  12.536  0.4993 -0.5901 -0.2537
 5194SOL    HW127215   0.409   1.377  12.595 -1.6943 -1.6087  2.5051
 5194SOL    HW227216   0.298   1.293  12.550 -1.5599  0.5196  1.4418
 5195SOL     OW27217   1.372   3.183   5.183  0.6180  0.4451 -0.4321
 5195SOL    HW127218   1.392   3.264   5.231 -0.9394  2.8400 -3.7838
 5195SOL    HW227219   1.465   3.167   5.167  0.3375 -2.8968  1.3517
 5196SOL     OW27220   2.453   1.671   7.368 -0.4004  0.0035 -0.0264
 5196SOL    HW127221   2.444   1.626   7.452  1.4344 -0.8980 -0.3309
 5196SOL    HW227222   2.471   1.593   7.315  2.5149  1.8403 -1.7149
 5197SOL     OW27223   4.661   3.362   7.291  0.2408  1.2268 -0.1165
 5197SOL    HW127224   4.637   3.359   7.384  0.3450  0.1145 -0.1256
 5197SOL    HW227225   4.712   3.282   7.280 -0.2438  0.9992 -0.7513
 5198SOL     OW27226   4.206   4.340   7.145  1.2434  0.3626 -0.1623
 5198SOL    HW127227   4.251   4.277   7.089  0.9183 -0.0388  0.0253
 5198SOL    HW227228   4.225   4.307   7.233 -2.2921 -1.9766 -0.2457
 5199SOL     OW27229   0.342   4.229   7.616  0.3989 -0.0612  0.2374
 5199SOL    HW127230   0.430   4.206   7.587 -0.4793 -2.1492 -0.7927
 5199SOL    HW227231   0.361   4.249   7.707 -0.0791  2.1621 -0.1565
 5200SOL     OW27232   4.606   3.925   3.107  0.0068  0.1571  0.0453
 5200SOL    HW127233   4.700   3.947   3.106  0.2067 -0.5147  2.2122
 5200SOL    HW227234   4.565   4.006   3.077 -0.3568  0.2090  0.6839
 5201SOL     OW27235   2.298   1.481   1.295 -0.2102  0.0214  0.0326
 5201SOL    HW127236   2.371   1.423   1.272  0.7189  0.6169  1.4540
 5201SOL    HW227237   2.353   1.555   1.322 -0.1564  0.4923 -1.3848
 5202SOL     OW27238   3.000   2.851  17.537 -0.4686  0.0599  0.0404
 5202SOL    HW127239   3.063   2.921  17.556  0.9219 -0.2081 -3.6477
 5202SOL    HW227240   3.016   2.785  17.605  0.5383  0.0928 -0.1679
 5203SOL     OW27241   4.238   1.598   6.363  0.1392  0.7302 -0.3734
 5203SOL    HW127242   4.235   1.678   6.415 -0.3694  0.6419 -0.2655
 5203SOL    HW227243   4.234   1.629   6.272 -0.4254  2.0915  0.1148
 5204SOL     OW27244   3.344   4.311  15.073 -0.1581  0.2105 -0.1627
 5204SOL    HW127245   3.284   4.252  15.119  3.1000 -2.6560  0.3810
 5204SOL    HW227246   3.323   4.399  15.103 -1.7319 -0.3677  0.4870
 5205SOL     OW27247   1.955   0.533   3.375 -0.3118 -0.0191 -0.2294
 5205SOL    HW127248   1.995   0.566   3.294 -0.1766 -0.6312 -0.4074
 5205SOL    HW227249   1.965   0.439   3.366 -0.8678 -0.1732  0.7757
 5206SOL     OW27250   3.156   3.052   1.991  0.4695  0.0755  0.2254
 5206SOL    HW127251   3.103   2.998   1.932  2.1363 -0.6165 -0.6609
 5206SOL    HW227252   3.124   3.025   2.076  2.2690  0.1387  0.9343
 5207SOL     OW27253   4.387   0.639   9.081  0.3971  0.1602 -0.1555
 5207SOL    HW127254   4.343   0.683   9.154  0.7674  0.1596  0.0630
 5207SOL    HW227255   4.390   0.710   9.017  0.4583  0.2572 -0.0451
 5208SOL     OW27256   1.755   4.695   4.342 -0.3353 -0.5886 -0.5517
 5208SOL    HW127257   1.669   4.702   4.385 -1.4364  0.3696 -2.9092
 5208SOL    HW227258   1.743   4.734   4.256  1.9981 -1.1852 -1.1355
 5209SOL     OW27259   0.283   3.070  16.742 -0.2625 -0.4109  0.1920
 5209SOL    HW127260   0.335   2.990  16.731  0.4313  0.0438  0.1757
 5209SOL    HW227261   0.194   3.039  16.724 -0.7951  0.4515  1.3891
 5210SOL     OW27262   1.439   4.668   7.994  0.5240  0.5731 -0.5581
 5210SOL    HW127263   1.384   4.730   8.042  1.6673  0.4310  0.9361
 5210SOL    HW227264   1.484   4.631   8.070  1.1527  0.6532 -0.8930
 5211SOL     OW27265   2.593   2.885   5.848  0.2028  0.1469 -0.0065
 5211SOL    HW127266   2.653   2.896   5.921  0.4240  2.0532 -0.4958
 5211SOL    HW227267   2.532   2.818   5.881  0.8885 -0.9441 -0.9232
 5212SOL     OW27268   2.539   2.351   0.059 -0.3106 -0.0347 -0.3197
 5212SOL    HW127269   2.571   2.369   0.147 -0.4781 -1.7912  0.1089
 5212SOL    HW227270   2.447   2.373   0.071 -0.2295 -1.0881  2.1617
 5213SOL     OW27271   2.681   0.834   3.739  0.7011  0.4036  0.7009
 5213SOL    HW127272   2.610   0.856   3.678  0.4359  1.6353  1.4508
 5213SOL    HW227273   2.746   0.818   3.670 -0.0595  1.7430 -0.3256
 5214SOL     OW27274   2.027   4.690   1.219  0.2600  0.1405  0.0531
 5214SOL    HW127275   2.061   0.010   1.285  0.2692  0.0554  0.1259
 5214SOL    HW227276   2.032   0.008   1.143  4.6523 -0.6145 -0.2467
 5215SOL     OW27277   4.288   2.666   3.824  0.1693 -0.5450  0.8248
 5215SOL    HW127278   4.363   2.714   3.788  0.8259 -3.9828 -2.3868
 5215SOL    HW227279   4.245   2.738   3.869 -0.1147 -0.0218 -0.2812
 5216SOL     OW27280   1.547   2.866   3.227  0.4813 -0.1054 -0.0292
 5216SOL    HW127281   1.479   2.844   3.290 -0.3113  2.2495 -0.0797
 5216SOL    HW227282   1.624   2.863   3.284  0.8034  2.5825 -0.3093
 5217SOL     OW27283   2.825   4.018   6.002 -0.0741  0.2656  0.4380
 5217SOL    HW127284   2.742   4.037   6.044  0.1324  0.7422  0.6234
 5217SOL    HW227285   2.858   4.107   5.998 -1.5200  0.7582 -0.4293
 5218SOL     OW27286   0.212   0.719   3.379  0.0944 -0.6521  0.2684
 5218SOL    HW127287   0.163   0.705   3.298  0.5314  1.6976 -0.3985
 5218SOL    HW227288   0.238   0.811   3.380  0.8930 -0.8830  0.5307
 5219SOL     OW27289   4.205   3.820  17.723 -0.2412 -0.0579 -0.7371
 5219SOL    HW127290   4.274   3.772   0.012  0.0624  0.7316 -0.3710
 5219SOL    HW227291   4.139   3.751  17.722 -3.2913  2.7497  2.8788
 5220SOL     OW27292   4.179   3.382   2.677 -0.1975 -0.0197  0.0235
 5220SOL    HW127293   4.265   3.346   2.657  0.8229  2.3128  0.2486
 5220SOL    HW227294   4.128   3.363   2.597  0.5289  0.5103 -0.5670
 5221SOL     OW27295   4.500   0.800   2.120 -0.3179  0.6446 -0.1709
 5221SOL    HW127296   4.510   0.766   2.031 -1.3362  1.6270 -0.6657
 5221SOL    HW227297   4.417   0.760   2.146 -0.3263  0.8044  0.0441
 5222SOL     OW27298   4.495   2.583   8.644 -0.5194  0.3353 -0.4959
 5222SOL    HW127299   4.539   2.648   8.699  1.5916 -0.4353 -1.2459
 5222SOL    HW227300   4.403   2.591   8.669 -0.6036 -2.8827  0.2047
 5223SOL     OW27301   4.664   3.027  10.636 -0.3578 -0.7156 -0.5912
 5223SOL    HW127302   4.587   3.075  10.605 -0.9264 -0.1222  1.8000
 5223SOL    HW227303   4.692   2.991  10.551  0.3723  2.5668 -1.7529
 5224SOL     OW27304   1.613   1.968  16.347  0.9215  0.0606 -0.2716
 5224SOL    HW127305   1.613   2.048  16.295 -2.5667  0.7592  0.7701
 5224SOL    HW227306   1.679   1.991  16.412 -0.7106 -1.1953  1.8298
 5225SOL     OW27307   0.623   0.678   1.072 -0.1240  0.2696 -0.0709
 5225SOL    HW127308   0.693   0.740   1.093  0.5288 -0.3165 -0.5235
 5225SOL    HW227309   0.687   0.611   1.050  0.0032  1.1282 -2.3788
 5226SOL     OW27310   2.065   4.177   9.477  0.6559  0.7445 -0.1369
 5226SOL    HW127311   2.125   4.235   9.430  2.3620 -0.4587  0.5677
 5226SOL    HW227312   1.981   4.224   9.478  0.3838  0.2485  0.2244
 5227SOL     OW27313   2.080   1.872   7.901  0.3956 -0.2600 -0.2313
 5227SOL    HW127314   2.162   1.899   7.941  0.4648 -1.6990  0.5615
 5227SOL    HW227315   2.023   1.875   7.978  1.1990  0.2008  0.3351
 5228SOL     OW27316   3.981   3.651   9.150  0.3712  0.2653 -0.3251
 5228SOL    HW127317   3.889   3.677   9.154  0.3633  0.5529 -2.3551
 5228SOL    HW227318   4.017   3.699   9.076  3.2624  0.0557  0.9550
 5229SOL     OW27319   2.721   3.182  14.908  0.0706  0.3878 -0.7640
 5229SOL    HW127320   2.661   3.257  14.907  0.4971  0.7877  1.9473
 5229SOL    HW227321   2.713   3.137  14.824  1.5007 -0.7632 -0.2864
 5230SOL     OW27322   2.248   3.483  15.553 -0.4156 -0.2172 -0.4512
 5230SOL    HW127323   2.237   3.420  15.624  0.8175 -0.4562 -0.4878
 5230SOL    HW227324   2.336   3.512  15.577 -1.5300 -0.6975  4.1758
 5231SOL     OW27325   2.795   4.724   3.098  0.2208  0.2283  0.2300
 5231SOL    HW127326   2.858   0.051   3.070 -1.7795  2.6049  1.3853
 5231SOL    HW227327   2.770   0.011   3.187 -3.1538 -3.2134  0.3241
 5232SOL     OW27328   4.365   2.027  14.604 -0.2148  0.4035 -0.1970
 5232SOL    HW127329   4.372   2.003  14.512 -1.9490  0.7800 -0.4252
 5232SOL    HW227330   4.285   2.079  14.596 -1.3314 -1.3583 -0.3749
 5233SOL     OW27331   2.772   1.547   2.826  0.2891 -0.4501 -0.5379
 5233SOL    HW127332   2.743   1.553   2.735  0.8890 -0.6033 -0.7449
 5233SOL    HW227333   2.793   1.638   2.844 -1.6505 -0.3765  1.2745
 5234SOL     OW27334   4.144   0.096   8.347 -0.3937  0.1644 -0.0228
 5234SOL    HW127335   4.073   0.041   8.314  1.1394 -1.3742 -0.7622
 5234SOL    HW227336   4.132   0.176   8.296  3.0100  0.1609 -0.8269
 5235SOL     OW27337   0.725   3.820   2.570 -0.8567  0.3389  0.1220
 5235SOL    HW127338   0.794   3.768   2.612 -0.6783 -0.1808 -0.8224
 5235SOL    HW227339   0.673   3.846   2.646  0.7051 -3.2508  2.4422
 5236SOL     OW27340   3.653   1.867   8.504  0.5680 -0.0948  0.5296
 5236SOL    HW127341   3.741   1.891   8.532  1.6342  1.2942 -4.0976
 5236SOL    HW227342   3.631   1.794   8.560  2.2792 -1.9029 -1.1636
 5237SOL     OW27343   2.029   0.588  12.358 -0.1886 -0.2084 -0.3104
 5237SOL    HW127344   1.960   0.579  12.424 -2.1348 -0.0816 -2.3370
 5237SOL    HW227345   2.046   0.681  12.372 -0.1769 -0.0200 -1.5473
 5238SOL     OW27346   3.800   0.565  17.095  0.5488  1.3307  0.1341
 5238SOL    HW127347   3.864   0.519  17.150 -0.2251 -0.8417 -0.7846
 5238SOL    HW227348   3.720   0.525  17.127  0.4423  0.1957 -1.5573
 5239SOL     OW27349   3.105   1.082  15.452  0.2185 -0.8738  0.3488
 5239SOL    HW127350   3.087   1.060  15.544 -2.8512 -2.4777 -0.6343
 5239SOL    HW227351   3.017   1.088  15.415  0.2075 -0.3134  0.4593
 5240SOL     OW27352   3.168   0.758  11.738 -0.2975 -0.4466 -0.0127
 5240SOL    HW127353   3.237   0.705  11.698  0.1589  0.8490 -0.9629
 5240SOL    HW227354   3.210   0.843  11.725  1.5375 -1.0854  1.6765
 5241SOL     OW27355   4.040   4.323   3.039  0.1214 -0.3119 -0.4922
 5241SOL    HW127356   3.973   4.390   3.052 -0.7137 -1.9875  3.5915
 5241SOL    HW227357   4.007   4.244   3.081 -0.4035  0.5472  0.7081
 5242SOL     OW27358   2.383   0.602   3.411 -0.2191  0.4395  0.8063
 5242SOL    HW127359   2.334   0.597   3.493 -0.0371 -0.4683  0.8620
 5242SOL    HW227360   2.454   0.538   3.425  0.1117  0.3369 -1.4128
 5243SOL     OW27361   0.387   3.531   5.180 -0.0995  0.4061 -0.1289
 5243SOL    HW127362   0.298   3.559   5.158 -0.7973 -2.9912 -1.6048
 5243SOL    HW227363   0.373   3.447   5.223  0.4823  0.0411 -0.6519
 5244SOL     OW27364   2.242   2.374   1.329  0.3537  0.4428 -0.0932
 5244SOL    HW127365   2.195   2.415   1.257  1.0460  1.0310 -0.2154
 5244SOL    HW227366   2.296   2.307   1.289  0.7107 -0.8695  2.5650
 5245SOL     OW27367   2.430   2.935  12.805 -0.0850 -0.3721  0.0422
 5245SOL    HW127368   2.347   2.938  12.853 -0.3241  0.7028 -0.4366
 5245SOL    HW227369   2.415   2.857  12.750 -0.4662 -0.3008  0.0438
 5246SOL     OW27370   2.999   1.447   2.659  0.2274  0.3189 -0.2180
 5246SOL    HW127371   3.083   1.462   2.703 -1.5906  2.8332  2.3234
 5246SOL    HW227372   2.984   1.531   2.616  3.2530  0.8916 -0.1411
 5247SOL     OW27373   0.352   3.614   1.793 -0.3359 -0.2171  0.5812
 5247SOL    HW127374   0.402   3.691   1.819 -0.2958  0.3851 -1.2808
 5247SOL    HW227375   0.380   3.612   1.702 -1.0029  0.4693  0.3699
 5248SOL     OW27376   3.632   2.451   7.922  0.1984  0.6777  0.0538
 5248SOL    HW127377   3.537   2.440   7.930  0.0957  1.2585 -0.3323
 5248SOL    HW227378   3.665   2.436   8.011  0.2992 -0.0555 -0.1127
 5249SOL     OW27379   3.924   1.412   2.262  0.7402  0.9349  0.2668
 5249SOL    HW127380   3.985   1.458   2.205 -1.5673  3.1689 -0.4090
 5249SOL    HW227381   3.988   1.390   2.330  1.8807  2.7711 -0.2421
 5250SOL     OW27382   3.464   2.837   3.455 -0.2200  0.3882  0.1934
 5250SOL    HW127383   3.460   2.783   3.534 -0.4921 -0.6968 -0.5493
 5250SOL    HW227384   3.556   2.856   3.439 -0.6890  1.3250 -1.4383
 5251SOL     OW27385   0.759   4.361   4.806  0.6001  0.6295  0.0714
 5251SOL    HW127386   0.703   4.369   4.883  0.6736  1.9236 -0.0083
 5251SOL    HW227387   0.723   4.435   4.756 -0.4837  0.4841  0.6448
 5252SOL     OW27388   1.760   4.342  12.466  0.0677 -0.6326 -0.0611
 5252SOL    HW127389   1.770   4.425  12.420  2.2184 -1.0968 -0.4461
 5252SOL    HW227390   1.833   4.352  12.528  0.3809 -3.0493 -0.0494
 5253SOL     OW27391   4.360   3.961   5.955 -0.3573  0.2613 -0.4904
 5253SOL    HW127392   4.373   3.983   5.863  2.8869  0.7339  0.0945
 5253SOL    HW227393   4.393   3.871   5.952 -1.3388 -0.1057 -0.4846
 5254SOL     OW27394   4.242   4.003   3.177 -0.1143 -0.3447 -0.0708
 5254SOL    HW127395   4.156   4.044   3.184  0.4450  0.7504  0.4929
 5254SOL    HW227396   4.224   3.968   3.090  1.1877 -1.8254  0.2575
 5255SOL     OW27397   3.330   3.500  15.092 -0.1141 -0.2888 -0.2753
 5255SOL    HW127398   3.280   3.419  15.090 -0.9271  0.2185 -0.4470
 5255SOL    HW227399   3.312   3.536  15.179  2.2395 -2.8449  1.2770
 5256SOL     OW27400   0.561   1.084   7.026  0.3959 -0.2021  0.0022
 5256SOL    HW127401   0.567   1.176   7.055  3.4245 -0.0936 -0.9401
 5256SOL    HW227402   0.654   1.070   7.007  0.4306 -1.3770  1.0281
 5257SOL     OW27403   1.962   4.129   5.313 -0.1943 -0.4273  0.3576
 5257SOL    HW127404   1.891   4.114   5.375 -0.6833  0.7872  0.0877
 5257SOL    HW227405   1.901   4.114   5.240  0.4928  0.6163 -0.4231
 5258SOL     OW27406   1.139   4.386   3.593  0.3545 -0.5328  0.2160
 5258SOL    HW127407   1.101   4.306   3.630  0.7140 -1.6544 -1.9005
 5258SOL    HW227408   1.212   4.395   3.654 -1.8214 -0.7042  2.9038
 5259SOL     OW27409   1.917   4.734   9.084  0.8721  0.1904 -0.7665
 5259SOL    HW127410   1.935   4.695   9.169  0.4557  1.2051 -0.2230
 5259SOL    HW227411   1.880   4.659   9.038  0.5114 -1.0103  1.4824
 5260SOL     OW27412   1.498   1.403  11.425  0.4974 -0.0672  0.0985
 5260SOL    HW127413   1.512   1.324  11.477 -1.7757  0.0630  0.8934
 5260SOL    HW227414   1.409   1.421  11.453  0.3943  1.5547 -1.2711
 5261SOL     OW27415   2.968   3.029   5.246 -0.1383  0.1122 -0.5296
 5261SOL    HW127416   2.968   3.125   5.246  1.5598  0.1213 -1.0562
 5261SOL    HW227417   3.009   3.012   5.161 -1.9119  2.4943 -1.8725
 5262SOL     OW27418   0.154   3.970  12.363  0.0449  0.0193  0.4919
 5262SOL    HW127419   0.152   4.065  12.377  0.0406  0.1095 -0.1169
 5262SOL    HW227420   0.168   3.935  12.451  2.2736 -0.4414 -0.0680
 5263SOL     OW27421   0.345   2.427   9.082  0.5901 -0.1375 -0.1529
 5263SOL    HW127422   0.307   2.513   9.102  0.0219 -0.6579  1.0394
 5263SOL    HW227423   0.376   2.439   8.992 -1.7802  1.8123 -0.7216
 5264SOL     OW27424   0.279   3.016   6.654 -0.3782  0.7150  0.0728
 5264SOL    HW127425   0.206   3.014   6.716  0.2046 -3.9428  0.6477
 5264SOL    HW227426   0.353   3.050   6.705  2.7814 -3.8035 -1.4616
 5265SOL     OW27427   2.704   1.717   1.274  0.2785 -0.1709  0.0223
 5265SOL    HW127428   2.643   1.737   1.202  0.2121 -1.4178 -0.2634
 5265SOL    HW227429   2.646   1.746   1.345  2.6249 -1.2333  2.3495
 5266SOL     OW27430   0.438   3.993   0.956 -0.1719 -0.1992  0.1039
 5266SOL    HW127431   0.406   4.045   1.029 -0.1824 -2.0912  1.4582
 5266SOL    HW227432   0.523   3.954   0.979 -0.7584 -0.5982  1.5686
 5267SOL     OW27433   3.728   1.179  17.097  0.1853  0.3176 -0.4088
 5267SOL    HW127434   3.743   1.273  17.090 -2.4158  0.6094 -2.3015
 5267SOL    HW227435   3.813   1.153  17.061  1.1426  2.3204  0.4310
 5268SOL     OW27436   1.567   2.967   9.807 -0.1508  0.1739 -0.4567
 5268SOL    HW127437   1.610   3.016   9.737  2.7471  2.3890  2.9063
 5268SOL    HW227438   1.600   2.879   9.790 -0.6876 -0.4591  1.7154
 5269SOL     OW27439   0.294   2.523   1.745  0.6498  0.3693 -0.0080
 5269SOL    HW127440   0.279   2.480   1.660 -1.5175  0.7542  0.1916
 5269SOL    HW227441   0.387   2.544   1.733  0.6167 -0.7087 -2.1531
 5270SOL     OW27442   1.445   3.630   5.226  0.0141  0.0147  0.2890
 5270SOL    HW127443   1.511   3.685   5.268  0.9181 -0.7887 -0.0695
 5270SOL    HW227444   1.377   3.694   5.210  0.7669  0.9627  0.9133
 5271SOL     OW27445   1.848   2.040   3.951 -0.5658  0.0238  0.0679
 5271SOL    HW127446   1.854   1.974   4.020  0.8937 -0.1902 -0.2653
 5271SOL    HW227447   1.884   1.990   3.878 -1.6044 -0.8712  0.1536
 5272SOL     OW27448   3.757   2.606   3.305 -0.3965 -0.3352  0.0636
 5272SOL    HW127449   3.770   2.700   3.291 -0.5601 -0.0402  1.9414
 5272SOL    HW227450   3.755   2.595   3.400 -0.2894  0.1616  0.1245
 5273SOL     OW27451   2.501   4.111   3.712 -0.0041  0.3617  1.0308
 5273SOL    HW127452   2.550   4.033   3.739 -1.5841 -0.3839  1.7559
 5273SOL    HW227453   2.436   4.121   3.782 -0.6341  1.0799  0.3454
 5274SOL     OW27454   2.283   0.270   8.644  0.6894  0.4829 -0.7311
 5274SOL    HW127455   2.356   0.330   8.659  2.4680 -1.8616 -0.0809
 5274SOL    HW227456   2.218   0.340   8.632 -0.7946 -0.5340  1.3896
 5275SOL     OW27457   2.196   3.947   7.730  0.0077  0.4033 -0.5875
 5275SOL    HW127458   2.168   4.038   7.736  2.4015  1.0933  0.2965
 5275SOL    HW227459   2.146   3.899   7.796 -0.6695  1.8832 -0.0172
 5276SOL     OW27460   2.096   2.271   6.582  0.6897  0.8346  0.1748
 5276SOL    HW127461   2.006   2.249   6.555  0.4869  1.3239  0.4504
 5276SOL    HW227462   2.087   2.234   6.670  2.6196 -0.2828 -0.1212
 5277SOL     OW27463   4.055   4.094   4.387  0.2988 -0.5127 -0.4868
 5277SOL    HW127464   4.098   4.174   4.417  1.3668 -1.0139 -0.6670
 5277SOL    HW227465   4.012   4.070   4.469 -1.0265  1.7036 -0.5177
 5278SOL     OW27466   1.531   3.919  11.758  0.0085  0.4121 -0.0444
 5278SOL    HW127467   1.518   3.929  11.664 -0.8028  0.0240  0.0216
 5278SOL    HW227468   1.620   3.889  11.775  0.2371  1.2461  0.2571
 5279SOL     OW27469   1.186   0.682  13.096 -0.0011 -0.0789  0.4851
 5279SOL    HW127470   1.202   0.597  13.137  0.7106 -0.2652 -0.1835
 5279SOL    HW227471   1.146   0.730  13.169 -1.3185 -0.5451  0.0786
 5280SOL     OW27472   3.399   4.666  14.285  0.3123  0.0540  0.0607
 5280SOL    HW127473   3.391   4.644  14.377 -1.5525 -3.0525 -0.8493
 5280SOL    HW227474   3.452   0.004  14.299 -0.1853  0.5815 -0.9894
 5281SOL     OW27475   2.808   1.125  15.602 -0.5393  0.8867  0.0247
 5281SOL    HW127476   2.817   1.104  15.509  1.2826  3.5717 -0.3869
 5281SOL    HW227477   2.717   1.104  15.621 -0.3490 -1.3500 -1.4780
 5282SOL     OW27478   1.294   0.176   3.046  0.1424  0.7512  0.0154
 5282SOL    HW127479   1.285   0.105   3.109  3.9620 -0.2380 -0.5516
 5282SOL    HW227480   1.276   0.119   2.971 -0.6912  0.6958  0.2562
 5283SOL     OW27481   0.889   3.587  10.742  0.3808  0.0872  0.5268
 5283SOL    HW127482   0.861   3.675  10.767 -0.9460  0.5153 -2.3668
 5283SOL    HW227483   0.981   3.603  10.724  0.4221  1.8531  2.3470
 5284SOL     OW27484   0.880   2.811  12.081 -0.2873  0.2468  0.4032
 5284SOL    HW127485   0.798   2.843  12.044 -0.8874 -0.4783  1.0832
 5284SOL    HW227486   0.943   2.827  12.011 -0.1742  1.3720  0.7667
 5285SOL     OW27487   4.036   1.718  10.533 -0.7558  0.2970 -0.3533
 5285SOL    HW127488   4.046   1.651  10.465 -1.5003 -2.3555  2.1667
 5285SOL    HW227489   4.121   1.763  10.528 -0.2633 -0.6407 -0.3821
 5286SOL     OW27490   2.887   4.330  11.827  0.6749 -0.4800  0.1332
 5286SOL    HW127491   2.896   4.242  11.863 -2.9332 -0.9353 -0.1228
 5286SOL    HW227492   2.805   4.362  11.864  0.6429 -0.8929  0.4165
 5287SOL     OW27493   3.376   3.859  10.378 -0.2617  0.1772  0.3069
 5287SOL    HW127494   3.355   3.836  10.468 -1.4201  1.4001  0.3405
 5287SOL    HW227495   3.419   3.945  10.385 -1.3259  0.9150 -2.0844
 5288SOL     OW27496   4.582   0.402   4.089 -0.2864  0.7635 -0.0271
 5288SOL    HW127497   4.650   0.384   4.024 -2.8346 -0.6009 -2.2786
 5288SOL    HW227498   4.633   0.438   4.162  2.5133 -1.6934 -0.7560
 5289SOL     OW27499   2.171   0.358   5.487 -0.3408  0.4678  0.3072
 5289SOL    HW127500   2.139   0.350   5.397 -0.8354  0.2358  0.5069
 5289SOL    HW227501   2.265   0.364   5.469  0.1740 -0.8682  2.6322
 5290SOL     OW27502   4.539   0.899   8.829 -0.6194 -0.6415  0.2961
 5290SOL    HW127503   4.614   0.902   8.770 -1.7901  0.6445 -1.1334
 5290SOL    HW227504   4.557   0.972   8.888  1.9716 -0.2842 -0.9663
 5291SOL     OW27505   1.246   0.857   7.693  0.2836 -0.2740 -0.7191
 5291SOL    HW127506   1.338   0.833   7.683  0.6099 -0.2814  2.4518
 5291SOL    HW227507   1.234   0.919   7.621 -2.2454  1.5068  1.2468
 5292SOL     OW27508   2.630   1.633  17.507  0.1293  0.0092  0.3563
 5292SOL    HW127509   2.614   1.557  17.563  1.5620  0.2156  1.0401
 5292SOL    HW227510   2.693   1.683  17.559  0.6092  0.1237 -0.3488
 5293SOL     OW27511   3.050   3.759   4.998  0.1552  0.4944  0.0193
 5293SOL    HW127512   3.102   3.838   4.986 -1.1774  0.8987 -3.0473
 5293SOL    HW227513   2.968   3.792   4.961  0.1058 -0.2948 -0.5695
 5294SOL     OW27514   1.118   2.121  10.143  0.2275  0.4149 -0.2626
 5294SOL    HW127515   1.126   2.033  10.178  0.8272  0.2781 -0.7586
 5294SOL    HW227516   1.130   2.100  10.050  0.7834  0.3780 -0.1835
 5295SOL     OW27517   2.010   0.597   2.220  0.2201  0.3826 -0.1426
 5295SOL    HW127518   2.046   0.533   2.281 -0.3590  0.6274  0.4645
 5295SOL    HW227519   2.020   0.551   2.137 -0.1424 -0.2633  0.1712
 5296SOL     OW27520   1.840   3.354  11.234 -1.0129  0.6877 -0.1523
 5296SOL    HW127521   1.821   3.339  11.327  0.6330 -1.1336 -0.1270
 5296SOL    HW227522   1.891   3.276  11.213  0.6213  1.8185 -0.4234
 5297SOL     OW27523   1.096   4.281  16.747  0.2073 -0.5599 -0.1410
 5297SOL    HW127524   1.052   4.312  16.826 -1.8924  2.0077 -2.3172
 5297SOL    HW227525   1.026   4.266  16.683 -1.3246  1.8830  0.9571
 5298SOL     OW27526   1.249   3.388   7.836  0.0054  0.0021  0.3869
 5298SOL    HW127527   1.182   3.320   7.844  0.0428  0.0647  1.2672
 5298SOL    HW227528   1.204   3.453   7.890 -2.0153  0.8424 -2.3471
 5299SOL     OW27529   0.268   2.158   6.236  0.5281 -0.1998 -0.2139
 5299SOL    HW127530   0.228   2.180   6.320  0.0354 -1.5987 -0.0848
 5299SOL    HW227531   0.226   2.072   6.226  0.4370 -0.1280 -0.4468
 5300SOL     OW27532   2.800   0.196   7.094  0.3403  0.0341  0.0915
 5300SOL    HW127533   2.865   0.128   7.113 -1.0562 -1.2849  0.2119
 5300SOL    HW227534   2.729   0.139   7.064 -0.8881  1.7754 -0.3318
 5301SOL     OW27535   1.469   2.593   8.311 -0.3027 -0.2658  0.5015
 5301SOL    HW127536   1.418   2.647   8.371  0.7676  1.2649  0.0619
 5301SOL    HW227537   1.450   2.640   8.229  0.0981  0.2236  0.6897
 5302SOL     OW27538   3.352   1.267  10.349 -0.0461  0.4359 -0.2345
 5302SOL    HW127539   3.333   1.181  10.311 -0.7245  0.3927  0.1940
 5302SOL    HW227540   3.306   1.263  10.433  0.0785  0.4347 -0.1659
 5303SOL     OW27541   3.985   0.009  16.017  0.5683  0.6085  0.0572
 5303SOL    HW127542   4.049   4.680  16.034  0.0634 -0.3564 -1.9500
 5303SOL    HW227543   4.013   0.072  16.083 -0.5833  0.0327  1.0984
 5304SOL     OW27544   0.267   0.031   0.718  0.1464  0.6413 -0.1774
 5304SOL    HW127545   0.173   0.043   0.731 -0.3931 -2.5162 -1.0562
 5304SOL    HW227546   0.286   4.704   0.784 -1.7225  0.7172  0.4533
 5305SOL     OW27547   3.479   4.003   8.347 -0.6442 -0.2515 -0.4020
 5305SOL    HW127548   3.398   3.997   8.397  1.4482 -3.0638  2.6354
 5305SOL    HW227549   3.537   3.953   8.404  0.6618  1.1284 -0.5296
 5306SOL     OW27550   3.441   4.374   4.863 -0.0009  0.3219  0.0911
 5306SOL    HW127551   3.520   4.371   4.916 -0.7859 -1.4817  1.1485
 5306SOL    HW227552   3.428   4.469   4.862  0.9518  0.4559  0.9411
 5307SOL     OW27553   3.653   0.973   2.587 -0.4450 -0.7718 -0.3673
 5307SOL    HW127554   3.589   1.019   2.533 -2.3401  0.0316  2.5730
 5307SOL    HW227555   3.638   1.002   2.677 -2.4788 -0.7102 -0.7351
 5308SOL     OW27556   0.531   4.466   3.191  0.4184 -0.3445 -0.0733
 5308SOL    HW127557   0.450   4.505   3.157  0.1252  0.0587  1.0772
 5308SOL    HW227558   0.553   4.396   3.129  1.5003 -0.3478  0.3196
 5309SOL     OW27559   2.482   1.517  13.415 -0.2147 -0.3683 -0.1942
 5309SOL    HW127560   2.455   1.547  13.502 -1.9448  1.4746 -1.3557
 5309SOL    HW227561   2.485   1.425  13.439 -1.4543 -0.2208  0.5211
 5310SOL     OW27562   3.370   0.867   5.413  0.5460 -0.2029 -0.4920
 5310SOL    HW127563   3.439   0.901   5.355  1.5614 -0.8820  0.3346
 5310SOL    HW227564   3.405   0.866   5.502  1.0561  1.4236 -0.6718
 5311SOL     OW27565   1.480   3.895   7.159 -0.0523  0.2477 -0.3080
 5311SOL    HW127566   1.436   3.858   7.235  2.4394  1.5185  1.7490
 5311SOL    HW227567   1.555   3.836   7.164  1.1164  1.7603  0.1703
 5312SOL     OW27568   0.504   0.533   1.861 -0.5637  0.7389  0.1785
 5312SOL    HW127569   0.477   0.527   1.769  0.2053 -0.0147 -0.0011
 5312SOL    HW227570   0.420   0.520   1.904 -0.3940 -1.5253 -0.1778
 5313SOL     OW27571   3.305   0.014   9.486 -0.5618 -0.5329 -0.4087
 5313SOL    HW127572   3.392   0.007   9.446  0.3943  0.0871  1.5745
 5313SOL    HW227573   3.307   0.093   9.539  0.4646  0.3590 -1.7850
 5314SOL     OW27574   0.026   4.362   5.712  0.7309  1.0788  0.5167
 5314SOL    HW127575   0.065   4.446   5.689 -0.1739  0.7416 -2.3089
 5314SOL    HW227576   0.016   4.371   5.807  3.2247  3.3753  0.5770
 5315SOL     OW27577   0.303   4.272   2.817 -0.1777 -0.1147  0.1851
 5315SOL    HW127578   0.235   4.257   2.883 -1.1510 -3.0499 -1.5383
 5315SOL    HW227579   0.307   4.367   2.806  0.6746 -0.0817  0.7752
 5316SOL     OW27580   3.748   1.553   4.466  0.2088 -0.4309 -0.6612
 5316SOL    HW127581   3.787   1.501   4.396 -0.8021  0.6773 -2.0571
 5316SOL    HW227582   3.828   1.562   4.518 -0.1826  0.7023 -0.2553
 5317SOL     OW27583   2.807   0.886   5.368 -0.1792  0.8001  0.0972
 5317SOL    HW127584   2.806   0.807   5.423 -0.0641  1.2805  0.7900
 5317SOL    HW227585   2.814   0.832   5.289 -0.2362 -0.0247  0.6593
 5318SOL     OW27586   3.226   3.812   2.541  0.1843 -0.4652 -0.1913
 5318SOL    HW127587   3.212   3.799   2.635  0.0203  0.1268 -0.1354
 5318SOL    HW227588   3.223   3.721   2.514  1.6227 -0.8352  0.9086
 5319SOL     OW27589   4.148   3.381   5.223 -0.1988 -0.1867  0.1902
 5319SOL    HW127590   4.225   3.377   5.167 -0.8022 -0.3720 -0.6129
 5319SOL    HW227591   4.199   3.367   5.304 -1.9025 -0.5790  1.2011
 5320SOL     OW27592   1.953   3.360   1.585 -0.1612 -0.2842  0.0544
 5320SOL    HW127593   1.911   3.437   1.547  2.0367  0.9535  0.1451
 5320SOL    HW227594   1.901   3.349   1.664 -0.0661  1.0755  0.2992
 5321SOL     OW27595   4.250   4.701   8.094 -0.4307  0.1923  0.4035
 5321SOL    HW127596   4.255   4.628   8.156  0.4769  0.1280  0.2468
 5321SOL    HW227597   4.241   4.653   8.011  1.4103 -2.8083  1.9487
 5322SOL     OW27598   1.537   4.162   1.680  0.0022  0.8547  0.2727
 5322SOL    HW127599   1.512   4.106   1.606 -1.4704  2.2688 -0.3091
 5322SOL    HW227600   1.615   4.114   1.706 -0.0990  0.7243  0.3393
 5323SOL     OW27601   2.585   0.751  17.194 -0.1460  0.0806 -0.9461
 5323SOL    HW127602   2.542   0.754  17.108  0.2994  1.7441 -1.1093
 5323SOL    HW227603   2.580   0.660  17.224  3.7472 -0.3277 -1.6237
 5324SOL     OW27604   2.318   2.373   2.980  0.3601 -0.0142 -0.5230
 5324SOL    HW127605   2.256   2.348   2.911 -0.7521  0.7028  0.2244
 5324SOL    HW227606   2.252   2.382   3.049 -0.5196 -2.3221 -1.0355
 5325SOL     OW27607   4.544   2.971  14.626  0.1045 -0.3809 -0.5111
 5325SOL    HW127608   4.596   2.918  14.566  0.3131 -1.1289  0.3146
 5325SOL    HW227609   4.488   2.906  14.668 -0.3300 -0.0995 -0.6545
 5326SOL     OW27610   2.736   4.269   5.244  0.0423  0.2129 -0.1496
 5326SOL    HW127611   2.673   4.326   5.288 -0.1315 -1.1529  1.3910
 5326SOL    HW227612   2.821   4.297   5.280  0.9096 -1.2230 -1.1085
 5327SOL     OW27613   3.119   1.453  11.932  0.0634 -0.1355 -0.7020
 5327SOL    HW127614   3.172   1.384  11.972 -0.3594  0.4881  0.9742
 5327SOL    HW227615   3.179   1.502  11.875  0.4405  1.4352  1.0186
 5328SOL     OW27616   4.582   0.208   2.439 -0.6154  0.3412  0.0221
 5328SOL    HW127617   4.594   0.233   2.531  0.6332  0.9022 -0.2910
 5328SOL    HW227618   4.672   0.214   2.407 -0.6254 -0.6391 -0.1905
 5329SOL     OW27619   4.495   0.748   6.173 -0.2462 -0.0280 -0.1481
 5329SOL    HW127620   4.564   0.710   6.227 -0.1994  0.6728  0.2892
 5329SOL    HW227621   4.473   0.832   6.214 -1.5616 -0.5633  0.2376
 5330SOL     OW27622   4.638   0.229   5.409 -0.0685  0.0259  0.1353
 5330SOL    HW127623   4.582   0.170   5.358 -1.5852  0.9573  0.7319
 5330SOL    HW227624   4.630   0.317   5.372  1.2432  1.8798  4.2380
 5331SOL     OW27625   0.699   4.014   6.471 -0.0316  0.1372  0.6696
 5331SOL    HW127626   0.729   3.938   6.521 -0.6663 -0.7189 -0.2362
 5331SOL    HW227627   0.774   4.070   6.452  0.0899 -0.4715 -0.6362
 5332SOL     OW27628   3.674   4.484  15.574 -0.3825  0.3297  0.3465
 5332SOL    HW127629   3.675   4.394  15.542  0.3157 -0.1284  1.6427
 5332SOL    HW227630   3.737   4.491  15.646 -0.7820 -2.3083  0.9600
 5333SOL     OW27631   1.597   2.261   5.252 -0.0682  0.1338 -0.0742
 5333SOL    HW127632   1.646   2.216   5.183  0.8959 -1.6227  1.7548
 5333SOL    HW227633   1.665   2.297   5.308  0.3534 -0.6691 -0.0732
 5334SOL     OW27634   2.501   3.957  12.692 -0.0279  0.7980 -0.1871
 5334SOL    HW127635   2.502   3.955  12.787 -1.7617 -0.9023 -0.2050
 5334SOL    HW227636   2.551   4.037  12.674  0.5879  1.1173  2.9351
 5335SOL     OW27637   3.607   1.471   2.616  0.5146  0.3650  0.2290
 5335SOL    HW127638   3.679   1.529   2.590  0.1469  0.0799 -1.4330
 5335SOL    HW227639   3.577   1.453   2.527 -1.1526 -2.5502  1.3943
 5336SOL     OW27640   3.508   4.619   0.184 -0.0854  0.2061  0.1925
 5336SOL    HW127641   3.502   4.551   0.251 -2.0540  0.4352  0.2496
 5336SOL    HW227642   3.509   4.562   0.107  1.6752  0.7763 -0.2001
 5337SOL     OW27643   3.315   2.462   5.193  0.6320  0.5029 -0.0206
 5337SOL    HW127644   3.327   2.441   5.286  1.5152 -0.2705 -0.3089
 5337SOL    HW227645   3.382   2.531   5.192  0.8901  0.2345 -1.4468
 5338SOL     OW27646   2.851   2.166   1.249 -0.0841  0.1795 -0.7592
 5338SOL    HW127647   2.919   2.098   1.250 -1.1331 -0.8631 -0.6434
 5338SOL    HW227648   2.908   2.242   1.265 -1.6732  1.7143 -2.4074
 5339SOL     OW27649   3.861   0.253   5.013  0.1420  0.2439 -0.1390
 5339SOL    HW127650   3.892   0.340   5.039  0.1374 -0.1749  1.2273
 5339SOL    HW227651   3.778   0.285   4.977  2.0369  2.4280 -2.5623
 5340SOL     OW27652   3.956   1.716  14.044  0.1193 -0.0017  0.6472
 5340SOL    HW127653   3.976   1.622  14.037  0.8497  0.1512  0.6452
 5340SOL    HW227654   3.864   1.726  14.021  0.1680  1.5776  1.1424
 5341SOL     OW27655   4.328   4.261   2.678  0.2262 -0.1437 -0.2454
 5341SOL    HW127656   4.298   4.256   2.768  2.4465 -1.3175  0.4350
 5341SOL    HW227657   4.296   4.350   2.663  0.8072  0.0962 -0.0701
 5342SOL     OW27658   3.018   3.354   9.755  0.1359 -0.0534  0.3709
 5342SOL    HW127659   2.927   3.377   9.740  0.0809  0.0466  0.8379
 5342SOL    HW227660   3.006   3.266   9.790 -1.2932 -0.9248 -2.3646
 5343SOL     OW27661   1.523   3.947  15.218  0.0308 -0.1383  0.2684
 5343SOL    HW127662   1.521   4.042  15.212  0.4206 -0.2522 -1.5361
 5343SOL    HW227663   1.542   3.935  15.125 -0.2861  0.4534  0.1308
 5344SOL     OW27664   3.869   1.166   4.319 -0.5790 -0.2315  0.0783
 5344SOL    HW127665   3.801   1.206   4.264 -1.8448 -3.5207 -0.7382
 5344SOL    HW227666   3.859   1.220   4.397 -2.2977 -0.5770  0.1065
 5345SOL     OW27667   1.810   2.521   0.168  0.4062 -0.1679 -0.4293
 5345SOL    HW127668   1.784   2.596   0.221 -0.7609 -1.3195  0.6511
 5345SOL    HW227669   1.795   2.546   0.077 -1.1745  0.7596  0.0736
 5346SOL     OW27670   2.645   3.302   4.725  0.6114  0.0950 -0.5319
 5346SOL    HW127671   2.739   3.321   4.722  0.6732  0.0629  1.1351
 5346SOL    HW227672   2.640   3.222   4.674  1.0692  0.5582 -1.3062
 5347SOL     OW27673   3.027   0.596   8.103 -0.9964 -0.1629  0.4807
 5347SOL    HW127674   3.097   0.587   8.038 -1.5520 -2.0622  0.1358
 5347SOL    HW227675   2.951   0.557   8.058  1.7065 -0.4336 -3.8675
 5348SOL     OW27676   0.692   0.713   7.342  0.1329  0.1470  0.1893
 5348SOL    HW127677   0.661   0.652   7.409  2.3069 -0.7097  0.3878
 5348SOL    HW227678   0.637   0.789   7.362  1.5006  0.7570  1.5911
 5349SOL     OW27679   1.943   2.372   9.440  0.2656  0.0604 -0.6161
 5349SOL    HW127680   1.921   2.378   9.533  0.6743 -1.5468 -0.4160
 5349SOL    HW227681   1.857   2.346   9.408 -0.2362  0.8152  0.1228
 5350SOL     OW27682   1.580   3.891   3.562 -0.2254 -0.2079 -0.4757
 5350SOL    HW127683   1.501   3.938   3.536  0.5347  1.8723  0.9897
 5350SOL    HW227684   1.574   3.896   3.657 -2.1564  0.8809 -0.6626
 5351SOL     OW27685   0.445   3.909   0.689  0.0233  0.4433  0.1887
 5351SOL    HW127686   0.521   3.867   0.648 -1.9049 -1.4577 -1.5131
 5351SOL    HW227687   0.474   3.919   0.779 -0.3398  0.9198  0.2530
 5352SOL     OW27688   1.590   3.539   8.322  0.2880  0.2578 -0.0318
 5352SOL    HW127689   1.565   3.630   8.339 -0.5662 -0.0871  0.5820
 5352SOL    HW227690   1.675   3.536   8.365  0.2517 -1.8379 -0.1181
 5353SOL     OW27691   1.796   0.950   6.803  0.4679 -0.4463 -0.1266
 5353SOL    HW127692   1.818   0.907   6.885 -0.4109 -0.9412 -0.1486
 5353SOL    HW227693   1.801   0.873   6.746  2.6613  1.3823 -2.4369
 5354SOL     OW27694   4.392   0.253   5.725  0.2692  0.1444  0.4520
 5354SOL    HW127695   4.329   0.323   5.708  0.4929  0.5290  1.1774
 5354SOL    HW227696   4.406   0.207   5.642 -0.9547  0.9808 -0.2087
 5355SOL     OW27697   4.123   3.688  16.464  0.1644 -0.2972 -0.0770
 5355SOL    HW127698   4.115   3.617  16.401 -0.5510 -0.2609 -0.0319
 5355SOL    HW227699   4.035   3.726  16.466 -0.1319 -0.8756 -2.5211
 5356SOL     OW27700   2.566   0.932   1.908  0.0583  0.3150  0.2130
 5356SOL    HW127701   2.476   0.910   1.934 -0.3633  0.7801 -0.8534
 5356SOL    HW227702   2.603   0.928   1.996 -1.1109  1.5875  0.7575
 5357SOL     OW27703   3.870   3.412   7.502  0.6766  0.0378 -0.3125
 5357SOL    HW127704   3.909   3.325   7.511 -0.2453 -0.3733 -0.2718
 5357SOL    HW227705   3.905   3.438   7.416  2.6450  0.1910  0.5376
 5358SOL     OW27706   3.976   4.723   5.368  0.4239 -0.3465 -0.1399
 5358SOL    HW127707   4.020   0.054   5.415  1.3457 -0.5455 -0.7091
 5358SOL    HW227708   4.021   4.650   5.411 -0.6186 -1.0019 -0.1740
 5359SOL     OW27709   3.526   2.126   7.974 -0.2423 -0.0141  0.6499
 5359SOL    HW127710   3.555   2.056   7.916 -0.8064  0.4995 -0.2494
 5359SOL    HW227711   3.586   2.197   7.948  0.0050 -0.2340  0.6198
 5360SOL     OW27712   4.126   1.704   4.300  0.3033  0.0038  0.3358
 5360SOL    HW127713   4.054   1.712   4.238  0.4558 -0.9045  0.0495
 5360SOL    HW227714   4.073   1.734   4.374 -0.4138 -1.2676  0.3327
 5361SOL     OW27715   1.465   3.603   2.518 -0.2606 -0.3196 -0.5502
 5361SOL    HW127716   1.414   3.683   2.503 -0.6434 -0.7766 -1.7011
 5361SOL    HW227717   1.420   3.575   2.598  0.7432 -0.0424  0.1225
 5362SOL     OW27718   2.146   2.530   4.624 -0.4532  0.6697  0.7462
 5362SOL    HW127719   2.052   2.542   4.619 -0.8397 -1.5388  2.9032
 5362SOL    HW227720   2.150   2.554   4.717  0.1666 -0.0007  0.9012
 5363SOL     OW27721   0.232   0.544  12.282 -0.7256 -0.4192 -0.3496
 5363SOL    HW127722   0.169   0.482  12.318 -1.6844  1.2744  0.9452
 5363SOL    HW227723   0.311   0.495  12.262 -1.6758 -1.4311 -1.6128
 5364SOL     OW27724   1.837   4.103   2.097  0.3592  0.3679 -0.3728
 5364SOL    HW127725   1.776   4.148   2.040  1.7723  1.3140 -1.1521
 5364SOL    HW227726   1.857   4.175   2.158 -1.4709  0.7059 -0.1967
 5365SOL     OW27727   3.542   1.911  14.262  0.0051 -0.1762 -0.1833
 5365SOL    HW127728   3.513   1.848  14.329  1.1787  0.1369  0.6073
 5365SOL    HW227729   3.633   1.915  14.291 -0.4550 -3.6660  1.8794
 5366SOL     OW27730   1.037   3.193  13.752  0.0745 -0.2371 -0.1829
 5366SOL    HW127731   1.069   3.270  13.705 -0.6960  1.3939  1.9887
 5366SOL    HW227732   1.059   3.130  13.683 -1.9690  1.3641 -2.2885
 5367SOL     OW27733   1.939   2.310  12.170 -0.1820 -0.2140 -0.1616
 5367SOL    HW127734   1.957   2.404  12.161  0.8873 -0.3575  0.5713
 5367SOL    HW227735   1.849   2.315  12.203 -0.0260  0.4685  0.1731
 5368SOL     OW27736   4.480   2.557   9.584 -0.3734 -0.4066 -0.0681
 5368SOL    HW127737   4.429   2.485   9.547 -0.0999  0.0180 -1.2758
 5368SOL    HW227738   4.557   2.502   9.596  1.8456  2.3727 -1.8853
 5369SOL     OW27739   4.649   1.714   1.467  0.1390 -0.1636 -0.1874
 5369SOL    HW127740   4.681   1.766   1.541 -2.9825  1.4487  0.0613
 5369SOL    HW227741   4.597   1.777   1.417  0.3031  1.3072  1.4874
 5370SOL     OW27742   0.378   0.578   2.203 -0.4943  0.0126  0.0628
 5370SOL    HW127743   0.342   0.666   2.212 -0.4401 -0.0169  0.5751
 5370SOL    HW227744   0.469   0.594   2.178 -0.4494 -0.6548 -0.1847
 5371SOL     OW27745   4.649   1.520   4.647  0.1084  0.1669 -0.1734
 5371SOL    HW127746   4.699   1.581   4.594 -1.7874  0.8359 -1.1819
 5371SOL    HW227747   4.649   1.444   4.588 -0.4429 -0.0909  0.1562
 5372SOL     OW27748   4.379   4.511  13.188  0.2228 -0.2726  0.3132
 5372SOL    HW127749   4.344   4.568  13.119  2.4929 -1.4198 -1.7995
 5372SOL    HW227750   4.347   4.424  13.164  0.9000 -0.4375 -0.0027
 5373SOL     OW27751   4.483   0.529   6.461  0.4524  0.3222 -0.5479
 5373SOL    HW127752   4.547   0.459   6.479 -0.2810 -0.1598  0.1891
 5373SOL    HW227753   4.539   0.587   6.410  0.4712  1.7230  1.0483
 5374SOL     OW27754   1.381   2.320   2.913  0.0455  0.1575  0.0818
 5374SOL    HW127755   1.292   2.296   2.889  0.1486 -0.7216  0.5839
 5374SOL    HW227756   1.423   2.240   2.944  0.6802  0.7595  0.7723
 5375SOL     OW27757   1.993   1.854   8.464  0.1753 -0.1010 -0.0732
 5375SOL    HW127758   1.921   1.794   8.486  0.4633 -0.0529  1.0209
 5375SOL    HW227759   2.073   1.817   8.501  0.7892  0.5872 -0.7300
 5376SOL     OW27760   0.845   0.632   7.115  0.1539 -0.3623  0.0865
 5376SOL    HW127761   0.927   0.634   7.164 -0.3210  1.7346  0.8230
 5376SOL    HW227762   0.781   0.642   7.186 -0.6842  0.9115 -0.8420
 5377SOL     OW27763   3.413   3.486   4.214 -0.0400  0.0799  0.2034
 5377SOL    HW127764   3.349   3.535   4.266  0.3176  1.1534 -0.3739
 5377SOL    HW227765   3.399   3.393   4.233 -0.2912  0.2021  0.6057
 5378SOL     OW27766   0.904   4.376   5.135  0.5440  0.0054  0.0629
 5378SOL    HW127767   0.831   4.394   5.076 -0.0877  1.3164  1.2601
 5378SOL    HW227768   0.975   4.427   5.096  0.7957 -0.2760  0.1533
 5379SOL     OW27769   1.543   2.463   4.636 -0.3342 -0.8134  0.3299
 5379SOL    HW127770   1.519   2.551   4.663  0.5512  0.0782 -1.7424
 5379SOL    HW227771   1.553   2.480   4.542  1.8359  3.5137  1.3409
 5380SOL     OW27772   0.380   1.131   1.619 -0.0610 -0.3007 -0.1502
 5380SOL    HW127773   0.467   1.153   1.654 -0.0176  2.1598 -1.8440
 5380SOL    HW227774   0.317   1.149   1.688  0.1396  0.5666 -0.1985
 5381SOL     OW27775   1.263   3.007   6.601 -0.0637  0.2076 -0.1451
 5381SOL    HW127776   1.336   3.068   6.598 -0.8584  1.1790  0.1905
 5381SOL    HW227777   1.286   2.957   6.679  0.7342 -0.9562 -1.1349
 5382SOL     OW27778   3.459   1.090   2.442 -0.4214  0.4129 -0.1912
 5382SOL    HW127779   3.374   1.062   2.408 -0.1554  0.9101 -1.2995
 5382SOL    HW227780   3.487   1.163   2.386  1.0095  0.2033  0.2609
 5383SOL     OW27781   3.874   2.133   7.972 -0.1615 -0.4256  0.3224
 5383SOL    HW127782   3.946   2.117   7.911  1.0432  4.9831  0.2682
 5383SOL    HW227783   3.880   2.070   8.043  0.5570  0.2864  0.8896
 5384SOL     OW27784   4.296   0.449  14.215 -0.3951  0.0770  0.0140
 5384SOL    HW127785   4.210   0.409  14.227 -0.9615  1.7664  1.5417
 5384SOL    HW227786   4.268   0.541  14.219  3.2382  1.1616 -0.0118
 5385SOL     OW27787   0.495   3.418   3.601  0.2748  0.0794 -0.3408
 5385SOL    HW127788   0.423   3.481   3.607 -0.3992 -0.7202  0.0748
 5385SOL    HW227789   0.532   3.427   3.689 -1.8948  0.0892  0.5983
 5386SOL     OW27790   0.908   1.745   8.513 -0.1912  0.1963  0.1830
 5386SOL    HW127791   0.894   1.718   8.604 -1.0884  2.8403  0.8255
 5386SOL    HW227792   0.964   1.821   8.526  0.6079 -0.1416 -1.2808
 5387SOL     OW27793   2.084   4.384  10.327  0.5195 -0.7263  0.3944
 5387SOL    HW127794   2.160   4.326  10.320  0.3090 -0.9582  0.0419
 5387SOL    HW227795   2.118   4.460  10.375  1.2049  1.6465 -3.8719
 5388SOL     OW27796   3.174   3.363  10.819  0.1397 -0.3971  0.1973
 5388SOL    HW127797   3.131   3.425  10.879  0.3783  0.4644 -0.5263
 5388SOL    HW227798   3.139   3.284  10.862 -1.2910 -0.3938 -0.9438
 5389SOL     OW27799   4.125   1.019   2.292  0.1549 -0.0803 -0.2010
 5389SOL    HW127800   4.142   1.100   2.339 -1.5115  0.3572 -0.3737
 5389SOL    HW227801   4.190   0.954   2.321  2.1040  2.0852  0.2510
 5390SOL     OW27802   1.095   3.376  10.160 -0.3428  0.1345 -0.0743
 5390SOL    HW127803   1.029   3.416  10.217 -0.4091 -0.0730 -0.0039
 5390SOL    HW227804   1.069   3.416  10.077  0.3030  2.8596  1.0286
 5391SOL     OW27805   0.177   1.441   3.869 -0.5084  0.1498  0.0319
 5391SOL    HW127806   0.232   1.393   3.932 -2.1384  0.3372  1.5996
 5391SOL    HW227807   0.210   1.531   3.877  0.5389 -0.3459  1.3152
 5392SOL     OW27808   0.811   2.046  13.849  0.2462 -0.0694  0.3869
 5392SOL    HW127809   0.779   2.124  13.803 -2.0115 -0.3032  1.5522
 5392SOL    HW227810   0.739   2.044  13.912 -1.3487  1.0961 -1.3854
 5393SOL     OW27811   1.515   0.370   4.969 -0.1592 -0.3590  0.1079
 5393SOL    HW127812   1.546   0.289   5.010 -0.9034 -0.0977  1.1737
 5393SOL    HW227813   1.446   0.330   4.916  1.0920 -1.4310 -0.7352
 5394SOL     OW27814   0.298   2.576  13.113  0.3288  0.5774  0.0275
 5394SOL    HW127815   0.359   2.536  13.051 -1.8767 -0.8457 -1.2346
 5394SOL    HW227816   0.272   2.502  13.167  4.3539 -0.9839 -0.1805
 5395SOL     OW27817   0.884   2.050  13.340 -0.5936  0.1519 -0.0705
 5395SOL    HW127818   0.805   2.007  13.372 -1.0680  0.5908 -0.6584
 5395SOL    HW227819   0.877   2.143  13.362 -1.8440  0.1152 -0.3579
 5396SOL     OW27820   3.406   1.241   6.738 -0.6301  0.4754  0.0330
 5396SOL    HW127821   3.416   1.264   6.830 -1.6653 -2.8341  0.9635
 5396SOL    HW227822   3.328   1.186   6.752  0.3099 -1.3159 -1.8443
 5397SOL     OW27823   2.870   1.567   1.421 -0.3887 -0.2349  0.3710
 5397SOL    HW127824   2.902   1.505   1.355 -2.2879 -1.3970  0.5636
 5397SOL    HW227825   2.807   1.615   1.367  1.1188 -0.9542 -2.0714
 5398SOL     OW27826   2.902   0.248   2.666  0.3864 -0.3632 -0.0136
 5398SOL    HW127827   2.893   0.155   2.689 -1.6637 -0.2683 -0.4354
 5398SOL    HW227828   2.970   0.266   2.731 -0.0617 -0.1559  0.3984
 5399SOL     OW27829   3.008   1.997   5.689 -0.0627 -0.1447  0.0603
 5399SOL    HW127830   2.917   1.968   5.679 -0.1270  0.2453 -0.4805
 5399SOL    HW227831   2.998   2.074   5.633  2.2896  0.2863  0.2262
 5400SOL     OW27832   2.885   1.354   6.126  0.6080  0.0502  0.2409
 5400SOL    HW127833   2.857   1.351   6.035 -0.9879 -1.4779  0.7862
 5400SOL    HW227834   2.834   1.288   6.173 -2.7014  2.5518  0.1782
 5401SOL     OW27835   0.289   3.040   8.181  0.1777 -0.0491  0.2937
 5401SOL    HW127836   0.281   2.945   8.178 -2.6149  0.1022  2.0836
 5401SOL    HW227837   0.325   3.055   8.094 -1.3950 -1.6081 -0.6283
 5402SOL     OW27838   3.487   1.070   8.910 -0.1369  0.2309  0.5058
 5402SOL    HW127839   3.488   1.111   8.823 -0.5073 -1.3229 -0.2266
 5402SOL    HW227840   3.401   1.096   8.944 -2.1917 -0.9256 -3.7404
 5403SOL     OW27841   2.737   0.276   5.736 -0.1266  0.1546 -0.0894
 5403SOL    HW127842   2.654   0.306   5.774  0.8317  0.1539  1.9979
 5403SOL    HW227843   2.756   0.345   5.672 -0.5121  0.4661  0.1305
 5404SOL     OW27844   0.003   0.606   3.893  0.0048 -0.0634 -0.1836
 5404SOL    HW127845   0.008   0.643   3.805  1.9880 -1.2114 -0.5653
 5404SOL    HW227846   4.682   0.662   3.941 -1.5576 -1.1069 -0.9678
 5405SOL     OW27847   0.027   1.818  12.620 -0.0986 -0.0546  0.0443
 5405SOL    HW127848   0.103   1.762  12.611 -0.7345 -0.5534 -2.2889
 5405SOL    HW227849   4.739   1.784  12.705 -0.9400  1.0184  0.2141
 5406SOL     OW27850   4.177   3.814   8.409  0.0415 -0.6723 -0.1079
 5406SOL    HW127851   4.110   3.845   8.470 -1.2967 -1.2143 -1.3090
 5406SOL    HW227852   4.173   3.724   8.440 -0.4622 -0.9899 -1.1251
 5407SOL     OW27853   0.064   3.794   9.412  0.3847 -0.1607  0.7006
 5407SOL    HW127854   4.723   3.834   9.382  0.2773 -0.4274  0.6292
 5407SOL    HW227855   0.034   3.770   9.499 -1.3188 -0.3309  0.0561
 5408SOL     OW27856   1.773   3.445   8.823 -0.7371 -0.1295 -0.2307
 5408SOL    HW127857   1.706   3.392   8.780  0.6717 -0.9666 -1.4089
 5408SOL    HW227858   1.753   3.428   8.915 -0.0809  3.9113  0.6268
 5409SOL     OW27859   1.861   2.803   6.840 -0.3917 -0.1623 -0.2094
 5409SOL    HW127860   1.832   2.715   6.864  0.4890  0.3652  2.8034
 5409SOL    HW227861   1.841   2.844   6.925  0.7318 -1.0450  0.4779
 5410SOL     OW27862   1.080   1.903   9.872  0.1699 -0.2998 -0.3817
 5410SOL    HW127863   1.101   1.975   9.812  2.5432 -0.3221  0.4213
 5410SOL    HW227864   1.153   1.841   9.867  0.8535  0.5908 -1.5186
 5411SOL     OW27865   3.829   3.051   8.218  0.1056 -0.0961 -0.5462
 5411SOL    HW127866   3.812   3.035   8.311  2.3134 -1.9001 -0.4662
 5411SOL    HW227867   3.912   3.008   8.200  0.3263 -0.6940  1.8986
 5412SOL     OW27868   3.704   1.260   9.023  0.2616 -0.0830  0.6443
 5412SOL    HW127869   3.796   1.263   9.049  0.9914 -0.0967 -1.9470
 5412SOL    HW227870   3.674   1.221   9.105  1.3114 -0.1383  0.9984
 5413SOL     OW27871   0.167   3.589  14.769  0.0258 -0.4670  0.1704
 5413SOL    HW127872   0.138   3.526  14.703  1.3099 -0.7915 -0.0929
 5413SOL    HW227873   0.163   3.660  14.706 -0.8288  0.9176  1.8049
 5414SOL     OW27874   2.809   0.732   4.163  0.0513  0.1204 -0.2264
 5414SOL    HW127875   2.728   0.781   4.148 -0.8182 -1.2316 -0.0339
 5414SOL    HW227876   2.873   0.780   4.111  0.4945  0.2773  0.4771
 5415SOL     OW27877   1.689   0.093   6.630  0.0505 -0.0623  0.5004
 5415SOL    HW127878   1.732   0.065   6.549 -0.1698 -0.2440  0.4501
 5415SOL    HW227879   1.614   0.035   6.624 -0.0197 -0.0441  1.2484
 5416SOL     OW27880   2.463   3.805  10.175  0.2286  1.0218 -0.7240
 5416SOL    HW127881   2.458   3.840  10.264 -0.0592 -0.7268 -0.0661
 5416SOL    HW227882   2.556   3.810  10.153  0.5270  1.2937  0.5962
 5417SOL     OW27883   1.057   4.376  14.211  0.0451 -0.1690  0.4766
 5417SOL    HW127884   0.971   4.408  14.185  1.2153  3.0729  0.4916
 5417SOL    HW227885   1.113   4.442  14.170  0.4276 -0.4789  0.4964
 5418SOL     OW27886   1.983   2.489   5.313  0.3607  0.3656  0.3966
 5418SOL    HW127887   1.919   2.537   5.260  0.1836  0.7412  0.9480
 5418SOL    HW227888   2.036   2.562   5.345 -1.0532  2.1054 -1.1797
 5419SOL     OW27889   0.688   4.136   9.745 -0.0957 -0.4806 -0.2091
 5419SOL    HW127890   0.750   4.172   9.681  1.7630  0.6969  2.2920
 5419SOL    HW227891   0.605   4.131   9.697 -0.8361  2.5897  0.7610
 5420SOL     OW27892   4.313   4.423   9.092  0.4132  0.1082  0.5602
 5420SOL    HW127893   4.402   4.457   9.102  1.1443 -1.8349  0.8280
 5420SOL    HW227894   4.265   4.502   9.117 -1.2476 -0.7771  0.1616
 5421SOL     OW27895   2.642   1.531   1.595 -0.4316 -0.4053  0.2144
 5421SOL    HW127896   2.730   1.502   1.570 -0.1400 -0.6025  1.4449
 5421SOL    HW227897   2.658   1.621   1.626  0.0894 -0.6328  0.6283
 5422SOL     OW27898   0.837   1.136  14.963 -0.4840 -0.2764  0.0580
 5422SOL    HW127899   0.910   1.197  14.975 -0.7205  0.0338 -0.0804
 5422SOL    HW227900   0.778   1.162  15.033  0.1112 -1.6040  1.0587
 5423SOL     OW27901   0.973   2.156  14.644 -0.0974  0.2293  0.0432
 5423SOL    HW127902   0.956   2.071  14.605  0.6536  0.5516 -1.0099
 5423SOL    HW227903   0.914   2.205  14.586 -1.2095 -1.9152 -0.6317
 5424SOL     OW27904   0.553   0.843   9.406  0.1678  0.0524  0.5563
 5424SOL    HW127905   0.616   0.782   9.366  1.6386  1.2007  1.1019
 5424SOL    HW227906   0.579   0.826   9.497  0.3555 -1.4894  0.2301
 5425SOL     OW27907   2.435   2.360   5.865  0.1534  0.3826 -0.6184
 5425SOL    HW127908   2.374   2.395   5.799 -0.0804 -0.0751 -0.6406
 5425SOL    HW227909   2.447   2.438   5.920  0.7514 -0.1739  0.0338
 5426SOL     OW27910   3.854   1.012   4.093  0.2277 -0.0964  0.6325
 5426SOL    HW127911   3.885   1.067   4.165  0.4716 -0.1179  0.5420
 5426SOL    HW227912   3.935   1.000   4.043 -0.3142 -2.2101  0.2641
 5427SOL     OW27913   0.558   1.913   2.722 -0.4265 -0.0395  0.7205
 5427SOL    HW127914   0.648   1.902   2.691 -1.0466 -0.4994 -0.9152
 5427SOL    HW227915   0.569   1.882   2.812  0.9885 -1.4319  0.0559
 5428SOL     OW27916   0.522   1.403   5.322  0.0993 -0.0418  0.0106
 5428SOL    HW127917   0.531   1.442   5.409  1.6214 -0.5870  0.1028
 5428SOL    HW227918   0.611   1.373   5.301  0.3315  2.0734 -2.0428
 5429SOL     OW27919   2.969   2.891   2.176  0.1869 -0.1016  0.4740
 5429SOL    HW127920   3.012   2.959   2.228  1.6994  1.6150 -2.9711
 5429SOL    HW227921   3.027   2.824   2.211  1.4782  0.5688 -0.3538
 5430SOL     OW27922   1.068   4.594   2.064 -0.5198  0.2067  0.4900
 5430SOL    HW127923   0.994   4.650   2.089  0.4333  1.7396 -0.1814
 5430SOL    HW227924   1.055   4.522   2.127  0.4822 -0.7634 -0.4142
 5431SOL     OW27925   0.662   2.955  11.915 -0.2448  0.5093  0.4165
 5431SOL    HW127926   0.582   2.902  11.906  0.4810 -0.2638 -1.5372
 5431SOL    HW227927   0.645   3.034  11.864 -2.4118 -0.5998 -0.5923
 5432SOL     OW27928   0.643   3.136   7.356 -0.3393  0.3847  0.5121
 5432SOL    HW127929   0.705   3.190   7.404 -0.1021  2.3225 -1.9375
 5432SOL    HW227930   0.615   3.199   7.289 -1.3411 -1.7525 -1.0927
 5433SOL     OW27931   1.636   1.960   4.935 -0.3070 -0.0323  0.7029
 5433SOL    HW127932   1.573   1.907   4.983 -1.3551 -0.6239 -1.3233
 5433SOL    HW227933   1.686   2.002   5.004 -2.8364  1.8641  1.3683
 5434SOL     OW27934   3.815   1.828   4.738  0.0440 -0.1328  0.0827
 5434SOL    HW127935   3.887   1.766   4.747 -0.6397 -1.2376 -2.1307
 5434SOL    HW227936   3.800   1.856   4.828 -0.4551 -2.8898  0.8577
 5435SOL     OW27937   2.777   4.503   9.705  0.7979 -0.7876  0.2381
 5435SOL    HW127938   2.727   4.517   9.785  1.2094  1.1401  0.1614
 5435SOL    HW227939   2.862   4.513   9.747  0.3473 -1.6120  1.3375
 5436SOL     OW27940   2.556   2.295  11.624  0.1602 -0.1428  0.6945
 5436SOL    HW127941   2.525   2.205  11.631 -0.0295  0.0746  2.5513
 5436SOL    HW227942   2.477   2.347  11.608  0.4308 -0.1424 -0.6720
 5437SOL     OW27943   4.618   2.789  15.264 -0.9786 -0.1076  0.0036
 5437SOL    HW127944   4.627   2.884  15.257 -0.0687 -0.2086 -0.1589
 5437SOL    HW227945   4.706   2.768  15.234  0.9146  3.3420  3.0872
 5438SOL     OW27946   3.764   2.987  10.420  0.2916 -0.0907  0.4695
 5438SOL    HW127947   3.743   3.073  10.386 -1.3763 -0.9261 -0.6311
 5438SOL    HW227948   3.690   2.980  10.480 -0.1778 -0.3902 -0.1407
 5439SOL     OW27949   0.637   3.237  14.144 -0.2335 -0.3925  0.4751
 5439SOL    HW127950   0.696   3.216  14.072 -1.8241  1.7253 -1.4479
 5439SOL    HW227951   0.568   3.279  14.093 -0.4693  0.3927  1.4192
 5440SOL     OW27952   0.903   2.174   2.087 -0.1192 -0.1228 -0.6151
 5440SOL    HW127953   0.815   2.137   2.095 -0.3269  0.7244  0.9759
 5440SOL    HW227954   0.890   2.265   2.059  2.2588 -0.0123 -1.4154
 5441SOL     OW27955   2.782   3.387   5.681 -0.3583  0.7583  0.6086
 5441SOL    HW127956   2.798   3.403   5.587  0.1278 -1.1513  0.3736
 5441SOL    HW227957   2.699   3.339   5.685 -0.3136  0.7385  1.2796
 5442SOL     OW27958   2.894   0.061  16.417 -0.5917  0.1324  0.4110
 5442SOL    HW127959   2.844   0.142  16.410  2.6683  2.0123 -0.6627
 5442SOL    HW227960   2.979   0.078  16.378 -1.8104  1.9236 -1.4485
 5443SOL     OW27961   0.447   2.429   8.828  0.2320 -0.0465 -0.3498
 5443SOL    HW127962   0.453   2.511   8.780 -1.3638  0.7243  0.7941
 5443SOL    HW227963   0.540   2.406   8.816 -0.0292  0.0361 -2.5588
 5444SOL     OW27964   0.204   1.554   8.724  0.1832 -0.0604  0.2844
 5444SOL    HW127965   0.163   1.639   8.743  2.2819  0.7097  1.4101
 5444SOL    HW227966   0.230   1.531   8.813 -3.6058 -0.4336  1.2932
 5445SOL     OW27967   0.986   2.420   7.275  0.0225  0.5729 -0.1135
 5445SOL    HW127968   0.973   2.410   7.369 -0.5859  1.1638 -0.1389
 5445SOL    HW227969   0.959   2.332   7.248 -0.3307  0.4553  0.6385
 5446SOL     OW27970   3.087   2.172   8.644  0.2260 -0.3322  0.3515
 5446SOL    HW127971   3.053   2.083   8.645 -3.0238  0.9171  2.0391
 5446SOL    HW227972   3.125   2.170   8.556 -1.8931  0.0406 -0.5863
 5447SOL     OW27973   3.335   4.700  14.633 -0.0444  0.1610  0.2105
 5447SOL    HW127974   3.299   4.730  14.549  1.0347 -1.3430 -0.7869
 5447SOL    HW227975   3.315   4.607  14.637 -0.3205  0.1302 -2.0126
 5448SOL     OW27976   2.681   1.965   5.091 -0.3674 -0.1626  0.1219
 5448SOL    HW127977   2.679   1.956   5.186 -0.9962  0.5407  0.1713
 5448SOL    HW227978   2.607   2.023   5.074  0.0695  0.4324  0.2223
 5449SOL     OW27979   3.717   2.359   1.697  0.3946  0.5649 -0.1835
 5449SOL    HW127980   3.702   2.268   1.725 -0.1977  0.5827 -0.4617
 5449SOL    HW227981   3.729   2.407   1.780 -1.2809  1.6549 -0.5845
 5450SOL     OW27982   1.900   1.789   4.943  0.3173  0.7344  0.9547
 5450SOL    HW127983   1.954   1.714   4.967  0.2936  0.0719 -1.0999
 5450SOL    HW227984   1.872   1.811   5.032 -1.2708  0.6676  0.4757
 5451SOL     OW27985   1.685   3.477   2.629  0.0841 -0.1805  0.4782
 5451SOL    HW127986   1.616   3.538   2.602  0.0200 -0.0991  0.8376
 5451SOL    HW227987   1.751   3.475   2.560  0.8212 -0.2808  1.1972
 5452SOL     OW27988   3.644   0.880   6.629 -0.4728  0.6282  0.3072
 5452SOL    HW127989   3.660   0.966   6.668  2.9629  0.5892 -1.0953
 5452SOL    HW227990   3.559   0.896   6.587  0.0401 -0.4671 -1.1278
 5453SOL     OW27991   4.611   1.508  17.231 -0.4036  0.1203  0.2759
 5453SOL    HW127992   4.639   1.561  17.156 -0.7101  1.0651  0.8241
 5453SOL    HW227993   4.683   1.529  17.291 -0.2286  1.9719 -0.5628
 5454SOL     OW27994   3.216   3.758   8.429 -0.5147 -0.3080 -0.0952
 5454SOL    HW127995   3.229   3.754   8.334 -2.6968 -0.6963 -0.3840
 5454SOL    HW227996   3.152   3.688   8.437  0.2402 -1.0453 -0.5705
 5455SOL     OW27997   3.105   1.486   1.798 -0.6820  0.3075 -0.7622
 5455SOL    HW127998   3.180   1.493   1.738 -1.2753  0.0316 -1.5425
 5455SOL    HW227999   3.076   1.577   1.807  2.6744  1.0857  2.0006
 5456SOL     OW28000   0.046   3.580  17.037  0.2291 -0.2501  0.1253
 5456SOL    HW128001   4.713   3.625  16.995 -0.6512 -1.1619  0.6953
 5456SOL    HW228002   0.118   3.580  16.973  1.1369 -1.8715  1.1326
 5457SOL     OW28003   2.684   1.696   5.454  0.1451  0.5310 -0.1868
 5457SOL    HW128004   2.753   1.655   5.402 -0.7963 -1.3277  0.0414
 5457SOL    HW228005   2.612   1.675   5.395 -0.5986 -1.8121  1.5349
 5458SOL     OW28006   1.135   1.727   1.739 -0.2098 -0.0476  0.5723
 5458SOL    HW128007   1.122   1.651   1.796  1.3315  0.0457  1.0294
 5458SOL    HW228008   1.201   1.768   1.794  1.6041  0.6817 -2.1582
 5459SOL     OW28009   0.799   1.333   4.761  0.5912  0.0180 -0.2143
 5459SOL    HW128010   0.782   1.424   4.736  1.0601  0.8256  2.3946
 5459SOL    HW228011   0.816   1.299   4.673 -2.1003  2.4625 -1.7069
 5460SOL     OW28012   4.017   1.933  11.210 -0.0225 -0.0474 -0.0697
 5460SOL    HW128013   4.109   1.909  11.213 -0.7153 -2.9689 -1.7786
 5460SOL    HW228014   4.013   2.005  11.272 -0.0934 -0.9365  0.9714
 5461SOL     OW28015   4.573   2.506   0.654  0.1729 -0.1775 -0.6590
 5461SOL    HW128016   4.579   2.591   0.700  2.2032 -0.8321  0.2921
 5461SOL    HW228017   4.492   2.469   0.688 -0.4387  0.2400 -1.6545
 5462SOL     OW28018   2.745   3.516   4.173  0.1483  0.3216 -0.1266
 5462SOL    HW128019   2.834   3.550   4.158  0.0632  0.5543 -0.0940
 5462SOL    HW228020   2.694   3.583   4.127 -1.8227 -1.3397 -0.3764
 5463SOL     OW28021   1.824   2.033   3.665  0.3436 -0.1572 -0.1335
 5463SOL    HW128022   1.810   2.127   3.671  3.1449  0.2246  0.2436
 5463SOL    HW228023   1.917   2.045   3.645  0.5660  0.6829  1.4183
 5464SOL     OW28024   3.174   3.343   7.888 -0.4310 -0.2082  0.7839
 5464SOL    HW128025   3.154   3.409   7.821  2.2856  2.0440  2.1463
 5464SOL    HW228026   3.244   3.293   7.846  0.6957  1.0639  1.1436
 5465SOL     OW28027   0.112   4.685   8.891  0.4689 -0.4635  0.5664
 5465SOL    HW128028   0.183   4.669   8.953 -0.9657 -2.7518  1.6224
 5465SOL    HW228029   0.027   4.668   8.931  0.1558 -0.1462  0.0289
 5466SOL     OW28030   1.345   1.414   6.809  0.3855 -0.5035 -0.2243
 5466SOL    HW128031   1.256   1.381   6.801  0.3642 -0.9684  1.8215
 5466SOL    HW228032   1.377   1.362   6.736 -0.3580 -0.2588 -0.7265
 5467SOL     OW28033   1.460   2.001  15.155 -0.7401  0.2462  0.3571
 5467SOL    HW128034   1.445   2.046  15.072 -0.5365 -0.0479  0.1603
 5467SOL    HW228035   1.540   2.036  15.193 -2.1699  1.7591  1.9551
 5468SOL     OW28036   4.018   2.572  12.562  0.2094 -0.2260  0.1283
 5468SOL    HW128037   4.014   2.485  12.602 -0.7323 -0.3278 -0.1752
 5468SOL    HW228038   4.002   2.634  12.633  0.9903  1.6010 -1.2857
 5469SOL     OW28039   1.052   0.759   3.675  0.1571  0.2341  0.1188
 5469SOL    HW128040   1.012   0.726   3.594 -0.4011  1.2178 -0.0131
 5469SOL    HW228041   1.000   0.837   3.696 -1.1260 -0.1118 -1.7353
 5470SOL     OW28042   1.123   1.986   2.091  0.3478 -0.1869  0.0290
 5470SOL    HW128043   1.093   1.927   2.160 -1.6459  1.8957  0.9625
 5470SOL    HW228044   1.050   2.048   2.094 -0.1205 -0.7828  1.2491
 5471SOL     OW28045   0.299   1.684  17.668  0.7428  0.0252 -0.0919
 5471SOL    HW128046   0.271   1.754  17.727  0.3412  0.7354 -1.1183
 5471SOL    HW228047   0.313   1.735  17.588 -1.9242 -0.5587 -0.9277
 5472SOL     OW28048   2.943   3.862   3.470  0.1360 -0.1701  0.1157
 5472SOL    HW128049   2.868   3.818   3.429 -0.7298  0.9009  0.5550
 5472SOL    HW228050   3.014   3.811   3.430 -0.9344  0.1670 -2.2042
 5473SOL     OW28051   2.306   2.496   8.478  0.4458 -0.1810  0.1963
 5473SOL    HW128052   2.300   2.431   8.547 -0.5554  0.9073  1.1284
 5473SOL    HW228053   2.242   2.562   8.504  0.9234 -0.1453  1.3007
 5474SOL     OW28054   2.810   2.281   8.170  0.2281 -0.2090 -0.2903
 5474SOL    HW128055   2.720   2.292   8.140 -0.1530 -1.9855  0.2077
 5474SOL    HW228056   2.808   2.346   8.240  0.2691 -0.5042 -0.0196
 5475SOL     OW28057   4.563   0.043   7.196 -0.0159 -0.3436  0.5299
 5475SOL    HW128058   4.526   0.129   7.218  2.5183  0.5680  1.1829
 5475SOL    HW228059   4.586   0.047   7.103 -1.7436  1.2720  0.1553
 5476SOL     OW28060   3.217   3.298   3.255 -1.0292 -0.3740 -0.3731
 5476SOL    HW128061   3.154   3.232   3.284 -1.1198 -0.5841 -1.0527
 5476SOL    HW228062   3.212   3.359   3.329  1.8702 -1.5205  0.7833
 5477SOL     OW28063   1.359   1.183   2.693  0.0353  0.0039 -0.3638
 5477SOL    HW128064   1.423   1.176   2.622  0.2689 -0.0829 -0.1466
 5477SOL    HW228065   1.292   1.124   2.658  0.5154 -1.1753  0.7267
 5478SOL     OW28066   1.205   2.672   2.803 -0.3568  0.4037  0.5080
 5478SOL    HW128067   1.241   2.642   2.719  0.7128 -0.9837  1.4400
 5478SOL    HW228068   1.286   2.696   2.849 -1.0461  1.5671  1.0974
 5479SOL     OW28069   0.318   1.038   4.052  0.3739 -0.0627  0.1044
 5479SOL    HW128070   0.307   1.040   4.147  1.3734  2.5152  0.1595
 5479SOL    HW228071   0.239   0.990   4.027 -0.5666 -0.6875  4.2385
 5480SOL     OW28072   2.717   2.162   2.666  0.9353  0.3647 -0.1168
 5480SOL    HW128073   2.637   2.125   2.701  0.2888 -0.0251 -2.0114
 5480SOL    HW228074   2.749   2.197   2.749 -1.4358  0.1077  0.8857
 5481SOL     OW28075   4.104   3.981   7.169 -0.4164 -0.2033 -0.5896
 5481SOL    HW128076   4.053   4.048   7.215  1.7977  2.1804 -1.5406
 5481SOL    HW228077   4.078   3.910   7.227 -0.4012  1.1866  1.1255
 5482SOL     OW28078   4.214   0.573   4.107 -0.4566 -0.0077  0.0177
 5482SOL    HW128079   4.200   0.656   4.153 -0.5324 -0.7912  1.4045
 5482SOL    HW228080   4.146   0.519   4.148 -0.4123 -1.2955 -1.6135
 5483SOL     OW28081   2.215   2.572   0.650  0.5665  0.3789  0.1805
 5483SOL    HW128082   2.211   2.477   0.643 -1.2673  0.4352  0.5693
 5483SOL    HW228083   2.183   2.598   0.564  1.4889  1.1646  0.0804
 5484SOL     OW28084   4.063   3.092   8.468 -0.4523  0.1129 -0.1525
 5484SOL    HW128085   3.973   3.058   8.474 -0.3033 -0.6725 -2.4655
 5484SOL    HW228086   4.069   3.158   8.537  0.1397 -0.2327  0.1274
 5485SOL     OW28087   3.281   1.575   5.774  0.5513  0.1829 -0.4927
 5485SOL    HW128088   3.347   1.537   5.832 -0.6389 -0.5426  0.3837
 5485SOL    HW228089   3.200   1.564   5.825  1.3160  0.9400  0.8959
 5486SOL     OW28090   2.841   1.637   5.672 -0.3053  0.2952 -0.1385
 5486SOL    HW128091   2.773   1.572   5.682  1.2149 -0.9946  1.8360
 5486SOL    HW228092   2.799   1.698   5.611  0.6387  2.6306  1.5363
 5487SOL     OW28093   4.647   2.805   5.286  0.4935  0.4445  0.3886
 5487SOL    HW128094   4.580   2.870   5.262 -1.0669 -1.5587 -0.6845
 5487SOL    HW228095   4.588   2.734   5.310  1.8207 -1.6517 -2.3923
 5488SOL     OW28096   0.551   2.514   1.503  0.5910 -0.5582 -0.3441
 5488SOL    HW128097   0.477   2.550   1.454 -0.1497 -0.6694  0.7025
 5488SOL    HW228098   0.556   2.578   1.575 -2.6947  0.4707 -1.0227
 5489SOL     OW28099   2.915   4.484   8.653  0.5267 -0.1492 -0.3416
 5489SOL    HW128100   2.871   4.556   8.608 -0.0699 -0.3645 -0.1068
 5489SOL    HW228101   2.924   4.515   8.744  0.9911  0.1032 -0.4730
 5490SOL     OW28102   2.599   0.485   9.690 -0.0683 -0.5529 -0.1098
 5490SOL    HW128103   2.587   0.528   9.605  0.9137 -1.4230 -0.6965
 5490SOL    HW228104   2.509   0.456   9.708  0.2608 -0.5692  1.4755
 5491SOL     OW28105   4.370   0.811  15.153 -0.2488 -0.0617  0.2868
 5491SOL    HW128106   4.372   0.862  15.072  0.1133  1.3507  1.1995
 5491SOL    HW228107   4.310   0.859  15.209  0.6616 -0.5707  1.7010
 5492SOL     OW28108   0.188   4.320   9.656 -0.2935  0.1768  0.3621
 5492SOL    HW128109   0.218   4.282   9.574  0.7487  1.6183  0.0813
 5492SOL    HW228110   0.102   4.281   9.673 -0.1056 -0.4733 -0.2200
 5493SOL     OW28111   2.025   0.697   4.419 -1.0777  0.0227 -0.2638
 5493SOL    HW128112   2.111   0.658   4.405 -1.6787 -2.0461  1.9251
 5493SOL    HW228113   2.041   0.766   4.483  0.8518  0.8567 -1.6607
 5494SOL     OW28114   4.381   1.581  13.239  0.1405  0.1538 -0.0605
 5494SOL    HW128115   4.311   1.646  13.248  1.1755  1.0704  1.3221
 5494SOL    HW228116   4.435   1.619  13.171 -0.3371  2.9698  1.1408
 5495SOL     OW28117   3.161   0.615  11.979  0.1689 -0.8843 -0.7114
 5495SOL    HW128118   3.257   0.620  11.983  0.2528 -1.3872 -2.0605
 5495SOL    HW228119   3.143   0.674  11.906  1.5131  0.7181  0.2416
 5496SOL     OW28120   2.169   1.281   6.125  0.0230  0.3298  0.3351
 5496SOL    HW128121   2.146   1.217   6.057  1.3300  0.8104 -0.5548
 5496SOL    HW228122   2.199   1.232   6.202 -1.2686 -0.0457  0.6024
 5497SOL     OW28123   1.883   2.814   4.606  0.6844 -0.7358 -0.1129
 5497SOL    HW128124   1.842   2.885   4.557  1.0813  0.3239  1.0916
 5497SOL    HW228125   1.973   2.834   4.579  0.2556 -1.2466 -1.9041
 5498SOL     OW28126   2.824   0.740   5.141  0.0179 -0.2961  0.6606
 5498SOL    HW128127   2.877   0.661   5.134  0.6479 -0.0114  2.0995
 5498SOL    HW228128   2.855   0.792   5.067 -0.6599  0.8106  1.1508
 5499SOL     OW28129   2.776   0.955   3.962 -0.3854 -0.0330  0.1996
 5499SOL    HW128130   2.747   0.908   3.884  0.8962 -1.2217  0.4365
 5499SOL    HW228131   2.803   1.038   3.921 -2.6457 -0.0203 -1.2719
 5500SOL     OW28132   0.180   3.408   8.982  0.8048  0.1576  0.0980
 5500SOL    HW128133   0.145   3.488   8.943  0.5095 -0.2193 -0.4206
 5500SOL    HW228134   0.113   3.352   8.943 -0.0883 -1.9686  4.6678
 5501SOL     OW28135   4.651   4.358  14.486 -0.4642 -0.8462  0.2949
 5501SOL    HW128136   4.683   4.445  14.510 -0.0122 -1.0232  0.3325
 5501SOL    HW228137   4.596   4.342  14.563  2.2866 -2.1949  1.9866
 5502SOL     OW28138   0.206   0.833   4.248  0.5275  0.3421  0.1906
 5502SOL    HW128139   0.280   0.787   4.286  2.9981  3.0959 -1.2922
 5502SOL    HW228140   0.167   0.753   4.212  0.8056  0.4271 -0.3034
 5503SOL     OW28141   3.633   2.823   6.282  0.8379 -0.9447 -0.1732
 5503SOL    HW128142   3.596   2.745   6.240  1.7986 -2.9561  2.7203
 5503SOL    HW228143   3.720   2.808   6.245  0.5943 -1.1719 -0.6657
 5504SOL     OW28144   4.640   1.646   9.443 -0.6054  0.5484 -0.2066
 5504SOL    HW128145   4.720   1.618   9.487 -0.1010  0.8161 -0.9457
 5504SOL    HW228146   4.578   1.624   9.512  0.2680 -0.9856  0.0970
 5505SOL     OW28147   1.496   2.094  13.049 -0.1248 -0.1215 -0.1571
 5505SOL    HW128148   1.520   2.048  12.969 -0.4133  1.4165 -1.1345
 5505SOL    HW228149   1.519   2.185  13.027  1.7403 -0.8883 -1.3576
 5506SOL     OW28150   2.167   2.328   0.248 -0.2766 -0.1090  0.1296
 5506SOL    HW128151   2.256   2.306   0.276 -1.5273 -1.6653  2.8654
 5506SOL    HW228152   2.183   2.330   0.154 -0.6806 -0.9219  0.0348
 5507SOL     OW28153   0.207   1.094   8.866 -0.2438 -0.0394 -0.1890
 5507SOL    HW128154   0.213   1.190   8.859 -0.7056 -0.0475 -0.7433
 5507SOL    HW228155   0.261   1.084   8.944 -2.1659  0.3205  1.1786
 5508SOL     OW28156   3.866   2.748   6.180 -0.0778  0.0088  0.2819
 5508SOL    HW128157   3.874   2.804   6.103 -2.5962  0.2422  0.2126
 5508SOL    HW228158   3.954   2.709   6.187  0.6875  1.7303  0.3002
 5509SOL     OW28159   3.831   4.564   7.455 -0.8464  0.0033  0.0553
 5509SOL    HW128160   3.863   4.612   7.379  0.7233 -0.0034  0.6991
 5509SOL    HW228161   3.910   4.548   7.508 -0.4210  0.3771 -0.4615
 5510SOL     OW28162   2.083   2.083   3.594 -0.2244  0.2639 -0.2714
 5510SOL    HW128163   2.177   2.067   3.593 -0.2757 -0.0048 -0.5864
 5510SOL    HW228164   2.086   2.175   3.621 -0.1480  0.3613 -0.6009
 5511SOL     OW28165   0.025   0.951   5.934  0.2456  0.3093 -0.2102
 5511SOL    HW128166   0.096   0.945   5.870 -0.6920  0.8732 -1.3094
 5511SOL    HW228167   4.702   0.911   5.874 -1.3478  3.2026 -0.4658
 5512SOL     OW28168   0.753   0.074  17.251  0.5566  0.1013  0.1819
 5512SOL    HW128169   0.832   0.021  17.256 -0.2560 -0.9565  1.6076
 5512SOL    HW228170   0.757   0.133  17.175 -0.7246  1.1286  0.9128
 5513SOL     OW28171   3.101   2.817   6.123  0.0403  0.0427  0.7373
 5513SOL    HW128172   3.036   2.762   6.079  2.0352 -2.9902  1.6048
 5513SOL    HW228173   3.177   2.762   6.105  1.1343  1.3537  1.3263
 5514SOL     OW28174   3.352   4.491  16.864 -0.0066  0.2075 -0.5363
 5514SOL    HW128175   3.295   4.422  16.898 -0.1245 -0.9390 -3.0585
 5514SOL    HW228176   3.401   4.520  16.941 -0.6098 -0.7486  0.2110
 5515SOL     OW28177   3.346   3.641   6.689  0.5788  0.4063 -0.3094
 5515SOL    HW128178   3.382   3.634   6.601 -0.0908  0.4015 -0.5877
 5515SOL    HW228179   3.262   3.595   6.680  0.6319  0.4062 -0.8166
 5516SOL     OW28180   0.470   1.907   7.079 -0.2215  0.2250  0.3631
 5516SOL    HW128181   0.398   1.880   7.136  0.6512  1.4377  2.0362
 5516SOL    HW228182   0.526   1.949   7.145 -0.4656  0.4124  0.4468
 5517SOL     OW28183   4.007   1.523  13.192  0.3537  0.0550  0.1646
 5517SOL    HW128184   4.025   1.453  13.130 -0.8847 -0.0679 -0.0643
 5517SOL    HW228185   3.914   1.516  13.214  0.0556  0.7318 -0.8326
 5518SOL     OW28186   4.607   4.570   8.413 -0.2754 -0.3286 -0.0876
 5518SOL    HW128187   4.609   4.647   8.469 -1.9095 -0.9737  0.8724
 5518SOL    HW228188   4.697   4.563   8.384 -0.3041  0.6677 -0.4059
 5519SOL     OW28189   2.413   4.227   3.194  0.1589  0.3503  0.4787
 5519SOL    HW128190   2.354   4.216   3.119 -1.6010 -0.2374  1.9351
 5519SOL    HW228191   2.344   4.235   3.260  1.1343 -0.5442  1.5751
 5520SOL     OW28192   0.470   4.134   3.528  0.2608  0.3646  0.4897
 5520SOL    HW128193   0.474   4.230   3.534 -2.5966  0.5966 -1.1974
 5520SOL    HW228194   0.401   4.109   3.590 -1.6337  0.4566 -1.5512
 5521SOL     OW28195   0.995   2.600   1.474 -0.0999 -0.6441 -0.1485
 5521SOL    HW128196   1.086   2.579   1.495 -0.0653 -0.2170  0.1198
 5521SOL    HW228197   0.994   2.692   1.500  1.4711 -0.1352 -1.8742
 5522SOL     OW28198   1.891   1.751   4.072 -0.4751  0.3189 -0.1759
 5522SOL    HW128199   1.913   1.810   4.145  1.7151  0.3807 -0.8700
 5522SOL    HW228200   1.957   1.771   4.005  0.5737  1.4348  1.1695
 5523SOL     OW28201   3.820   0.306   6.868  0.5798 -0.3543 -0.3514
 5523SOL    HW128202   3.759   0.283   6.939  2.1862 -0.6845  0.9085
 5523SOL    HW228203   3.781   0.388   6.838 -0.5383 -0.5911  0.4592
 5524SOL     OW28204   1.434   4.111   5.857 -0.3127  0.7907 -0.3339
 5524SOL    HW128205   1.419   4.205   5.859  0.3762  0.8859  0.2442
 5524SOL    HW228206   1.401   4.082   5.942 -1.0984 -1.4559 -1.3981
 5525SOL     OW28207   2.824   1.837   2.542  0.1508  0.7050  0.7402
 5525SOL    HW128208   2.862   1.790   2.616  1.0946  0.0656 -0.1435
 5525SOL    HW228209   2.774   1.902   2.590  1.0212 -0.1658  2.8217
 5526SOL     OW28210   2.379   1.205   9.476 -0.5121 -0.3750  0.0894
 5526SOL    HW128211   2.356   1.115   9.499 -0.4421 -0.7174 -1.2046
 5526SOL    HW228212   2.295   1.250   9.483  0.5386  1.5493  0.3322
 5527SOL     OW28213   3.573   2.647   9.265 -0.0730 -0.1409  0.2311
 5527SOL    HW128214   3.543   2.690   9.184 -1.9597  1.7000  1.9094
 5527SOL    HW228215   3.524   2.565   9.269 -0.7922  0.2917  0.3926
 5528SOL     OW28216   4.667   1.462   1.626 -0.3774  0.2260  0.2511
 5528SOL    HW128217   4.698   1.544   1.664 -0.4926  1.3092 -2.0324
 5528SOL    HW228218   4.656   1.486   1.534 -1.4565  1.7674  0.7929
 5529SOL     OW28219   2.452   2.256   1.209  0.0849  1.0072 -0.8116
 5529SOL    HW128220   2.489   2.334   1.251  1.5850  0.4085 -1.0298
 5529SOL    HW228221   2.498   2.185   1.254  0.0478  0.3209 -1.8718
 5530SOL     OW28222   0.778   1.124   2.245 -0.7812 -0.0039 -0.1909
 5530SOL    HW128223   0.815   1.053   2.298 -0.9359 -0.7246 -1.0446
 5530SOL    HW228224   0.845   1.190   2.261 -0.7988  0.2868 -1.3371
 5531SOL     OW28225   1.766   2.377   4.455 -0.7344 -0.5240  0.4008
 5531SOL    HW128226   1.746   2.423   4.374  0.1798  0.3596  0.6761
 5531SOL    HW228227   1.738   2.287   4.436 -1.1257 -0.4488  0.6226
 5532SOL     OW28228   0.424   2.502  11.232 -0.7188 -0.4306  0.1825
 5532SOL    HW128229   0.506   2.546  11.211 -0.9865  0.5430  1.2082
 5532SOL    HW228230   0.370   2.581  11.241 -0.8165 -0.4182 -0.5003
 5533SOL     OW28231   0.857   0.842   6.464 -0.0876  0.6164  0.2830
 5533SOL    HW128232   0.938   0.794   6.450 -1.3580 -1.2133 -0.7920
 5533SOL    HW228233   0.848   0.871   6.374 -1.9875 -1.3784 -0.1894
 5534SOL     OW28234   1.140   0.179   7.466 -0.3264  0.6804  0.2324
 5534SOL    HW128235   1.197   0.185   7.543 -0.5895 -0.1225  0.4924
 5534SOL    HW228236   1.174   0.100   7.423  0.0649 -0.0461  1.8479
 5535SOL     OW28237   4.113   0.405  16.332 -0.0505  0.5274  0.2084
 5535SOL    HW128238   4.112   0.400  16.428 -0.9279 -0.0803  0.1651
 5535SOL    HW228239   4.084   0.495  16.323  0.6013  0.7981  0.8285
 5536SOL     OW28240   3.659   1.332   7.211 -0.7073 -0.1975  0.1389
 5536SOL    HW128241   3.628   1.250   7.250 -0.2141 -0.1704  0.5833
 5536SOL    HW228242   3.752   1.310   7.210 -0.6362  0.0729  1.6323
 5537SOL     OW28243   4.446   3.262  12.035  0.3429  0.0463  0.7513
 5537SOL    HW128244   4.498   3.276  11.956 -1.6393  1.3510 -0.2831
 5537SOL    HW228245   4.381   3.331  12.030 -1.2124 -1.5332 -0.7434
 5538SOL     OW28246   3.230   1.299   8.916 -0.0150 -0.2246 -0.6195
 5538SOL    HW128247   3.295   1.323   8.982 -0.8969 -0.3205  0.2906
 5538SOL    HW228248   3.150   1.306   8.968 -0.2006  0.3343 -0.9926
 5539SOL     OW28249   2.769   3.780   8.062  0.0203 -0.1733  0.4579
 5539SOL    HW128250   2.733   3.693   8.075 -0.7681 -0.0959 -1.1570
 5539SOL    HW228251   2.706   3.831   8.112  1.9347  1.2824  1.4012
 5540SOL     OW28252   4.657   3.180   5.123 -0.0304 -0.1646 -0.5486
 5540SOL    HW128253   4.740   3.160   5.166 -0.5633 -0.6191  0.2643
 5540SOL    HW228254   4.696   3.203   5.039 -0.8470  0.0830 -0.8663
 5541SOL     OW28255   0.827   1.722   6.097  0.2344  0.2146 -0.1998
 5541SOL    HW128256   0.768   1.650   6.117 -1.2518  1.7311  0.9286
 5541SOL    HW228257   0.848   1.693   6.008 -0.5682 -1.2741  0.0978
 5542SOL     OW28258   0.515   4.191  16.981  0.1322  0.3463 -0.0261
 5542SOL    HW128259   0.425   4.213  17.005  0.3733 -2.5396  3.6224
 5542SOL    HW228260   0.502   4.119  16.918 -2.0742 -1.0580  2.0068
 5543SOL     OW28261   0.757   1.976   6.169  0.0721  0.2914  0.8206
 5543SOL    HW128262   0.731   1.929   6.249  1.7906 -2.9158 -0.4764
 5543SOL    HW228263   0.779   1.903   6.111 -2.0680 -0.7264  1.2778
 5544SOL     OW28264   4.288   3.070   9.424  0.1770  0.3222 -0.3251
 5544SOL    HW128265   4.267   3.045   9.334 -1.6241  2.1720 -0.4076
 5544SOL    HW228266   4.363   3.011   9.436  0.0673  0.3919  0.7118
 5545SOL     OW28267   0.253   0.716   8.389 -0.4078 -1.0673  0.1723
 5545SOL    HW128268   0.320   0.684   8.328  1.1638  0.0811  1.3074
 5545SOL    HW228269   0.194   0.643   8.410 -2.2094 -0.4830 -2.7766
 5546SOL     OW28270   0.364   2.553   1.279  0.3443 -0.3453  0.8873
 5546SOL    HW128271   0.349   2.618   1.209  1.5891  0.4451  1.3543
 5546SOL    HW228272   0.386   2.481   1.221  1.1729  0.9042 -0.3659
 5547SOL     OW28273   4.697   3.467  16.687 -0.2087 -0.2051 -0.1369
 5547SOL    HW128274   4.691   3.385  16.735 -1.9526 -0.8019 -1.3884
 5547SOL    HW228275   0.051   3.466  16.671 -0.0353  1.2032  0.7094
 5548SOL     OW28276   2.954   0.382   6.162  0.0370  0.0704  0.4491
 5548SOL    HW128277   3.024   0.340   6.211 -0.4185 -2.4853 -1.1003
 5548SOL    HW228278   2.969   0.471   6.193 -2.1764  1.1826 -1.6577
 5549SOL     OW28279   0.427   0.753   7.827  0.2103 -0.1424 -0.4155
 5549SOL    HW128280   0.484   0.826   7.850  0.2602 -0.7757  1.4976
 5549SOL    HW228281   0.362   0.760   7.897  1.4379  3.2324  0.3605
 5550SOL     OW28282   1.826   4.314   9.897 -0.4583  0.5396  0.4341
 5550SOL    HW128283   1.880   4.272   9.964  0.5397  0.8818 -0.1550
 5550SOL    HW228284   1.744   4.323   9.946 -1.9566 -0.6362 -1.8681
 5551SOL     OW28285   3.859   1.782   5.972  0.1542 -0.3920 -0.3166
 5551SOL    HW128286   3.764   1.787   5.966  0.3507  0.3998 -2.8084
 5551SOL    HW228287   3.885   1.831   5.895  1.3806 -0.3462  0.1204
 5552SOL     OW28288   0.235   0.899  16.099  0.1180 -0.3173  0.1273
 5552SOL    HW128289   0.219   0.992  16.113 -0.8024 -0.4823  0.1848
 5552SOL    HW228290   0.167   0.878  16.035  0.8123 -1.3260 -0.2761
 5553SOL     OW28291   4.585   0.025   1.951  0.5066 -0.5391  0.6546
 5553SOL    HW128292   4.547   0.076   1.880  2.1360 -2.3484 -1.5202
 5553SOL    HW228293   4.529   0.039   2.028  0.6781  1.5137  0.3942
 5554SOL     OW28294   0.669   2.642   3.342 -0.5576 -0.2792 -0.7648
 5554SOL    HW128295   0.587   2.595   3.357  0.2006 -1.9295 -1.8258
 5554SOL    HW228296   0.672   2.635   3.247  3.3181 -0.0152 -0.6492
 5555SOL     OW28297   0.747   1.021  16.415  0.0849 -0.0644 -0.4880
 5555SOL    HW128298   0.738   0.934  16.376  0.9749 -0.5359  0.3703
 5555SOL    HW228299   0.671   1.032  16.472 -1.0280  1.6194 -2.2791
 5556SOL     OW28300   2.153   1.428   3.633  0.5415  0.4523 -0.5623
 5556SOL    HW128301   2.103   1.348   3.615  0.6384  0.2239  0.1818
 5556SOL    HW228302   2.236   1.412   3.588 -0.2899 -1.8551 -1.2821
 5557SOL     OW28303   3.626   1.326   4.194 -0.4525  0.1340  0.0844
 5557SOL    HW128304   3.552   1.365   4.148 -1.2932 -1.0794  0.4143
 5557SOL    HW228305   3.689   1.396   4.174  1.7592 -1.3679  1.8234
 5558SOL     OW28306   4.017   4.229  12.805 -0.2233 -0.0003 -0.2570
 5558SOL    HW128307   4.029   4.141  12.770 -2.0826 -1.3754  2.5916
 5558SOL    HW228308   4.029   4.283  12.727 -1.6221 -1.6653 -1.6382
 5559SOL     OW28309   1.650   3.060  12.589 -0.1406 -0.2144  0.5462
 5559SOL    HW128310   1.573   3.018  12.628  0.7692 -0.2976  2.2429
 5559SOL    HW228311   1.686   3.115  12.659 -1.8273 -0.0536  1.2993
 5560SOL     OW28312   4.364   2.126   3.347 -0.3305  0.4893 -0.3719
 5560SOL    HW128313   4.456   2.152   3.345 -0.2668  0.2424 -0.7674
 5560SOL    HW228314   4.332   2.180   3.419 -0.9666  0.0392 -0.3183
 5561SOL     OW28315   4.031   1.521  11.256  0.0975  0.4670  0.1305
 5561SOL    HW128316   4.117   1.532  11.297  0.3037  1.6788 -0.6395
 5561SOL    HW228317   4.043   1.561  11.170  0.8680 -0.2973 -0.1274
 5562SOL     OW28318   3.759   1.454   6.739  0.0708  0.2175  1.1608
 5562SOL    HW128319   3.728   1.401   6.665 -1.8602  1.1512  1.2976
 5562SOL    HW228320   3.708   1.426   6.815  1.3159 -3.0509  0.7909
 5563SOL     OW28321   0.353   1.315   1.129 -0.2681  0.2551 -0.0179
 5563SOL    HW128322   0.261   1.292   1.141 -0.2181  0.1270  0.1149
 5563SOL    HW228323   0.382   1.332   1.219 -1.3375  0.4159  0.2927
 5564SOL     OW28324   3.889   4.618  12.589 -0.1628 -0.1569  0.4013
 5564SOL    HW128325   3.885   4.549  12.656 -1.0524 -1.2632 -0.7856
 5564SOL    HW228326   3.804   4.653  12.613 -0.4813 -0.4376 -0.3129
 5565SOL     OW28327   1.129   0.094   6.513  0.2100 -0.6976  0.0723
 5565SOL    HW128328   1.133   0.034   6.588 -0.5345 -0.5275  0.2501
 5565SOL    HW228329   1.206   0.069   6.462 -1.3239 -3.2538 -1.0122
 5566SOL     OW28330   1.569   3.586   4.453  0.5554 -0.2162  0.0762
 5566SOL    HW128331   1.616   3.655   4.408 -0.7659  1.2498  0.9555
 5566SOL    HW228332   1.482   3.625   4.460  1.0667  1.5938 -3.4024
 5567SOL     OW28333   1.751   3.475   4.986 -0.1314 -0.1143 -0.7433
 5567SOL    HW128334   1.767   3.563   4.954 -0.4650  0.2955  0.2367
 5567SOL    HW228335   1.708   3.430   4.913 -0.1973  0.1214 -0.8470
 5568SOL     OW28336   0.020   0.813  16.454  0.0618  0.0575 -0.2938
 5568SOL    HW128337   4.738   0.797  16.362  0.6289 -1.2169 -0.1967
 5568SOL    HW228338   0.116   0.807  16.451  0.1130 -0.5080  2.4899
 5569SOL     OW28339   3.990   1.439   5.547 -1.0211  0.1592 -0.2466
 5569SOL    HW128340   3.972   1.527   5.580 -1.7139  0.3938 -1.2660
 5569SOL    HW228341   4.085   1.443   5.546 -0.8982 -1.9982  1.6699
 5570SOL     OW28342   2.649   3.494   2.797 -0.0180  0.5035 -0.3970
 5570SOL    HW128343   2.665   3.408   2.836 -1.0975  0.8976  0.9064
 5570SOL    HW228344   2.632   3.466   2.707  1.1164  0.8197 -0.7071
 5571SOL     OW28345   4.167   3.289   7.775 -0.5633  0.0344  0.6395
 5571SOL    HW128346   4.204   3.324   7.694 -3.4213 -0.6368 -0.9366
 5571SOL    HW228347   4.108   3.220   7.746 -0.7396  0.3055  0.3522
 5572SOL     OW28348   0.460   1.407   9.145 -0.0070 -0.1062 -0.7986
 5572SOL    HW128349   0.485   1.416   9.237 -0.4792 -0.4192 -0.6372
 5572SOL    HW228350   0.538   1.439   9.101 -0.5657  2.5051  0.0926
 5573SOL     OW28351   0.272   0.601  17.328  0.1410  0.1648 -0.1697
 5573SOL    HW128352   0.291   0.692  17.351 -1.8012  0.6269 -0.3712
 5573SOL    HW228353   0.192   0.617  17.278 -1.3761  0.5097  2.3434
 5574SOL     OW28354   2.339   1.997  16.593 -0.4105  0.2066 -0.0958
 5574SOL    HW128355   2.332   1.984  16.498 -1.8736 -0.4825  0.0940
 5574SOL    HW228356   2.252   1.973  16.627  0.5049 -1.5253  1.0053
 5575SOL     OW28357   3.446   2.789   4.233 -0.0866  0.5191  0.3069
 5575SOL    HW128358   3.416   2.873   4.199 -0.8549  1.2992  2.9709
 5575SOL    HW228359   3.386   2.780   4.307  1.9033 -3.4221  1.4517
 5576SOL     OW28360   2.653   0.765   5.662 -0.1852 -0.4563 -0.9059
 5576SOL    HW128361   2.732   0.728   5.624 -0.0973 -0.0381 -1.1275
 5576SOL    HW228362   2.656   0.855   5.631  1.1925 -0.1946 -0.0270
 5577SOL     OW28363   0.714   4.039   5.992  0.3168 -0.4814  0.3578
 5577SOL    HW128364   0.681   4.111   5.938  1.8886 -0.7497 -0.9359
 5577SOL    HW228365   0.715   3.955   5.946 -0.6829  0.8146 -2.0566
 5578SOL     OW28366   4.467   3.372   2.674  0.3435 -0.0256 -0.6873
 5578SOL    HW128367   4.533   3.367   2.743  1.0788 -0.4198 -1.4244
 5578SOL    HW228368   4.477   3.292   2.623  4.2556 -0.4660  0.7837
 5579SOL     OW28369   4.157   3.425   8.015 -0.6531 -0.0951  0.0299
 5579SOL    HW128370   4.115   3.363   8.074 -0.0129 -0.7154 -0.1656
 5579SOL    HW228371   4.189   3.366   7.946  0.1676  1.0382 -0.5672
 5580SOL     OW28372   2.023   3.406  15.105  0.2537 -0.2273  0.5996
 5580SOL    HW128373   2.089   3.476  15.097  1.4265 -1.4739 -0.8035
 5580SOL    HW228374   1.946   3.462  15.114 -0.5355 -1.3404  0.7137
 5581SOL     OW28375   0.544   1.082  16.791 -0.2565 -0.6831  0.1817
 5581SOL    HW128376   0.459   1.120  16.813  0.8057  1.7249  0.0947
 5581SOL    HW228377   0.527   1.057  16.700 -0.6311  1.9493 -0.4885
 5582SOL     OW28378   0.209   4.278   5.313 -0.3870  0.5459  0.8194
 5582SOL    HW128379   0.183   4.369   5.303  3.1567  1.4530  0.0945
 5582SOL    HW228380   0.189   4.258   5.404 -1.5491  2.2088  0.9387
 5583SOL     OW28381   1.720   4.364   5.639  0.1861  0.4369 -0.2020
 5583SOL    HW128382   1.809   4.337   5.613  0.3284  0.6290  0.0831
 5583SOL    HW228383   1.713   4.323   5.725  0.0888  1.6716  0.3778
 5584SOL     OW28384   0.117   3.623   5.104  0.3941 -0.1562  0.2641
 5584SOL    HW128385   0.133   3.718   5.103  1.4343 -0.3370 -0.5225
 5584SOL    HW228386   0.025   3.618   5.079  0.5055 -0.8034 -0.0040
 5585SOL     OW28387   0.926   4.432   7.618 -0.2416  0.1295 -0.0076
 5585SOL    HW128388   0.920   4.523   7.646  1.7851  0.6357 -1.1531
 5585SOL    HW228389   0.850   4.395   7.663  2.4640 -4.5229  0.8252
 5586SOL     OW28390   1.375   1.706   4.396 -0.2372 -0.3539  0.5509
 5586SOL    HW128391   1.383   1.781   4.455  0.8363  2.3171 -3.0450
 5586SOL    HW228392   1.318   1.642   4.440 -0.1865 -0.9191 -0.2142
 5587SOL     OW28393   4.142   1.113   5.680  0.3812  0.1628  0.0732
 5587SOL    HW128394   4.101   1.168   5.747 -0.4757 -1.0766  0.5689
 5587SOL    HW228395   4.158   1.034   5.732  0.2079  0.3652  0.4323
 5588SOL     OW28396   2.225   2.816   4.628 -0.1368 -0.0869  0.5357
 5588SOL    HW128397   2.246   2.743   4.571  0.6919 -0.3172  1.1326
 5588SOL    HW228398   2.295   2.804   4.692 -0.0169  0.9176  0.5981
 5589SOL     OW28399   3.462   3.316  15.376  0.1280 -0.2541 -0.9200
 5589SOL    HW128400   3.395   3.365  15.424 -0.6337  0.5853 -2.7985
 5589SOL    HW228401   3.408   3.241  15.354 -0.4177 -0.1264  0.0278
 5590SOL     OW28402   4.215   3.787   6.343  0.0906  0.4192 -0.1340
 5590SOL    HW128403   4.142   3.731   6.318  0.7677 -0.6344  0.2563
 5590SOL    HW228404   4.275   3.750   6.279  0.2570  1.7750 -0.7645
 5591SOL     OW28405   2.713   3.818   0.261 -0.5555  0.0594  0.1158
 5591SOL    HW128406   2.806   3.793   0.264 -0.8090 -0.5656  2.5619
 5591SOL    HW228407   2.689   3.748   0.321 -3.0840  1.5556  0.8435
 5592SOL     OW28408   0.359   1.877   3.806 -0.3238 -0.0961  0.4277
 5592SOL    HW128409   0.284   1.921   3.766  0.6359  1.4123  0.2920
 5592SOL    HW228410   0.438   1.907   3.761  0.0195 -1.7275 -0.0229
 5593SOL     OW28411   3.903   0.001   3.049  0.2854  0.8454 -0.0466
 5593SOL    HW128412   3.849   0.079   3.034  0.1972  1.0020  1.1028
 5593SOL    HW228413   3.961   0.023   3.122 -0.8205  0.8581  0.8224
 5594SOL     OW28414   1.080   1.918   5.273  0.6851  0.4221 -0.4922
 5594SOL    HW128415   0.994   1.889   5.303  0.7860  0.4167 -0.2114
 5594SOL    HW228416   1.135   1.865   5.330 -1.7903  0.7006  2.1495
 5595SOL     OW28417   0.489   3.943   8.879 -0.1438 -0.3822  0.1500
 5595SOL    HW128418   0.512   3.893   8.800  1.6977  0.7099 -0.0052
 5595SOL    HW228419   0.434   3.875   8.918  0.7731 -0.6293  1.0117
 5596SOL     OW28420   0.800   1.966  11.483  0.1830 -0.9326 -0.5380
 5596SOL    HW128421   0.765   1.878  11.491 -0.2401 -0.7251 -0.0743
 5596SOL    HW228422   0.720   2.017  11.476 -0.1342 -1.3135  0.3034
 5597SOL     OW28423   0.173   2.400  11.876  0.1960  0.4324  0.3223
 5597SOL    HW128424   0.152   2.357  11.793  0.4137  0.7915  0.0804
 5597SOL    HW228425   0.091   2.445  11.894 -0.1873  0.6388 -1.9312
 5598SOL     OW28426   2.571   2.641   9.848 -0.3360 -0.0638 -0.5346
 5598SOL    HW128427   2.649   2.588   9.832 -0.4087 -0.9808  2.1313
 5598SOL    HW228428   2.593   2.724   9.805  0.9642 -0.7986 -1.2964
 5599SOL     OW28429   1.945   0.561  16.446 -0.0602  0.1120 -0.4422
 5599SOL    HW128430   1.934   0.467  16.458  0.2057 -0.0550 -1.5259
 5599SOL    HW228431   2.001   0.585  16.520  0.5801  0.5749 -1.0826
 5600SOL     OW28432   3.786   0.734  14.201 -0.6040  0.3572  0.7074
 5600SOL    HW128433   3.753   0.683  14.274 -0.3665 -0.3068  0.3521
 5600SOL    HW228434   3.868   0.690  14.177 -1.4820  0.3782 -2.4368
 5601SOL     OW28435   0.057   1.078   9.362 -0.2621 -0.3850  0.6845
 5601SOL    HW128436   0.089   1.158   9.404 -0.5188  0.0587  0.0433
 5601SOL    HW228437   0.091   1.010   9.420  0.7627  1.2140  1.9527
 5602SOL     OW28438   0.276   0.205   5.023 -0.1267  0.7782  0.4301
 5602SOL    HW128439   0.294   0.183   4.932  0.1726  1.3769  0.3501
 5602SOL    HW228440   0.363   0.212   5.063  0.0895  2.1738 -0.2953
 5603SOL     OW28441   4.310   1.861  10.037  0.0653 -0.7377  0.3543
 5603SOL    HW128442   4.352   1.922  10.098 -1.8336  0.5738  0.3473
 5603SOL    HW228443   4.303   1.782  10.091 -2.0285  0.2238  1.4611
 5604SOL     OW28444   1.826   0.281   7.156 -0.7800  0.6429  0.2967
 5604SOL    HW128445   1.847   0.188   7.149 -0.4431  0.7420 -0.0306
 5604SOL    HW228446   1.781   0.277   7.240 -1.5414  0.8474 -0.0964
 5605SOL     OW28447   0.008   0.063  14.435 -0.1091  0.6659 -0.1569
 5605SOL    HW128448   0.077   0.114  14.478  0.6193  0.3977 -1.0294
 5605SOL    HW228449   0.000   0.106  14.350  2.4110 -0.5578 -0.9989
 5606SOL     OW28450   0.544   4.644  12.880 -0.6488 -0.0658  0.1946
 5606SOL    HW128451   0.637   4.622  12.874 -0.2994  1.4663  0.0724
 5606SOL    HW228452   0.527   4.667  12.789  2.4952  2.2592  0.2015
 5607SOL     OW28453   2.305   3.388   9.097 -0.4463 -0.2648  0.2728
 5607SOL    HW128454   2.268   3.339   9.024 -2.0227 -1.1228  1.6275
 5607SOL    HW228455   2.397   3.371   9.077 -0.7441 -2.7001  0.9324
 5608SOL     OW28456   3.202   0.231  17.608  0.2947  0.1855 -0.6269
 5608SOL    HW128457   3.261   0.275  17.669 -2.6354  2.7219  0.3762
 5608SOL    HW228458   3.180   0.148  17.650  0.2745  0.0927 -0.8196
 5609SOL     OW28459   4.340   2.246  16.809  0.4273 -0.0710  0.0260
 5609SOL    HW128460   4.364   2.332  16.845 -2.2363  0.5896  0.2230
 5609SOL    HW228461   4.271   2.219  16.869 -0.3478  1.2148 -0.2662
 5610SOL     OW28462   3.550   0.445   6.080 -0.0777 -1.0870 -0.0343
 5610SOL    HW128463   3.476   0.430   6.139  0.3679  3.0812  1.6016
 5610SOL    HW228464   3.523   0.528   6.040  0.4401 -0.2878  1.2779
 5611SOL     OW28465   3.999   3.707   3.353 -0.0550 -0.4178 -0.2683
 5611SOL    HW128466   3.907   3.696   3.328 -0.3647  0.6591  0.4340
 5611SOL    HW228467   4.045   3.648   3.293 -1.3900 -2.6724  0.9214
 5612SOL     OW28468   4.238   3.735  16.727  0.1626 -0.3153  0.2367
 5612SOL    HW128469   4.173   3.803  16.746  0.1166  0.0382 -1.1258
 5612SOL    HW228470   4.212   3.705  16.640 -1.4034  0.8380  0.3079
 5613SOL     OW28471   0.419   0.108  14.101  0.0865 -0.3628  0.1946
 5613SOL    HW128472   0.386   0.179  14.046 -0.9393  0.3351  1.7269
 5613SOL    HW228473   0.436   0.150  14.185  0.9261  0.4038 -0.3503
 5614SOL     OW28474   3.087   2.310  12.005  0.1066  0.2406 -0.4728
 5614SOL    HW128475   3.069   2.312  12.099  0.0390 -0.4155 -0.4733
 5614SOL    HW228476   3.052   2.223  11.983  2.9735 -0.9179 -0.4364
 5615SOL     OW28477   3.914   0.736   8.375 -0.1443 -0.2851  0.0119
 5615SOL    HW128478   3.994   0.779   8.403 -0.1244  0.0149 -0.5048
 5615SOL    HW228479   3.926   0.644   8.396 -0.8429 -0.5712 -0.8459
 5616SOL     OW28480   3.197   4.274   5.842  0.2507 -0.3850  0.2112
 5616SOL    HW128481   3.272   4.240   5.892  1.0662  0.5311 -0.3728
 5616SOL    HW228482   3.214   4.366   5.823  2.4226 -0.5770  1.1037
 5617SOL     OW28483   0.785   3.273   0.417 -0.3390  0.9244 -0.1382
 5617SOL    HW128484   0.858   3.249   0.360 -1.4613  0.6433 -1.4715
 5617SOL    HW228485   0.735   3.340   0.370  1.7018  0.5096 -2.9138
 5618SOL     OW28486   1.426   2.165  10.140 -0.6077 -0.2882 -0.2308
 5618SOL    HW128487   1.436   2.255  10.169 -1.0230 -0.0922 -0.6958
 5618SOL    HW228488   1.356   2.181  10.078  0.0450 -1.0666 -1.1631
 5619SOL     OW28489   0.542   3.728   4.960  0.4140 -0.3019  0.4619
 5619SOL    HW128490   0.479   3.778   5.011  0.6374 -1.0828  1.5005
 5619SOL    HW228491   0.491   3.649   4.944 -0.7845  0.7356 -0.8913
 5620SOL     OW28492   0.334   1.072   6.578  0.9573 -1.1466 -0.4563
 5620SOL    HW128493   0.342   1.022   6.659  0.2793  0.3547  0.5602
 5620SOL    HW228494   0.382   1.018   6.516  3.2490 -0.4885  0.7227
 5621SOL     OW28495   4.382   3.294   6.073 -0.6963  0.4757 -0.4220
 5621SOL    HW128496   4.296   3.253   6.088  0.3457 -0.5609  2.7462
 5621SOL    HW228497   4.352   3.376   6.035 -2.0264 -1.2256 -3.0679
 5622SOL     OW28498   2.169   1.778   5.938  0.5320 -0.0982  0.6832
 5622SOL    HW128499   2.175   1.837   6.013 -0.2002  0.5925  0.1968
 5622SOL    HW228500   2.156   1.693   5.979  0.5817 -1.8274 -2.9060
 5623SOL     OW28501   4.335   3.040  15.372  0.3746  0.2922 -0.3361
 5623SOL    HW128502   4.378   3.125  15.356  2.7263 -0.8258 -0.0442
 5623SOL    HW228503   4.304   3.054  15.461 -0.4447  1.0232 -0.7349
 5624SOL     OW28504   0.109   1.564   1.824 -0.6953  0.8394  0.3827
 5624SOL    HW128505   0.079   1.476   1.804  0.7881  0.2877  0.5877
 5624SOL    HW228506   0.044   1.588   1.890 -0.5807 -1.9553  1.4902
 5625SOL     OW28507   2.812   1.271   0.861 -0.4394 -0.7318  0.1010
 5625SOL    HW128508   2.797   1.215   0.785  1.6826  1.5331 -1.9868
 5625SOL    HW228509   2.906   1.289   0.860 -0.4547 -0.7641 -1.6154
 5626SOL     OW28510   0.153   1.325   1.460  0.4599 -0.4346  0.1613
 5626SOL    HW128511   0.125   1.373   1.538 -0.9945 -0.3450 -0.3990
 5626SOL    HW228512   0.118   1.384   1.393 -0.4940 -1.4564 -0.2590
 5627SOL     OW28513   0.940   1.493  12.751 -0.7542 -0.1384  0.1004
 5627SOL    HW128514   0.894   1.443  12.683 -1.8185  1.2163 -0.1806
 5627SOL    HW228515   0.965   1.424  12.812 -0.1588 -0.0047  0.0068
 5628SOL     OW28516   1.126   2.137   6.982  0.0819  0.0401  0.1287
 5628SOL    HW128517   1.081   2.218   6.956 -0.8987 -0.6511 -0.3350
 5628SOL    HW228518   1.185   2.166   7.051 -1.3624  2.6501  0.3152
 5629SOL     OW28519   2.233   1.972   7.376 -0.2184  0.0549 -0.0577
 5629SOL    HW128520   2.260   1.954   7.466 -2.9150 -1.5972  0.4131
 5629SOL    HW228521   2.146   1.931   7.374 -0.5532  0.7602  0.0117
 5630SOL     OW28522   2.263   3.384   7.951  0.1942  0.1558 -0.6913
 5630SOL    HW128523   2.212   3.367   7.872 -0.6163 -1.6555  0.2165
 5630SOL    HW228524   2.326   3.454   7.934  0.4056  0.7270  2.4430
 5631SOL     OW28525   3.115   0.857   7.995  0.4139 -0.4533 -0.5591
 5631SOL    HW128526   3.194   0.897   8.030 -0.5829  1.0085  0.0003
 5631SOL    HW228527   3.136   0.769   8.028  0.2484 -0.3119 -0.0753
 5632SOL     OW28528   4.197   2.029   4.433 -0.7971 -1.1875 -0.2821
 5632SOL    HW128529   4.194   2.112   4.385 -2.7680 -1.0107  0.1532
 5632SOL    HW228530   4.105   2.015   4.454 -1.0929  2.1450  0.6849
 5633SOL     OW28531   0.670   3.855  13.167  0.5463 -0.6081 -0.2449
 5633SOL    HW128532   0.620   3.867  13.248  0.6087  1.3669 -0.5149
 5633SOL    HW228533   0.747   3.806  13.197 -1.1091 -2.7311  0.5372
 5634SOL     OW28534   2.855   1.853   6.838  0.1196 -0.0846  0.0297
 5634SOL    HW128535   2.775   1.875   6.885 -0.1720  0.3559 -0.6679
 5634SOL    HW228536   2.822   1.842   6.749  1.5605 -1.5963 -0.3285
 5635SOL     OW28537   4.000   1.889   5.369 -0.8950 -0.2676  0.0576
 5635SOL    HW128538   3.927   1.901   5.307  0.2647 -0.7390 -1.3901
 5635SOL    HW228539   3.999   1.967   5.426 -0.8727  0.9864 -1.6487
 5636SOL     OW28540   1.892   1.105   7.151 -0.1189 -0.2865 -0.6922
 5636SOL    HW128541   1.977   1.139   7.178  0.1696 -0.9938 -0.7151
 5636SOL    HW228542   1.882   1.158   7.072  0.9507  0.4004 -0.3681
 5637SOL     OW28543   4.043   0.155  16.237  0.3307 -0.1008  0.2747
 5637SOL    HW128544   4.099   0.113  16.301 -0.6536 -1.5717  0.1689
 5637SOL    HW228545   4.046   0.248  16.261  3.4705 -0.2926  0.5273
 5638SOL     OW28546   4.002   0.257   9.487  0.3905  0.2891 -0.5010
 5638SOL    HW128547   4.046   0.259   9.402  0.9430  1.9450 -0.1844
 5638SOL    HW228548   3.936   0.192   9.465  0.4215  1.1494 -3.0850
 5639SOL     OW28549   0.192   2.586  15.695  0.5044  0.2331 -0.0990
 5639SOL    HW128550   0.194   2.635  15.613  0.8009 -3.7296 -2.4450
 5639SOL    HW228551   0.241   2.509  15.669  0.7491  1.0294 -2.0029
 5640SOL     OW28552   0.735   0.881   0.820 -0.4417  0.0509  0.1815
 5640SOL    HW128553   0.738   0.932   0.901 -1.4754  0.8241 -0.2650
 5640SOL    HW228554   0.724   0.954   0.758 -1.6466  0.3914  0.7886
 5641SOL     OW28555   2.215   1.813   2.102 -0.7655 -0.0803 -0.8666
 5641SOL    HW128556   2.216   1.750   2.174 -0.1230  0.1650 -0.6638
 5641SOL    HW228557   2.171   1.772   2.028 -1.0949 -1.7360  0.2380
 5642SOL     OW28558   3.324   2.752  17.521  0.2849  0.2403 -0.4243
 5642SOL    HW128559   3.249   2.712  17.564 -0.4208  1.6414 -0.3562
 5642SOL    HW228560   3.394   2.693  17.549 -0.7578  1.0112  3.8667
 5643SOL     OW28561   1.277   0.258   4.868 -0.1963 -0.3064  0.7344
 5643SOL    HW128562   1.280   0.280   4.961  1.7706 -1.2695  0.9085
 5643SOL    HW228563   1.189   0.287   4.846 -0.4519 -2.4858 -1.1742
 5644SOL     OW28564   3.989   3.374  15.207 -0.1993 -0.1356 -0.4825
 5644SOL    HW128565   3.966   3.287  15.177 -2.0203  0.9746 -2.3520
 5644SOL    HW228566   3.973   3.422  15.126  0.9664  0.6995 -0.2190
 5645SOL     OW28567   4.091   0.163   5.558 -0.0830 -0.6823  0.4474
 5645SOL    HW128568   4.107   0.240   5.613 -1.7140 -1.8365  2.5242
 5645SOL    HW228569   4.059   0.105   5.627 -1.6780  1.9135  1.9219
 5646SOL     OW28570   0.517   2.698   1.689  0.0698  0.1877 -0.3754
 5646SOL    HW128571   0.509   2.680   1.783  0.6977  0.8159 -0.2010
 5646SOL    HW228572   0.466   2.778   1.674 -2.4539 -1.1262  1.2951
 5647SOL     OW28573   1.782   0.904   2.572 -0.0308 -0.0077  0.1237
 5647SOL    HW128574   1.853   0.848   2.540 -0.9216 -0.4680 -1.0556
 5647SOL    HW228575   1.819   0.983   2.610 -1.4959 -0.0810  1.7076
 5648SOL     OW28576   3.947   0.327   1.823  0.4534 -0.3591 -0.3036
 5648SOL    HW128577   3.857   0.299   1.806  0.3814 -1.7823  2.4861
 5648SOL    HW228578   3.993   0.293   1.746 -0.8919 -0.7817 -0.9241
 5649SOL     OW28579   0.556   0.085   3.164  0.0785 -0.1899 -0.2340
 5649SOL    HW128580   0.576   0.006   3.214 -0.5756 -0.2587 -0.0832
 5649SOL    HW228581   0.481   0.116   3.215  0.1751 -2.5334  1.3658
 5650SOL     OW28582   4.154   3.659   3.572 -0.1246 -0.2159 -0.0524
 5650SOL    HW128583   4.096   3.695   3.505  0.6307  0.4148 -0.3654
 5650SOL    HW228584   4.228   3.658   3.512  0.3319  1.4680  0.4852
 5651SOL     OW28585   1.990   0.187   4.826 -0.2102 -0.5223 -0.0952
 5651SOL    HW128586   1.964   0.279   4.833  1.0000 -0.2156  0.3438
 5651SOL    HW228587   1.995   0.151   4.915 -0.2970 -1.6227 -0.5423
 5652SOL     OW28588   1.009   4.104   5.428 -0.4990  0.1782  0.1187
 5652SOL    HW128589   0.934   4.158   5.405  0.1379 -0.3232 -3.1937
 5652SOL    HW228590   1.015   4.111   5.523 -0.3407  1.4396  0.0227
 5653SOL     OW28591   4.734   1.957   0.625 -0.4382  0.4285 -0.1149
 5653SOL    HW128592   0.050   2.035   0.622  1.0925 -0.6136  1.2194
 5653SOL    HW228593   4.645   1.992   0.624 -0.9923 -1.0293 -1.1592
 5654SOL     OW28594   1.868   0.110  13.474  0.1884  0.4033 -0.4134
 5654SOL    HW128595   1.891   0.173  13.406  0.5323 -0.2020 -0.8494
 5654SOL    HW228596   1.899   0.144  13.559 -1.2623 -0.2188  0.3729
 5655SOL     OW28597   1.060   3.909  16.693  0.7292  0.5308  0.0400
 5655SOL    HW128598   1.068   3.815  16.678 -0.2371  0.4597 -0.0659
 5655SOL    HW228599   1.014   3.942  16.616  1.5259  2.6059  0.4569
 5656SOL     OW28600   0.975   2.530  11.921  0.4538 -0.0689  0.1339
 5656SOL    HW128601   0.993   2.451  11.869  1.2009  0.5252 -0.5242
 5656SOL    HW228602   1.052   2.523  11.977  0.2922 -0.2937  0.3253
 5657SOL     OW28603   4.166   0.016  15.103  0.9606 -0.0367  0.3191
 5657SOL    HW128604   4.147   4.677  15.052  1.0931  2.4360 -3.5447
 5657SOL    HW228605   4.234   0.059  15.052  1.1518 -0.7820 -0.0537
 5658SOL     OW28606   0.551   3.528   7.168  0.0179  0.3510  0.3095
 5658SOL    HW128607   0.571   3.613   7.128  3.3092 -1.5422 -1.9776
 5658SOL    HW228608   0.581   3.463   7.105 -0.6268 -1.1436  1.5525
 5659SOL     OW28609   2.930   1.490  17.524 -0.1709  0.4960 -0.1365
 5659SOL    HW128610   2.865   1.540  17.573 -0.5689  1.3293 -1.5308
 5659SOL    HW228611   2.899   1.402  17.547 -0.6867  1.2549  2.1013
 5660SOL     OW28612   3.658   2.659  17.268  0.1632 -0.0847  0.8353
 5660SOL    HW128613   3.616   2.608  17.200  1.2133  0.3131 -0.1065
 5660SOL    HW228614   3.645   2.750  17.243 -1.4411 -1.1567 -2.2211
 5661SOL     OW28615   3.621   1.714   2.191  0.6965  0.0709 -0.5781
 5661SOL    HW128616   3.618   1.620   2.173  1.2400 -0.1146  0.2813
 5661SOL    HW228617   3.656   1.757   2.113  1.6654  1.2262  0.5082
 5662SOL     OW28618   3.163   2.600   3.521 -0.0784 -0.0700  0.0016
 5662SOL    HW128619   3.072   2.609   3.546  0.0169  0.1300  0.2792
 5662SOL    HW228620   3.153   2.505   3.515 -0.2898 -0.0443 -0.0527
 5663SOL     OW28621   1.666   0.206  13.224  0.1063 -0.2399  0.8258
 5663SOL    HW128622   1.708   0.262  13.289  1.1168  1.5528 -1.3548
 5663SOL    HW228623   1.741   0.167  13.179  0.5029  1.3132  0.1487
 5664SOL     OW28624   4.090   3.710  15.392 -0.2241  0.1939 -0.0814
 5664SOL    HW128625   4.040   3.762  15.455 -1.0687 -2.8959  1.8262
 5664SOL    HW228626   4.083   3.764  15.313  0.2589 -1.7699 -1.4618
 5665SOL     OW28627   2.815   3.992   5.409  0.3675  0.4102  0.0082
 5665SOL    HW128628   2.734   3.975   5.360  0.6542  1.7859 -0.9466
 5665SOL    HW228629   2.763   4.018   5.485  1.0820  1.7167  0.0570
 5666SOL     OW28630   2.931   0.869   2.310  0.5628  0.8031  0.1222
 5666SOL    HW128631   2.979   0.794   2.344  1.9188  0.9236 -1.5069
 5666SOL    HW228632   2.871   0.875   2.384  0.9980 -0.1875  0.5561
 5667SOL     OW28633   0.300   2.117  10.504  0.1052 -0.0070  0.0284
 5667SOL    HW128634   0.359   2.193  10.509 -1.4953  1.2262 -0.0787
 5667SOL    HW228635   0.321   2.077  10.419 -0.1924 -1.1219  0.4838
 5668SOL     OW28636   3.619   3.664  14.384 -0.0828  0.1920 -0.0022
 5668SOL    HW128637   3.667   3.584  14.362 -2.6686 -1.2427 -0.4410
 5668SOL    HW228638   3.679   3.735  14.362 -0.1482 -0.0970 -1.1406
 5669SOL     OW28639   3.631   3.807   8.506  0.1014  0.4476  0.6519
 5669SOL    HW128640   3.717   3.831   8.541  0.0487  0.6819  0.6202
 5669SOL    HW228641   3.664   3.747   8.439 -0.3240  0.5534  0.3496
 5670SOL     OW28642   2.670   0.167  11.090  0.1692  0.3480 -0.0899
 5670SOL    HW128643   2.586   0.212  11.080 -0.6375 -0.7115  1.8680
 5670SOL    HW228644   2.677   0.177  11.185  0.4864  0.5965 -0.1411
 5671SOL     OW28645   2.833   0.843   2.800  0.2001 -0.2666 -0.1903
 5671SOL    HW128646   2.842   0.930   2.762  0.1983 -0.4295 -0.5672
 5671SOL    HW228647   2.798   0.857   2.887  0.8191 -1.2749  0.2241
 5672SOL     OW28648   2.672   2.149   1.876 -0.3318  0.2420 -0.1341
 5672SOL    HW128649   2.734   2.126   1.944  0.3795  1.7128 -0.2902
 5672SOL    HW228650   2.619   2.069   1.877  1.1641 -0.7370  0.4615
 5673SOL     OW28651   4.084   0.872   5.269 -0.0915 -0.0572 -0.2316
 5673SOL    HW128652   3.988   0.871   5.275 -0.1136  0.1767 -0.5504
 5673SOL    HW228653   4.098   0.778   5.279  2.5313  0.3385 -0.1889
 5674SOL     OW28654   0.405   1.045   8.240  0.3827  0.1216  0.2120
 5674SOL    HW128655   0.420   1.101   8.316 -1.5002 -2.2512  2.3246
 5674SOL    HW228656   0.479   0.985   8.244  0.1806 -0.2793 -1.9945
 5675SOL     OW28657   1.174   0.419   4.290 -0.3177 -0.3722 -0.1633
 5675SOL    HW128658   1.242   0.467   4.337  1.2141 -0.7458 -2.0335
 5675SOL    HW228659   1.236   0.346   4.285  1.0608  0.5683  3.2022
 5676SOL     OW28660   3.233   0.677   5.889  0.7140  0.4520 -0.1784
 5676SOL    HW128661   3.255   0.643   5.976 -0.7789  0.7728  0.3171
 5676SOL    HW228662   3.196   0.602   5.842  1.3278 -0.0529  0.1272
 5677SOL     OW28663   0.982   0.918  15.014  0.0841  0.2167  0.1868
 5677SOL    HW128664   0.922   0.991  15.001 -0.2743  0.0354  0.8044
 5677SOL    HW228665   1.023   0.959  15.091 -0.1925  0.1634  0.3624
 5678SOL     OW28666   3.114   0.370   9.683 -0.0114 -0.3931 -0.8214
 5678SOL    HW128667   3.108   0.439   9.749 -0.3145 -0.5017 -0.7367
 5678SOL    HW228668   3.024   0.367   9.652  0.2955 -3.5883 -1.3929
 5679SOL     OW28669   0.861   2.432   5.175 -0.2073  0.2962  0.1477
 5679SOL    HW128670   0.920   2.356   5.184  0.3476  0.6990 -0.0520
 5679SOL    HW228671   0.825   2.406   5.091 -0.1742  0.7557 -0.0092
 5680SOL     OW28672   0.262   3.572   7.927  1.1398  0.0615  0.1346
 5680SOL    HW128673   0.331   3.505   7.928 -0.3980 -1.5353  0.1618
 5680SOL    HW228674   0.213   3.537   8.002  1.1583  0.8683  0.5206
 5681SOL     OW28675   4.730   4.011  13.347 -0.0182 -0.6123 -0.0778
 5681SOL    HW128676   0.084   4.015  13.362  0.1096 -0.5673 -0.8960
 5681SOL    HW228677   4.722   3.934  13.291 -1.0877 -0.3015 -0.3513
 5682SOL     OW28678   3.933   3.371  10.379  0.2490  0.2300 -0.0070
 5682SOL    HW128679   3.884   3.393  10.458 -1.7929 -3.8490 -0.1582
 5682SOL    HW228680   4.002   3.430  10.408 -0.3552  0.6374  0.5949
 5683SOL     OW28681   2.343   2.999   9.445 -0.4103  0.1291 -0.5722
 5683SOL    HW128682   2.381   2.942   9.378 -1.1369  0.3825 -1.2070
 5683SOL    HW228683   2.323   2.944   9.521 -0.9792  0.3531 -0.5562
 5684SOL     OW28684   2.161   1.454  12.104  0.0267  0.2884  0.2538
 5684SOL    HW128685   2.165   1.460  12.009 -0.7603 -0.8333  0.1510
 5684SOL    HW228686   2.243   1.501  12.124 -0.1029  0.7168 -0.2446
 5685SOL     OW28687   1.267   1.588  12.603 -0.1036 -0.1108 -0.1134
 5685SOL    HW128688   1.288   1.681  12.599 -1.2501  0.0556 -2.5534
 5685SOL    HW228689   1.327   1.553  12.537 -1.3655  0.0031 -1.3231
 5686SOL     OW28690   0.328   4.074  13.678 -0.2627 -0.1545 -0.1722
 5686SOL    HW128691   0.332   3.981  13.699  2.9305  0.1953  0.8256
 5686SOL    HW228692   0.412   4.107  13.709  0.9018 -1.9564 -1.4041
 5687SOL     OW28693   2.021   1.037  15.160 -0.3829 -0.8492  0.0514
 5687SOL    HW128694   1.994   1.003  15.075 -0.4304 -3.2255  1.0381
 5687SOL    HW228695   1.971   1.119  15.164  0.0765 -0.4117 -2.9504
 5688SOL     OW28696   3.721   2.904   3.397  1.0390 -0.4343 -0.6319
 5688SOL    HW128697   3.756   2.909   3.486  0.1530 -2.0124 -0.1971
 5688SOL    HW228698   3.742   2.993   3.370  0.7447  0.0728  0.8049
 5689SOL     OW28699   0.854   0.995  17.601 -0.4004  0.2064 -0.0659
 5689SOL    HW128700   0.844   0.901  17.588  0.6902 -0.1099  1.5402
 5689SOL    HW228701   0.940   0.998  17.642  0.0193 -2.6137 -0.7366
 5690SOL     OW28702   2.746   4.109  11.620 -0.5301  0.1450  0.1773
 5690SOL    HW128703   2.688   4.162  11.674  0.7149  0.6190  1.0511
 5690SOL    HW228704   2.687   4.087  11.548  0.2603  0.1316 -0.4666
 5691SOL     OW28705   0.226   2.944   6.407  0.1614  0.4502 -0.3925
 5691SOL    HW128706   0.225   2.977   6.498  0.7824 -0.2177 -0.1493
 5691SOL    HW228707   0.165   3.008   6.370 -0.3204 -0.6525 -1.5031
 5692SOL     OW28708   0.203   4.236   4.147 -0.1451  0.3956  0.3342
 5692SOL    HW128709   0.226   4.192   4.229  1.9796 -0.7581 -0.8735
 5692SOL    HW228710   0.115   4.203   4.129 -0.7328  2.4246 -0.4789
 5693SOL     OW28711   1.116   1.540  14.276 -0.0598  0.4986 -0.5324
 5693SOL    HW128712   1.135   1.470  14.214 -0.5716 -0.9065  0.9264
 5693SOL    HW228713   1.021   1.533  14.284 -0.1180  0.3688 -1.3309
 5694SOL     OW28714   1.791   1.501   2.022  0.7519  0.4374  0.5703
 5694SOL    HW128715   1.772   1.423   2.076 -1.6328  1.1634  0.7867
 5694SOL    HW228716   1.758   1.466   1.939  0.3397  0.8931  0.5450
 5695SOL     OW28717   3.721   1.660  13.816  0.1871 -0.0986  0.2162
 5695SOL    HW128718   3.680   1.604  13.882 -1.1826 -0.8708 -1.2985
 5695SOL    HW228719   3.717   1.745  13.861  1.2745  1.0363 -1.8087
 5696SOL     OW28720   0.557   0.573  11.204  0.2998 -0.5045 -0.1664
 5696SOL    HW128721   0.567   0.668  11.207 -0.9922 -0.3986  0.4072
 5696SOL    HW228722   0.647   0.551  11.228  1.5372  2.7041 -1.7803
 5697SOL     OW28723   4.129   3.466   3.223 -0.8589  0.1810  0.5576
 5697SOL    HW128724   4.179   3.411   3.162 -1.9962 -0.9828  0.6685
 5697SOL    HW228725   4.203   3.503   3.271 -0.7403 -1.0319  1.3085
 5698SOL     OW28726   1.402   3.399   4.109  0.0455 -0.2525 -0.2886
 5698SOL    HW128727   1.395   3.492   4.132  1.7470  0.1556 -1.4279
 5698SOL    HW228728   1.485   3.400   4.062  1.2955 -0.7500  1.9443
 5699SOL     OW28729   0.134   2.747  15.454 -0.0999  0.1997 -0.1605
 5699SOL    HW128730   0.171   2.789  15.377  2.1204 -0.5531  0.5008
 5699SOL    HW228731   0.102   2.820  15.507  3.8884 -0.0623  2.5729
 5700SOL     OW28732   3.095   3.991   4.685  0.1142 -0.3989 -0.2820
 5700SOL    HW128733   3.013   4.023   4.722  0.1463 -2.2150  1.3853
 5700SOL    HW228734   3.152   4.064   4.708 -1.2333  0.2262  1.0857
 5701SOL     OW28735   0.266   0.488   7.271  0.0850  0.4534 -0.4469
 5701SOL    HW128736   0.298   0.556   7.329 -0.3634 -0.2285  0.5923
 5701SOL    HW228737   0.337   0.498   7.208  0.6494  2.1837  0.4797
 5702SOL     OW28738   4.277   2.425   5.617 -0.4547  0.2043  0.1403
 5702SOL    HW128739   4.302   2.514   5.643 -1.0555 -0.2909  2.4048
 5702SOL    HW228740   4.183   2.434   5.599 -0.6155  0.0702  0.9058
 5703SOL     OW28741   3.703   0.176   5.294  0.0675  0.1212 -0.1655
 5703SOL    HW128742   3.712   0.269   5.316 -1.4182  0.1437  0.2801
 5703SOL    HW228743   3.620   0.151   5.335  0.8810 -1.3464  0.6032
 5704SOL     OW28744   3.877   3.198   0.776 -0.4198  0.1197  0.2650
 5704SOL    HW128745   3.808   3.192   0.710  1.4181 -0.8023 -1.5825
 5704SOL    HW228746   3.962   3.196   0.733 -0.5228  0.5357  0.0428
 5705SOL     OW28747   3.110   4.121   6.218 -0.0847 -0.1431  0.2971
 5705SOL    HW128748   3.185   4.091   6.167 -1.6643 -2.7869 -0.4955
 5705SOL    HW228749   3.064   4.169   6.149  0.5681 -0.6076 -0.4526
 5706SOL     OW28750   3.535   1.503   3.574  0.2116  0.2097 -0.2879
 5706SOL    HW128751   3.502   1.481   3.487 -1.4631  0.6268  0.2450
 5706SOL    HW228752   3.624   1.469   3.562  1.6901  3.3803  1.4556
 5707SOL     OW28753   4.628   3.040   8.845  1.0184  0.4982 -0.5949
 5707SOL    HW128754   4.663   2.986   8.774  2.1636  0.2241  0.1834
 5707SOL    HW228755   4.533   3.038   8.833  1.3393  0.8905 -3.1557
 5708SOL     OW28756   1.160   0.218  14.173  0.1810 -0.2601 -0.1044
 5708SOL    HW128757   1.102   0.141  14.176 -0.1687  0.1546  3.2891
 5708SOL    HW228758   1.130   0.265  14.095 -1.0852 -0.2607  0.3690
 5709SOL     OW28759   0.816   0.940  16.820 -0.0616  0.7929  0.4623
 5709SOL    HW128760   0.721   0.932  16.834  0.1901  1.0100  2.2870
 5709SOL    HW228761   0.845   0.855  16.854 -1.2155  0.8574  1.6158
 5710SOL     OW28762   0.195   2.895  12.031  0.1050 -0.5244  0.3393
 5710SOL    HW128763   0.181   2.841  12.109 -0.8727 -0.9455 -0.1292
 5710SOL    HW228764   0.154   2.970  12.074  1.2809  0.0889  0.3968
 5711SOL     OW28765   4.652   0.941   3.388 -0.7339 -0.6434  1.0305
 5711SOL    HW128766   4.644   0.931   3.482 -1.3351 -0.6653  0.9731
 5711SOL    HW228767   4.566   0.906   3.367 -1.0335  1.2859 -1.0974
 5712SOL     OW28768   2.658   1.446  17.697 -0.0297  0.5794 -0.7882
 5712SOL    HW128769   2.688   1.446   0.030  0.8775 -0.1138 -1.0814
 5712SOL    HW228770   2.625   1.356  17.694  1.4665 -0.0095  0.1103
 5713SOL     OW28771   3.905   1.084   9.071 -0.1494  0.2561  0.3191
 5713SOL    HW128772   3.995   1.115   9.063 -0.7370  1.6887 -0.7438
 5713SOL    HW228773   3.885   1.079   8.978  0.1264 -2.4643  0.4039
 5714SOL     OW28774   4.189   3.072  11.893 -0.6095  0.2587  0.8803
 5714SOL    HW128775   4.169   3.134  11.963  1.7307  0.5215  1.3218
 5714SOL    HW228776   4.119   3.009  11.910  0.3044 -1.1428 -0.5167
 5715SOL     OW28777   1.240   2.144   3.441  0.4970  0.1584 -0.3678
 5715SOL    HW128778   1.224   2.103   3.526  1.6300  2.2815  0.8827
 5715SOL    HW228779   1.299   2.080   3.402  0.3332 -0.2782  0.1097
 5716SOL     OW28780   3.643   0.005   1.925 -0.1147  0.0547 -0.5857
 5716SOL    HW128781   3.666   0.097   1.913 -0.9558  0.1540 -1.5776
 5716SOL    HW228782   3.725   4.699   1.908  1.4970  2.6969  0.1074
 5717SOL     OW28783   0.104   2.217   7.749  0.6145 -0.3384  0.3281
 5717SOL    HW128784   0.158   2.210   7.671 -0.7142 -0.2996 -0.6112
 5717SOL    HW228785   0.115   2.129   7.785  1.9330 -0.7163 -1.0097
 5718SOL     OW28786   4.490   3.317   3.823 -0.2837 -0.5560  0.4250
 5718SOL    HW128787   4.507   3.321   3.917 -3.5771 -0.8031  1.0351
 5718SOL    HW228788   4.403   3.280   3.834 -0.4682 -0.2954 -0.1910
 5719SOL     OW28789   4.009   2.627  16.116 -0.2493  0.8846 -0.0675
 5719SOL    HW128790   3.950   2.672  16.177  2.7460  2.1090  1.9373
 5719SOL    HW228791   4.038   2.555  16.173 -2.8249 -0.3599 -0.3207
 5720SOL     OW28792   3.057   3.716   6.989 -0.1972  0.2045  0.6501
 5720SOL    HW128793   3.050   3.770   7.067  0.7454  0.1751  0.7541
 5720SOL    HW228794   3.149   3.731   6.968  0.1615 -0.5780  1.6591
 5721SOL     OW28795   3.574   1.564   5.978  0.6475  0.3619 -0.0512
 5721SOL    HW128796   3.608   1.628   6.041  2.0555  0.0786 -0.5253
 5721SOL    HW228797   3.483   1.559   6.007  2.2353  0.6160  4.8731
 5722SOL     OW28798   1.510   2.122   5.866  0.4164  0.4174 -0.1546
 5722SOL    HW128799   1.433   2.140   5.812 -1.0615 -0.5329  1.6129
 5722SOL    HW228800   1.543   2.051   5.811  0.6650  0.9051 -0.6288
 5723SOL     OW28801   0.044   2.666   6.726 -0.2258 -0.0230  0.7580
 5723SOL    HW128802   0.112   2.674   6.658  0.7330  1.2053  1.8658
 5723SOL    HW228803   0.033   2.572   6.741  1.1138 -0.3429 -0.2574
 5724SOL     OW28804   4.137   0.492  16.873  0.4610  0.4521  0.1331
 5724SOL    HW128805   4.226   0.513  16.902  0.9611  0.0202 -1.0981
 5724SOL    HW228806   4.112   0.582  16.854 -0.7499 -0.4882 -2.7399
 5725SOL     OW28807   3.877   2.476   2.582  0.1005  0.1500  0.9612
 5725SOL    HW128808   3.972   2.476   2.572  0.0577  0.6750  0.5665
 5725SOL    HW228809   3.874   2.529   2.661 -1.7641 -1.9956  2.3293
 5726SOL     OW28810   0.670   4.347   2.359  0.5667  0.4090  0.1772
 5726SOL    HW128811   0.675   4.256   2.387 -0.9163  0.6595  1.2251
 5726SOL    HW228812   0.575   4.351   2.347  0.5653  1.9657  0.6916
 5727SOL     OW28813   3.341   0.313  10.292  0.4443 -0.3950  0.0687
 5727SOL    HW128814   3.345   0.252  10.219  1.8811 -0.2259  0.0216
 5727SOL    HW228815   3.340   0.260  10.372 -0.2395  0.6320  0.7452
 5728SOL     OW28816   0.336   4.197   5.991  0.8743 -0.1142  0.2477
 5728SOL    HW128817   0.328   4.272   5.931  2.2953  0.4595  0.7746
 5728SOL    HW228818   0.251   4.208   6.034  0.5032 -0.1660 -0.4657
 5729SOL     OW28819   4.448   3.954   1.868 -0.1814  0.4410 -0.2319
 5729SOL    HW128820   4.502   3.981   1.943  0.4390 -0.1582 -0.4619
 5729SOL    HW228821   4.369   3.929   1.916  0.6611  0.5918  1.2549
 5730SOL     OW28822   3.685   2.184   7.730 -0.3928 -0.0981  0.0805
 5730SOL    HW128823   3.667   2.095   7.762  0.3609 -0.1379  0.3983
 5730SOL    HW228824   3.719   2.166   7.642 -2.0605 -0.6913 -0.4594
 5731SOL     OW28825   3.133   2.951   2.704 -0.8201  0.3925 -0.2560
 5731SOL    HW128826   3.203   2.959   2.638  1.2531 -0.6413  1.8201
 5731SOL    HW228827   3.078   2.883   2.666 -0.0401  0.2805 -1.2128
 5732SOL     OW28828   0.989   2.970  14.954 -0.3473 -0.0791  0.3746
 5732SOL    HW128829   1.038   3.049  14.932 -0.9506  0.5750  1.3615
 5732SOL    HW228830   0.974   2.930  14.868  1.8374 -0.7520  0.3243
 5733SOL     OW28831   1.316   2.124  12.071 -0.5767  0.6221 -0.1804
 5733SOL    HW128832   1.303   2.100  12.162 -1.8242 -0.6982 -0.7121
 5733SOL    HW228833   1.403   2.090  12.050  0.5069  1.7949  2.4696
 5734SOL     OW28834   4.654   0.219   8.836  0.6224 -0.1389  0.0360
 5734SOL    HW128835   4.611   0.304   8.828  0.3011 -0.1339  1.7655
 5734SOL    HW228836   0.000   0.248   8.865  0.3277  0.7028  0.0617
 5735SOL     OW28837   2.022   0.080   9.646  0.5000  0.1300 -0.3118
 5735SOL    HW128838   2.093   0.104   9.706 -0.7830  2.8894  0.0895
 5735SOL    HW228839   2.038   4.726   9.657 -1.8073 -0.5255 -2.4750
 5736SOL     OW28840   2.705   2.319   4.552 -0.4217 -0.5307 -0.0270
 5736SOL    HW128841   2.704   2.380   4.479 -2.0039 -1.3629 -0.7101
 5736SOL    HW228842   2.614   2.292   4.561 -0.2822 -0.6494  1.0695
 5737SOL     OW28843   0.398   1.597   3.691  0.6774 -0.4538 -0.1968
 5737SOL    HW128844   0.328   1.656   3.664  1.0571 -0.0949 -0.4098
 5737SOL    HW228845   0.348   1.523   3.725 -0.2182  0.7722  1.1642
 5738SOL     OW28846   2.390   1.010   5.517  0.0340 -0.0040 -0.2729
 5738SOL    HW128847   2.460   1.051   5.468  1.1130 -0.0033  1.2592
 5738SOL    HW228848   2.322   1.072   5.489  0.4297  0.2979 -0.5495
 5739SOL     OW28849   0.236   1.404   8.952 -0.3297  0.3768  0.2585
 5739SOL    HW128850   0.201   1.393   9.040  0.3002 -0.4254  0.4096
 5739SOL    HW228851   0.327   1.394   8.980 -0.9067 -0.4409  1.8241
 5740SOL     OW28852   2.164   0.486   1.777 -0.5316  0.0871  0.9162
 5740SOL    HW128853   2.082   0.488   1.728 -0.9247 -0.6882  1.5676
 5740SOL    HW228854   2.208   0.426   1.717 -0.1039  0.5299  0.7851
 5741SOL     OW28855   0.236   1.821   4.515  0.2322  0.1556 -0.0025
 5741SOL    HW128856   0.159   1.766   4.502  0.9764 -0.9063  0.1589
 5741SOL    HW228857   0.204   1.900   4.471 -0.8232 -1.2829 -1.8037
 5742SOL     OW28858   2.857   3.830   7.725 -0.0932  0.0778 -0.0157
 5742SOL    HW128859   2.762   3.837   7.734  0.0644  1.2741  0.6428
 5742SOL    HW228860   2.867   3.923   7.707  1.3003  0.0092  0.3811
 5743SOL     OW28861   3.491   0.310   5.610 -0.1245 -0.7850  0.5577
 5743SOL    HW128862   3.428   0.380   5.597  1.5459  0.5583 -0.2747
 5743SOL    HW228863   3.481   0.296   5.704 -0.7904 -0.2200  0.5726
 5744SOL     OW28864   1.764   3.612  12.994  0.3406  0.1294  0.6561
 5744SOL    HW128865   1.772   3.525  13.031  0.0090 -0.7160 -1.2226
 5744SOL    HW228866   1.853   3.632  12.967  0.6946 -1.9830  0.2780
 5745SOL     OW28867   1.871   1.427  11.710  0.0041 -0.6137 -0.0762
 5745SOL    HW128868   1.948   1.444  11.764 -1.0644  2.1036  0.5992
 5745SOL    HW228869   1.882   1.483  11.634  2.9221 -1.3002 -0.1588
 5746SOL     OW28870   2.223   2.291   3.795 -0.3906 -0.0270  0.0172
 5746SOL    HW128871   2.142   2.318   3.838 -0.5716 -2.2016  1.0334
 5746SOL    HW228872   2.279   2.368   3.804 -1.4284  1.0467 -2.5450
 5747SOL     OW28873   4.353   1.301  12.135  0.0049  0.0171  0.4242
 5747SOL    HW128874   4.389   1.221  12.098 -1.6367  0.1981 -1.5802
 5747SOL    HW228875   4.258   1.286  12.135 -0.3049  2.0412  0.8369
 5748SOL     OW28876   1.893   0.948   4.956  0.9880 -0.7255  0.4466
 5748SOL    HW128877   1.878   0.978   4.867 -0.8217  1.4103  1.4796
 5748SOL    HW228878   1.988   0.934   4.955  1.1543  0.6357 -1.0331
 5749SOL     OW28879   0.925   3.041   4.589  0.6165  0.5386  0.3480
 5749SOL    HW128880   0.845   3.026   4.540 -0.3450  1.8498  1.5065
 5749SOL    HW228881   0.953   2.951   4.601 -0.0953  0.2345 -0.2900
 5750SOL     OW28882   0.431   3.957  16.843  0.0316 -0.2040 -0.1220
 5750SOL    HW128883   0.471   3.967  16.756  1.8873 -0.3173  0.7314
 5750SOL    HW228884   0.341   3.929  16.824  0.7740 -1.2196 -2.1742
 5751SOL     OW28885   4.133   3.998   7.507  0.1813 -0.2639  0.0074
 5751SOL    HW128886   4.206   3.979   7.447 -1.7044  1.1544 -2.7389
 5751SOL    HW228887   4.167   3.968   7.591  2.2336  2.3934  0.1514
 5752SOL     OW28888   2.173   0.928   6.738  0.6455  0.3310  0.0695
 5752SOL    HW128889   2.110   0.995   6.711 -1.2374 -2.1014 -1.5050
 5752SOL    HW228890   2.214   0.891   6.660 -0.2425 -0.9044  0.2062
 5753SOL     OW28891   4.259   0.484   9.423  0.5059 -0.5253 -0.0180
 5753SOL    HW128892   4.274   0.400   9.465  1.6587  0.4359  1.4907
 5753SOL    HW228893   4.211   0.455   9.345  1.6256  0.5029 -1.1033
 5754SOL     OW28894   3.320   0.982   8.109 -0.3288 -1.1113  0.5868
 5754SOL    HW128895   3.391   0.995   8.046 -2.5352 -0.6230 -1.7935
 5754SOL    HW228896   3.355   0.903   8.149  0.7387 -0.8367  0.2022
 5755SOL     OW28897   0.593   1.100   5.461 -0.0830  0.5186 -0.0326
 5755SOL    HW128898   0.502   1.098   5.489  0.3924  0.9402  1.5268
 5755SOL    HW228899   0.593   1.043   5.384 -1.7195  0.0821  0.2935
 5756SOL     OW28900   1.730   4.037   4.005 -0.3310 -0.0550 -0.5289
 5756SOL    HW128901   1.717   4.123   4.046  0.1156 -0.4172  0.3626
 5756SOL    HW228902   1.793   3.984   4.054  1.6061  0.5315 -2.3787
 5757SOL     OW28903   0.930   1.944   7.060  0.5559  0.0159 -0.1392
 5757SOL    HW128904   0.981   2.015   7.021 -0.0670 -0.8813 -2.5470
 5757SOL    HW228905   0.988   1.922   7.134 -0.6739  0.1565  0.8636
 5758SOL     OW28906   0.470   3.350   0.362 -0.0070 -0.2373  0.0603
 5758SOL    HW128907   0.547   3.400   0.334  0.6272 -1.2519  0.0243
 5758SOL    HW228908   0.404   3.384   0.301  0.0764 -1.0782 -0.5024
 5759SOL     OW28909   4.738   0.368   9.404 -0.2490  0.0444 -0.1389
 5759SOL    HW128910   0.037   0.292   9.446 -0.2496  0.1760  0.1011
 5759SOL    HW228911   0.003   0.334   9.315 -3.0384  0.5270 -0.4821
 5760SOL     OW28912   2.419   1.398   4.875 -0.1013  0.2038 -0.2248
 5760SOL    HW128913   2.385   1.445   4.799  0.8244 -1.9397 -1.9806
 5760SOL    HW228914   2.512   1.422   4.873 -0.0305  0.1101  1.5206
 5761SOL     OW28915   0.071   4.416   7.791  0.3323 -0.1464  0.6530
 5761SOL    HW128916   0.005   4.468   7.836  0.8887  1.3564 -0.2887
 5761SOL    HW228917   0.064   4.329   7.830  0.6428 -0.3173  0.3329
 5762SOL     OW28918   1.796   2.015   0.177 -0.0254 -0.0996 -0.1691
 5762SOL    HW128919   1.846   2.096   0.187 -1.4866  0.4482  2.6103
 5762SOL    HW228920   1.710   2.048   0.152  0.4865  1.4392  0.1264
 5763SOL     OW28921   0.533   1.848  12.541 -0.5543  0.7261 -0.0469
 5763SOL    HW128922   0.514   1.910  12.612 -1.7790  0.0505  0.2266
 5763SOL    HW228923   0.506   1.896  12.463  3.2589  3.0407  0.0679
 5764SOL     OW28924   0.971   0.172   8.558  0.5322  0.3010  0.6311
 5764SOL    HW128925   1.010   0.256   8.535  0.2042  0.3542  0.2802
 5764SOL    HW228926   1.045   0.133   8.605  0.1866 -0.3465  0.6288
 5765SOL     OW28927   1.253   3.296   3.875  0.1638  0.4749 -0.1315
 5765SOL    HW128928   1.294   3.319   3.958 -0.1151 -0.3778  0.2472
 5765SOL    HW228929   1.165   3.302   3.912 -0.0486 -0.8076 -0.4228
 5766SOL     OW28930   2.209   0.220  15.923 -0.1694 -0.2668 -0.2671
 5766SOL    HW128931   2.253   0.279  15.862  1.7343 -1.7855 -0.3621
 5766SOL    HW228932   2.205   0.140  15.869 -1.4864 -0.6173  0.3617
 5767SOL     OW28933   2.419   3.748  13.144 -0.4929  0.0063  0.3502
 5767SOL    HW128934   2.487   3.743  13.211 -1.0665  1.0121  1.0143
 5767SOL    HW228935   2.390   3.657  13.135  0.5372 -0.2198 -0.6507
 5768SOL     OW28936   2.626   0.460   9.980 -0.1356 -0.6884 -0.2853
 5768SOL    HW128937   2.637   0.459   9.885 -1.5553  1.3926 -0.4861
 5768SOL    HW228938   2.686   0.531  10.002  0.6026 -0.8699 -1.7179
 5769SOL     OW28939   1.857   0.622   5.799  0.1637  0.3899 -0.0515
 5769SOL    HW128940   1.872   0.567   5.722 -0.1088 -1.8001  1.4519
 5769SOL    HW228941   1.920   0.689   5.774  0.8472 -0.8095 -1.5420
 5770SOL     OW28942   0.489   4.140  15.475 -0.3034 -0.3855 -0.4392
 5770SOL    HW128943   0.565   4.194  15.457  0.0289 -1.5395 -2.5314
 5770SOL    HW228944   0.461   4.122  15.385 -0.3702 -2.0930 -0.0768
 5771SOL     OW28945   4.485   1.066   4.269  0.1780  0.6157 -0.1384
 5771SOL    HW128946   4.475   1.145   4.322  1.1880  0.5112  0.2076
 5771SOL    HW228947   4.551   1.017   4.318  2.0373  1.8220 -1.4776
 5772SOL     OW28948   1.336   2.050  15.593  0.4211  0.2742 -0.1646
 5772SOL    HW128949   1.380   2.135  15.595 -0.0487  0.5642 -2.0249
 5772SOL    HW228950   1.259   2.068  15.540 -0.9643  0.2246  1.8178
 5773SOL     OW28951   2.614   3.754   6.526  0.3209  0.2239 -0.3234
 5773SOL    HW128952   2.675   3.775   6.597  0.3110 -1.8046  0.2698
 5773SOL    HW228953   2.530   3.762   6.570  1.0995 -1.1814  1.4095
 5774SOL     OW28954   0.672   2.703   5.417  0.0021  0.5175 -0.1854
 5774SOL    HW128955   0.749   2.646   5.410 -0.8761 -0.6896 -0.0378
 5774SOL    HW228956   0.716   2.785   5.441  0.7135 -0.9027  3.2783
 5775SOL     OW28957   2.026   4.264   4.887  0.3105 -0.1853 -0.1297
 5775SOL    HW128958   1.962   4.202   4.852  1.2983 -0.4278 -1.5284
 5775SOL    HW228959   2.093   4.205   4.922 -0.4817 -0.2973  1.2054
 5776SOL     OW28960   3.057   1.824   7.975  0.1999 -0.3191  0.1165
 5776SOL    HW128961   3.066   1.887   8.047 -1.7001 -0.7052  0.6759
 5776SOL    HW228962   2.967   1.833   7.945  0.6398 -2.2083 -1.7965
 5777SOL     OW28963   0.108   0.919   3.931 -0.4303 -0.0061 -0.3759
 5777SOL    HW128964   0.064   0.865   3.997  2.2410 -2.6076 -0.7096
 5777SOL    HW228965   0.144   0.851   3.874 -1.1501  0.9745 -1.9961
 5778SOL     OW28966   2.975   1.716   1.824 -0.3583 -0.7782 -0.4418
 5778SOL    HW128967   3.008   1.798   1.860  0.1701 -0.1137 -2.4165
 5778SOL    HW228968   2.886   1.715   1.858 -0.1702 -0.7522  0.0485
 5779SOL     OW28969   0.869   2.857   5.528  0.3167 -0.0846 -0.1608
 5779SOL    HW128970   0.892   2.948   5.549 -0.2057  0.2607 -1.1106
 5779SOL    HW228971   0.959   2.826   5.528  0.7331  1.1057  1.0983
 5780SOL     OW28972   1.706   2.597  10.001  0.0445 -0.3329  0.1858
 5780SOL    HW128973   1.740   2.686  10.004  0.5179 -0.4829 -0.5921
 5780SOL    HW228974   1.758   2.552  10.068 -0.1447 -0.0764  0.5018
 5781SOL     OW28975   3.426   1.921   0.321 -0.2138  0.7537 -0.0762
 5781SOL    HW128976   3.466   1.966   0.396  2.6627  0.5116 -1.4685
 5781SOL    HW228977   3.498   1.913   0.259 -0.0270 -0.1933  0.2541
 5782SOL     OW28978   3.944   1.877  15.588  0.2093 -0.8574 -0.0157
 5782SOL    HW128979   3.936   1.827  15.507  0.4911 -0.5481 -0.2358
 5782SOL    HW228980   3.855   1.896  15.616  0.8460  2.9280 -0.4999
 5783SOL     OW28981   4.043   1.144   7.731  0.0309  0.1103  0.2295
 5783SOL    HW128982   3.955   1.159   7.765 -0.4780 -1.3316 -0.4674
 5783SOL    HW228983   4.085   1.110   7.810 -0.6268  0.4827  0.7354
 5784SOL     OW28984   0.640   2.341   5.370 -0.4360 -0.2851  0.1593
 5784SOL    HW128985   0.704   2.275   5.342 -1.5630 -1.1217 -0.4387
 5784SOL    HW228986   0.558   2.294   5.354 -1.3596  0.4696  2.6889
 5785SOL     OW28987   3.301   3.789   4.832 -0.0212 -0.1386  0.0810
 5785SOL    HW128988   3.241   3.818   4.764 -0.9233 -0.4212  0.7529
 5785SOL    HW228989   3.269   3.839   4.907  1.0071 -0.3859  0.6913
 5786SOL     OW28990   3.567   2.687   5.461  0.4566  0.2616 -0.9257
 5786SOL    HW128991   3.545   2.778   5.479  2.3287  0.4795  0.1922
 5786SOL    HW228992   3.494   2.640   5.502  2.1397 -3.4444 -2.1419
 5787SOL     OW28993   1.540   2.571   3.999 -0.2941 -0.6126 -0.0638
 5787SOL    HW128994   1.445   2.565   3.986 -0.3282 -1.7980  0.7736
 5787SOL    HW228995   1.562   2.582   3.906  1.0443 -1.8313  0.1040
 5788SOL     OW28996   1.157   0.932   9.125  0.0966 -0.0974  0.1654
 5788SOL    HW128997   1.238   0.943   9.174 -0.2649  1.9118  0.3275
 5788SOL    HW228998   1.145   0.837   9.131  0.1353 -0.3018 -2.6579
 5789SOL     OW28999   1.444   3.718   1.539 -0.0568  0.2291 -0.2842
 5789SOL    HW129000   1.522   3.717   1.484 -0.1788 -1.7677 -0.4291
 5789SOL    HW229001   1.440   3.812   1.556  0.6521  0.2667 -0.3416
 5790SOL     OW29002   4.501   1.560  12.151 -0.5243  0.2068 -0.1706
 5790SOL    HW129003   4.569   1.496  12.174  0.8259  1.5530 -0.4275
 5790SOL    HW229004   4.452   1.503  12.093 -2.3510 -0.7357  2.2750
 5791SOL     OW29005   0.892   3.971   6.941 -0.2821 -0.0867  0.1816
 5791SOL    HW129006   0.814   4.014   6.977 -1.4577 -1.2763 -0.9326
 5791SOL    HW229007   0.956   3.995   7.008 -2.6153 -1.9764  3.1112
 5792SOL     OW29008   0.810   3.868  10.554  0.4943  0.4120 -0.0970
 5792SOL    HW129009   0.755   3.797  10.521 -2.8718  2.4839  1.0475
 5792SOL    HW229010   0.858   3.895  10.476  1.0992 -0.9696 -0.1957
 5793SOL     OW29011   3.437   3.490   6.891  0.3098  0.1538  0.2111
 5793SOL    HW129012   3.398   3.533   6.968 -0.7802 -0.0261 -0.2359
 5793SOL    HW229013   3.446   3.563   6.830 -0.5322  0.2979  0.2508
 5794SOL     OW29014   4.686   2.068   7.349 -0.5563 -0.0336  0.0901
 5794SOL    HW129015   4.624   2.028   7.411 -0.0649  0.7412  1.0908
 5794SOL    HW229016   4.633   2.058   7.270 -1.9315  1.2799  0.8581
 5795SOL     OW29017   3.254   1.740   8.581  0.1126  0.5164  0.1407
 5795SOL    HW129018   3.270   1.648   8.560  0.1058  0.3571  0.8288
 5795SOL    HW229019   3.325   1.777   8.530  2.0311 -1.9773  0.9757
 5796SOL     OW29020   3.963   1.059   0.397 -0.2538 -0.0279  0.9405
 5796SOL    HW129021   3.868   1.046   0.397 -0.2548 -0.0218  0.9075
 5796SOL    HW229022   3.997   0.970   0.397 -0.2175 -0.0163 -0.7893
 5797SOL     OW29023   0.402   1.669  16.710 -0.1040 -0.5812 -0.0782
 5797SOL    HW129024   0.353   1.638  16.786  0.8199 -0.6272  0.5041
 5797SOL    HW229025   0.469   1.602  16.726  0.8258  0.1541 -0.8674
 5798SOL     OW29026   1.170   3.704   6.994  0.0359  0.1279  0.0852
 5798SOL    HW129027   1.150   3.760   6.919  0.2178 -1.3046 -1.0175
 5798SOL    HW229028   1.183   3.771   7.062 -1.0468 -0.0778  0.5024
 5799SOL     OW29029   1.398   0.264  15.398 -0.9188  0.4813 -0.0702
 5799SOL    HW129030   1.425   0.339  15.450 -0.1595 -2.6019  3.9155
 5799SOL    HW229031   1.380   0.311  15.316 -1.3237  0.4896  0.0234
 5800SOL     OW29032   3.388   3.293   9.302  0.7740  0.0671 -0.1101
 5800SOL    HW129033   3.321   3.298   9.369  0.8141 -1.5835  0.0551
 5800SOL    HW229034   3.438   3.219   9.336 -0.5964 -0.8053  0.0173
 5801SOL     OW29035   4.352   2.317   9.489  0.2943  0.3427 -0.0596
 5801SOL    HW129036   4.277   2.360   9.529  1.3308  0.1829  2.1071
 5801SOL    HW229037   4.322   2.227   9.478  2.1546 -0.2587 -0.2919
 5802SOL     OW29038   1.687   4.385   8.557 -0.8302  0.0101  0.7520
 5802SOL    HW129039   1.640   4.313   8.514  1.4461  0.1829 -2.0044
 5802SOL    HW229040   1.774   4.347   8.556 -0.6618  0.4475 -4.3274
 5803SOL     OW29041   4.718   4.423   4.830 -0.2688 -0.2480  0.5301
 5803SOL    HW129042   0.059   4.375   4.817  0.6412  1.2472  0.7781
 5803SOL    HW229043   4.680   4.385   4.910  1.4794 -1.0381  0.9838
 5804SOL     OW29044   3.612   4.053  10.940  0.3377  0.4843 -0.0914
 5804SOL    HW129045   3.599   4.000  11.019 -0.6634 -0.3781 -0.8350
 5804SOL    HW229046   3.666   4.125  10.971 -2.0096  2.2820 -0.2038
 5805SOL     OW29047   4.495   2.265   4.907  0.2004  0.4312 -0.4591
 5805SOL    HW129048   4.478   2.175   4.937 -1.5526  1.5706  2.0016
 5805SOL    HW229049   4.522   2.243   4.818  3.0006 -3.6582  1.3629
 5806SOL     OW29050   0.301   2.682  15.970 -0.5820 -0.0615 -0.3037
 5806SOL    HW129051   0.288   2.760  15.916 -1.8478  1.5293  2.3279
 5806SOL    HW229052   0.272   2.618  15.904  2.0449 -0.7983 -0.7326
 5807SOL     OW29053   1.283   1.250  15.525 -0.9012  0.1986 -0.8760
 5807SOL    HW129054   1.346   1.292  15.584 -2.0284 -0.7387  0.9942
 5807SOL    HW229055   1.343   1.189  15.484  0.9801  2.2729 -1.1809
 5808SOL     OW29056   4.715   2.674   0.029 -0.5400  0.2355  0.2026
 5808SOL    HW129057   0.063   2.694   0.064 -1.4823 -1.4799  3.5713
 5808SOL    HW229058   4.674   2.760   0.028  1.0761  1.0019 -0.5509
 5809SOL     OW29059   2.278   2.347   2.608 -0.0476  0.0957 -0.5322
 5809SOL    HW129060   2.214   2.315   2.544  1.1538  0.3488 -1.8776
 5809SOL    HW229061   2.261   2.440   2.593 -0.0813  0.2389  0.4050
 5810SOL     OW29062   2.903   2.890  16.684  0.2251 -0.0477 -0.7935
 5810SOL    HW129063   2.964   2.920  16.751 -0.8292  1.4808 -0.5010
 5810SOL    HW229064   2.966   2.909  16.615  0.0696 -1.3709 -1.3016
 5811SOL     OW29065   0.654   2.586   5.861 -0.6615 -0.2004 -0.2948
 5811SOL    HW129066   0.741   2.621   5.840  1.2395 -3.1190  2.7981
 5811SOL    HW229067   0.634   2.550   5.775 -2.3249 -0.6805  0.3031
 5812SOL     OW29068   4.533   0.135   1.698  0.1846  0.7457  0.1377
 5812SOL    HW129069   4.612   0.135   1.645  0.1998  1.3577  0.1544
 5812SOL    HW229070   4.478   0.102   1.627 -0.7224  0.4787  0.9581
 5813SOL     OW29071   4.235   0.885   7.464 -0.2744  0.1728 -0.4648
 5813SOL    HW129072   4.284   0.954   7.419 -0.3840 -1.0019 -2.3670
 5813SOL    HW229073   4.305   0.842   7.513 -1.0995 -3.4470 -2.4048
 5814SOL     OW29074   0.207   2.499  11.513  0.0972 -0.6100 -0.6700
 5814SOL    HW129075   0.276   2.558  11.543 -2.3833  1.6219  0.5811
 5814SOL    HW229076   0.131   2.557  11.508  1.0428  0.6069 -0.7313
 5815SOL     OW29077   2.308   1.132   1.240 -0.0829 -0.2409 -0.1083
 5815SOL    HW129078   2.357   1.212   1.259 -2.8254  1.2306  0.8663
 5815SOL    HW229079   2.364   1.076   1.186  0.0925 -0.3869  0.2267
 5816SOL     OW29080   0.381   0.983   5.961  0.3650  0.1971 -0.1342
 5816SOL    HW129081   0.424   0.918   6.017  0.7046  0.5306 -0.0151
 5816SOL    HW229082   0.318   1.007   6.029  2.2627  0.7915  1.3998
 5817SOL     OW29083   2.708   0.769   6.419 -0.1700 -0.3250 -0.9184
 5817SOL    HW129084   2.752   0.842   6.375  0.9442 -0.6252 -0.2977
 5817SOL    HW229085   2.684   0.812   6.501  0.0810 -1.8528 -0.0556
 5818SOL     OW29086   3.837   4.483   3.088 -0.5301 -0.2595 -0.1968
 5818SOL    HW129087   3.867   4.569   3.059 -0.2634 -0.4151 -0.3899
 5818SOL    HW229088   3.762   4.522   3.132 -1.7269 -0.4972 -2.0175
 5819SOL     OW29089   2.770   4.229   4.205  0.5642 -0.1332 -0.6914
 5819SOL    HW129090   2.687   4.251   4.248  1.5495  0.8212  0.7289
 5819SOL    HW229091   2.767   4.281   4.124 -1.4244  2.3307  0.9552
 5820SOL     OW29092   2.909   4.084   4.397  0.2054 -0.5112 -0.2999
 5820SOL    HW129093   2.990   4.124   4.363  0.6671 -2.7854 -1.8750
 5820SOL    HW229094   2.850   4.145   4.352 -0.8704 -1.1870  0.2066
 5821SOL     OW29095   3.758   0.341   3.144 -0.1564 -0.2112 -0.1205
 5821SOL    HW129096   3.767   0.365   3.236  0.2283  1.4591 -0.5911
 5821SOL    HW229097   3.847   0.352   3.109 -0.3127 -0.2538 -0.5400
 5822SOL     OW29098   4.299   4.335   3.707  0.2497  0.2797 -0.8788
 5822SOL    HW129099   4.346   4.289   3.776 -0.4853  0.9127  0.0359
 5822SOL    HW229100   4.276   4.265   3.646  1.9926  1.0166 -2.3920
 5823SOL     OW29101   2.115   3.188   3.284  0.1372 -0.0245 -0.1131
 5823SOL    HW129102   2.055   3.260   3.266  1.0961  0.5248 -1.0542
 5823SOL    HW229103   2.059   3.113   3.305 -1.5036  1.3579  0.4274
 5824SOL     OW29104   3.208   3.020   7.654 -0.1768 -0.2696 -0.1877
 5824SOL    HW129105   3.261   3.099   7.646  0.9865 -0.8396  1.7707
 5824SOL    HW229106   3.231   2.988   7.741  0.6643  2.1686  0.4844
 5825SOL     OW29107   2.136   0.336   3.280  0.0275  0.5552 -0.1436
 5825SOL    HW129108   2.148   0.241   3.270 -0.5194  0.3532  1.1475
 5825SOL    HW229109   2.178   0.338   3.365  0.3650  2.2469 -0.3578
 5826SOL     OW29110   2.413   0.879   3.548 -0.2377  0.7344  0.4982
 5826SOL    HW129111   2.381   0.793   3.521 -2.8461  2.1276 -0.9121
 5826SOL    HW229112   2.376   0.931   3.477 -0.7404 -1.1126 -0.5947
 5827SOL     OW29113   4.690   2.059  11.964  0.3481 -0.2491  0.1554
 5827SOL    HW129114   0.045   2.047  11.973 -0.1150 -2.7877  1.5487
 5827SOL    HW229115   4.655   1.972  11.983  1.8241 -0.6856  0.8736
 5828SOL     OW29116   0.470   0.615  15.775  0.2625  0.2350  0.3627
 5828SOL    HW129117   0.456   0.709  15.785  1.8720  0.2223  2.7120
 5828SOL    HW229118   0.495   0.599  15.683 -3.6028  0.8286 -0.7796
 5829SOL     OW29119   3.177   1.230  14.048  0.1657  0.1168  0.1228
 5829SOL    HW129120   3.181   1.307  14.105 -3.1085 -1.9514  3.1727
 5829SOL    HW229121   3.253   1.186  14.087  1.2243  1.0694 -0.8441
 5830SOL     OW29122   0.087   2.484   0.430 -0.3038  0.2406  0.4671
 5830SOL    HW129123   4.736   2.506   0.412 -0.0961 -0.3864 -1.3226
 5830SOL    HW229124   0.130   2.569   0.444  1.2026  0.1753 -3.8962
 5831SOL     OW29125   2.606   2.038   1.593 -0.7357 -0.3739 -0.2040
 5831SOL    HW129126   2.688   2.086   1.608  0.4947 -2.0535 -1.6035
 5831SOL    HW229127   2.592   2.050   1.500 -3.2586 -2.0746 -0.0304
 5832SOL     OW29128   3.052   1.106   8.077  0.1019 -0.1136  0.4123
 5832SOL    HW129129   3.134   1.155   8.076  0.1649 -0.2360 -0.7034
 5832SOL    HW229130   3.078   1.026   8.032 -2.2217 -0.8409  0.3464
 5833SOL     OW29131   4.553   3.872   8.360 -0.1593  0.3144 -0.4985
 5833SOL    HW129132   4.521   3.960   8.340  0.1418  0.2642 -1.2126
 5833SOL    HW229133   4.495   3.834   8.426  1.3871 -0.8146  0.1959
 5834SOL     OW29134   1.007   3.899   3.719  0.3764 -0.0820  0.4227
 5834SOL    HW129135   1.072   3.886   3.649 -1.1046 -2.0208 -0.5890
 5834SOL    HW229136   0.957   3.817   3.711 -1.4322  0.9160  1.6851
 5835SOL     OW29137   0.827   0.224   7.700  0.3474 -0.5048 -0.0491
 5835SOL    HW129138   0.910   0.222   7.746  0.6759  0.7557 -0.5668
 5835SOL    HW229139   0.819   0.316   7.673 -0.2354 -0.5141  0.0944
 5836SOL     OW29140   0.948   1.630   7.680 -0.0918 -0.1492 -0.6130
 5836SOL    HW129141   0.918   1.663   7.764 -0.9587 -3.6364  0.4597
 5836SOL    HW229142   0.915   1.540   7.690 -1.7979  0.6102  0.5283
 5837SOL     OW29143   3.421   4.404   0.331 -0.0652 -0.0751 -0.8607
 5837SOL    HW129144   3.442   4.325   0.380  1.0938 -0.3375 -1.7863
 5837SOL    HW229145   3.326   4.395   0.335 -0.1286  0.8033 -0.2010
 5838SOL     OW29146   3.845   0.247   2.101 -0.4580 -0.0013 -0.3279
 5838SOL    HW129147   3.833   0.326   2.152  0.0884 -0.9642  1.2951
 5838SOL    HW229148   3.900   0.276   2.028  0.7897 -1.8772 -0.1383
 5839SOL     OW29149   4.560   1.368   8.877 -0.2280 -0.1914 -0.5625
 5839SOL    HW129150   4.591   1.281   8.903 -0.0065  0.0308 -0.0893
 5839SOL    HW229151   4.465   1.357   8.882 -0.3469  0.2723 -1.8224
 5840SOL     OW29152   2.989   1.949  13.075  0.1284  0.4001  0.3635
 5840SOL    HW129153   2.967   2.007  13.003 -1.3501  0.8470  1.1773
 5840SOL    HW229154   3.003   1.864  13.033  1.7331  0.0694  1.5674
 5841SOL     OW29155   0.501   3.678   6.640  0.0415  0.3616  0.3751
 5841SOL    HW129156   0.574   3.735   6.619 -1.1830  1.4698 -0.8565
 5841SOL    HW229157   0.493   3.614   6.569 -2.7917  1.6847 -0.4777
 5842SOL     OW29158   3.090   1.110   5.339 -0.3370 -0.3620  0.7677
 5842SOL    HW129159   3.101   1.057   5.417 -0.4848 -0.3325  0.8077
 5842SOL    HW229160   3.126   1.048   5.275 -1.8877 -1.1450  0.6698
 5843SOL     OW29161   3.266   3.970  12.032  0.2937 -0.8017  0.3399
 5843SOL    HW129162   3.244   3.946  11.942  3.3120 -1.6678 -0.1808
 5843SOL    HW229163   3.358   3.946  12.042  0.6956  1.0642  1.0963
 5844SOL     OW29164   3.095   0.172   6.798 -0.0416  0.4149  0.5499
 5844SOL    HW129165   3.027   0.190   6.733  1.8496  4.6944 -0.2151
 5844SOL    HW229166   3.071   0.081   6.814 -0.7332  0.6924  1.1218
 5845SOL     OW29167   1.685   0.023   5.310  0.0368  0.4478 -0.5232
 5845SOL    HW129168   1.637   0.072   5.376 -0.8131  0.8072 -1.4157
 5845SOL    HW229169   1.767   0.015   5.360 -0.1816  2.7216  0.1923
 5846SOL     OW29170   3.498   2.203   4.635 -0.0634  0.1292  0.2926
 5846SOL    HW129171   3.468   2.117   4.664 -0.4313  0.9119  2.2937
 5846SOL    HW229172   3.422   2.243   4.592 -1.1698 -0.7602  1.4202
 5847SOL     OW29173   4.520   4.527   9.875 -0.3594 -0.3930 -0.0078
 5847SOL    HW129174   4.537   4.470   9.950  1.7902 -0.3550 -0.4517
 5847SOL    HW229175   4.430   4.553   9.896 -0.5913 -1.4093  0.2363
 5848SOL     OW29176   4.485   2.580   5.361  0.1824 -0.3305 -0.1719
 5848SOL    HW129177   4.502   2.581   5.455  1.3033 -1.1186 -0.3653
 5848SOL    HW229178   4.487   2.487   5.340 -0.3953 -0.7482  1.6695
 5849SOL     OW29179   2.756   4.348  15.746  0.0080 -0.1734 -0.1891
 5849SOL    HW129180   2.700   4.273  15.766  2.1249 -1.2524  1.7535
 5849SOL    HW229181   2.696   4.408  15.702 -0.8386 -1.3724 -0.6824
 5850SOL     OW29182   2.559   4.474   9.898  0.4775  0.0877  0.6152
 5850SOL    HW129183   2.567   4.570   9.905 -0.1264  0.2340 -0.6912
 5850SOL    HW229184   2.468   4.466   9.870  0.2875  0.4237  1.1265
 5851SOL     OW29185   4.685   2.064   3.012  0.3605  0.2397 -0.1615
 5851SOL    HW129186   4.663   1.982   3.055  1.0094 -0.6658 -1.5522
 5851SOL    HW229187   4.596   2.083   2.981 -0.0479 -2.7795 -0.8115
 5852SOL     OW29188   0.331   3.597   6.855 -0.0482  0.5410 -0.3918
 5852SOL    HW129189   0.380   3.643   6.787 -0.6159 -0.1615 -1.2899
 5852SOL    HW229190   0.340   3.662   6.924  0.8866 -1.1303  1.0431
 5853SOL     OW29191   0.398   2.513   3.386 -0.6204 -0.4912 -0.1423
 5853SOL    HW129192   0.341   2.534   3.460 -3.4352  0.9120 -2.7593
 5853SOL    HW229193   0.357   2.543   3.305 -2.1777 -1.4560  0.2910
 5854SOL     OW29194   3.137   4.217  12.078  0.3080 -0.7010 -0.3271
 5854SOL    HW129195   3.203   4.277  12.041  0.0465 -0.4656 -0.4117
 5854SOL    HW229196   3.194   4.141  12.091  0.5432 -0.3518  0.6635
 5855SOL     OW29197   1.975   2.086   4.543  0.0158  0.0295  0.2766
 5855SOL    HW129198   2.044   2.144   4.574 -1.1699 -0.3254  3.5551
 5855SOL    HW229199   1.927   2.062   4.622  0.0956  1.3513  0.7244
 5856SOL     OW29200   4.594   2.347   8.546 -0.4690 -0.1564  0.9528
 5856SOL    HW129201   4.538   2.421   8.567  0.4096  0.5315  0.9054
 5856SOL    HW229202   4.677   2.395   8.538 -0.3436 -0.5468 -0.0908
 5857SOL     OW29203   1.000   1.466   8.762 -0.3068  0.6184  0.3915
 5857SOL    HW129204   0.996   1.428   8.850  2.4245 -0.8113 -0.0656
 5857SOL    HW229205   0.956   1.548   8.783  1.1813  0.8497  2.5864
 5858SOL     OW29206   4.411   0.964  10.607  0.1413 -0.0590  0.9260
 5858SOL    HW129207   4.331   0.987  10.654 -0.1838 -0.0553  0.3784
 5858SOL    HW229208   4.470   0.985  10.679 -1.0504 -3.3398  2.8728
 5859SOL     OW29209   4.019   0.291  14.288  0.2864  0.4717 -0.3080
 5859SOL    HW129210   4.017   0.305  14.383 -1.1363 -1.7340 -0.0031
 5859SOL    HW229211   3.980   0.203  14.286  0.6843  0.2496  1.1478
 5860SOL     OW29212   0.038   4.141   5.157 -0.0804  0.2075  0.7898
 5860SOL    HW129213   4.718   4.213   5.137  1.1902  0.3614 -2.3687
 5860SOL    HW229214   0.107   4.183   5.209 -0.4684  0.6015  0.9876
 5861SOL     OW29215   1.490   0.233   7.384  0.1246 -0.3285 -0.0730
 5861SOL    HW129216   1.452   0.197   7.303 -1.7317  1.7434 -0.1068
 5861SOL    HW229217   1.529   0.319   7.371  0.0096 -0.2941 -0.1964
 5862SOL     OW29218   1.001   1.115   7.769 -0.0915 -0.5020 -0.6300
 5862SOL    HW129219   1.051   1.195   7.751 -0.3461  0.0260  0.9314
 5862SOL    HW229220   1.060   1.041   7.756  0.3159 -0.6314  1.9894
 5863SOL     OW29221   3.485   2.524  15.127 -0.3887 -0.0581 -0.0669
 5863SOL    HW129222   3.542   2.448  15.112  0.1716  0.3290  0.0973
 5863SOL    HW229223   3.419   2.488  15.187 -1.6022  0.1999 -1.2467
 5864SOL     OW29224   2.260   1.892   7.619 -0.3620  0.1890 -0.9294
 5864SOL    HW129225   2.248   1.939   7.701 -0.3108 -1.6530  0.1465
 5864SOL    HW229226   2.313   1.816   7.643  2.3866  2.3031 -0.3818
 5865SOL     OW29227   4.162   1.547  16.637 -0.0754  0.2930 -0.1183
 5865SOL    HW129228   4.082   1.498  16.655 -0.0980 -0.6492 -2.7968
 5865SOL    HW229229   4.225   1.487  16.678  0.9563  0.3560 -1.5987
 5866SOL     OW29230   1.696   4.400   3.495 -0.6860 -0.5547  0.1514
 5866SOL    HW129231   1.614   4.360   3.467 -0.0358 -0.4678 -1.9538
 5866SOL    HW229232   1.747   4.398   3.413  1.9787  1.6887  1.7527
 5867SOL     OW29233   1.137   3.726   6.150 -0.1693 -0.5126  0.5074
 5867SOL    HW129234   1.185   3.643   6.151  0.4158 -0.1843 -0.6205
 5867SOL    HW229235   1.097   3.720   6.064 -0.2732 -0.2576  0.5387
 5868SOL     OW29236   2.837   4.625  14.024 -0.0760 -0.5804 -0.5869
 5868SOL    HW129237   2.823   4.719  14.034 -0.0024 -0.9405  2.8641
 5868SOL    HW229238   2.883   4.609  13.942  0.7269 -1.8415  0.1173
 5869SOL     OW29239   2.520   4.393   0.355  1.0125 -0.1585 -0.7676
 5869SOL    HW129240   2.438   4.346   0.370 -0.0065  1.9505  0.1079
 5869SOL    HW229241   2.518   4.407   0.260 -0.3047 -1.0063 -0.8626
 5870SOL     OW29242   2.742   3.895   2.481 -0.2088  0.3368  0.0966
 5870SOL    HW129243   2.664   3.843   2.501  0.2422 -0.0890  0.7459
 5870SOL    HW229244   2.716   3.950   2.407  0.2887 -0.9268 -1.0238
 5871SOL     OW29245   1.570   2.715   7.903 -0.2081  0.4330  0.0026
 5871SOL    HW129246   1.547   2.686   7.815  1.6625  1.6604 -0.9098
 5871SOL    HW229247   1.573   2.631   7.949  0.1197  0.6152  0.3130
 5872SOL     OW29248   4.048   2.000   3.608 -0.1436  0.0027 -1.0931
 5872SOL    HW129249   3.961   1.965   3.591 -0.5075  1.6400 -2.5991
 5872SOL    HW229250   4.109   1.954   3.551  0.1470 -0.8979 -0.0613
 5873SOL     OW29251   0.051   4.194   8.025  0.1440  0.2020 -0.3920
 5873SOL    HW129252   4.701   4.218   8.048 -0.4752 -0.9687 -1.5773
 5873SOL    HW229253   0.042   4.115   7.972 -0.4290 -1.0859  1.5864
 5874SOL     OW29254   2.223   3.221  16.109 -0.2323 -0.4284  0.2690
 5874SOL    HW129255   2.290   3.157  16.083  0.6084  0.1430  1.0266
 5874SOL    HW229256   2.163   3.223  16.034  0.0280  1.3723  0.1186
 5875SOL     OW29257   3.099   1.509   3.987 -0.3769  0.2308 -0.4119
 5875SOL    HW129258   3.069   1.423   4.015  1.8286 -0.3440  0.1870
 5875SOL    HW229259   3.027   1.532   3.929 -0.8487 -0.0253  0.0768
 5876SOL     OW29260   2.345   1.928   7.951  0.6787 -0.0869 -0.1823
 5876SOL    HW129261   2.359   1.881   8.034  2.1205  0.0427 -0.3500
 5876SOL    HW229262   2.420   1.909   7.894  1.1789  1.0689  0.0824
 5877SOL     OW29263   1.472   3.091   9.510  0.6782  0.2324 -0.1941
 5877SOL    HW129264   1.555   3.129   9.539  1.3367 -1.5296  0.2713
 5877SOL    HW229265   1.491   3.101   9.417 -0.1850 -0.6087 -0.4673
 5878SOL     OW29266   0.241   1.453  17.008 -0.0403  0.8134 -0.0261
 5878SOL    HW129267   0.273   1.542  16.994  3.5873 -0.6595 -1.1724
 5878SOL    HW229268   0.270   1.447  17.099  1.7438  1.6446 -0.5397
 5879SOL     OW29269   4.327   3.876  16.397 -0.0158  0.4689  0.1352
 5879SOL    HW129270   4.276   3.796  16.409 -1.7144  1.7609  1.3835
 5879SOL    HW229271   4.312   3.931  16.474 -1.2416  0.5599 -0.1733
 5880SOL     OW29272   3.561   0.944   5.227 -0.5506  0.3826 -0.1058
 5880SOL    HW129273   3.529   0.943   5.137 -0.5907  0.2973 -0.0903
 5880SOL    HW229274   3.572   1.039   5.229  0.4842  0.2216  2.2887
 5881SOL     OW29275   3.702   0.932   8.417 -0.5386  0.1593 -0.6370
 5881SOL    HW129276   3.777   0.884   8.382  0.3334 -1.3569  3.3114
 5881SOL    HW229277   3.631   0.882   8.377  0.8233 -1.2294 -1.3228
 5882SOL     OW29278   4.306   0.459   2.447 -0.8983  0.4211 -0.3254
 5882SOL    HW129279   4.276   0.369   2.462 -1.1929  1.1202  3.0549
 5882SOL    HW229280   4.225   0.509   2.450  0.1637  2.0315  1.2761
 5883SOL     OW29281   3.216   3.021   6.271  0.2265 -0.3008 -0.0427
 5883SOL    HW129282   3.280   2.959   6.305 -0.6190  0.6639  3.3388
 5883SOL    HW229283   3.159   2.955   6.231 -0.8794  1.1094 -0.8146
 5884SOL     OW29284   3.511   2.129   0.466  0.1971  0.2334 -0.0987
 5884SOL    HW129285   3.464   2.196   0.416 -1.1710 -0.0402  0.8214
 5884SOL    HW229286   3.600   2.140   0.432  0.4204 -1.0693  0.0517
 5885SOL     OW29287   4.039   4.131   2.038  0.4230  0.1204 -0.0823
 5885SOL    HW129288   4.042   4.090   1.952 -0.5988 -0.2788  0.0706
 5885SOL    HW229289   3.964   4.085   2.075  1.2479 -3.5376 -2.9299
 5886SOL     OW29290   0.251   1.850   4.856 -0.3756 -0.3705  0.0050
 5886SOL    HW129291   0.234   1.840   4.762 -1.0070 -0.6977  0.1517
 5886SOL    HW229292   0.292   1.935   4.843 -1.4298  0.2011  0.4268
 5887SOL     OW29293   0.690   0.068   7.383 -0.6674 -0.0694 -0.4993
 5887SOL    HW129294   0.612   0.094   7.333  0.2648 -1.3165 -2.5702
 5887SOL    HW229295   0.747   0.144   7.379  0.4418 -0.9852 -1.8117
 5888SOL     OW29296   1.174   3.683   4.482  0.3266  0.4005 -0.5378
 5888SOL    HW129297   1.120   3.750   4.441  1.1633  3.0421  2.7335
 5888SOL    HW229298   1.146   3.604   4.435 -1.3617  1.5843 -1.5207
 5889SOL     OW29299   3.341   2.688   2.707  0.2121  0.1344 -0.4055
 5889SOL    HW129300   3.340   2.764   2.650 -0.3837  0.6907  0.3403
 5889SOL    HW229301   3.413   2.714   2.764 -1.0554  0.1519  1.1811
 5890SOL     OW29302   4.225   3.812   0.852 -0.0126  0.4563 -0.1272
 5890SOL    HW129303   4.315   3.844   0.863  0.1914  0.1962 -0.9738
 5890SOL    HW229304   4.195   3.854   0.932 -2.5543  0.1595 -0.9168
 5891SOL     OW29305   0.280   3.200   7.346 -0.7731 -0.1917  0.5188
 5891SOL    HW129306   0.267   3.258   7.271  1.3602  1.4681  1.4394
 5891SOL    HW229307   0.247   3.248   7.422 -0.3986 -0.0525  0.5930
 5892SOL     OW29308   0.124   2.549   4.713  0.2645  0.2032 -0.0896
 5892SOL    HW129309   0.049   2.523   4.660  1.0983 -0.5000 -0.9448
 5892SOL    HW229310   0.168   2.464   4.722 -1.8421 -1.0464 -1.8622
 5893SOL     OW29311   1.193   3.926   7.162 -0.4930  0.0442  0.2484
 5893SOL    HW129312   1.174   3.862   7.230 -0.0996  1.3938  1.6408
 5893SOL    HW229313   1.289   3.923   7.160 -0.3847  0.6306  3.4168
 5894SOL     OW29314   4.714   3.308  17.116 -0.1559  0.0058 -0.0127
 5894SOL    HW129315   4.650   3.372  17.145  1.0045  0.7764  0.8257
 5894SOL    HW229316   0.058   3.352  17.130 -0.2386  0.2291 -0.2156
 5895SOL     OW29317   3.737   0.650  14.446 -0.4106  0.3256  0.5650
 5895SOL    HW129318   3.823   0.625  14.480  0.4735  1.3705 -0.8450
 5895SOL    HW229319   3.703   0.717  14.505 -0.0383  1.1798 -0.1825
 5896SOL     OW29320   2.770   2.183  11.907 -0.7300  0.5288 -0.2599
 5896SOL    HW129321   2.826   2.240  11.856  0.8810 -0.6087  0.2556
 5896SOL    HW229322   2.763   2.236  11.987 -0.4009  1.2734 -0.7220
 5897SOL     OW29323   0.228   2.997   4.725  0.0134  0.0699 -0.3702
 5897SOL    HW129324   0.190   2.964   4.807  2.7604 -2.4968 -0.1344
 5897SOL    HW229325   0.144   3.012   4.681 -0.0872  0.2218 -0.1255
 5898SOL     OW29326   2.913   1.832   4.069 -0.1075  0.1024  0.5892
 5898SOL    HW129327   2.873   1.830   3.982 -2.1167  0.4395  1.4880
 5898SOL    HW229328   3.000   1.865   4.047  0.2633 -0.4371  1.2331
 5899SOL     OW29329   4.338   1.730   2.679 -0.0254 -0.1104 -0.4968
 5899SOL    HW129330   4.427   1.747   2.709 -0.2834 -3.0886  2.0328
 5899SOL    HW229331   4.289   1.796   2.727 -0.7033 -1.1014  0.1775
 5900SOL     OW29332   0.261   1.192   7.047 -0.2905 -0.1817  0.9208
 5900SOL    HW129333   0.310   1.233   7.119 -1.2512  1.7426  0.4663
 5900SOL    HW229334   0.265   1.266   6.987  2.2846 -1.4158 -0.4507
 5901SOL     OW29335   1.990   3.204   2.558  0.0654 -0.4362  0.0092
 5901SOL    HW129336   1.920   3.250   2.511 -0.4950  0.6128  1.8464
 5901SOL    HW229337   1.980   3.116   2.522 -2.1927 -0.9658  1.9524
 5902SOL     OW29338   1.239   3.920   9.804 -0.7677 -0.3065  0.2376
 5902SOL    HW129339   1.326   3.958   9.815  0.6453 -3.2957 -0.4359
 5902SOL    HW229340   1.184   3.970   9.864 -0.0149 -0.0017  0.6749
 5903SOL     OW29341   4.266   3.183   7.335 -0.3581  0.2928  0.2585
 5903SOL    HW129342   4.299   3.098   7.304  1.4191  1.1812 -0.2515
 5903SOL    HW229343   4.309   3.225   7.260 -0.1105  0.9122  0.7490
 5904SOL     OW29344   4.511   0.927   4.967  0.8276 -0.1718  0.1437
 5904SOL    HW129345   4.437   0.921   5.028 -0.5437 -1.3753 -1.6611
 5904SOL    HW229346   4.554   0.844   4.990  0.0690 -1.3041 -2.5457
 5905SOL     OW29347   1.483   4.552   8.667 -0.6408  0.2885  0.5137
 5905SOL    HW129348   1.546   4.609   8.711  0.8853 -2.1526  1.4476
 5905SOL    HW229349   1.542   4.483   8.638 -0.8646 -0.2509  1.3559
 5906SOL     OW29350   2.377   1.204   4.443 -0.0782  0.3119  0.2958
 5906SOL    HW129351   2.298   1.258   4.435  0.1858  0.6080 -0.2762
 5906SOL    HW229352   2.438   1.268   4.406 -0.0757 -0.4040 -0.9239
 5907SOL     OW29353   0.261   2.737   8.492 -0.1076 -0.6385 -0.5129
 5907SOL    HW129354   0.248   2.728   8.587  1.8790 -0.6365 -0.2303
 5907SOL    HW229355   0.233   2.826   8.472  2.4416  0.2852 -0.0719
 5908SOL     OW29356   0.416   4.612  10.103 -0.2922 -0.4060  0.1401
 5908SOL    HW129357   0.455   4.598  10.017  0.9066 -2.5364  1.0314
 5908SOL    HW229358   0.418   4.706  10.124  1.8346 -0.7985  1.6890
 5909SOL     OW29359   2.470   3.156   4.161  0.6799 -0.3442 -0.1000
 5909SOL    HW129360   2.486   3.197   4.246 -0.3009  1.7970 -0.9483
 5909SOL    HW229361   2.375   3.160   4.150  0.5751 -0.6265  0.6815
 5910SOL     OW29362   0.304   1.932   5.546  0.1557 -0.4639  0.5948
 5910SOL    HW129363   0.344   2.000   5.601  0.5943 -0.0794 -0.2052
 5910SOL    HW229364   0.249   1.986   5.490 -1.9715 -1.9049  1.2777
 5911SOL     OW29365   3.357   2.087  13.470 -0.0463  1.0097 -0.3890
 5911SOL    HW129366   3.394   2.043  13.547 -4.1878  0.6394  1.3559
 5911SOL    HW229367   3.303   2.026  13.421  2.4417 -0.1425 -1.7092
 5912SOL     OW29368   2.191   3.640   0.767  0.2268  0.2061 -0.4724
 5912SOL    HW129369   2.272   3.643   0.716  0.4098  1.3635 -0.1200
 5912SOL    HW229370   2.193   3.728   0.806  1.4801 -0.6906  1.4706
 5913SOL     OW29371   1.467   2.609   0.009 -0.1593 -0.9629  0.4901
 5913SOL    HW129372   1.453   2.561   0.091  1.5723 -0.8479  0.8553
 5913SOL    HW229373   1.508   2.543  17.711  0.6135  0.9843 -1.2504
 5914SOL     OW29374   2.884   4.137   4.787  0.0156 -0.3790 -0.2637
 5914SOL    HW129375   2.941   4.213   4.771 -2.0753  1.0235 -1.0439
 5914SOL    HW229376   2.802   4.178   4.759 -0.7031 -0.8602  1.1427
 5915SOL     OW29377   2.004   1.758   7.648 -0.1345 -0.0560  0.0981
 5915SOL    HW129378   2.002   1.781   7.741 -0.0352 -1.7787  0.5273
 5915SOL    HW229379   2.097   1.779   7.635 -0.0933 -1.5690 -1.9741
 5916SOL     OW29380   1.745   2.263   5.854  0.1687 -0.0873 -0.2169
 5916SOL    HW129381   1.658   2.245   5.890  1.0729 -1.1981  1.4427
 5916SOL    HW229382   1.798   2.282   5.931  0.1004 -1.3595  0.1422
 5917SOL     OW29383   2.315   3.783   8.896  0.8634  0.5315 -0.0139
 5917SOL    HW129384   2.301   3.878   8.893 -2.0142  0.0895 -0.7566
 5917SOL    HW229385   2.400   3.768   8.855  0.8359 -0.5971  0.3337
 5918SOL     OW29386   1.911   2.715   2.173  0.3824 -0.0373  0.4159
 5918SOL    HW129387   1.988   2.694   2.121 -1.5235  0.1426 -2.5181
 5918SOL    HW229388   1.913   2.811   2.167 -1.5904 -0.0747 -1.1869
 5919SOL     OW29389   1.102   1.365  11.682 -0.1666 -0.7062  0.0533
 5919SOL    HW129390   1.064   1.445  11.720 -1.3743 -1.5579  0.6506
 5919SOL    HW229391   1.036   1.299  11.704 -1.9754  0.2032 -2.6750
 5920SOL     OW29392   1.889   4.115   2.924 -0.2590 -0.4993  0.1958
 5920SOL    HW129393   1.920   4.041   2.871 -1.6298 -0.2785 -0.9275
 5920SOL    HW229394   1.836   4.070   2.991 -1.1435 -1.1365 -0.9290
 5921SOL     OW29395   1.151   1.206   9.147 -0.1149 -0.1566  0.2464
 5921SOL    HW129396   1.107   1.123   9.165 -0.6462  0.3221  1.1475
 5921SOL    HW229397   1.190   1.194   9.060  0.3205  4.1579 -0.1394
 5922SOL     OW29398   0.952   1.961   1.801 -0.8718  0.6670  0.0598
 5922SOL    HW129399   1.001   1.879   1.796  1.4249  1.9190  1.9613
 5922SOL    HW229400   0.955   1.977   1.895  1.4516 -0.9670  0.2613
 5923SOL     OW29401   2.369   0.130   7.772  0.9205 -0.3475 -0.2408
 5923SOL    HW129402   2.393   0.065   7.837  0.6920  1.8487  2.0267
 5923SOL    HW229403   2.444   0.189   7.776  1.0045 -0.3125 -2.1660
 5924SOL     OW29404   1.788   2.978   3.836  0.1457 -0.6124 -0.1794
 5924SOL    HW129405   1.733   2.920   3.784 -1.3251  2.5580 -2.1703
 5924SOL    HW229406   1.769   2.943   3.924  0.5814 -0.5596 -0.0652
 5925SOL     OW29407   4.351   2.890   3.215 -0.4008 -0.7384 -0.4007
 5925SOL    HW129408   4.328   2.982   3.200 -1.0411 -0.8146  0.0741
 5925SOL    HW229409   4.436   2.903   3.257  0.1889 -0.8636 -1.5566
 5926SOL     OW29410   4.461   1.665   9.669 -0.4865  0.4149  0.1013
 5926SOL    HW129411   4.428   1.590   9.719 -1.0145 -0.6484 -1.8572
 5926SOL    HW229412   4.451   1.733   9.736 -1.2909  0.8311 -0.4433
 5927SOL     OW29413   4.156   3.541   8.393 -0.0814  0.3064 -0.0808
 5927SOL    HW129414   4.092   3.474   8.370 -0.7121  0.9251 -0.1469
 5927SOL    HW229415   4.217   3.494   8.450  1.4928  3.0083  0.4735
 5928SOL     OW29416   3.651   3.313   8.754  0.2078  0.6646 -0.1310
 5928SOL    HW129417   3.630   3.367   8.830  2.1659 -0.5067  1.2415
 5928SOL    HW229418   3.645   3.226   8.793  2.3657  0.9591  0.8614
 5929SOL     OW29419   3.966   3.531   4.093  0.0674  0.0138 -0.1672
 5929SOL    HW129420   3.904   3.459   4.108 -0.3793 -0.2298 -3.0634
 5929SOL    HW229421   3.911   3.590   4.040 -0.7066  0.1897  0.8355
 5930SOL     OW29422   1.798   1.416   2.751  0.2084 -0.6696  0.4763
 5930SOL    HW129423   1.890   1.413   2.723  0.6543  1.3411  1.6960
 5930SOL    HW229424   1.774   1.501   2.713  2.4647 -0.2107  0.0724
 5931SOL     OW29425   4.531   4.122   5.686  0.5351 -0.3961 -0.1921
 5931SOL    HW129426   4.609   4.145   5.636  0.1564  2.3228  0.4593
 5931SOL    HW229427   4.574   4.068   5.753  0.3446 -0.8915 -0.4699
 5932SOL     OW29428   2.092   3.775   0.152 -0.0873  0.2219  0.2587
 5932SOL    HW129429   2.102   3.764   0.246  1.9700 -1.1851 -0.1239
 5932SOL    HW229430   2.068   3.684   0.133 -2.7012  0.7714  0.8964
 5933SOL     OW29431   2.057   2.272  10.007 -0.8688  0.1934 -0.0437
 5933SOL    HW129432   1.966   2.254   9.983 -1.3361  3.1379 -0.4721
 5933SOL    HW229433   2.097   2.221   9.936  0.3716 -1.1816  1.6665
 5934SOL     OW29434   2.977   2.912   1.794 -0.3431  0.3563 -0.2308
 5934SOL    HW129435   2.984   2.926   1.700  4.8372 -0.6198  0.0496
 5934SOL    HW229436   2.889   2.951   1.794 -0.4307  0.1495 -0.8279
 5935SOL     OW29437   1.416   4.555  12.820  0.1193 -0.1905 -0.2832
 5935SOL    HW129438   1.465   4.634  12.841 -0.8586  0.3417 -0.0148
 5935SOL    HW229439   1.424   4.557  12.724 -2.4095 -0.0269 -0.4910
 5936SOL     OW29440   0.532   4.702  11.410 -0.0633  0.6487 -0.8275
 5936SOL    HW129441   0.466   0.027  11.431  0.9282  0.9399  1.3644
 5936SOL    HW229442   0.539   4.659  11.495 -1.6724  0.0621 -1.0058
 5937SOL     OW29443   3.154   2.559   2.850  0.0738 -0.1015  0.2536
 5937SOL    HW129444   3.157   2.616   2.927 -2.6429  1.2152 -0.6492
 5937SOL    HW229445   3.223   2.608   2.806 -0.0870  1.2965  1.5697
 5938SOL     OW29446   1.392   3.328  17.193 -0.2150  0.3199  0.2209
 5938SOL    HW129447   1.482   3.307  17.167 -0.4554  1.8861 -1.9007
 5938SOL    HW229448   1.413   3.418  17.215 -2.0001  0.7414  0.2262
 5939SOL     OW29449   3.597   2.596   2.398 -0.1760  0.1098  0.0376
 5939SOL    HW129450   3.511   2.559   2.419  0.0499 -0.4852 -0.0693
 5939SOL    HW229451   3.618   2.656   2.469 -0.2748 -1.3688  1.3163
 5940SOL     OW29452   2.170   2.808  10.818  0.1175  0.3923 -0.0720
 5940SOL    HW129453   2.254   2.852  10.808  0.5137 -0.3908 -0.1737
 5940SOL    HW229454   2.195   2.740  10.880 -0.9698 -0.7213 -0.8512
 5941SOL     OW29455   2.767   2.002   5.560 -0.2313 -0.4385 -0.7949
 5941SOL    HW129456   2.762   2.085   5.512  1.6063  0.4013  0.4755
 5941SOL    HW229457   2.723   1.945   5.497 -2.7802  0.2498  0.3695
 5942SOL     OW29458   2.781   0.396  16.160  0.0564 -0.1898 -0.2755
 5942SOL    HW129459   2.829   0.371  16.081 -1.4421  2.2318 -1.9558
 5942SOL    HW229460   2.754   0.313  16.199 -1.0922  0.4005  0.1605
 5943SOL     OW29461   2.626   1.966   8.783 -0.2214 -0.1704  0.1247
 5943SOL    HW129462   2.629   1.889   8.839 -0.7514 -1.0227 -1.0197
 5943SOL    HW229463   2.661   1.926   8.704 -0.0862 -2.1679  1.2212
 5944SOL     OW29464   4.055   0.282  11.149  0.5414 -0.7115  0.4924
 5944SOL    HW129465   4.136   0.232  11.155  1.4478  0.4063 -2.2180
 5944SOL    HW229466   3.994   0.237  11.207 -1.1026  0.2587 -0.4584
 5945SOL     OW29467   3.505   4.250  17.063 -0.2772 -0.2104  0.0141
 5945SOL    HW129468   3.525   4.343  17.056  1.6389 -0.4891  1.9178
 5945SOL    HW229469   3.592   4.218  17.087 -0.6167 -0.8904  0.3407
 5946SOL     OW29470   1.105   2.534   9.028  0.1197 -0.1025 -0.3099
 5946SOL    HW129471   1.071   2.446   9.013 -0.6583  0.3301 -1.0601
 5946SOL    HW229472   1.032   2.593   9.008  1.1006  1.1528 -0.1725
 5947SOL     OW29473   2.603   2.468  13.017 -0.0914  0.1460 -0.3875
 5947SOL    HW129474   2.678   2.426  12.974 -0.0467  0.3996 -0.5561
 5947SOL    HW229475   2.608   2.447  13.111 -0.3042 -1.2913 -0.6966
 5948SOL     OW29476   3.862   2.722   4.831 -0.0573  0.4137  0.0369
 5948SOL    HW129477   3.880   2.678   4.748  0.6778 -0.3222  0.5823
 5948SOL    HW229478   3.893   2.811   4.814 -1.5997  1.4750  2.8183
 5949SOL     OW29479   3.046   0.413   5.520 -0.0024  0.2612  0.0552
 5949SOL    HW129480   3.069   0.492   5.568 -1.6631  0.7731 -0.0113
 5949SOL    HW229481   3.073   0.341   5.578  0.3904  0.5461  0.2281
 5950SOL     OW29482   1.215   3.831   6.747  0.0402  0.4340  0.6977
 5950SOL    HW129483   1.209   3.748   6.702 -1.4196 -0.4327  2.5007
 5950SOL    HW229484   1.127   3.858   6.723 -0.2416 -0.0742  1.1744
 5951SOL     OW29485   1.397   1.165   7.608  0.0094 -0.3489  0.5578
 5951SOL    HW129486   1.356   1.210   7.534  0.0204 -2.1278 -0.5281
 5951SOL    HW229487   1.473   1.123   7.568  1.0026 -0.9815  3.1606
 5952SOL     OW29488   0.095   4.041   2.196  0.4311 -0.1604 -0.3454
 5952SOL    HW129489   0.134   4.120   2.158  1.3740 -0.5616 -0.2220
 5952SOL    HW229490   0.165   3.976   2.185 -0.4968 -0.8694 -2.0073
 5953SOL     OW29491   4.547   0.410  17.380  0.5437 -0.1996 -0.2276
 5953SOL    HW129492   4.505   0.327  17.401  1.8938 -0.8706 -0.1827
 5953SOL    HW229493   4.640   0.398  17.400  0.7600  3.2093  0.9386
 5954SOL     OW29494   2.936   4.596   2.007  0.6804 -0.2930  0.0575
 5954SOL    HW129495   3.013   4.545   2.031  2.0819  0.6090 -2.5661
 5954SOL    HW229496   2.965   4.652   1.934  0.0573 -2.2227 -1.6838
 5955SOL     OW29497   0.989   2.838   3.998  0.2020 -0.0658 -0.5014
 5955SOL    HW129498   1.081   2.863   3.991  0.1178  0.1159 -0.9798
 5955SOL    HW229499   0.981   2.771   3.929  0.3730 -0.7331  0.1262
 5956SOL     OW29500   0.741   4.154   7.080  0.1568  0.3253 -0.9364
 5956SOL    HW129501   0.796   4.233   7.084 -2.4502  2.0802  0.2935
 5956SOL    HW229502   0.657   4.194   7.057 -0.1515  0.2814  0.0958
 5957SOL     OW29503   0.651   1.009   6.716  0.0137  0.1417  0.3959
 5957SOL    HW129504   0.708   0.965   6.779  0.3613 -0.0482 -0.0483
 5957SOL    HW229505   0.624   0.934   6.663  0.6751  0.6619 -0.7043
 5958SOL     OW29506   4.677   1.033  10.840  0.3500 -0.2096  0.1370
 5958SOL    HW129507   4.666   1.083  10.759 -2.5307  0.5134  0.9608
 5958SOL    HW229508   4.683   1.102  10.906 -1.3621  0.3180 -0.2611
 5959SOL     OW29509   3.842   1.631   1.416  0.0215  0.2705  0.0327
 5959SOL    HW129510   3.898   1.628   1.339 -2.4351  0.7432 -1.7540
 5959SOL    HW229511   3.783   1.560   1.391  1.6923 -1.0675 -0.1430
 5960SOL     OW29512   4.249   1.656   6.052 -0.2322  0.5989 -0.0276
 5960SOL    HW129513   4.189   1.599   6.004  0.2772  0.2720 -0.2700
 5960SOL    HW229514   4.262   1.724   5.986  1.3099 -0.4453 -0.7944
 5961SOL     OW29515   4.479   1.275   6.541 -0.6647 -0.1040 -0.2648
 5961SOL    HW129516   4.476   1.193   6.590 -0.2927  0.3343  0.4888
 5961SOL    HW229517   4.561   1.315   6.570 -1.4514  1.0173  0.4278
 5962SOL     OW29518   0.122   1.320   0.933  0.2327 -0.2069  0.7252
 5962SOL    HW129519   0.084   1.240   0.896  1.2740 -1.5830  2.6732
 5962SOL    HW229520   0.187   1.341   0.866 -0.5575 -0.3757 -0.1041
 5963SOL     OW29521   4.389   3.301   9.162 -0.8290 -0.0606  0.6221
 5963SOL    HW129522   4.457   3.314   9.228 -0.6879  0.1178  0.4435
 5963SOL    HW229523   4.317   3.361   9.184 -2.1865 -1.7748  0.8229
 5964SOL     OW29524   3.882   4.150   8.131 -0.3766 -0.3510 -0.4997
 5964SOL    HW129525   3.788   4.162   8.128 -0.1401  1.6810  0.1046
 5964SOL    HW229526   3.895   4.125   8.223 -1.4661  1.6434  0.1857
 5965SOL     OW29527   1.594   3.488   9.554  0.2121 -0.0351  0.0098
 5965SOL    HW129528   1.673   3.434   9.555  1.1865  1.3559 -1.0822
 5965SOL    HW229529   1.559   3.466   9.468 -1.8674  1.2423  0.5244
 5966SOL     OW29530   4.639   2.820  12.364 -0.2349 -0.0928 -0.3692
 5966SOL    HW129531   4.601   2.766  12.434 -0.0003  0.4623  0.1837
 5966SOL    HW229532   4.579   2.792  12.295 -1.2287  0.8971  0.0849
 5967SOL     OW29533   2.720   3.872   6.848  0.5857 -0.2969  0.5093
 5967SOL    HW129534   2.766   3.794   6.817 -0.9877 -1.4093  0.9514
 5967SOL    HW229535   2.655   3.830   6.905  1.5397 -0.7186  1.2717
 5968SOL     OW29536   2.571   0.384   8.522  0.1841  0.5034 -0.0712
 5968SOL    HW129537   2.544   0.294   8.536 -2.5182  0.9823 -2.3312
 5968SOL    HW229538   2.522   0.430   8.590 -1.0894 -1.2316  0.1885
 5969SOL     OW29539   3.682   3.473   3.078  0.2455 -0.5323  0.8858
 5969SOL    HW129540   3.733   3.476   3.159 -0.8021 -1.9108  1.6032
 5969SOL    HW229541   3.600   3.498   3.121  0.4753 -0.2013  1.1308
 5970SOL     OW29542   4.629   0.862   4.682 -0.0390  0.1555 -0.1289
 5970SOL    HW129543   4.583   0.938   4.718  0.7334  0.2437  0.6809
 5970SOL    HW229544   4.706   0.859   4.740 -0.3885  1.7926  0.4107
 5971SOL     OW29545   0.278   1.863  14.674 -0.1276 -0.2637  0.7157
 5971SOL    HW129546   0.203   1.803  14.675  1.1442 -1.8565 -2.0134
 5971SOL    HW229547   0.355   1.807  14.681  0.2624  0.0547 -1.2598
 5972SOL     OW29548   3.120   3.557  15.923  0.1111  0.5019  0.1307
 5972SOL    HW129549   3.108   3.650  15.941 -0.5318  0.2323  1.0574
 5972SOL    HW229550   3.138   3.519  16.009 -0.3410  0.1275  0.0559
 5973SOL     OW29551   1.004   3.225   6.908  0.2020  0.0282 -0.2766
 5973SOL    HW129552   1.033   3.316   6.904 -0.8736  0.3150 -1.4513
 5973SOL    HW229553   0.983   3.214   6.815 -1.4821 -0.0306  0.1222
 5974SOL     OW29554   3.713   2.143   2.024  0.4537  0.5130  0.0525
 5974SOL    HW129555   3.697   2.145   1.929 -0.1588 -0.5718  0.1319
 5974SOL    HW229556   3.707   2.237   2.043  3.6246  0.9146 -0.9252
 5975SOL     OW29557   1.530   2.393  17.619  0.0137  0.2826 -0.1310
 5975SOL    HW129558   1.498   2.303  17.612 -0.1712  0.2511  1.1417
 5975SOL    HW229559   1.550   2.427  17.532  1.7359 -1.2293 -0.3374
 5976SOL     OW29560   1.313   2.548   7.100 -0.0433  0.0072 -0.2399
 5976SOL    HW129561   1.346   2.561   7.011  1.2918 -0.1125  0.2403
 5976SOL    HW229562   1.330   2.639   7.124  2.9537 -0.6242  0.0356
 5977SOL     OW29563   4.500   4.503   3.048 -0.3802  0.0238 -0.1686
 5977SOL    HW129564   4.516   4.451   3.126 -1.7513  2.4347  1.6913
 5977SOL    HW229565   4.460   4.584   3.080  2.3204  0.1564  2.8234
 5978SOL     OW29566   0.051   0.775   2.462  0.1438  0.1379 -0.8446
 5978SOL    HW129567   0.146   0.787   2.472  0.3459 -2.6350  0.7620
 5978SOL    HW229568   0.049   0.682   2.485 -0.7602  0.4237  0.2458
 5979SOL     OW29569   4.041   2.477   5.119 -0.6036 -0.2158 -0.0719
 5979SOL    HW129570   3.957   2.523   5.115 -0.7702 -0.5050  0.0747
 5979SOL    HW229571   4.096   2.545   5.158 -2.2041  1.6939 -1.1461
 5980SOL     OW29572   3.208   1.276   2.459  0.1368  0.6853  0.3446
 5980SOL    HW129573   3.224   1.360   2.503 -2.5386  0.3277  2.0281
 5980SOL    HW229574   3.196   1.310   2.370  1.9122  1.3287  0.3550
 5981SOL     OW29575   2.047   0.209   8.017 -0.3683 -0.4684  0.0046
 5981SOL    HW129576   2.140   0.224   8.036 -0.5197 -0.8845  1.0433
 5981SOL    HW229577   2.046   0.267   7.941  1.8576  2.4779  2.1953
 5982SOL     OW29578   2.618   0.462   2.430  0.7978  0.4559 -0.6788
 5982SOL    HW129579   2.634   0.500   2.516  1.6933 -0.5265 -0.4115
 5982SOL    HW229580   2.679   0.389   2.420  0.7624 -0.0259  2.7801
 5983SOL     OW29581   1.336   2.543   5.681  0.4002 -0.2552 -0.1008
 5983SOL    HW129582   1.416   2.508   5.643 -0.3627 -1.1515 -0.8814
 5983SOL    HW229583   1.361   2.628   5.718 -1.0199  0.1247 -0.0133
 5984SOL     OW29584   0.686   1.786  15.909 -0.1201  0.1560 -0.6846
 5984SOL    HW129585   0.668   1.737  15.829 -1.1442  1.0996 -1.0346
 5984SOL    HW229586   0.654   1.870  15.875 -0.5724  0.1829 -0.2142
 5985SOL     OW29587   3.014   3.169  16.914 -0.5727 -0.4167  0.1928
 5985SOL    HW129588   3.089   3.228  16.904 -0.1969 -0.9565 -0.1827
 5985SOL    HW229589   3.058   3.096  16.957  0.2017 -1.0105 -1.6168
 5986SOL     OW29590   0.260   2.430   4.176 -0.4576 -0.5974  0.4632
 5986SOL    HW129591   0.299   2.517   4.167 -3.3237  0.7282  0.9711
 5986SOL    HW229592   0.338   2.377   4.155 -0.2522 -0.3798  0.6796
 5987SOL     OW29593   3.971   3.165  15.733  0.0390 -0.2551  0.8026
 5987SOL    HW129594   4.036   3.197  15.671 -1.4848 -0.3709 -0.8861
 5987SOL    HW229595   3.973   3.072  15.708 -2.4114 -0.0449 -0.2577
 5988SOL     OW29596   1.724   2.934   2.437 -0.4477 -0.4388  0.3239
 5988SOL    HW129597   1.677   3.017   2.443  1.5892  0.8080 -0.9800
 5988SOL    HW229598   1.654   2.873   2.410 -1.7925  0.6281  1.4197
 5989SOL     OW29599   3.365   1.815  16.108  0.3933  0.2820  0.4234
 5989SOL    HW129600   3.377   1.910  16.101  1.7316 -0.0148 -1.3041
 5989SOL    HW229601   3.457   1.788  16.112  0.2351 -0.0633  1.7877
 5990SOL     OW29602   4.472   3.162  17.528 -0.4558  0.3876  0.5609
 5990SOL    HW129603   4.431   3.077  17.543  0.9865 -0.3266  0.5312
 5990SOL    HW229604   4.402   3.208  17.483  0.9889  0.4891 -1.5837
 5991SOL     OW29605   3.501   2.855   9.060  0.3706  0.1188  0.1108
 5991SOL    HW129606   3.507   2.775   9.007  0.6848  0.6410 -0.6494
 5991SOL    HW229607   3.419   2.893   9.028  0.3119  0.6457  0.8863
 5992SOL     OW29608   3.604   2.269   4.906 -0.6227 -0.2550  0.7229
 5992SOL    HW129609   3.552   2.242   4.831 -0.1355 -1.2472  0.7410
 5992SOL    HW229610   3.661   2.331   4.861  0.9677 -1.3362  1.2353
 5993SOL     OW29611   0.027   0.227   6.980  0.2274 -0.1606  0.0441
 5993SOL    HW129612   0.044   0.254   7.070  0.3257 -0.8095  0.2193
 5993SOL    HW229613   0.110   0.265   6.951  1.2310 -2.6719 -0.3808
 5994SOL     OW29614   1.246   2.381   5.874  0.0347  0.6184 -0.6094
 5994SOL    HW129615   1.255   2.426   5.790 -1.4712  0.8522 -0.6529
 5994SOL    HW229616   1.158   2.412   5.895 -0.6637 -1.6386 -0.1902
 5995SOL     OW29617   1.300   3.113  12.510  0.4532  0.1608 -0.1665
 5995SOL    HW129618   1.326   3.171  12.582 -2.6620 -1.0693  1.9526
 5995SOL    HW229619   1.327   3.176  12.443  0.7693  2.2259  1.8637
 5996SOL     OW29620   1.285   4.556   4.513 -0.4953  0.3030  0.1980
 5996SOL    HW129621   1.275   4.597   4.599  2.0779 -1.3992  1.3072
 5996SOL    HW229622   1.233   4.476   4.526 -1.0082  0.4231 -1.1144
 5997SOL     OW29623   1.523   1.393   8.818  0.5262 -0.0857  1.0979
 5997SOL    HW129624   1.449   1.433   8.863  0.2629  0.5166  0.1238
 5997SOL    HW229625   1.487   1.386   8.729  1.9553 -2.0136  0.6729
 5998SOL     OW29626   3.448   1.257  11.922 -0.3382  0.0856  0.1027
 5998SOL    HW129627   3.527   1.205  11.939 -2.1344 -2.1129  1.6867
 5998SOL    HW229628   3.388   1.217  11.985 -2.3600  2.9251 -0.0687
 5999SOL     OW29629   0.369   3.818  14.637 -0.5197  0.3220  0.1189
 5999SOL    HW129630   0.418   3.809  14.719  0.4642  0.8805 -0.4027
 5999SOL    HW229631   0.279   3.829  14.665  0.1024 -0.3913  2.3819
 6000SOL     OW29632   2.013   3.477   3.363  0.2964 -0.0062 -0.3875
 6000SOL    HW129633   2.074   3.549   3.377 -1.2074  1.2988 -0.4947
 6000SOL    HW229634   1.949   3.481   3.435  0.1530 -0.0893 -0.5103
 6001SOL     OW29635   1.325   0.264   5.168  0.5936 -0.4513  0.4753
 6001SOL    HW129636   1.392   0.230   5.108  1.0192  1.2155 -0.0155
 6001SOL    HW229637   1.379   0.309   5.233  2.5842 -1.2612 -0.6113
 6002SOL     OW29638   1.434   3.951  10.837  0.2117  0.1272 -0.1121
 6002SOL    HW129639   1.454   3.864  10.870  0.3129 -0.4382 -1.6728
 6002SOL    HW229640   1.346   3.964  10.873  0.6928 -0.2412  1.1926
 6003SOL     OW29641   1.564   0.310   2.119  0.4438  0.3663  0.1539
 6003SOL    HW129642   1.656   0.293   2.101  0.1565 -1.4938  0.4293
 6003SOL    HW229643   1.560   0.305   2.214  2.0247 -2.8747  0.0609
 6004SOL     OW29644   1.586   4.531  15.427 -0.2214 -0.0839  0.7124
 6004SOL    HW129645   1.501   4.495  15.403  0.1670 -0.4410 -0.1270
 6004SOL    HW229646   1.563   4.624  15.424 -1.9905 -0.5752 -0.4976
 6005SOL     OW29647   4.594   2.036   3.751  0.1677 -0.0768  0.6767
 6005SOL    HW129648   4.627   2.044   3.661  0.0786  1.0263  0.7382
 6005SOL    HW229649   4.501   2.038   3.728  0.7108 -0.5295 -1.6022
 6006SOL     OW29650   0.198   0.912   5.724 -0.1754  0.2107 -0.1354
 6006SOL    HW129651   0.150   0.873   5.650  0.2464 -0.7705  0.1057
 6006SOL    HW229652   0.243   0.983   5.679  1.3932 -1.3976 -1.1370
 6007SOL     OW29653   0.090   2.038   4.351  0.2960 -0.0573  0.1159
 6007SOL    HW129654   0.068   2.103   4.418 -0.2451 -0.8206  0.6720
 6007SOL    HW229655   0.080   2.090   4.271  0.6473  1.8817  1.3337
 6008SOL     OW29656   4.463   3.800   4.340 -0.0491  0.0102  0.3007
 6008SOL    HW129657   4.462   3.802   4.244  0.8485 -1.9317  0.2399
 6008SOL    HW229658   4.550   3.763   4.359  0.7152  1.2403 -0.7497
 6009SOL     OW29659   1.468   1.679   3.785  0.1117 -0.2552 -0.5377
 6009SOL    HW129660   1.559   1.704   3.767 -0.2976  0.9333 -0.9409
 6009SOL    HW229661   1.425   1.761   3.810 -0.0590 -0.2358 -0.8911
 6010SOL     OW29662   1.619   2.155   6.575  0.6558  0.1893  0.4511
 6010SOL    HW129663   1.554   2.124   6.512 -0.3408  1.7814  0.6949
 6010SOL    HW229664   1.562   2.144   6.652  0.9055  0.0299  0.6160
 6011SOL     OW29665   3.686   0.036  11.544  0.1833  0.2517  0.3704
 6011SOL    HW129666   3.673   0.014  11.637  1.1637  0.6061  0.5954
 6011SOL    HW229667   3.602   0.078  11.525  0.5713 -0.0904 -2.0768
 6012SOL     OW29668   1.155   4.485   9.734  0.5450  0.3135  0.0075
 6012SOL    HW129669   1.127   4.562   9.685 -0.6892 -0.6289 -0.7719
 6012SOL    HW229670   1.235   4.518   9.776  0.6569 -0.2779  0.2653
 6013SOL     OW29671   2.906   0.182  14.036  0.3390 -0.2810  0.3479
 6013SOL    HW129672   2.831   0.230  14.071  2.5654  2.5814  1.3365
 6013SOL    HW229673   2.965   0.255  14.015 -0.4916 -0.2834 -1.9589
 6014SOL     OW29674   3.914   1.797   3.302 -0.6460  0.8481 -0.5713
 6014SOL    HW129675   3.879   1.807   3.391 -2.7487  2.0878 -1.5482
 6014SOL    HW229676   3.836   1.770   3.254 -1.4386  1.6997  0.2266
 6015SOL     OW29677   3.109   3.960  13.424  0.1990 -0.0170 -0.2804
 6015SOL    HW129678   3.071   3.877  13.393 -0.7414  0.0280  0.7763
 6015SOL    HW229679   3.200   3.950  13.394  0.6859 -2.0317  1.8755
 6016SOL     OW29680   1.076   1.783  17.060  0.4321  1.0520  0.0683
 6016SOL    HW129681   1.002   1.788  16.998  0.9635  0.1371 -0.6462
 6016SOL    HW229682   1.038   1.812  17.143 -2.3785 -1.1384 -0.4406
 6017SOL     OW29683   1.180   4.305   8.910  0.0956  0.0645  0.0402
 6017SOL    HW129684   1.144   4.295   8.998  0.5777 -0.1753  0.2110
 6017SOL    HW229685   1.242   4.377   8.925 -1.5149  1.5125 -0.3273
 6018SOL     OW29686   4.588   1.323   8.239 -0.3683  0.1620 -0.1666
 6018SOL    HW129687   4.567   1.330   8.332  0.6430  0.4402  0.0461
 6018SOL    HW229688   4.557   1.233   8.234 -2.3012  0.8482 -0.5803
 6019SOL     OW29689   4.711   2.215   6.434 -0.2124 -0.1889 -0.0100
 6019SOL    HW129690   4.666   2.249   6.357 -1.3359  0.3592  0.8939
 6019SOL    HW229691   4.714   2.123   6.406  0.1871 -0.1959  0.0506
 6020SOL     OW29692   2.166   4.079   7.073  0.0349  0.1668 -0.6014
 6020SOL    HW129693   2.171   3.984   7.071 -0.4888  0.1371 -0.4823
 6020SOL    HW229694   2.242   4.095   7.129 -0.1473 -2.4940  0.3867
 6021SOL     OW29695   1.337   2.786   3.402  0.1975  0.3983 -0.0153
 6021SOL    HW129696   1.316   2.699   3.433  3.7827 -0.4218  0.0187
 6021SOL    HW229697   1.256   2.796   3.351 -1.1681  2.2189  2.4745
 6022SOL     OW29698   2.676   4.435   3.689  0.6951 -0.0362 -0.0949
 6022SOL    HW129699   2.611   4.484   3.641  0.7555 -0.5604 -0.7092
 6022SOL    HW229700   2.684   4.357   3.634  0.0782 -0.5403  0.5218
 6023SOL     OW29701   1.095   3.408   8.675 -0.4992 -0.2635  0.2097
 6023SOL    HW129702   1.182   3.428   8.711 -0.2442  1.4088 -1.3602
 6023SOL    HW229703   1.104   3.314   8.659  0.1566  0.0400 -1.1935
 6024SOL     OW29704   4.736   3.779   9.051  0.0784 -0.2098 -0.3311
 6024SOL    HW129705   4.720   3.719   8.979  1.0059 -1.3402  0.4126
 6024SOL    HW229706   0.091   3.778   9.044  0.0193  1.7831 -1.4180
 6025SOL     OW29707   1.171   4.662   5.913 -0.4072 -0.0092  0.2171
 6025SOL    HW129708   1.266   4.651   5.919 -0.4821 -0.9973 -0.3054
 6025SOL    HW229709   1.157   0.013   5.889  0.0893  0.3738  1.3871
 6026SOL     OW29710   1.036   1.786   6.234 -0.1495  0.2112 -0.1668
 6026SOL    HW129711   1.056   1.693   6.242  2.4070  0.6371 -1.4941
 6026SOL    HW229712   0.949   1.776   6.194 -0.8402 -1.1396  1.6811
 6027SOL     OW29713   0.604   0.743   6.542 -0.1123 -0.2157  0.5703
 6027SOL    HW129714   0.626   0.653   6.569 -0.6020 -0.7233 -0.7292
 6027SOL    HW229715   0.692   0.775   6.523 -0.0350 -0.3382  0.7199
 6028SOL     OW29716   2.053   2.518  15.740  0.6028 -0.3638  0.5849
 6028SOL    HW129717   2.117   2.450  15.720  0.0628 -1.3289  2.1893
 6028SOL    HW229718   1.981   2.471  15.698 -0.5872  1.2844  0.7838
 6029SOL     OW29719   0.574   4.256   5.837  0.3248  0.0828 -0.2573
 6029SOL    HW129720   0.523   4.242   5.756 -0.7255 -1.3113  0.6400
 6029SOL    HW229721   0.507   4.247   5.904  0.6006 -0.4072 -0.0518
 6030SOL     OW29722   3.811   0.120  13.275  0.0806 -0.4246 -0.5743
 6030SOL    HW129723   3.793   0.156  13.362 -0.2763 -0.3823 -0.6661
 6030SOL    HW229724   3.877   0.055  13.298  2.0331  1.4758 -0.7962
 6031SOL     OW29725   2.227   1.357   6.940 -0.9694  0.2956  0.4895
 6031SOL    HW129726   2.215   1.262   6.938 -2.7350  0.5127  0.9024
 6031SOL    HW229727   2.234   1.370   7.035 -1.0312  0.9682  0.4037
 6032SOL     OW29728   2.926   0.066   8.946 -0.1301  0.2056 -0.0962
 6032SOL    HW129729   2.926   4.711   8.931  2.4908  0.2063 -0.0506
 6032SOL    HW229730   2.969   0.083   9.029 -0.9828 -2.8542  0.9765
 6033SOL     OW29731   3.461   3.169   2.721 -0.0309 -0.0484 -0.6721
 6033SOL    HW129732   3.491   3.200   2.806  0.9200  1.8775 -1.7298
 6033SOL    HW229733   3.434   3.248   2.674 -1.9038 -1.6088 -2.2508
 6034SOL     OW29734   2.582   2.656   5.493 -0.0983 -0.1219 -0.0739
 6034SOL    HW129735   2.516   2.613   5.438 -0.1586  0.3442 -0.3664
 6034SOL    HW229736   2.655   2.644   5.432 -0.3519  0.1117 -0.4235
 6035SOL     OW29737   1.342   0.357   9.811  0.6140 -0.1801 -0.4126
 6035SOL    HW129738   1.395   0.324   9.739  0.6550  2.2529 -1.5054
 6035SOL    HW229739   1.299   0.438   9.785 -1.0079 -0.9664 -0.1900
 6036SOL     OW29740   2.237   1.568   1.711 -0.0099  0.7019  0.2247
 6036SOL    HW129741   2.166   1.627   1.735 -0.5038  0.6831 -1.1718
 6036SOL    HW229742   2.196   1.484   1.732 -0.5036  1.0919  0.8087
 6037SOL     OW29743   1.582   4.521   3.109 -0.3135 -0.2506  0.1878
 6037SOL    HW129744   1.506   4.470   3.136 -0.2310 -0.3796  0.1780
 6037SOL    HW229745   1.634   4.452   3.066 -0.4279  0.6037 -1.3275
 6038SOL     OW29746   4.367   4.256  13.548  0.0023  0.1613  0.1820
 6038SOL    HW129747   4.463   4.260  13.557  0.1675  0.0093 -1.4622
 6038SOL    HW229748   4.354   4.294  13.634 -0.3467  0.3244  0.0549
 6039SOL     OW29749   2.966   3.021  11.274 -0.0032  0.2067 -0.2889
 6039SOL    HW129750   2.913   3.082  11.221 -0.8952 -0.2096  0.1259
 6039SOL    HW229751   2.946   3.059  11.359 -1.0601 -0.8685 -0.0574
 6040SOL     OW29752   1.819   3.818   5.434 -0.5876 -0.2327  1.0899
 6040SOL    HW129753   1.852   3.831   5.345  0.3892  2.8032  1.8983
 6040SOL    HW229754   1.833   3.904   5.474 -0.0885  0.2996 -0.2382
 6041SOL     OW29755   2.859   0.885   4.903 -0.4792 -0.0624 -0.0713
 6041SOL    HW129756   2.868   0.970   4.947 -1.6676  0.7924 -1.4905
 6041SOL    HW229757   2.772   0.896   4.864 -1.7962 -1.4614  2.4939
 6042SOL     OW29758   2.925   1.857  12.793  0.1539  0.0352 -0.1559
 6042SOL    HW129759   2.917   1.952  12.792 -0.1402  0.0059 -0.4060
 6042SOL    HW229760   2.934   1.840  12.700  0.9779 -1.2031  0.1546
 6043SOL     OW29761   1.708   1.393   9.009 -0.3933 -0.3177  0.3886
 6043SOL    HW129762   1.712   1.475   9.058 -1.4461 -0.3412  0.5083
 6043SOL    HW229763   1.636   1.404   8.947  1.5086 -0.8627 -1.9165
 6044SOL     OW29764   4.150   3.206   2.131  0.2054  0.3182 -0.4715
 6044SOL    HW129765   4.083   3.138   2.138 -0.5831  1.0772 -0.6863
 6044SOL    HW229766   4.209   3.172   2.198 -0.7828 -0.7036 -0.1180
 6045SOL     OW29767   0.694   1.194  17.671 -0.3489  0.0591  0.1907
 6045SOL    HW129768   0.605   1.157  17.668 -0.2313 -0.1153 -1.1293
 6045SOL    HW229769   0.753   1.126  17.638  1.1768  0.9454  1.1153
 6046SOL     OW29770   4.396   1.312  17.213  0.0302  0.3399  0.7334
 6046SOL    HW129771   4.308   1.348  17.205 -0.1104  0.5674  3.4605
 6046SOL    HW229772   4.446   1.392  17.230 -0.0551 -0.0131  2.6714
 6047SOL     OW29773   1.345   1.329   4.473  0.3159  0.3382 -0.1038
 6047SOL    HW129774   1.262   1.356   4.511  0.4864 -0.6867  0.9943
 6047SOL    HW229775   1.404   1.399   4.503  2.3059 -1.3729 -0.0361
 6048SOL     OW29776   2.759   3.623   8.347  0.0566 -0.1247  0.5128
 6048SOL    HW129777   2.746   3.549   8.407  0.3770 -1.5105 -1.1476
 6048SOL    HW229778   2.730   3.591   8.262 -2.3934  0.3834  1.1324
 6049SOL     OW29779   1.636   3.138  14.839  0.3355 -0.0676 -0.2519
 6049SOL    HW129780   1.675   3.051  14.836  0.0879 -0.1366 -1.6320
 6049SOL    HW229781   1.710   3.188  14.874  0.2426  1.6149 -2.4139
 6050SOL     OW29782   2.034   2.056   2.078  0.0808  0.0906  0.1530
 6050SOL    HW129783   2.129   2.069   2.077  0.0155  0.5240 -0.2338
 6050SOL    HW229784   2.029   1.966   2.111  1.3894 -0.2702 -0.6242
 6051SOL     OW29785   2.262   0.194   8.336  0.1245  0.0731  0.2147
 6051SOL    HW129786   2.215   0.217   8.416  0.8369  1.1767  0.3223
 6051SOL    HW229787   2.340   0.154   8.374  0.2127  0.6783  0.6678
 6052SOL     OW29788   4.632   2.806  11.804 -0.3575  0.5213 -0.2410
 6052SOL    HW129789   4.556   2.853  11.838 -1.9334 -0.4374 -2.4955
 6052SOL    HW229790   4.682   2.812  11.886 -3.7772  3.5736  1.6361
 6053SOL     OW29791   2.365   3.247   3.312 -0.6254 -0.0162  0.5580
 6053SOL    HW129792   2.270   3.233   3.306 -0.2185 -2.3355 -0.4618
 6053SOL    HW229793   2.392   3.285   3.229 -1.1169  0.5755  0.6670
 6054SOL     OW29794   1.611   2.178   3.873 -0.2494  0.1022  0.0244
 6054SOL    HW129795   1.691   2.149   3.917 -0.2359 -1.7863 -1.2696
 6054SOL    HW229796   1.639   2.208   3.787  0.0089 -1.0101 -0.2771
 6055SOL     OW29797   0.640   0.636   4.628  0.4180 -0.0714  0.4595
 6055SOL    HW129798   0.686   0.709   4.587  0.7465  0.4134  1.7046
 6055SOL    HW229799   0.701   0.614   4.698  0.6172  0.8973  0.5810
 6056SOL     OW29800   1.295   4.680   7.751 -0.2109  0.1279 -0.4804
 6056SOL    HW129801   1.347   4.676   7.831  1.4900  1.1949 -1.5159
 6056SOL    HW229802   1.295   4.586   7.733  0.8862  0.3836 -1.8611
 6057SOL     OW29803   4.237   2.482   0.456 -0.3505 -0.6423  0.0609
 6057SOL    HW129804   4.322   2.517   0.481 -0.7107 -0.4591  1.0220
 6057SOL    HW229805   4.171   2.534   0.502 -1.1754  1.1869 -3.2374
 6058SOL     OW29806   2.150   1.382   4.420  0.2579 -0.7894 -0.2149
 6058SOL    HW129807   2.118   1.304   4.375  0.6107 -0.9017 -0.2642
 6058SOL    HW229808   2.069   1.396   4.469 -0.6115 -0.1858 -1.7901
 6059SOL     OW29809   1.570   3.952   5.673  0.2315  0.2869  0.2028
 6059SOL    HW129810   1.501   3.937   5.609 -0.8631 -0.1127  1.4685
 6059SOL    HW229811   1.520   4.002   5.737 -0.2558 -1.0871  0.8971
 6060SOL     OW29812   1.110   0.492   5.446  0.2927  0.2368 -0.1514
 6060SOL    HW129813   1.113   0.532   5.532  1.0383 -1.9369  0.8468
 6060SOL    HW229814   1.169   0.543   5.391  3.8513 -2.0538  1.5409
 6061SOL     OW29815   1.699   3.603   4.716 -0.3671  0.0221 -0.2947
 6061SOL    HW129816   1.761   3.560   4.656  0.2127 -2.0711  1.7947
 6061SOL    HW229817   1.614   3.594   4.674 -0.4983  1.0608 -0.2518
 6062SOL     OW29818   2.542   1.544   3.595 -0.1050 -0.0522 -0.0917
 6062SOL    HW129819   2.463   1.598   3.589  0.6793  1.3542  2.2889
 6062SOL    HW229820   2.547   1.545   3.691  2.0912 -2.2274 -0.1803
 6063SOL     OW29821   4.320   2.593   6.973 -0.1707  0.0354  0.0780
 6063SOL    HW129822   4.285   2.639   6.897 -0.3696  0.7652  0.6180
 6063SOL    HW229823   4.413   2.573   6.957 -0.7235 -1.3447 -1.4674
 6064SOL     OW29824   1.905   0.423   4.090  0.2100 -0.0251 -0.3516
 6064SOL    HW129825   1.892   0.487   4.160 -0.3042  0.6087 -1.0299
 6064SOL    HW229826   1.825   0.431   4.039 -0.0797  1.4491  0.3138
 6065SOL     OW29827   0.145   2.868   3.986 -0.5403  0.2220 -0.2161
 6065SOL    HW129828   0.102   2.835   4.065 -0.5716  0.6033 -0.0760
 6065SOL    HW229829   0.232   2.832   4.003 -0.3880 -0.2177 -1.8840
 6066SOL     OW29830   0.670   0.452   3.079  0.7271  0.0874  0.1768
 6066SOL    HW129831   0.656   0.501   3.160  2.7708  1.1345 -0.1039
 6066SOL    HW229832   0.582   0.451   3.042  0.4973 -0.0651  0.7259
 6067SOL     OW29833   0.077   4.207  16.083 -0.3029 -0.1530 -0.1817
 6067SOL    HW129834   0.102   4.289  16.125 -0.9314 -0.6466  1.1701
 6067SOL    HW229835   0.032   4.166  16.157 -0.3713  0.3241  0.0398
 6068SOL     OW29836   4.141   2.865   6.534  0.5306 -0.3861  0.5375
 6068SOL    HW129837   4.204   2.936   6.534  2.5509 -2.1592 -2.9949
 6068SOL    HW229838   4.135   2.841   6.627  0.5133 -0.2500  0.5713
 6069SOL     OW29839   1.454   0.965  16.202  0.4621  0.0148  0.3978
 6069SOL    HW129840   1.456   1.058  16.222 -0.2291  0.4939 -1.8325
 6069SOL    HW229841   1.462   0.961  16.107 -0.8145 -1.5370  0.3482
 6070SOL     OW29842   0.480   0.667   5.002  1.0000 -0.1284 -0.2504
 6070SOL    HW129843   0.527   0.601   5.052 -0.7923 -1.7629 -0.7133
 6070SOL    HW229844   0.492   0.746   5.054 -1.5919 -1.4429  2.3396
 6071SOL     OW29845   3.843   2.830   1.705  0.3211  0.2385 -0.0594
 6071SOL    HW129846   3.916   2.852   1.647  1.0468 -3.4604 -0.5480
 6071SOL    HW229847   3.858   2.895   1.774 -1.0111  0.1806  0.2851
 6072SOL     OW29848   0.675   3.189   2.647  1.0527 -0.0301 -0.2160
 6072SOL    HW129849   0.583   3.176   2.623  0.5067  0.5553  1.5731
 6072SOL    HW229850   0.691   3.248   2.573  2.7031  0.0917  0.2392
 6073SOL     OW29851   4.137   1.144   4.392  0.6778  0.2429 -0.1564
 6073SOL    HW129852   4.045   1.160   4.371  0.9359 -0.1983 -1.6285
 6073SOL    HW229853   4.127   1.057   4.431  2.2288  0.0986 -0.0942
 6074SOL     OW29854   1.530   1.784  14.446 -0.6405 -0.5869 -0.2071
 6074SOL    HW129855   1.449   1.749  14.408  0.0850 -3.1476  0.6032
 6074SOL    HW229856   1.555   1.842  14.374 -1.9281  0.2817  0.0456
 6075SOL     OW29857   3.618   4.074   5.713  0.3791  0.3501  0.1075
 6075SOL    HW129858   3.709   4.082   5.687  0.1227 -2.4881 -1.6129
 6075SOL    HW229859   3.621   4.083   5.808 -0.2273 -0.9546  0.2622
 6076SOL     OW29860   4.014   2.083   7.410 -0.3478  0.6476  0.2875
 6076SOL    HW129861   4.047   2.164   7.371 -0.8642  0.3695 -0.7110
 6076SOL    HW229862   4.094   2.047   7.448 -1.5224  2.1929  4.2367
 6077SOL     OW29863   0.014   0.151   4.404  0.3919 -0.3440  0.0306
 6077SOL    HW129864   0.093   0.135   4.456  0.4647  1.0367  0.3539
 6077SOL    HW229865   4.736   0.244   4.420  1.0562  0.0638 -1.5604
 6078SOL     OW29866   1.910   2.964   2.111 -0.3044  0.2927  0.2235
 6078SOL    HW129867   1.826   3.008   2.095 -0.4036  0.3427  0.8677
 6078SOL    HW229868   1.973   3.031   2.136 -1.9209  0.4255  3.9640
 6079SOL     OW29869   0.455   0.425   6.259 -0.3145 -0.0523 -0.3281
 6079SOL    HW129870   0.526   0.486   6.243 -0.1773 -0.9740 -3.2208
 6079SOL    HW229871   0.377   0.467   6.224 -0.3937 -0.4026 -0.5730
 6080SOL     OW29872   1.560   4.640   5.840  0.2086  0.7069 -0.0299
 6080SOL    HW129873   1.569   4.735   5.838  0.6044  0.6848  0.5225
 6080SOL    HW229874   1.545   4.627   5.934 -1.8128  1.5157 -0.2440
 6081SOL     OW29875   3.402   1.960   4.264 -0.6214 -0.9547  0.3221
 6081SOL    HW129876   3.426   1.871   4.237  1.0277 -0.2204 -0.5876
 6081SOL    HW229877   3.478   2.011   4.238 -2.1438  0.6094 -1.0591
 6082SOL     OW29878   1.083   0.651   7.743  0.3044 -0.3064 -0.0914
 6082SOL    HW129879   1.153   0.596   7.779  1.7046  1.8640  0.5171
 6082SOL    HW229880   1.137   0.730   7.733  2.1533 -2.0463 -3.5025
 6083SOL     OW29881   1.916   3.691   3.052 -0.2573 -0.1158 -0.4950
 6083SOL    HW129882   1.882   3.608   3.085 -2.7301  0.5714 -1.3667
 6083SOL    HW229883   2.010   3.680   3.072 -0.5123 -0.4541  0.5279
 6084SOL     OW29884   1.426   3.546  11.131  0.3213  0.3509 -0.2238
 6084SOL    HW129885   1.395   3.487  11.062 -2.6077  0.0490  1.3699
 6084SOL    HW229886   1.517   3.553  11.100  0.2184 -1.2437 -0.8536
 6085SOL     OW29887   0.109   2.450  10.306 -0.4019 -0.2237 -0.4245
 6085SOL    HW129888   0.070   2.454  10.219 -1.1337  0.6187 -0.0627
 6085SOL    HW229889   0.187   2.397  10.292 -0.1060  0.1731 -0.2793
 6086SOL     OW29890   4.726   0.904   7.427  0.1853  0.1995  0.1391
 6086SOL    HW129891   0.002   0.997   7.444 -2.0128  0.6802 -0.4554
 6086SOL    HW229892   0.036   0.895   7.346 -0.2714 -1.9881  0.1017
 6087SOL     OW29893   0.530   1.312   8.736 -0.1725 -0.2954 -0.4134
 6087SOL    HW129894   0.581   1.270   8.805 -0.7582 -1.2381 -0.5585
 6087SOL    HW229895   0.478   1.250   8.685  0.2649 -0.4232 -0.7009
 6088SOL     OW29896   4.135   1.125  11.780  0.4081  0.0190 -0.0972
 6088SOL    HW129897   4.172   1.042  11.809  1.1798  0.2038 -0.5545
 6088SOL    HW229898   4.101   1.108  11.692 -0.0121 -1.6545  0.3816
 6089SOL     OW29899   2.793   3.330  13.671  0.5646 -0.1581 -0.3993
 6089SOL    HW129900   2.807   3.325  13.766 -2.3538  1.0435  0.0866
 6089SOL    HW229901   2.799   3.236  13.655  0.0728 -0.8465  3.3673
 6090SOL     OW29902   0.868   3.125   6.156 -0.2732  0.0938  0.2603
 6090SOL    HW129903   0.950   3.102   6.111  0.9185 -0.6002  2.7952
 6090SOL    HW229904   0.835   3.043   6.192 -2.0174  0.5909 -0.1961
 6091SOL     OW29905   2.492   2.082   2.346 -0.3612  0.3293  0.0204
 6091SOL    HW129906   2.468   2.071   2.254 -0.4883 -1.3095  0.2545
 6091SOL    HW229907   2.414   2.052   2.393 -0.7756  2.0631  0.4427
 6092SOL     OW29908   0.861   2.437   1.959  0.3237  0.9551  0.0011
 6092SOL    HW129909   0.834   2.507   2.019  3.1958  1.0035  1.2428
 6092SOL    HW229910   0.928   2.492   1.920  0.4552  1.4554  0.9259
 6093SOL     OW29911   2.029   2.421   6.874  0.6366  0.1091  0.0713
 6093SOL    HW129912   2.118   2.391   6.892  0.1476 -0.7301  1.0631
 6093SOL    HW229913   2.028   2.424   6.778  1.5251 -0.1853  0.0594
 6094SOL     OW29914   1.646   2.623   7.258  0.2598 -0.3747  0.5674
 6094SOL    HW129915   1.679   2.535   7.239  0.4145 -0.1756 -0.0666
 6094SOL    HW229916   1.562   2.600   7.297  0.9658  0.1265  2.3999
 6095SOL     OW29917   0.062   4.314  12.193 -0.4993 -0.1121 -0.2511
 6095SOL    HW129918   0.082   4.296  12.285  0.7219 -0.0682 -0.4965
 6095SOL    HW229919   0.039   4.226  12.162 -0.6242  0.1103 -0.7869
 6096SOL     OW29920   1.166   2.085   3.727 -0.1108  0.2194  0.7024
 6096SOL    HW129921   1.217   2.054   3.801  0.8566  1.9533  0.7333
 6096SOL    HW229922   1.074   2.067   3.748 -0.1810  0.3488  0.5070
 6097SOL     OW29923   2.537   1.942  14.923  0.0025 -0.0726 -0.0199
 6097SOL    HW129924   2.452   1.969  14.886  0.2069  1.9403  0.9821
 6097SOL    HW229925   2.520   1.865  14.977 -0.3904  0.6132  0.8335
 6098SOL     OW29926   2.602   4.576   5.213 -0.4103  0.2210 -0.2143
 6098SOL    HW129927   2.550   4.516   5.160 -0.8044  0.3601  0.0111
 6098SOL    HW229928   2.550   4.653   5.188  0.7533  1.2776  0.6053
 6099SOL     OW29929   3.133   4.457  10.278 -0.6612 -0.6417  0.1083
 6099SOL    HW129930   3.136   4.467  10.373  1.1293  0.9286 -0.1301
 6099SOL    HW229931   3.206   4.515  10.259 -0.0591 -1.5203 -0.2695
 6100SOL     OW29932   3.688   1.587   5.299  0.2072  0.4071  0.0814
 6100SOL    HW129933   3.706   1.682   5.300 -0.9112  0.6100  0.3534
 6100SOL    HW229934   3.772   1.548   5.274  0.0301 -0.1591  0.3831
 6101SOL     OW29935   3.764   1.105   6.428  0.6572  0.2198 -0.2092
 6101SOL    HW129936   3.705   1.158   6.482  1.1661 -0.7864  1.3438
 6101SOL    HW229937   3.843   1.157   6.414 -0.5994  2.1631 -0.1436
 6102SOL     OW29938   4.114   0.253  15.200 -0.3109  0.0842  0.0886
 6102SOL    HW129939   4.126   0.161  15.174  0.0981 -0.1221  1.0244
 6102SOL    HW229940   4.039   0.271  15.143  1.4312  0.7816 -1.9273
 6103SOL     OW29941   2.792   3.441   1.721  0.2377  0.3427 -0.2868
 6103SOL    HW129942   2.859   3.501   1.754 -0.9112  1.1857  0.4840
 6103SOL    HW229943   2.774   3.399   1.805 -0.5538  0.6193 -0.3221
 6104SOL     OW29944   4.188   0.179   7.587  0.9151 -0.1676 -0.1116
 6104SOL    HW129945   4.259   0.203   7.646 -0.0103  0.5968  0.6876
 6104SOL    HW229946   4.221   0.095   7.556 -1.2043 -0.1868 -2.3159
 6105SOL     OW29947   4.211   3.774   8.962 -0.4216  0.5038 -0.0268
 6105SOL    HW129948   4.299   3.757   8.995  0.2893  0.5174 -1.8695
 6105SOL    HW229949   4.237   3.822   8.883 -0.5679  2.6709  1.2454
 6106SOL     OW29950   2.111   2.700   7.589 -0.1940  0.4424 -0.4386
 6106SOL    HW129951   2.040   2.746   7.632  0.1138  0.7317 -0.2352
 6106SOL    HW229952   2.181   2.753   7.628 -1.3832  0.3705  1.7695
 6107SOL     OW29953   2.528   0.001   5.914  0.3972 -0.1527  0.1582
 6107SOL    HW129954   2.581   0.048   5.978  0.4533  0.6430 -0.4643
 6107SOL    HW229955   2.580   4.737   5.834 -0.7772  0.4873 -0.6292
 6108SOL     OW29956   3.686   1.892   4.976 -0.7460  0.8613  0.5136
 6108SOL    HW129957   3.599   1.929   4.990 -0.9888  0.0338  1.1417
 6108SOL    HW229958   3.663   1.800   4.991  1.8347 -0.3481 -2.8258
 6109SOL     OW29959   3.415   0.771   7.524  0.0374 -0.0095 -0.6218
 6109SOL    HW129960   3.511   0.774   7.516  0.2247 -2.0626  0.5751
 6109SOL    HW229961   3.396   0.791   7.616 -1.4585  1.4555 -1.2487
 6110SOL     OW29962   3.887   4.353   6.526 -0.2324  0.5657 -0.0489
 6110SOL    HW129963   3.793   4.336   6.518 -0.8630  3.0225  2.2217
 6110SOL    HW229964   3.924   4.266   6.540  0.8476  1.0915  0.3530
 6111SOL     OW29965   1.455   0.580  16.388  0.1018  0.1079 -0.1825
 6111SOL    HW129966   1.442   0.510  16.324 -0.1717  1.8796 -2.0661
 6111SOL    HW229967   1.547   0.597  16.371  0.5326 -1.3413  0.6427
 6112SOL     OW29968   4.159   0.791   0.259  0.1648  0.2223  0.3307
 6112SOL    HW129969   4.167   0.881   0.227 -1.1111 -1.0281 -3.4370
 6112SOL    HW229970   4.119   0.749   0.183 -1.5463  0.2670  1.1930
 6113SOL     OW29971   4.605   4.373  15.702 -0.0314 -0.1911 -0.2926
 6113SOL    HW129972   4.641   4.433  15.766  2.5221 -0.9951 -0.9405
 6113SOL    HW229973   4.681   4.378  15.643 -0.7367  0.9285 -1.0981
 6114SOL     OW29974   1.076   3.302   5.448 -0.0978  0.6581 -0.1539
 6114SOL    HW129975   1.149   3.358   5.421  0.9122 -0.7105 -0.2571
 6114SOL    HW229976   1.110   3.221   5.410  0.3162  0.5124  0.5311
 6115SOL     OW29977   2.917   4.108  11.976  0.3163  0.1417 -0.2197
 6115SOL    HW129978   3.005   4.143  11.993  0.0917  0.6791 -0.1671
 6115SOL    HW229979   2.926   4.013  11.973 -2.9128 -0.1603  0.0331
 6116SOL     OW29980   4.304   2.962  12.414  0.1543  0.0309  0.1146
 6116SOL    HW129981   4.328   2.942  12.323  0.9487 -2.4250  0.8766
 6116SOL    HW229982   4.279   2.875  12.445 -0.0832 -0.6253 -1.9154
 6117SOL     OW29983   2.206   3.749   9.138 -0.2377  0.5181  0.3553
 6117SOL    HW129984   2.253   3.749   9.054  0.6351 -1.3029  0.8429
 6117SOL    HW229985   2.117   3.724   9.113 -0.4906  0.4838  1.2975
 6118SOL     OW29986   0.018   4.266  14.957 -0.9175  0.0133 -0.0215
 6118SOL    HW129987   0.032   4.207  15.031 -0.9082 -1.4489 -1.1864
 6118SOL    HW229988   0.097   4.256  14.904  0.2973 -0.5616  1.8902
 6119SOL     OW29989   3.595   4.060  16.760  0.2177 -0.2401 -0.2089
 6119SOL    HW129990   3.534   3.987  16.748 -0.9648  1.1275 -2.5716
 6119SOL    HW229991   3.633   4.032  16.843  2.8914 -2.0650 -2.0236
 6120SOL     OW29992   4.192   2.225   4.678  0.5599  0.0095 -0.2477
 6120SOL    HW129993   4.107   2.202   4.641 -0.6089 -2.9673  4.2595
 6120SOL    HW229994   4.209   2.135   4.707  2.4412  0.7328  0.8384
 6121SOL     OW29995   0.440   0.871  10.619  0.0497  0.0210 -0.1015
 6121SOL    HW129996   0.431   0.852  10.712 -0.5213 -1.7502 -0.5298
 6121SOL    HW229997   0.442   0.783  10.581  0.5678  0.6251 -1.4957
 6122SOL     OW29998   0.978   3.938   8.650  0.2906 -0.3780 -0.2972
 6122SOL    HW129999   0.968   4.024   8.689 -0.8117 -1.0638  0.9583
 6122SOL    HW230000   1.026   3.955   8.569 -0.8184 -2.3578 -1.3910
 6123SOL     OW30001   0.192   3.934   0.588  0.0223 -0.6563 -0.5000
 6123SOL    HW130002   0.270   3.879   0.597  0.0114 -0.1599  2.4365
 6123SOL    HW230003   0.225   4.013   0.545 -1.0741 -0.5127 -1.0598
 6124SOL     OW30004   3.998   0.574  14.975 -0.2499  0.5798  0.2647
 6124SOL    HW130005   4.085   0.583  14.937 -0.6674  0.5833 -0.6795
 6124SOL    HW230006   3.996   0.653  15.030  1.1443  0.3115  0.7119
 6125SOL     OW30007   0.975   0.048   2.937 -0.3635  0.0186 -0.3484
 6125SOL    HW130008   0.905   0.057   3.002  0.0933  2.1837 -0.1621
 6125SOL    HW230009   0.983   0.140   2.913 -1.5076  0.2109  0.0334
 6126SOL     OW30010   3.062   1.775   5.308  0.3420 -0.5004 -0.3299
 6126SOL    HW130011   3.070   1.722   5.387 -0.7459 -0.5921 -0.2858
 6126SOL    HW230012   2.982   1.740   5.270 -0.5499  0.6267  0.5223
 6127SOL     OW30013   1.448   4.062   7.770  0.2893  0.1582 -0.0639
 6127SOL    HW130014   1.539   4.063   7.741 -0.5574  1.2048 -2.6462
 6127SOL    HW230015   1.424   3.970   7.758 -1.6625  1.0435 -2.7455
 6128SOL     OW30016   3.616   1.256   5.228  0.1406  0.0035  0.5217
 6128SOL    HW130017   3.525   1.255   5.256 -0.3475 -0.1935 -1.0699
 6128SOL    HW230018   3.648   1.292   5.311  2.2650 -0.3063 -0.1561
 6129SOL     OW30019   3.436   3.557   3.214  0.3300 -0.0893 -0.2211
 6129SOL    HW130020   3.416   3.564   3.120 -1.0333  3.9865  0.3443
 6129SOL    HW230021   3.366   3.494   3.228  0.5367 -0.6696 -1.7517
 6130SOL     OW30022   3.563   1.770  14.492  0.1589  0.3507  0.0070
 6130SOL    HW130023   3.538   1.851  14.536 -1.2266  0.3475 -0.7646
 6130SOL    HW230024   3.654   1.756  14.520 -0.5865  0.7223  2.6142
 6131SOL     OW30025   2.889   4.230   6.390 -0.3309 -0.7775 -0.1094
 6131SOL    HW130026   2.924   4.148   6.354  1.8465  0.1534 -0.1326
 6131SOL    HW230027   2.908   4.231   6.484 -0.6961  1.2494 -0.0570
 6132SOL     OW30028   3.163   0.509   4.617 -0.0390 -1.0160  0.0838
 6132SOL    HW130029   3.209   0.465   4.688 -1.9121 -0.8539  1.3912
 6132SOL    HW230030   3.105   0.578   4.648 -1.6532 -1.2853 -2.3827
 6133SOL     OW30031   4.544   1.273   2.133  0.0198  0.7020  0.0578
 6133SOL    HW130032   4.627   1.224   2.134  0.4794  1.4718 -1.3153
 6133SOL    HW230033   4.560   1.354   2.182  0.8749  1.6646 -1.8295
 6134SOL     OW30034   4.209   2.704   7.616 -0.0714  0.6060 -0.2324
 6134SOL    HW130035   4.201   2.757   7.537  0.5832 -1.4299 -1.6912
 6134SOL    HW230036   4.204   2.613   7.584 -0.1384  0.3827  0.4174
 6135SOL     OW30037   1.035   3.219   4.038  0.5257 -0.1336 -0.4311
 6135SOL    HW130038   1.008   3.173   3.958 -0.9627  1.3633 -0.8069
 6135SOL    HW230039   1.070   3.139   4.076  1.1993 -0.6156 -2.0731
 6136SOL     OW30040   4.374   0.254  14.028 -0.2695 -0.1987 -0.2837
 6136SOL    HW130041   4.348   0.162  14.035  2.0563 -0.8676 -0.2600
 6136SOL    HW230042   4.328   0.297  14.100  1.2871  1.4750 -0.2947
 6137SOL     OW30043   3.411   2.734  14.016  0.2373  0.4102  0.1730
 6137SOL    HW130044   3.345   2.726  14.084 -0.9021 -0.5195 -1.0313
 6137SOL    HW230045   3.421   2.644  13.984  2.6514  0.9407 -0.5906
 6138SOL     OW30046   4.739   1.824   5.359 -0.2951  0.2489  0.3642
 6138SOL    HW130047   4.656   1.786   5.333  0.9528 -1.8519 -0.5837
 6138SOL    HW230048   0.043   1.743   5.388  1.0013  1.2790  1.2977
 6139SOL     OW30049   0.966   1.639  15.597 -0.5502 -0.7114 -0.1028
 6139SOL    HW130050   0.918   1.721  15.605  1.2172  0.4738 -1.7083
 6139SOL    HW230051   1.012   1.642  15.681 -0.2036 -1.8709 -0.2530
 6140SOL     OW30052   2.840   3.941  15.836 -0.4573 -0.6704  0.3716
 6140SOL    HW130053   2.777   3.921  15.767 -0.3625  0.7704 -0.1198
 6140SOL    HW230054   2.820   4.027  15.874 -0.1008 -0.5152  0.2065
 6141SOL     OW30055   4.140   1.780   9.018  0.0033  0.4147 -0.0431
 6141SOL    HW130056   4.146   1.875   9.023 -2.0445  0.4047  2.7586
 6141SOL    HW230057   4.109   1.765   9.107 -1.8986  1.9872 -0.4448
 6142SOL     OW30058   1.177   1.499   8.255  0.4149  0.2456 -0.5633
 6142SOL    HW130059   1.195   1.541   8.338 -2.4173 -1.2102  0.7994
 6142SOL    HW230060   1.184   1.405   8.270  0.8488  0.2155 -0.9670
 6143SOL     OW30061   4.157   3.008   4.605 -0.0872 -0.0970  0.1005
 6143SOL    HW130062   4.203   2.939   4.653 -0.8905  0.3925  1.5593
 6143SOL    HW230063   4.220   3.075   4.580  0.5933 -0.0767  1.8517
 6144SOL     OW30064   3.904   2.490  15.903  0.1714  0.6476 -0.4774
 6144SOL    HW130065   3.953   2.541  15.967 -0.5259  0.2227  0.4008
 6144SOL    HW230066   3.884   2.421  15.967  0.9918  1.0220  0.1869
 6145SOL     OW30067   0.123   4.514   2.237 -0.2720  0.2692  0.5636
 6145SOL    HW130068   0.028   4.513   2.253 -0.4994 -3.0989 -0.9802
 6145SOL    HW230069   0.130   4.608   2.221 -0.3962  0.0257 -0.9088
 6146SOL     OW30070   1.580   3.179   5.817 -0.0697  0.2280 -0.2232
 6146SOL    HW130071   1.505   3.129   5.783 -0.1129 -0.6841  1.2217
 6146SOL    HW230072   1.642   3.155   5.747  0.1657  1.6499 -0.5072
 6147SOL     OW30073   0.177   4.280   2.113 -0.0090 -1.1504 -0.4504
 6147SOL    HW130074   0.116   4.275   2.039 -1.0342  0.3956  0.2954
 6147SOL    HW230075   0.161   4.370   2.141 -3.3283 -1.4338 -1.3650
 6148SOL     OW30076   1.356   2.670   7.666 -0.5842 -0.2686  0.3679
 6148SOL    HW130077   1.447   2.658   7.639 -1.2158  0.2154 -1.9717
 6148SOL    HW230078   1.319   2.582   7.662 -2.3555  0.4782  0.5178
 6149SOL     OW30079   1.898   0.183   5.444  0.1152 -0.4768  0.0726
 6149SOL    HW130080   1.916   0.148   5.531  1.6605 -1.4214 -0.6302
 6149SOL    HW230081   1.976   0.145   5.403 -0.3977 -2.9368  1.3889
 6150SOL     OW30082   1.214   1.155   8.889 -0.2498 -0.4772 -0.1251
 6150SOL    HW130083   1.172   1.214   8.827 -0.0839 -0.9615 -0.7018
 6150SOL    HW230084   1.238   1.077   8.839 -1.0628  0.2801 -1.7004
 6151SOL     OW30085   0.861   3.509  16.444  0.3722  0.6144 -0.0495
 6151SOL    HW130086   0.891   3.419  16.453  2.2505  1.1071 -1.2551
 6151SOL    HW230087   0.770   3.507  16.414  0.2893 -2.9002  0.4353
 6152SOL     OW30088   0.207   3.772   3.317  0.1484  0.3305 -0.4572
 6152SOL    HW130089   0.151   3.810   3.385  0.7773  2.5645 -1.1557
 6152SOL    HW230090   0.290   3.795   3.360  1.3386 -0.9279 -2.0811
 6153SOL     OW30091   0.895   2.144   7.272 -0.0386 -0.2275 -0.3421
 6153SOL    HW130092   0.874   2.089   7.196  1.7426  1.0752 -1.8021
 6153SOL    HW230093   0.904   2.072   7.334 -1.0169  0.4154  0.5278
 6154SOL     OW30094   1.727   1.870   2.377  0.2092 -0.0320 -0.3769
 6154SOL    HW130095   1.637   1.837   2.381  0.4624 -0.9878 -2.2948
 6154SOL    HW230096   1.741   1.821   2.296  2.2152 -2.5227  1.4461
 6155SOL     OW30097   0.955   3.968  16.062  0.1256 -0.0472  0.3707
 6155SOL    HW130098   1.000   3.902  16.114  2.7013  1.1900 -0.2983
 6155SOL    HW230099   1.003   4.050  16.076  1.3707 -0.7922  0.4500
 6156SOL     OW30100   0.178   0.080   5.922 -0.1122 -0.3680  0.0629
 6156SOL    HW130101   0.198   0.165   5.962  1.0212 -0.1064 -1.0524
 6156SOL    HW230102   0.233   0.088   5.844 -2.6186  0.4412 -1.6427
 6157SOL     OW30103   3.230   4.683   2.738  0.3016 -0.2779  0.2693
 6157SOL    HW130104   3.276   4.604   2.707 -0.8056 -1.1159  0.7522
 6157SOL    HW230105   3.299   0.009   2.735 -0.2221  0.2937  0.7715
 6158SOL     OW30106   1.599   1.553   6.399 -0.2876  0.2751 -0.2175
 6158SOL    HW130107   1.565   1.639   6.427 -1.4727 -0.4378  0.5300
 6158SOL    HW230108   1.643   1.518   6.476 -0.2952  1.9318  0.5550
 6159SOL     OW30109   1.540   4.048   5.368 -0.4106  0.1725 -0.0470
 6159SOL    HW130110   1.601   4.113   5.402  0.0148 -1.7929  2.9184
 6159SOL    HW230111   1.491   4.102   5.306  1.0502  0.4785 -0.9410
 6160SOL     OW30112   3.670   2.666   0.873  0.0564  0.4042 -0.3633
 6160SOL    HW130113   3.659   2.759   0.853 -2.7744  0.2500  0.4488
 6160SOL    HW230114   3.639   2.663   0.964 -2.0702 -1.1350 -1.1294
 6161SOL     OW30115   2.416   3.097   8.214  0.1626 -0.1119  0.0169
 6161SOL    HW130116   2.504   3.061   8.208  0.6454  1.1374 -0.4667
 6161SOL    HW230117   2.375   3.020   8.251 -1.8296  1.0743  0.2902
 6162SOL     OW30118   2.153   2.690   4.237 -0.0897  0.1453 -0.8621
 6162SOL    HW130119   2.083   2.714   4.298 -0.9619 -1.3193 -1.2810
 6162SOL    HW230120   2.187   2.772   4.203  2.5003 -1.1099 -1.2990
 6163SOL     OW30121   0.825   0.247   2.081 -0.3344  0.6357  0.1299
 6163SOL    HW130122   0.917   0.260   2.057 -0.1078 -0.0349  0.6412
 6163SOL    HW230123   0.776   0.273   2.003 -0.3639  3.2585  1.0278
 6164SOL     OW30124   2.670   2.236   5.425 -0.3254  0.3916 -0.0821
 6164SOL    HW130125   2.627   2.321   5.422 -2.4136 -0.6605 -0.2777
 6164SOL    HW230126   2.613   2.203   5.495  2.4745  0.5462  2.2702
 6165SOL     OW30127   2.817   1.236  17.539 -0.4170 -0.3229 -0.5072
 6165SOL    HW130128   2.778   1.257  17.454 -0.0182  0.2127 -0.5625
 6165SOL    HW230129   2.793   1.146  17.560  1.4401 -0.8709 -0.7246
 6166SOL     OW30130   2.406   1.738   8.164  0.1815  0.5610 -0.2828
 6166SOL    HW130131   2.325   1.691   8.149  1.0072 -1.0139  0.2384
 6166SOL    HW230132   2.473   1.671   8.168 -0.0019  0.3306 -1.0551
 6167SOL     OW30133   2.550   0.052   4.286  0.1735 -0.7359 -0.1439
 6167SOL    HW130134   2.518   4.715   4.239  0.7320 -0.7387 -0.5350
 6167SOL    HW230135   2.562   0.026   4.377  0.0584 -2.4477 -0.6050
 6168SOL     OW30136   3.246   2.360   4.111  0.5351 -0.3941 -0.0189
 6168SOL    HW130137   3.242   2.284   4.169 -1.5254  0.0712  0.4343
 6168SOL    HW230138   3.338   2.387   4.111  1.3791 -3.2384 -1.0710
 6169SOL     OW30139   4.471   2.509   4.159 -0.2109  0.0385 -0.0575
 6169SOL    HW130140   4.477   2.573   4.230 -0.7386  1.0507 -0.9260
 6169SOL    HW230141   4.380   2.521   4.130 -0.4447 -0.3565  0.5067
 6170SOL     OW30142   3.543   4.578  10.486 -0.5315  0.1268 -1.1322
 6170SOL    HW130143   3.594   4.551  10.410  1.5803  1.5900 -0.2227
 6170SOL    HW230144   3.595   4.644  10.531 -1.6746 -0.0297  0.4423
 6171SOL     OW30145   1.742   3.899   1.936  0.5032 -0.4492  0.0924
 6171SOL    HW130146   1.679   3.839   1.976 -1.1906  1.3006  0.0204
 6171SOL    HW230147   1.769   3.949   2.013 -4.6801 -0.5568  2.0018
 6172SOL     OW30148   2.311   2.635   9.829  0.6443 -0.3581 -0.4662
 6172SOL    HW130149   2.270   2.584   9.898 -0.8662  0.8028 -0.4901
 6172SOL    HW230150   2.399   2.646   9.863  0.0702 -0.2421  0.9986
 6173SOL     OW30151   4.617   0.545   3.339 -0.0808 -0.1101 -0.2486
 6173SOL    HW130152   4.595   0.508   3.425  1.8491 -1.6267 -0.4032
 6173SOL    HW230153   4.676   0.479   3.303  0.3145  0.6658 -1.0195
 6174SOL     OW30154   1.652   3.419  17.368 -0.0231 -0.1040  0.4545
 6174SOL    HW130155   1.691   3.354  17.310  0.2029  0.3679  0.0772
 6174SOL    HW230156   1.619   3.478  17.301  1.8509  0.6023  0.1430
 6175SOL     OW30157   1.335   4.354   5.919 -0.1201 -0.0311  0.3459
 6175SOL    HW130158   1.383   4.413   5.978 -0.7539  2.7956 -1.9512
 6175SOL    HW230159   1.244   4.342   5.947  1.0713 -3.6798  2.6832
 6176SOL     OW30160   2.162   0.898  10.887  0.0234  0.6516  0.2254
 6176SOL    HW130161   2.119   0.891  10.972  4.7921 -0.7601  2.5269
 6176SOL    HW230162   2.100   0.953  10.840 -1.8318 -1.3814  0.3029
 6177SOL     OW30163   0.886   0.259   7.383 -0.3963 -0.1190  0.5161
 6177SOL    HW130164   0.973   0.218   7.387 -0.3499 -0.0936 -0.2233
 6177SOL    HW230165   0.895   0.349   7.413  2.4112  0.8844 -3.2569
 6178SOL     OW30166   3.207   1.143   3.591  0.3441  0.5356  0.0886
 6178SOL    HW130167   3.280   1.149   3.652  1.9303  0.7598 -1.8316
 6178SOL    HW230168   3.244   1.086   3.523  1.9868  0.7665  0.7829
 6179SOL     OW30169   2.841   3.529   7.274 -0.1103 -0.1577 -0.0112
 6179SOL    HW130170   2.840   3.515   7.368 -0.4462  0.7623  0.1174
 6179SOL    HW230171   2.932   3.512   7.248 -0.1959  0.5266 -0.7709
 6180SOL     OW30172   2.223   2.487  10.034  0.4784 -0.3085  0.2189
 6180SOL    HW130173   2.180   2.517  10.114  0.8299  0.4169  0.1375
 6180SOL    HW230174   2.161   2.414  10.027  0.2765 -0.0525 -0.7432
 6181SOL     OW30175   4.335   1.886   6.236 -0.2897 -0.1402 -0.0099
 6181SOL    HW130176   4.264   1.927   6.285  0.0659  2.2408 -1.5108
 6181SOL    HW230177   4.287   1.825   6.179 -0.2841 -2.5212  2.5310
 6182SOL     OW30178   2.704   3.493  10.431  0.1354 -0.4037 -0.0999
 6182SOL    HW130179   2.752   3.411  10.442  0.9357  0.0446 -0.2253
 6182SOL    HW230180   2.649   3.466  10.357  0.2617  0.1744 -0.3995
 6183SOL     OW30181   0.422   4.587   5.157  0.1366 -0.3466 -0.1158
 6183SOL    HW130182   0.459   4.655   5.214  0.7681  0.6576 -1.7220
 6183SOL    HW230183   0.370   4.539   5.221  2.1893 -2.5642 -0.1328
 6184SOL     OW30184   1.478   3.605   9.041 -0.2738 -0.3626 -0.1434
 6184SOL    HW130185   1.391   3.644   9.048  1.3770  3.2952  0.1127
 6184SOL    HW230186   1.527   3.670   9.091 -1.1198 -0.2974  0.5876
 6185SOL     OW30187   4.255   4.136   1.393 -0.2559 -0.3647 -0.2700
 6185SOL    HW130188   4.265   4.223   1.433 -1.2677  0.4730 -1.8517
 6185SOL    HW230189   4.268   4.150   1.299  0.1922  1.6443  0.0801
 6186SOL     OW30190   4.482   2.271   8.287 -0.1530 -0.2320  0.1523
 6186SOL    HW130191   4.548   2.282   8.354 -2.9676 -0.3083  2.9373
 6186SOL    HW230192   4.532   2.301   8.211 -0.3576  0.6245  0.3606
 6187SOL     OW30193   2.688   1.710  14.279 -0.1253  0.2223 -0.2251
 6187SOL    HW130194   2.779   1.689  14.299  0.1275 -0.5070 -2.2080
 6187SOL    HW230195   2.657   1.709  14.370  1.4203  0.4114  0.3005
 6188SOL     OW30196   1.361   4.411   4.960 -0.2752 -0.0685  0.3760
 6188SOL    HW130197   1.271   4.378   4.954  0.1766 -1.7235  2.7085
 6188SOL    HW230198   1.408   4.342   4.913  0.5124  0.6962  0.0478
 6189SOL     OW30199   3.985   3.825   7.379 -0.3429  0.4615 -0.2743
 6189SOL    HW130200   4.030   3.887   7.437 -3.1279  1.3489  0.9049
 6189SOL    HW230201   3.995   3.747   7.433 -1.7385 -0.2402 -1.0256
 6190SOL     OW30202   3.329   2.045   1.156 -0.4135  0.2855 -0.2532
 6190SOL    HW130203   3.328   2.141   1.159  2.9244  0.3333 -1.1330
 6190SOL    HW230204   3.418   2.012   1.161 -1.3849 -2.4057 -0.6955
 6191SOL     OW30205   2.257   0.982   6.396  0.1724 -0.3467 -0.4978
 6191SOL    HW130206   2.183   0.953   6.343  0.0408 -1.5383  0.3570
 6191SOL    HW230207   2.265   0.915   6.464  1.2563  1.1049  0.7973
 6192SOL     OW30208   3.895   2.748   7.775  0.1643  1.1648  0.3306
 6192SOL    HW130209   3.925   2.782   7.691  1.8192 -0.9373  0.0656
 6192SOL    HW230210   3.805   2.727   7.752 -0.3877  1.6254  2.0731
 6193SOL     OW30211   0.029   2.421   3.403 -0.3509 -0.2697  0.4163
 6193SOL    HW130212   0.098   2.477   3.440  1.1995 -1.8765 -0.0745
 6193SOL    HW230213   4.700   2.486   3.390  1.3478  1.0496 -2.1158
 6194SOL     OW30214   0.083   2.299   9.053 -0.1874  0.3006 -0.1408
 6194SOL    HW130215   0.102   2.211   9.087 -0.4625 -1.0131 -3.3684
 6194SOL    HW230216   0.164   2.337   9.086 -0.8909  0.9678  0.7970
 6195SOL     OW30217   4.717   0.233  10.280  0.0596 -0.2637 -0.1390
 6195SOL    HW130218   4.668   0.157  10.248 -1.1500  1.9800 -3.6371
 6195SOL    HW230219   4.659   0.303  10.251  1.6533  0.6923 -1.0320
 6196SOL     OW30220   4.015   2.476   5.568  0.1813 -0.1905  0.5106
 6196SOL    HW130221   3.970   2.552   5.532  2.8356  1.9789  1.6762
 6196SOL    HW230222   3.944   2.421   5.601  0.9378 -0.9481  0.8902
 6197SOL     OW30223   0.456   0.478   6.969  0.3037 -0.8178 -0.4121
 6197SOL    HW130224   0.535   0.437   6.932  0.3981 -0.8352 -0.1924
 6197SOL    HW230225   0.454   0.559   6.917 -0.0068  0.6912  1.9406
 6198SOL     OW30226   1.701   0.596  13.201 -0.1602 -0.3995 -0.1706
 6198SOL    HW130227   1.793   0.592  13.173  0.3518 -1.7365  1.7043
 6198SOL    HW230228   1.696   0.691  13.214 -0.8137 -0.6791  1.7033
 6199SOL     OW30229   4.496   1.913   7.510  0.8407 -0.4009 -0.3787
 6199SOL    HW130230   4.456   1.909   7.597  1.7320  1.4884  0.1089
 6199SOL    HW230231   4.503   1.823   7.479 -0.4838 -0.3312 -0.8632
 6200SOL     OW30232   3.633   3.659   0.589  0.3045  0.0536  0.3053
 6200SOL    HW130233   3.690   3.720   0.543  0.2728 -0.0486  0.1326
 6200SOL    HW230234   3.585   3.722   0.643  1.2060 -0.1165  1.3130
 6201SOL     OW30235   2.396   3.150   4.456 -0.2438 -0.2807  0.0815
 6201SOL    HW130236   2.311   3.143   4.412 -0.0680 -0.2087 -0.2673
 6201SOL    HW230237   2.434   3.234   4.432 -1.3239  0.0102 -0.6301
 6202SOL     OW30238   4.615   0.219   7.463 -0.3152 -0.3612  0.0403
 6202SOL    HW130239   4.700   0.217   7.507 -0.1319 -1.9978 -0.3939
 6202SOL    HW230240   4.568   0.147   7.504 -0.5600 -0.4526 -0.3978
 6203SOL     OW30241   1.486   2.464   3.169 -0.4973 -0.1091 -0.6166
 6203SOL    HW130242   1.481   2.426   3.081 -0.8072 -0.7590 -0.3177
 6203SOL    HW230243   1.400   2.447   3.207  0.4468  0.6886  1.8357
 6204SOL     OW30244   4.366   3.554   0.863  0.5285  0.7949  1.4369
 6204SOL    HW130245   4.381   3.630   0.806 -0.6541 -0.4839 -0.5973
 6204SOL    HW230246   4.301   3.587   0.924  0.7326  0.7269  1.6888
 6205SOL     OW30247   0.589   1.964   9.331 -0.3296 -0.1595 -0.1409
 6205SOL    HW130248   0.517   1.922   9.286 -0.5688  1.3330 -1.1672
 6205SOL    HW230249   0.611   2.042   9.280 -1.7418  0.6743  0.5395
 6206SOL     OW30250   3.789   0.996   8.818 -0.1170 -0.2240  0.3109
 6206SOL    HW130251   3.720   1.014   8.755  2.6925  2.9498 -1.8445
 6206SOL    HW230252   3.735   1.017   8.895  0.4866 -1.0967  0.9795
 6207SOL     OW30253   2.441   2.448   5.382  0.2353 -0.1789  0.1938
 6207SOL    HW130254   2.423   2.444   5.288  2.2677 -2.3782 -0.1113
 6207SOL    HW230255   2.366   2.395   5.406 -0.6869  2.0040  2.1410
 6208SOL     OW30256   3.517   2.106   0.756  0.1461 -0.0835  0.1874
 6208SOL    HW130257   3.584   2.173   0.771  0.5426 -0.4414  0.0261
 6208SOL    HW230258   3.516   2.090   0.662  1.1642  1.0447 -0.0053
 6209SOL     OW30259   1.516   0.309   3.234  1.0525  0.1070  0.7246
 6209SOL    HW130260   1.455   0.368   3.278 -1.4527 -0.7854 -1.5302
 6209SOL    HW230261   1.458   0.249   3.187  2.7584  0.5685 -2.0311
 6210SOL     OW30262   4.315   3.650   8.194  0.6459  0.0564  0.5630
 6210SOL    HW130263   4.254   3.698   8.251 -0.8338 -2.5890  1.1842
 6210SOL    HW230264   4.257   3.587   8.150  0.7054 -0.9560  1.9377
 6211SOL     OW30265   0.648   1.176  11.791 -0.0474  0.5896  0.1183
 6211SOL    HW130266   0.638   1.085  11.765  0.7355  0.7698 -0.8285
 6211SOL    HW230267   0.609   1.218  11.714  2.2274 -0.4321 -1.5983
 6212SOL     OW30268   4.659   3.237   7.007 -0.0305 -0.0387 -0.1910
 6212SOL    HW130269   4.655   3.307   7.072  0.9257 -1.7945  1.7753
 6212SOL    HW230270   4.730   3.264   6.950 -1.0628  2.5289 -0.2536
 6213SOL     OW30271   2.246   2.109   8.443 -0.3298 -0.1482  0.5720
 6213SOL    HW130272   2.153   2.100   8.425 -0.8188  2.5621  1.6882
 6213SOL    HW230273   2.284   2.095   8.356  2.1359  2.5957  1.1956
 6214SOL     OW30274   4.639   2.175   5.835 -0.1277  0.1438 -0.0909
 6214SOL    HW130275   4.579   2.249   5.834  1.4752  1.4526  0.3968
 6214SOL    HW230276   4.685   2.183   5.919  0.7410  1.8857 -0.7310
 6215SOL     OW30277   3.786   2.057  16.181  0.1072 -0.2349 -0.1555
 6215SOL    HW130278   3.757   2.146  16.204 -0.5217 -0.4519 -0.1133
 6215SOL    HW230279   3.728   2.008  16.240  0.8553 -0.5443  0.3212
 6216SOL     OW30280   3.937   0.694   4.869 -0.0725 -0.0279 -0.1489
 6216SOL    HW130281   3.934   0.784   4.901 -0.2136  0.0759 -0.4501
 6216SOL    HW230282   3.889   0.711   4.788  1.7934  0.7205 -1.0926
 6217SOL     OW30283   3.627   4.194   8.202 -0.0892 -0.6535 -0.0395
 6217SOL    HW130284   3.587   4.151   8.278  2.3762  0.5701  1.9179
 6217SOL    HW230285   3.560   4.206   8.134 -2.2926  0.0148  2.2508
 6218SOL     OW30286   2.054   2.929  12.289  0.6248 -0.2964  0.1960
 6218SOL    HW130287   1.978   2.909  12.343  0.5461  0.2843  0.3010
 6218SOL    HW230288   2.054   3.025  12.285 -1.4938 -0.1523  3.6972
 6219SOL     OW30289   1.866   2.001   5.355 -0.1275  0.0617  0.7408
 6219SOL    HW130290   1.820   2.069   5.404 -1.4784  1.4407 -2.4368
 6219SOL    HW230291   1.922   1.968   5.425 -0.4432 -0.5977  0.6872
 6220SOL     OW30292   4.113   4.361  13.547  0.3646  0.1124 -0.1090
 6220SOL    HW130293   4.184   4.378  13.485 -1.3624  3.8917 -1.0499
 6220SOL    HW230294   4.054   4.435  13.527  0.3794  0.5609  1.4981
 6221SOL     OW30295   4.558   2.111   1.758  0.7623  0.0334 -0.7111
 6221SOL    HW130296   4.608   2.035   1.729 -1.2643 -1.2267 -0.8924
 6221SOL    HW230297   4.572   2.166   1.680  2.4754  0.2618 -0.2329
 6222SOL     OW30298   3.347   0.260   5.212 -0.4147  0.1918  0.0165
 6222SOL    HW130299   3.439   0.263   5.183 -1.1870  0.8509 -2.3983
 6222SOL    HW230300   3.358   0.227   5.301 -0.0910  0.8449  0.2128
 6223SOL     OW30301   1.566   0.804   5.646 -0.3564 -0.1295  0.4121
 6223SOL    HW130302   1.520   0.888   5.651  1.2469  0.7151  1.1949
 6223SOL    HW230303   1.624   0.823   5.573 -0.2606 -0.9834  0.2656
 6224SOL     OW30304   2.391   0.884   7.739  0.0030  0.5447  0.1692
 6224SOL    HW130305   2.448   0.846   7.672  1.1044  0.0891  1.3718
 6224SOL    HW230306   2.454   0.949   7.769 -0.4919 -0.0523  2.5275
 6225SOL     OW30307   0.250   4.492   7.461  0.0004 -0.4992  0.1427
 6225SOL    HW130308   0.277   4.403   7.484  0.0027 -0.6819 -0.5622
 6225SOL    HW230309   0.310   4.518   7.390  1.7940 -0.9118  1.5200
 6226SOL     OW30310   2.650   0.660   4.829 -0.3213 -0.2628  0.2186
 6226SOL    HW130311   2.681   0.615   4.908 -1.1598 -0.7506  0.2668
 6226SOL    HW230312   2.687   0.607   4.758 -2.1605 -1.1905 -0.0546
 6227SOL     OW30313   2.891   4.007   7.437 -0.8561 -0.0039 -0.0968
 6227SOL    HW130314   2.861   4.038   7.522 -1.0795  1.7818 -0.8358
 6227SOL    HW230315   2.983   3.990   7.454 -0.3931  1.7926 -0.8842
 6228SOL     OW30316   4.547   0.723   3.673 -0.2695  0.0645 -0.2517
 6228SOL    HW130317   4.470   0.755   3.720 -0.5062  0.5894 -1.0112
 6228SOL    HW230318   4.507   0.716   3.587  1.7805 -0.1525 -1.1915
 6229SOL     OW30319   1.595   3.467  10.827 -0.3789  0.2865  0.0968
 6229SOL    HW130320   1.523   3.521  10.794  0.0857  0.8798  0.0376
 6229SOL    HW230321   1.618   3.508  10.910  0.9102 -1.6866  0.7184
 6230SOL     OW30322   4.163   3.074   2.829 -0.3943  0.1335  0.0221
 6230SOL    HW130323   4.220   3.008   2.868 -0.3397  0.2312  0.1053
 6230SOL    HW230324   4.179   3.050   2.737 -2.6485  0.5362 -0.4931
 6231SOL     OW30325   3.374   0.598   3.753  0.6247 -0.0672  0.4285
 6231SOL    HW130326   3.356   0.632   3.666 -0.3166 -2.2081 -0.1896
 6231SOL    HW230327   3.441   0.531   3.744  0.4273 -0.5473  2.5867
 6232SOL     OW30328   4.390   3.446   4.302 -0.1140 -0.1170  0.1991
 6232SOL    HW130329   4.368   3.363   4.261  0.3269  0.6764 -1.6602
 6232SOL    HW230330   4.331   3.510   4.262 -0.6244 -0.3842  0.5263
 6233SOL     OW30331   0.446   0.225   3.422 -0.1522  0.1348  0.8081
 6233SOL    HW130332   0.537   0.212   3.395 -0.0100  1.8376  0.4958
 6233SOL    HW230333   0.409   0.304   3.383  1.8700 -0.6184 -2.6712
 6234SOL     OW30334   0.824   2.807   4.700  0.1177 -0.0519 -0.0171
 6234SOL    HW130335   0.781   2.748   4.638 -0.4266 -0.9873  1.2360
 6234SOL    HW230336   0.757   2.827   4.765 -0.4553  1.3228 -1.0429
 6235SOL     OW30337   2.126   1.283   0.224 -0.3596  0.4372  0.0675
 6235SOL    HW130338   2.102   1.363   0.271 -2.8599 -0.2230 -0.1091
 6235SOL    HW230339   2.184   1.314   0.154 -1.4582 -0.5945 -1.2920
 6236SOL     OW30340   4.294   4.062   3.535 -0.2880  0.2040 -1.0683
 6236SOL    HW130341   4.213   4.035   3.493  0.4804 -2.7845 -0.6316
 6236SOL    HW230342   4.356   4.057   3.462 -0.8280  2.4283 -1.6570
 6237SOL     OW30343   1.932   0.276   9.097 -0.2982 -0.6493  0.7434
 6237SOL    HW130344   2.022   0.290   9.126 -1.4990  2.3954  2.9271
 6237SOL    HW230345   1.943   0.187   9.063 -0.1180 -0.6176  0.7150
 6238SOL     OW30346   0.459   0.956   6.363 -0.5693  0.1000  0.0027
 6238SOL    HW130347   0.542   1.001   6.379  0.6623 -2.4651  0.7007
 6238SOL    HW230348   0.491   0.893   6.299 -0.1813 -0.2043  0.5003
 6239SOL     OW30349   4.501   1.137   2.464  0.1246  0.1573  0.2613
 6239SOL    HW130350   4.517   1.060   2.518  0.0440 -1.3679 -1.9236
 6239SOL    HW230351   4.534   1.102   2.382 -2.8691  1.7821 -1.6412
 6240SOL     OW30352   3.564   0.522   2.313  0.2918 -0.7812  0.5553
 6240SOL    HW130353   3.521   0.545   2.230  1.7813 -1.8067 -0.5043
 6240SOL    HW230354   3.559   0.608   2.354 -0.4858 -1.0176  0.9545
 6241SOL     OW30355   4.585   1.768   2.805  0.3288 -0.0498  0.5422
 6241SOL    HW130356   4.616   1.858   2.812 -1.6960  0.5637  1.7855
 6241SOL    HW230357   4.574   1.746   2.898  0.3327 -0.4286  0.4557
 6242SOL     OW30358   2.884   3.331   2.236  0.2119 -0.6768  0.6929
 6242SOL    HW130359   2.959   3.338   2.178 -0.2820 -2.3141 -0.1589
 6242SOL    HW230360   2.814   3.356   2.175 -0.0995 -0.2912  1.2060
 6243SOL     OW30361   4.697   1.830   6.912  0.2246  0.3723 -0.0020
 6243SOL    HW130362   4.735   1.821   6.999 -1.0912 -1.7130  0.3412
 6243SOL    HW230363   4.620   1.774   6.912 -0.1739  0.9174 -0.2427
 6244SOL     OW30364   0.454   3.415   5.953 -0.1038  0.3607 -0.4163
 6244SOL    HW130365   0.365   3.446   5.938  0.6159  1.6439 -2.1051
 6244SOL    HW230366   0.449   3.396   6.046 -1.8621  0.1853 -0.5476
 6245SOL     OW30367   3.050   4.565   7.670 -0.2477 -0.0024  0.0519
 6245SOL    HW130368   3.052   4.477   7.708  0.6483 -0.3570 -0.7977
 6245SOL    HW230369   3.109   4.555   7.595  1.4345 -0.8512  1.4979
 6246SOL     OW30370   3.073   2.033   7.295 -0.0525 -0.3549 -0.3759
 6246SOL    HW130371   3.023   2.084   7.359 -1.8741  1.6754 -3.4312
 6246SOL    HW230372   3.005   1.993   7.241 -0.4479  0.7079 -0.6658
 6247SOL     OW30373   3.806   3.816   5.924  0.0008  0.5378  0.6026
 6247SOL    HW130374   3.713   3.814   5.903 -0.3717 -1.8968  2.4175
 6247SOL    HW230375   3.848   3.839   5.841 -1.0750  1.3426  0.2870
 6248SOL     OW30376   2.710   1.112   1.443  0.1432 -0.1002  0.4727
 6248SOL    HW130377   2.802   1.097   1.418 -1.0764 -2.8949 -2.3846
 6248SOL    HW230378   2.713   1.086   1.535  1.4441 -0.1789  0.4103
 6249SOL     OW30379   4.644   3.606   5.722 -0.5631 -0.7892  0.1234
 6249SOL    HW130380   4.636   3.511   5.726 -1.6889 -0.7925 -2.3574
 6249SOL    HW230381   4.738   3.624   5.725 -0.9929  0.7862  3.9436
 6250SOL     OW30382   2.407   2.022   8.241  0.0066  0.3616  0.5666
 6250SOL    HW130383   2.486   2.032   8.294 -0.6567  0.1752  1.5874
 6250SOL    HW230384   2.407   1.927   8.226 -1.7647 -0.0328  2.9154
 6251SOL     OW30385   3.990   0.665   5.631 -0.0723  1.0421  0.0966
 6251SOL    HW130386   3.920   0.650   5.694 -1.5983  0.2795 -1.7699
 6251SOL    HW230387   4.048   0.725   5.678  0.4805 -0.6891  1.6194
 6252SOL     OW30388   2.155   2.174  14.770  0.4946  0.7658  0.6606
 6252SOL    HW130389   2.097   2.250  14.771  0.5684  0.8205  0.7951
 6252SOL    HW230390   2.239   2.220  14.758  0.5139  1.0278  1.8273
 6253SOL     OW30391   2.842   3.135   2.570  0.1697  0.6813 -0.0214
 6253SOL    HW130392   2.857   3.048   2.606  1.9406  0.7154 -0.6604
 6253SOL    HW230393   2.785   3.121   2.495  0.5627 -2.3630  0.2773
 6254SOL     OW30394   3.075   1.422   4.450 -0.7824 -0.4155  0.4395
 6254SOL    HW130395   3.100   1.484   4.382  1.0207 -3.0475 -1.3314
 6254SOL    HW230396   2.989   1.392   4.422 -0.1293 -1.8806 -0.0444
 6255SOL     OW30397   1.193   2.525   8.564  0.1651 -0.4357  0.1670
 6255SOL    HW130398   1.114   2.578   8.575  1.0522  0.7336  0.9623
 6255SOL    HW230399   1.176   2.476   8.483  0.2130  0.5964 -0.4736
 6256SOL     OW30400   2.189   3.866   4.236  0.3160 -0.8425  0.2749
 6256SOL    HW130401   2.236   3.812   4.299  1.2483 -0.0989  0.2227
 6256SOL    HW230402   2.210   3.951   4.277  0.0448 -0.6520  0.0161
 6257SOL     OW30403   1.339   0.496   2.036 -0.1018 -0.5128  0.1269
 6257SOL    HW130404   1.363   0.518   2.126 -0.5408 -2.0747  0.6353
 6257SOL    HW230405   1.388   0.413   2.043  1.1769  0.4787  2.7581
 6258SOL     OW30406   1.965   1.718   1.658  0.1241  0.0309 -0.4160
 6258SOL    HW130407   1.982   1.773   1.581  0.8987  1.6260  0.9188
 6258SOL    HW230408   1.927   1.641   1.615 -0.8608  0.6961 -0.7473
 6259SOL     OW30409   2.330   2.247  16.971  0.1290  0.4762 -0.1536
 6259SOL    HW130410   2.298   2.337  16.962 -0.2429  0.4241  0.6158
 6259SOL    HW230411   2.262   2.208  17.026  1.7634 -0.8120  0.9563
 6260SOL     OW30412   1.711   3.202   9.564  0.3891  0.3829 -0.4874
 6260SOL    HW130413   1.767   3.136   9.605 -0.9382  0.9022  2.1634
 6260SOL    HW230414   1.734   3.204   9.471 -0.7713  0.9670 -0.7570
 6261SOL     OW30415   3.667   0.800   7.130  0.1339 -0.7444 -0.2454
 6261SOL    HW130416   3.678   0.705   7.123  0.0700 -0.8550  1.2338
 6261SOL    HW230417   3.689   0.808   7.222 -2.2804 -1.1383  0.3644
 6262SOL     OW30418   4.105   4.274   7.494 -0.1357 -0.0555 -0.2404
 6262SOL    HW130419   4.153   4.357   7.499  0.9778 -0.6052 -1.7054
 6262SOL    HW230420   4.170   4.206   7.513 -0.1440 -0.5192 -1.8286
 6263SOL     OW30421   3.765   3.274   2.156  0.2920  0.3426  1.0224
 6263SOL    HW130422   3.789   3.282   2.063  0.0006  1.1141  1.0208
 6263SOL    HW230423   3.779   3.180   2.173 -0.6926 -0.0476 -0.3753
 6264SOL     OW30424   4.584   0.503   8.880  0.4240  0.5642  0.5616
 6264SOL    HW130425   4.659   0.561   8.894  1.2808 -0.6152  0.9038
 6264SOL    HW230426   4.543   0.518   8.965 -0.3877  4.7885 -0.6004
 6265SOL     OW30427   4.452   1.638   3.947 -0.0790 -0.1681 -0.4259
 6265SOL    HW130428   4.438   1.546   3.925  0.9800 -1.0305  2.3848
 6265SOL    HW230429   4.426   1.631   4.039 -0.0363 -2.2606 -0.5756
 6266SOL     OW30430   0.637   1.883   5.733  0.4659 -0.1490  0.1068
 6266SOL    HW130431   0.631   1.941   5.809  0.2295  1.0978 -0.8429
 6266SOL    HW230432   0.660   1.948   5.666 -0.5465  0.0122 -0.0842
 6267SOL     OW30433   2.382   2.811  13.230  0.7061 -0.1953 -0.3657
 6267SOL    HW130434   2.472   2.780  13.229  0.2325 -1.6035  0.7265
 6267SOL    HW230435   2.372   2.814  13.325  1.7390 -0.2770 -0.2580
 6268SOL     OW30436   2.331   3.310  10.324 -0.2963  0.2136  0.3814
 6268SOL    HW130437   2.415   3.295  10.280  0.4177 -0.3200  1.9157
 6268SOL    HW230438   2.354   3.395  10.362  1.1760 -0.4758  1.0345
 6269SOL     OW30439   1.383   2.026   8.079  0.5184 -0.0185  0.5295
 6269SOL    HW130440   1.452   2.078   8.037  0.0946 -0.6144 -0.9058
 6269SOL    HW230441   1.429   1.943   8.093  0.4650  0.0908  1.3470
 6270SOL     OW30442   0.589   2.655   8.989 -0.5452  0.1100  0.0687
 6270SOL    HW130443   0.598   2.661   8.894  1.1622  3.4478  0.4656
 6270SOL    HW230444   0.531   2.728   9.011 -0.0832  1.0257 -1.7622
 6271SOL     OW30445   0.142   0.361   7.818  0.1778  0.0870  0.1567
 6271SOL    HW130446   0.183   0.315   7.891  1.0989 -0.0704 -0.4537
 6271SOL    HW230447   0.219   0.412   7.791 -1.1943  2.1405  0.1064
 6272SOL     OW30448   0.654   3.677   5.578 -0.1382  0.2458  0.2330
 6272SOL    HW130449   0.591   3.716   5.639 -0.8848 -2.4675  1.2185
 6272SOL    HW230450   0.615   3.701   5.494 -0.9295  2.1158  1.1364
 6273SOL     OW30451   0.218   1.067  14.028 -0.1646  0.1858 -0.1504
 6273SOL    HW130452   0.268   1.132  14.077 -0.3772 -0.3629  0.8061
 6273SOL    HW230453   0.225   1.109  13.943 -0.8891 -0.6541 -0.6279
 6274SOL     OW30454   2.742   1.650   6.004 -0.1117  0.4685 -0.6134
 6274SOL    HW130455   2.680   1.587   6.041  0.4005 -0.8647 -1.9889
 6274SOL    HW230456   2.753   1.605   5.920  0.4528 -0.5083 -0.0054
 6275SOL     OW30457   3.264   3.793   3.731  0.3243  0.5298  0.2977
 6275SOL    HW130458   3.242   3.802   3.824 -0.1135  3.0455 -0.0420
 6275SOL    HW230459   3.176   3.803   3.693  0.1615 -2.1023 -0.0003
 6276SOL     OW30460   3.845   2.148   6.020  0.2905  0.0072  0.4453
 6276SOL    HW130461   3.772   2.090   5.998  0.8296 -0.2611 -0.6686
 6276SOL    HW230462   3.912   2.083   6.042  0.3884  0.2661  0.9204
 6277SOL     OW30463   3.485   1.064   1.707  0.2091  0.6663  0.7046
 6277SOL    HW130464   3.421   1.132   1.684 -2.0972 -1.2400  1.4407
 6277SOL    HW230465   3.560   1.112   1.673 -1.3134 -0.6065 -4.5316
 6278SOL     OW30466   2.802   1.947  13.837 -0.0074 -0.1811  0.2209
 6278SOL    HW130467   2.717   1.905  13.849 -0.0690 -0.1947 -0.2787
 6278SOL    HW230468   2.786   2.033  13.797 -1.6442  0.6707  2.6936
 6279SOL     OW30469   3.381   2.253  14.887  0.2954  0.2325 -0.6473
 6279SOL    HW130470   3.441   2.272  14.958 -0.3920 -0.7027  0.1831
 6279SOL    HW230471   3.441   2.230  14.815  0.7205 -1.4567  0.2447
 6280SOL     OW30472   0.690   2.902   5.894 -0.1822 -0.6660 -0.0886
 6280SOL    HW130473   0.724   2.981   5.852  0.5169 -0.7783  0.2676
 6280SOL    HW230474   0.770   2.849   5.891  0.3056  0.2670 -3.1868
 6281SOL     OW30475   2.452   4.273   1.043  0.2037  0.5820 -0.7805
 6281SOL    HW130476   2.413   4.332   0.978  0.0017 -0.2967 -1.4521
 6281SOL    HW230477   2.540   4.311   1.047  0.0338  0.8933  0.0769
 6282SOL     OW30478   1.327   0.566   4.446 -0.5611 -0.3340  0.4153
 6282SOL    HW130479   1.337   0.651   4.489  0.7747 -0.9072  1.2135
 6282SOL    HW230480   1.415   0.545   4.417 -1.0095  0.2863 -1.3663
 6283SOL     OW30481   1.433   2.834   5.659 -0.4435  0.2875 -0.0475
 6283SOL    HW130482   1.348   2.876   5.668 -1.1180 -1.0876 -0.0517
 6283SOL    HW230483   1.463   2.870   5.575  0.7430 -0.1630  0.1744
 6284SOL     OW30484   2.054   3.150   3.857 -0.2207 -0.3264 -0.1596
 6284SOL    HW130485   2.066   3.066   3.813 -3.4854 -0.3617 -0.9920
 6284SOL    HW230486   1.966   3.136   3.891 -0.6697  1.2639 -0.7059
 6285SOL     OW30487   0.464   2.045   2.007  0.4268  0.3306 -0.0769
 6285SOL    HW130488   0.456   2.129   1.961 -0.5881 -0.5367 -1.4777
 6285SOL    HW230489   0.442   2.073   2.096 -2.3448 -3.4955  0.4066
 6286SOL     OW30490   3.571   2.575   5.215  0.4702  0.1381  0.1901
 6286SOL    HW130491   3.652   2.618   5.188 -0.1393 -0.9740 -3.3770
 6286SOL    HW230492   3.550   2.611   5.301  0.8654  1.3538 -0.2194
 6287SOL     OW30493   1.036   0.960   3.256  0.5699  0.3056 -0.3046
 6287SOL    HW130494   1.127   0.963   3.224  0.1491 -0.2758 -1.5507
 6287SOL    HW230495   1.020   1.054   3.257  0.9968  0.4050 -2.4335
 6288SOL     OW30496   3.097   4.639   1.328  0.5251  0.1356  0.5241
 6288SOL    HW130497   3.139   4.612   1.246 -0.8149  0.6818 -0.3456
 6288SOL    HW230498   3.051   4.561   1.357 -0.9954  1.1374  0.8018
 6289SOL     OW30499   0.243   1.693   3.944 -0.5617 -0.4674 -0.2931
 6289SOL    HW130500   0.281   1.756   3.883  1.4209 -1.7348 -0.3731
 6289SOL    HW230501   0.196   1.763   3.990  1.2450 -0.9990  2.4160
 6290SOL     OW30502   0.657   3.106   8.804  0.5298 -0.6975  0.2544
 6290SOL    HW130503   0.599   3.127   8.877 -0.1590 -0.4064 -0.3795
 6290SOL    HW230504   0.716   3.181   8.805 -1.6029  1.0232 -1.9948
 6291SOL     OW30505   1.353   4.739   4.031 -0.2003  0.0219  0.6983
 6291SOL    HW130506   1.340   0.006   3.937 -1.3114 -1.0094  0.7783
 6291SOL    HW230507   1.446   0.022   4.029 -0.1243 -0.3729 -0.1310
 6292SOL     OW30508   3.673   4.245   2.344 -0.0644  0.1801 -0.1955
 6292SOL    HW130509   3.611   4.206   2.406  0.8421 -1.1899 -0.1666
 6292SOL    HW230510   3.701   4.160   2.310  2.1784 -0.2091  2.6149
 6293SOL     OW30511   4.027   4.520   0.324  0.3553 -0.3140  0.4544
 6293SOL    HW130512   4.030   4.437   0.275  1.9059 -0.2073  0.3694
 6293SOL    HW230513   3.956   4.497   0.384  0.8056 -0.6385  0.8653
 6294SOL     OW30514   3.749   2.235  14.802 -0.1963  0.6164 -0.2419
 6294SOL    HW130515   3.791   2.320  14.790  0.8339  0.3660  1.6212
 6294SOL    HW230516   3.761   2.186  14.721  2.0205 -0.6706  0.8620
 6295SOL     OW30517   0.981   3.472   4.056 -0.4089 -0.0903  0.3198
 6295SOL    HW130518   1.009   3.381   4.047  2.5354  0.6373  1.9785
 6295SOL    HW230519   0.910   3.474   3.992  0.7858  0.1133 -0.9935
 6296SOL     OW30520   0.601   4.460   7.736 -0.6864  0.3199  0.0614
 6296SOL    HW130521   0.513   4.454   7.772 -0.6466  0.5085  0.1925
 6296SOL    HW230522   0.610   4.556   7.740 -1.1655  0.3501  0.3811
 6297SOL     OW30523   3.369   4.555   7.594  0.4209 -0.5675  0.2638
 6297SOL    HW130524   3.446   4.589   7.549  0.5350  1.7086  2.1646
 6297SOL    HW230525   3.301   4.606   7.551 -0.5284 -1.7078  0.4117
 6298SOL     OW30526   3.198   0.976   5.107  0.2326 -0.2426  0.3901
 6298SOL    HW130527   3.116   1.010   5.071  1.1668  0.4296 -1.0979
 6298SOL    HW230528   3.216   0.900   5.052  0.1399  0.5221 -0.6992
 6299SOL     OW30529   0.711   3.977   5.652  0.5371 -0.2899 -0.8494
 6299SOL    HW130530   0.767   3.924   5.595 -0.8193 -0.8535 -1.6612
 6299SOL    HW230531   0.674   3.911   5.710 -1.9429  1.6754 -0.2269
 6300SOL     OW30532   4.502   0.584  15.017  0.2501 -0.1150  0.1786
 6300SOL    HW130533   4.469   0.657  15.070  0.3312  0.6063 -0.7694
 6300SOL    HW230534   4.489   0.512  15.079  1.1528 -0.6979 -0.3130
 6301SOL     OW30535   1.644   2.849   3.626  0.3149 -0.3443 -0.3502
 6301SOL    HW130536   1.683   2.841   3.539 -1.3399  0.3068 -1.1544
 6301SOL    HW230537   1.571   2.910   3.612  1.3597  0.7926 -0.8123
 6302SOL     OW30538   4.491   4.117   5.056  0.0865  0.5817  0.0591
 6302SOL    HW130539   4.446   4.126   4.972  1.1636  0.4500 -0.5441
 6302SOL    HW230540   4.524   4.205   5.074 -1.5702  0.8046  2.0167
 6303SOL     OW30541   1.266   1.454   8.671  0.0243  0.2123  0.1399
 6303SOL    HW130542   1.177   1.442   8.705  0.9432 -1.7552  1.8508
 6303SOL    HW230543   1.265   1.549   8.667 -1.5407 -0.0048 -4.9094
 6304SOL     OW30544   1.754   3.911   3.047 -0.1004  0.5342  0.6686
 6304SOL    HW130545   1.824   3.846   3.041  0.9677  1.8097 -0.7956
 6304SOL    HW230546   1.688   3.847   3.073  1.6491 -1.3164  0.5321
 6305SOL     OW30547   3.247   4.031   7.903  0.0571  0.0579 -0.5372
 6305SOL    HW130548   3.175   4.006   7.961  0.0773  2.4691  0.5172
 6305SOL    HW230549   3.261   3.949   7.856  0.0674  0.2704 -0.8999
 6306SOL     OW30550   3.795   1.462  17.471  0.0470 -0.2026  0.8468
 6306SOL    HW130551   3.708   1.499  17.462 -0.6201 -1.7632  0.9360
 6306SOL    HW230552   3.858   1.534  17.479  0.7669 -0.8999  1.5203
 6307SOL     OW30553   2.586   4.119   6.115 -0.3134 -0.2159  0.0284
 6307SOL    HW130554   2.563   4.174   6.191  2.1066 -0.1187  0.6724
 6307SOL    HW230555   2.542   4.036   6.132 -0.8496  0.0542 -0.0279
 6308SOL     OW30556   3.416   4.629   2.040  0.2850  0.5978  0.2553
 6308SOL    HW130557   3.485   4.660   1.982  0.8334  0.1012  0.6427
 6308SOL    HW230558   3.468   4.605   2.117  1.2128  0.4839 -0.4111
 6309SOL     OW30559   4.692   0.511  11.032  0.0793 -0.5852 -0.5753
 6309SOL    HW130560   0.010   0.438  11.011  1.5151 -0.2652  2.2742
 6309SOL    HW230561   0.012   0.555  11.093 -0.8553 -0.2759  0.1255
 6310SOL     OW30562   3.024   4.140   3.856 -0.3207 -0.4281  0.4679
 6310SOL    HW130563   3.029   4.235   3.850 -2.9965 -0.5610 -3.6357
 6310SOL    HW230564   3.048   4.114   3.766  1.6414 -0.0230  0.8659
 6311SOL     OW30565   4.244   4.135  15.882 -0.2724  0.0774 -0.3938
 6311SOL    HW130566   4.308   4.066  15.897  0.9757  1.6239  1.2956
 6311SOL    HW230567   4.226   4.168  15.970  1.7898  0.7119 -0.2156
 6312SOL     OW30568   2.239   0.189   5.942  0.1656  0.3590  0.2675
 6312SOL    HW130569   2.315   0.131   5.951  0.2335  0.4093  0.0221
 6312SOL    HW230570   2.164   0.134   5.920  0.2808 -0.0465  0.8797
 6313SOL     OW30571   1.618   2.976   2.040 -0.4162  0.0069  0.1118
 6313SOL    HW130572   1.558   2.912   2.079 -0.2714 -0.8598 -1.0591
 6313SOL    HW230573   1.663   2.935   1.966 -0.7854  1.7324 -1.0659
 6314SOL     OW30574   0.446   0.519  17.523  0.1148  0.1578  0.1917
 6314SOL    HW130575   0.397   0.539  17.443 -0.2901 -1.6781 -0.0160
 6314SOL    HW230576   0.524   0.571  17.506 -0.1617  0.0724 -1.3047
 6315SOL     OW30577   0.503   4.347   8.069 -0.5423 -0.3209 -0.6045
 6315SOL    HW130578   0.517   4.440   8.052  1.2726 -0.3202  0.9010
 6315SOL    HW230579   0.582   4.318   8.114 -0.5072  1.2494  0.3230
 6316SOL     OW30580   3.483   3.054   2.326 -0.6095 -0.5438 -0.3555
 6316SOL    HW130581   3.492   3.148   2.336  0.9643 -0.8019  0.6299
 6316SOL    HW230582   3.444   3.039   2.239 -0.1193 -1.0047 -0.4982
 6317SOL     OW30583   3.879   2.398   6.232 -0.0581  0.1877 -0.0986
 6317SOL    HW130584   3.890   2.385   6.138  2.5045 -0.0666  0.2267
 6317SOL    HW230585   3.896   2.308   6.263 -0.3160  0.1248 -0.1413
 6318SOL     OW30586   0.807   2.750   2.842 -0.3075  0.0052 -0.1953
 6318SOL    HW130587   0.778   2.833   2.803  0.8691  0.6049  0.2098
 6318SOL    HW230588   0.895   2.775   2.870 -0.5611  0.9763 -0.2719
 6319SOL     OW30589   3.013   4.391   2.217  0.3182 -0.0746  0.4192
 6319SOL    HW130590   3.106   4.372   2.231  1.0741  1.5338 -2.4996
 6319SOL    HW230591   2.988   4.302   2.192 -0.3668  0.9927 -2.6056
 6320SOL     OW30592   2.603   1.134   9.325 -0.5819 -0.2313 -0.0883
 6320SOL    HW130593   2.524   1.164   9.371  0.1322 -0.5822  1.3603
 6320SOL    HW230594   2.558   1.080   9.260  2.2256  1.6723 -3.6451
 6321SOL     OW30595   4.076   2.063   7.815 -0.6874  0.6481  0.1120
 6321SOL    HW130596   4.033   1.987   7.777 -0.0852  0.6367 -0.5469
 6321SOL    HW230597   4.085   2.111   7.732 -0.2797 -1.2227 -0.9208
 6322SOL     OW30598   3.668   1.422   3.018 -0.1720 -0.3409  0.0676
 6322SOL    HW130599   3.644   1.339   3.061 -2.3475  0.9460  1.3351
 6322SOL    HW230600   3.620   1.403   2.937  1.1077 -2.0116 -0.2996
 6323SOL     OW30601   3.548   0.200  10.098 -0.0953  0.2653 -0.3675
 6323SOL    HW130602   3.566   0.226  10.008  1.4505 -0.6260 -0.3192
 6323SOL    HW230603   3.567   0.285  10.137 -0.0342 -0.0347  0.2637
 6324SOL     OW30604   2.656   1.729   8.933  0.2307 -0.0575  0.2155
 6324SOL    HW130605   2.575   1.687   8.962 -0.2101  0.7117  0.1048
 6324SOL    HW230606   2.705   1.657   8.894  0.1791 -0.2129  0.4361
 6325SOL     OW30607   1.919   2.600  12.151  0.1108  0.2076 -0.0084
 6325SOL    HW130608   1.825   2.615  12.137  0.1826 -0.1682 -0.8922
 6325SOL    HW230609   1.915   2.612  12.246 -3.2871 -0.0648 -0.1141
 6326SOL     OW30610   3.293   3.618   7.785  0.0002  0.4308 -0.0491
 6326SOL    HW130611   3.321   3.694   7.734 -0.1810  0.5202 -0.0187
 6326SOL    HW230612   3.199   3.617   7.765 -0.3832  0.0590  1.7384
 6327SOL     OW30613   2.290   3.239   4.979  1.0992 -0.2672  0.0469
 6327SOL    HW130614   2.251   3.327   4.986  1.6531 -0.1773  2.0257
 6327SOL    HW230615   2.347   3.250   4.903 -1.1284  0.7485 -1.4829
 6328SOL     OW30616   2.832   2.503   7.836  0.4673 -0.2165 -0.2069
 6328SOL    HW130617   2.809   2.566   7.768  0.4372 -1.5771 -1.4525
 6328SOL    HW230618   2.747   2.486   7.879  0.9591  0.7339  1.1272
 6329SOL     OW30619   4.252   4.229   6.117  0.0293  0.4346  0.1078
 6329SOL    HW130620   4.326   4.266   6.166 -0.0769  1.4721 -0.5071
 6329SOL    HW230621   4.243   4.148   6.167 -1.0957  0.3955 -0.1518
 6330SOL     OW30622   0.830   0.417   8.826  0.1519 -0.1613 -0.1735
 6330SOL    HW130623   0.878   0.336   8.839 -1.3957 -0.8728  1.0948
 6330SOL    HW230624   0.762   0.370   8.777  1.2525 -0.0329 -1.8415
 6331SOL     OW30625   2.058   3.056   7.392  0.8046  0.8546 -0.1691
 6331SOL    HW130626   2.058   3.072   7.298  0.9241  0.4626 -0.2351
 6331SOL    HW230627   2.137   3.003   7.400 -0.8663 -1.2902  2.2794
 6332SOL     OW30628   3.797   1.909   9.181 -0.0187 -0.0038  0.2200
 6332SOL    HW130629   3.830   1.825   9.213  0.1481  0.1466  0.4495
 6332SOL    HW230630   3.874   1.961   9.203  0.0043  0.2929 -0.5529
 6333SOL     OW30631   0.467   3.983   4.768  0.0496 -0.5938  0.5926
 6333SOL    HW130632   0.512   3.900   4.782  1.0000 -0.2443 -0.4673
 6333SOL    HW230633   0.382   3.941   4.751  0.2257 -0.8085  0.2565
 6334SOL     OW30634   2.950   2.455   6.569 -0.1544 -0.1805  0.0059
 6334SOL    HW130635   3.013   2.504   6.515 -0.4200 -0.7438 -0.8177
 6334SOL    HW230636   2.976   2.477   6.658 -1.2009  1.5986 -0.1365
 6335SOL     OW30637   0.434   4.517   3.747  0.5966  0.5021 -0.2012
 6335SOL    HW130638   0.427   4.504   3.653  0.3034 -0.1259 -0.0957
 6335SOL    HW230639   0.380   4.593   3.764  0.1959  0.7377 -2.5617
 6336SOL     OW30640   3.597   0.123  10.491 -0.7229  0.3743 -0.2000
 6336SOL    HW130641   3.502   0.128  10.507 -0.5089  0.5860  0.9869
 6336SOL    HW230642   3.630   0.153  10.575 -0.8470  1.3882 -0.5234
 6337SOL     OW30643   0.740   1.737   2.370 -0.1891 -0.3931 -0.0489
 6337SOL    HW130644   0.683   1.671   2.409 -0.7885  0.9039  1.2355
 6337SOL    HW230645   0.691   1.762   2.291  1.1813  0.9045 -0.4974
 6338SOL     OW30646   4.726   0.350   3.881 -0.5024 -0.3449  0.4262
 6338SOL    HW130647   4.735   0.441   3.856  0.7608 -0.2638  1.2222
 6338SOL    HW230648   4.669   0.307   3.816 -1.1349  0.7593  0.2528
 6339SOL     OW30649   3.527   3.168   3.990  0.1209 -0.1308  0.2953
 6339SOL    HW130650   3.470   3.137   3.920  2.5551  0.5841 -2.0153
 6339SOL    HW230651   3.461   3.184   4.058 -0.1291 -5.5611  1.2706
 6340SOL     OW30652   3.150   1.673  13.190 -0.1920 -0.0192 -0.1339
 6340SOL    HW130653   3.081   1.650  13.128  1.3360 -1.8807 -1.1577
 6340SOL    HW230654   3.139   1.620  13.269  1.2468 -0.5109 -0.2573
 6341SOL     OW30655   2.375   3.569  15.984 -0.0380 -0.2571  0.7442
 6341SOL    HW130656   2.322   3.611  15.917  1.5493 -0.2890 -0.5205
 6341SOL    HW230657   2.338   3.481  15.980  1.1206 -0.7078  0.1259
 6342SOL     OW30658   1.829   2.495   2.809  0.3184  0.1251 -1.0369
 6342SOL    HW130659   1.851   2.425   2.747 -1.4536 -0.5514 -0.9174
 6342SOL    HW230660   1.736   2.488   2.789  0.3999  1.4832 -1.9167
 6343SOL     OW30661   2.352   3.397   1.820  0.2701 -0.1390  0.8405
 6343SOL    HW130662   2.350   3.484   1.778 -2.8006 -0.5776  0.0782
 6343SOL    HW230663   2.333   3.417   1.912 -1.4213  0.7181  0.3074
 6344SOL     OW30664   3.238   2.524  14.983  0.0349  0.0397  0.6289
 6344SOL    HW130665   3.300   2.477  15.039 -1.5020 -0.3903  1.9812
 6344SOL    HW230666   3.161   2.527  15.039  1.2219 -0.8408  2.3271
 6345SOL     OW30667   0.660   3.610  10.987  0.4902  0.3933 -0.3370
 6345SOL    HW130668   0.617   3.541  11.037 -0.2108  1.3353  0.3659
 6345SOL    HW230669   0.748   3.613  11.023  0.3878 -0.3926 -0.0333
 6346SOL     OW30670   0.137   1.832   8.135  0.4863 -0.6008  0.0954
 6346SOL    HW130671   0.106   1.743   8.119 -0.0424 -0.1196 -1.5789
 6346SOL    HW230672   0.112   1.842   8.226  1.7306 -0.0045  0.3788
 6347SOL     OW30673   2.214   2.166  11.693 -0.0901  0.3429 -0.0733
 6347SOL    HW130674   2.219   2.211  11.777  2.3073 -1.8726  0.9402
 6347SOL    HW230675   2.201   2.248  11.646 -2.0729  0.5520  0.8025
 6348SOL     OW30676   1.714   0.748   5.053 -0.2569 -0.0096  0.6008
 6348SOL    HW130677   1.702   0.709   4.966  2.6945 -0.5666  0.4662
 6348SOL    HW230678   1.764   0.826   5.028 -2.3955  1.1263 -0.1617
 6349SOL     OW30679   1.144   0.586   6.059  0.0283 -0.0901 -0.3558
 6349SOL    HW130680   1.229   0.553   6.033  0.7658  1.7661 -0.3248
 6349SOL    HW230681   1.164   0.677   6.036  1.2651 -0.3544 -0.3157
 6350SOL     OW30682   4.335   4.435  11.313 -0.8255 -0.2010  0.1782
 6350SOL    HW130683   4.427   4.461  11.315 -0.8763  0.0065 -0.2255
 6350SOL    HW230684   4.343   4.348  11.275 -1.2105  0.3600 -1.1910
 6351SOL     OW30685   1.487   3.294   8.132 -0.4066 -0.3227 -0.6125
 6351SOL    HW130686   1.470   3.220   8.073 -1.0455  1.1266 -2.2665
 6351SOL    HW230687   1.563   3.253   8.172 -0.6180 -0.2706 -0.1585
 6352SOL     OW30688   0.095   3.730   4.636  0.2345  0.0812 -0.2613
 6352SOL    HW130689   0.037   3.718   4.561 -0.3327 -1.6623  0.4688
 6352SOL    HW230690   0.029   3.774   4.691  1.7445  1.5060  0.4259
 6353SOL     OW30691   4.320   0.555   7.477 -0.5732  0.1863 -0.5482
 6353SOL    HW130692   4.260   0.495   7.432 -2.4554  1.9546 -0.4004
 6353SOL    HW230693   4.388   0.566   7.411  0.6372 -1.1004  0.4740
 6354SOL     OW30694   3.799   0.561   5.819  0.0814  0.0010  0.2670
 6354SOL    HW130695   3.727   0.593   5.764  1.2915  2.3233  0.0499
 6354SOL    HW230696   3.818   0.637   5.873  1.5251  1.5202 -2.3662
 6355SOL     OW30697   3.341   0.776   2.078 -0.3881 -0.1844  0.5662
 6355SOL    HW130698   3.319   0.815   1.993  0.8460  1.4242  0.9863
 6355SOL    HW230699   3.342   0.859   2.125 -1.6655  0.4485 -0.5010
 6356SOL     OW30700   1.031   3.567   6.590 -0.3085  0.1123 -0.7155
 6356SOL    HW130701   1.071   3.619   6.520 -3.6684  1.8721 -1.2814
 6356SOL    HW230702   0.969   3.517   6.538  0.1580 -2.5034  1.2423
 6357SOL     OW30703   0.453   1.649  10.872 -0.3274 -0.0103  0.0008
 6357SOL    HW130704   0.411   1.654  10.786 -0.2668  0.8526  0.0158
 6357SOL    HW230705   0.544   1.637  10.845  0.1155 -0.6919  1.8047
 6358SOL     OW30706   0.686   2.970   6.774  0.3002  0.2267  0.2645
 6358SOL    HW130707   0.719   3.036   6.714  2.8923 -1.0993  0.2353
 6358SOL    HW230708   0.755   2.961   6.840  0.7315 -0.4846 -0.2914
 6359SOL     OW30709   2.273   0.603   3.677  0.1489  0.3362  0.2062
 6359SOL    HW130710   2.333   0.619   3.749  1.5708 -0.2190 -0.8460
 6359SOL    HW230711   2.192   0.650   3.697  0.7997  0.6565  2.0124
 6360SOL     OW30712   2.198   2.872  12.922  0.0788  0.2845 -0.3458
 6360SOL    HW130713   2.123   2.817  12.941 -0.0036  0.8390  0.9306
 6360SOL    HW230714   2.200   2.929  12.999 -2.2725  0.0533 -0.1256
 6361SOL     OW30715   2.862   2.758   6.583  0.4141  0.2571 -0.3401
 6361SOL    HW130716   2.954   2.779   6.568  0.0256  2.3408  0.1506
 6361SOL    HW230717   2.864   2.768   6.679  0.3857  0.6435 -0.3807
 6362SOL     OW30718   4.728   0.246   0.959 -0.4069 -0.3415  0.0182
 6362SOL    HW130719   0.069   0.296   0.963 -2.8539  3.6389  0.9486
 6362SOL    HW230720   0.007   0.196   0.881  0.2594  0.7795 -0.5427
 6363SOL     OW30721   0.230   0.374   2.481 -0.3735  0.1074  0.1226
 6363SOL    HW130722   0.209   0.282   2.499  0.5485 -0.0113  0.5801
 6363SOL    HW230723   0.166   0.390   2.411 -0.1587 -1.2835 -0.4086
 6364SOL     OW30724   2.210   0.967   8.363  0.1358  0.2955 -0.4358
 6364SOL    HW130725   2.228   0.879   8.329 -1.6163  0.0776 -0.8352
 6364SOL    HW230726   2.195   0.957   8.457 -0.9252 -0.0812 -0.6446
 6365SOL     OW30727   3.346   0.513   5.526 -0.1354 -0.5756 -0.0795
 6365SOL    HW130728   3.384   0.523   5.439 -1.4997 -0.8371 -0.7009
 6365SOL    HW230729   3.272   0.574   5.533  0.6206  0.1796  1.3262
 6366SOL     OW30730   2.219   1.150   2.860  0.0700  0.3726  0.2474
 6366SOL    HW130731   2.265   1.160   2.777  0.0353 -2.6284 -0.1081
 6366SOL    HW230732   2.194   1.238   2.888  0.1778  0.9329 -1.4258
 6367SOL     OW30733   1.237   2.513   3.339 -0.5085 -0.5044 -0.2754
 6367SOL    HW130734   1.218   2.490   3.248  0.5400 -1.0608 -0.3612
 6367SOL    HW230735   1.153   2.495   3.380 -0.6048  0.3269 -0.1094
 6368SOL     OW30736   4.445   1.723  13.769 -0.1760 -0.2978 -0.0466
 6368SOL    HW130737   4.375   1.734  13.704 -0.6486 -1.9878  0.1769
 6368SOL    HW230738   4.491   1.647  13.734 -0.6847 -0.2214 -0.8799
 6369SOL     OW30739   2.250   4.657   4.467  0.0620  0.5529 -0.0693
 6369SOL    HW130740   2.333   4.683   4.506  2.2552 -1.1498 -3.6775
 6369SOL    HW230741   2.200   4.738   4.456  1.5595  1.8972  3.0265
 6370SOL     OW30742   2.446   1.073  15.372 -0.3830  0.6429  0.0063
 6370SOL    HW130743   2.477   1.044  15.457 -0.5756 -0.2832 -0.2417
 6370SOL    HW230744   2.380   1.010  15.344  0.7034 -0.9652  1.0628
 6371SOL     OW30745   4.199   2.295   9.857  0.0240  0.1818 -0.1784
 6371SOL    HW130746   4.107   2.270   9.848  0.1431 -0.6113  0.8070
 6371SOL    HW230747   4.216   2.351   9.781 -3.2973  2.5208  0.7655
 6372SOL     OW30748   0.749   0.189   3.540  0.1049  0.2973 -0.1704
 6372SOL    HW130749   0.829   0.141   3.564 -2.5305 -3.6573  0.6690
 6372SOL    HW230750   0.692   0.119   3.571  1.6258 -0.0460  1.8492
 6373SOL     OW30751   3.589   3.480   7.294 -0.4634 -0.0568  0.1876
 6373SOL    HW130752   3.592   3.390   7.260  0.0151 -0.3729  1.0715
 6373SOL    HW230753   3.497   3.505   7.306 -0.4947  0.4877 -1.1317
 6374SOL     OW30754   0.946   0.230   4.212 -0.2645 -0.6032 -0.2626
 6374SOL    HW130755   0.994   0.147   4.213 -1.8597 -1.5117  1.1550
 6374SOL    HW230756   1.013   0.299   4.208  0.6233 -1.3865  1.0698
 6375SOL     OW30757   0.431   2.271   3.514  0.4208 -0.1574 -0.3540
 6375SOL    HW130758   0.442   2.352   3.465 -2.2947 -0.2081 -1.0466
 6375SOL    HW230759   0.501   2.275   3.580  0.5360 -1.7296 -0.3857
 6376SOL     OW30760   1.051   4.315   1.877  0.3319 -0.1304  0.4428
 6376SOL    HW130761   0.999   4.258   1.821 -0.5927  0.3593  0.7910
 6376SOL    HW230762   0.982   4.363   1.924  0.1071  0.8226 -0.8694
 6377SOL     OW30763   4.068   2.875   5.050 -0.9932  0.2296 -0.7471
 6377SOL    HW130764   4.059   2.788   5.087  0.1471  1.1842  1.7701
 6377SOL    HW230765   3.981   2.914   5.047 -0.8521  0.7571  3.0321
 6378SOL     OW30766   3.657   1.848   5.555  0.1707 -0.3176 -0.2599
 6378SOL    HW130767   3.571   1.819   5.586  0.6042  1.4339  2.5894
 6378SOL    HW230768   3.627   1.902   5.482 -1.0973 -0.2013  0.3391
 6379SOL     OW30769   0.450   2.907  10.119 -0.1438  0.4409 -0.7963
 6379SOL    HW130770   0.463   2.832  10.177  0.3382  1.9304  0.9843
 6379SOL    HW230771   0.541   2.926  10.094  1.0939 -0.7325  2.9003
 6380SOL     OW30772   2.809   3.067   6.942  0.1918  0.2778 -0.3287
 6380SOL    HW130773   2.802   3.125   6.866  2.8125  3.2773  1.7802
 6380SOL    HW230774   2.775   3.120   7.014  0.0533 -1.2721  0.7619
 6381SOL     OW30775   4.362   2.933   7.244  0.7329 -0.3446 -0.6824
 6381SOL    HW130776   4.394   2.935   7.154  3.3932 -0.7994  0.2692
 6381SOL    HW230777   4.310   2.852   7.242 -1.9386  1.3686 -0.8790
 6382SOL     OW30778   0.848   4.581   5.494  0.1930 -0.4849 -0.3999
 6382SOL    HW130779   0.775   4.586   5.556  2.5380 -1.9510  2.5097
 6382SOL    HW230780   0.920   4.565   5.556  2.0549 -0.0373 -2.4584
 6383SOL     OW30781   1.419   2.764   4.694 -0.4066 -0.2232  0.0204
 6383SOL    HW130782   1.417   2.793   4.603 -2.9971 -1.8416 -0.4325
 6383SOL    HW230783   1.332   2.726   4.707 -0.2573 -0.9784 -1.1979
 6384SOL     OW30784   2.712   1.215   4.859 -0.2128  0.4255 -0.4377
 6384SOL    HW130785   2.678   1.203   4.770 -0.5402 -4.0415  0.2845
 6384SOL    HW230786   2.733   1.305   4.834  1.7146  0.2751  0.5761
 6385SOL     OW30787   2.888   3.646   6.416  0.1316  0.2774  0.2413
 6385SOL    HW130788   2.839   3.567   6.394  2.4311 -1.4781  1.5565
 6385SOL    HW230789   2.810   3.700   6.431  2.1065  2.6411  2.0501
 6386SOL     OW30790   2.354   4.461   6.151 -0.3458 -0.6038  0.4981
 6386SOL    HW130791   2.323   4.371   6.164 -0.1413 -0.3653  2.6319
 6386SOL    HW230792   2.370   4.503   6.235 -0.3034  0.2127  0.0752
 6387SOL     OW30793   4.078   4.610   1.737 -0.0609  0.6539  0.0020
 6387SOL    HW130794   4.159   4.558   1.737 -1.2952 -1.2290  0.6293
 6387SOL    HW230795   4.104   4.671   1.668  1.6678 -0.4624 -0.3365
 6388SOL     OW30796   2.491   1.351   8.740  0.4315 -0.2371  0.6322
 6388SOL    HW130797   2.459   1.420   8.682 -2.0541 -0.9187  1.2284
 6388SOL    HW230798   2.440   1.273   8.721 -0.1205  0.3224 -0.2155
 6389SOL     OW30799   3.717   0.400   5.474  0.1233  0.1276 -0.2124
 6389SOL    HW130800   3.660   0.465   5.435  0.3885 -0.0863 -0.9539
 6389SOL    HW230801   3.657   0.364   5.540  2.2743  0.2188  1.8125
 6390SOL     OW30802   4.297   4.314   2.935 -0.2510 -0.1187 -0.6109
 6390SOL    HW130803   4.338   4.397   2.962 -0.2923 -0.7436  1.4140
 6390SOL    HW230804   4.205   4.319   2.964  0.1605  3.3933  0.1001
 6391SOL     OW30805   0.274   2.249  12.114  0.3838 -0.0045 -0.2214
 6391SOL    HW130806   0.342   2.308  12.147  0.3845  0.7983 -1.6160
 6391SOL    HW230807   0.266   2.281  12.024  0.6708 -0.6273 -0.4687
 6392SOL     OW30808   1.393   3.938   2.136 -0.1384  0.4662  0.6415
 6392SOL    HW130809   1.457   3.949   2.206  0.7877 -1.0676  0.0355
 6392SOL    HW230810   1.416   3.850   2.107  0.9942  1.0568 -0.2584
 6393SOL     OW30811   1.815   2.734   9.441  0.1379  0.1120 -0.2144
 6393SOL    HW130812   1.757   2.738   9.365 -0.1560 -0.9284 -0.0429
 6393SOL    HW230813   1.757   2.704   9.510  1.0178 -1.4049 -0.1293
 6394SOL     OW30814   1.269   0.183   3.728  0.3495  0.4833 -0.0798
 6394SOL    HW130815   1.194   0.193   3.788 -0.2603  1.2021 -0.9509
 6394SOL    HW230816   1.254   0.094   3.697  0.3833  1.1601 -2.0071
 6395SOL     OW30817   4.452   3.463   6.338 -0.3503 -0.2275 -0.2686
 6395SOL    HW130818   4.425   3.386   6.288 -0.7302 -0.0502 -0.3323
 6395SOL    HW230819   4.533   3.426   6.374 -1.3125 -1.9562  0.0842
 6396SOL     OW30820   1.976   1.682  10.519  0.3630  0.7128 -0.2039
 6396SOL    HW130821   1.882   1.670  10.532 -0.0516  2.4261 -1.6899
 6396SOL    HW230822   1.993   1.741  10.591  0.4690  0.2642  0.1420
 6397SOL     OW30823   2.580   1.113   5.326 -0.0634 -0.0120  0.0479
 6397SOL    HW130824   2.630   1.192   5.343 -0.8418  0.2431  1.1772
 6397SOL    HW230825   2.656   1.055   5.323  1.2091  1.7810 -1.7940
 6398SOL     OW30826   0.516   1.194   4.586 -0.9310  0.5021 -0.3153
 6398SOL    HW130827   0.543   1.105   4.610 -1.6919  1.2255  3.2776
 6398SOL    HW230828   0.459   1.216   4.660 -0.9721 -0.7520  0.0274
 6399SOL     OW30829   4.135   0.907  17.694  0.4946  0.2517  0.2401
 6399SOL    HW130830   4.059   0.930  17.748 -0.6115  0.3971 -1.3831
 6399SOL    HW230831   4.083   0.860  17.628 -0.4138  0.5231  0.7658
 6400SOL     OW30832   4.259   2.083  12.165 -0.5188 -1.0675 -0.2599
 6400SOL    HW130833   4.307   2.003  12.144  0.8387 -0.1877 -0.4698
 6400SOL    HW230834   4.280   2.140  12.092 -2.2010 -1.9286 -1.4259
 6401SOL     OW30835   1.505   3.942   0.531  0.1328 -0.1903 -0.3862
 6401SOL    HW130836   1.551   4.025   0.544 -1.0885  0.5361 -0.6408
 6401SOL    HW230837   1.528   3.899   0.613 -0.2294  1.8027  0.7756
 6402SOL     OW30838   1.776   2.941   2.713 -0.0259  0.4059  0.0748
 6402SOL    HW130839   1.684   2.965   2.725  0.4919  2.1320  0.5247
 6402SOL    HW230840   1.773   2.905   2.624 -1.5910 -0.1084  0.3377
 6403SOL     OW30841   4.713   3.828   7.873 -0.1821  0.0594 -0.0817
 6403SOL    HW130842   4.728   3.921   7.894  0.3572 -0.4494  1.7919
 6403SOL    HW230843   4.703   3.803   7.965 -1.6715 -3.5242 -1.2552
 6404SOL     OW30844   0.118   1.513  10.391  0.6426 -0.1344 -0.2256
 6404SOL    HW130845   0.210   1.528  10.408  0.6608  0.2092 -0.6193
 6404SOL    HW230846   0.092   1.605  10.381 -2.1581 -0.9681 -0.7607
 6405SOL     OW30847   0.338   1.456   0.059 -0.1050  0.1448  0.0550
 6405SOL    HW130848   0.315   1.523  17.753 -0.2653  1.6240  1.6933
 6405SOL    HW230849   0.422   1.477   0.099 -1.1843  1.4203  1.6168
 6406SOL     OW30850   2.435   3.062   6.408 -0.1846 -0.0532  0.2055
 6406SOL    HW130851   2.497   3.013   6.462 -0.7904 -3.0164 -1.8321
 6406SOL    HW230852   2.412   2.999   6.340  0.5944 -1.0683  0.8950
 6407SOL     OW30853   1.835   2.375  15.647 -0.3077  0.2724 -0.2984
 6407SOL    HW130854   1.769   2.437  15.678  0.3540  0.4939  0.6377
 6407SOL    HW230855   1.788   2.311  15.593  0.4523 -2.0959  1.8665
 6408SOL     OW30856   1.953   3.923   6.318 -0.1194 -0.3443  1.1828
 6408SOL    HW130857   1.876   3.914   6.374 -1.7595 -0.8032 -1.1362
 6408SOL    HW230858   1.960   3.831   6.295 -1.6515 -0.6299  1.8948
 6409SOL     OW30859   2.056   2.235   5.147 -0.5029  0.2987 -0.0070
 6409SOL    HW130860   2.033   2.324   5.174  0.3089  0.3435  0.5731
 6409SOL    HW230861   2.060   2.239   5.052  0.0311 -1.2888 -0.0416
 6410SOL     OW30862   0.021   2.221  17.605  0.1814  0.5059  0.3583
 6410SOL    HW130863   4.704   2.145  17.592 -1.3486  1.8914 -0.8703
 6410SOL    HW230864   0.070   2.185  17.679 -0.3449 -1.3898 -0.2037
 6411SOL     OW30865   0.072   3.052  11.815  0.1913  0.3267 -0.2988
 6411SOL    HW130866   0.054   3.142  11.843 -2.3189 -0.4807  0.7128
 6411SOL    HW230867   0.129   3.019  11.885  2.0752 -0.3228 -2.1267
 6412SOL     OW30868   2.787   4.449   5.774  0.0246  0.1972 -0.3712
 6412SOL    HW130869   2.727   4.442   5.848 -0.1515 -0.0745 -0.5359
 6412SOL    HW230870   2.791   4.544   5.775  0.1565  0.1748  0.5718
 6413SOL     OW30871   4.628   4.551  13.480 -0.6002 -0.3527  0.1784
 6413SOL    HW130872   4.714   4.551  13.436  0.2922  2.3165  1.9924
 6413SOL    HW230873   4.620   4.460  13.508 -1.9070 -0.1559  0.4382
 6414SOL     OW30874   3.109   2.452   2.341  0.1017  0.3401 -0.1001
 6414SOL    HW130875   3.108   2.405   2.425 -1.9655 -1.9587 -1.4321
 6414SOL    HW230876   3.028   2.422   2.299 -0.2028 -2.7632  2.6805
 6415SOL     OW30877   1.516   4.222  16.594 -0.6851  0.1298  0.1789
 6415SOL    HW130878   1.524   4.140  16.644  0.5780  0.7872  1.0423
 6415SOL    HW230879   1.607   4.245  16.577 -0.4154 -2.0923 -1.3365
 6416SOL     OW30880   1.876   3.781   3.713 -0.0162 -0.0683  0.3689
 6416SOL    HW130881   1.878   3.767   3.618  4.1378  0.3052  0.4010
 6416SOL    HW230882   1.876   3.877   3.712  0.4700 -0.1417 -5.9901
 6417SOL     OW30883   0.419   0.219   3.765 -0.1384  0.7000 -0.7113
 6417SOL    HW130884   0.487   0.270   3.809 -1.8825  1.9329  0.5656
 6417SOL    HW230885   0.475   0.188   3.694 -1.0124  0.1539 -1.1571
 6418SOL     OW30886   3.892   3.015   8.860 -0.3182  0.3146  0.2996
 6418SOL    HW130887   3.802   3.027   8.890 -0.5035  2.2665 -1.0289
 6418SOL    HW230888   3.900   2.921   8.849  0.9119  0.6811 -1.9854
 6419SOL     OW30889   2.214   4.343   6.672 -0.1547 -1.0832  0.1150
 6419SOL    HW130890   2.175   4.355   6.759  0.0623 -1.3846  0.2502
 6419SOL    HW230891   2.303   4.316   6.692  0.0195 -0.5648  0.0501
 6420SOL     OW30892   1.643   3.617   0.295  0.3014 -0.6787 -0.4556
 6420SOL    HW130893   1.645   3.605   0.390 -1.2192 -2.2496 -0.6068
 6420SOL    HW230894   1.596   3.700   0.291 -0.0833 -0.8524  0.6588
 6421SOL     OW30895   3.238   3.947   3.047 -0.2762 -0.5493  0.0050
 6421SOL    HW130896   3.176   3.875   3.063  0.8046 -1.2861  0.8515
 6421SOL    HW230897   3.184   4.025   3.064 -0.7774 -0.9840  0.4167
 6422SOL     OW30898   3.730   0.525   3.968  0.0506 -0.3455 -0.3578
 6422SOL    HW130899   3.706   0.578   4.045  0.4142  0.0129 -0.4908
 6422SOL    HW230900   3.825   0.525   3.979  0.0502 -1.5971 -0.4242
 6423SOL     OW30901   2.563   2.720   5.128 -0.9535  0.3213  0.3845
 6423SOL    HW130902   2.469   2.724   5.145 -0.8227  0.0841  1.1801
 6423SOL    HW230903   2.588   2.812   5.134 -0.3367  0.1915 -0.1453
 6424SOL     OW30904   2.903   4.421  10.161 -0.3710  0.4693 -0.2564
 6424SOL    HW130905   2.920   4.487  10.094  1.5725  0.9136  0.7006
 6424SOL    HW230906   2.986   4.414  10.207  0.0542 -0.5001 -1.1735
 6425SOL     OW30907   1.931   0.326   2.968 -0.4804 -0.1182 -0.0546
 6425SOL    HW130908   1.908   0.315   3.060 -3.3709  0.5832 -0.6920
 6425SOL    HW230909   1.937   0.238   2.930 -0.0831 -0.0048 -0.2513
 6426SOL     OW30910   2.333   4.426   3.682 -0.3309 -0.5081 -0.1307
 6426SOL    HW130911   2.388   4.468   3.615  2.0628  0.0149  2.1545
 6426SOL    HW230912   2.255   4.401   3.632 -2.5677  2.3388  1.9993
 6427SOL     OW30913   3.667   3.353   6.991 -0.4574  0.2474 -0.6197
 6427SOL    HW130914   3.632   3.304   7.064 -0.3728  1.9948  0.6026
 6427SOL    HW230915   3.591   3.409   6.974 -0.6011  1.0486  2.6393
 6428SOL     OW30916   3.047   4.507  17.036  0.4343  0.9043 -0.3257
 6428SOL    HW130917   3.114   4.547  16.980  1.5320 -0.1917  0.2119
 6428SOL    HW230918   3.103   4.475  17.106  0.1750  0.1328 -0.4756
 6429SOL     OW30919   3.456   4.533   5.165 -0.0581  0.2627 -0.0691
 6429SOL    HW130920   3.421   4.548   5.077  0.6131  2.3197  0.0063
 6429SOL    HW230921   3.551   4.547   5.159 -0.0086  0.8029  2.0256
 6430SOL     OW30922   4.005   0.046   3.814  0.0563  0.2709 -0.6827
 6430SOL    HW130923   4.083   0.098   3.828 -0.5968  0.5095  2.0484
 6430SOL    HW230924   3.942   0.111   3.845 -0.8571  0.2653 -2.5187
 6431SOL     OW30925   1.685   3.042   8.781  0.0899  0.2589 -0.3502
 6431SOL    HW130926   1.648   3.124   8.749  0.7612  0.5200 -0.4525
 6431SOL    HW230927   1.686   3.070   8.873  0.6995 -0.2752 -0.1940
 6432SOL     OW30928   3.494   3.464   7.928  0.6283  0.0474 -0.0639
 6432SOL    HW130929   3.442   3.508   7.860  1.8058  0.6338 -0.5738
 6432SOL    HW230930   3.569   3.427   7.882  0.6579  0.5894 -0.4570
 6433SOL     OW30931   3.377   1.380   9.120  0.2245 -0.0628 -0.2496
 6433SOL    HW130932   3.453   1.430   9.091 -0.8052  1.8675  0.3565
 6433SOL    HW230933   3.384   1.358   9.212 -1.0545 -0.5750 -0.2760
 6434SOL     OW30934   3.188   4.504  12.679 -0.2345  0.3616 -0.2062
 6434SOL    HW130935   3.096   4.492  12.656 -0.6079 -0.8546  1.8863
 6434SOL    HW230936   3.199   4.598  12.663 -1.1572  0.4816 -0.1306
 6435SOL     OW30937   2.878   1.369   4.101 -0.9410 -0.3969 -0.6549
 6435SOL    HW130938   2.794   1.360   4.055 -1.6353 -0.0465  0.5491
 6435SOL    HW230939   2.892   1.278   4.126  0.9841 -0.0616 -0.5372
 6436SOL     OW30940   0.958   0.119  16.852  0.4537  0.4280  0.0978
 6436SOL    HW130941   0.942   0.177  16.927 -0.6516 -1.1118  1.0449
 6436SOL    HW230942   0.876   0.141  16.807 -0.6274  0.0338  1.8509
 6437SOL     OW30943   2.240   0.199   4.739  0.2164  0.1292 -0.0421
 6437SOL    HW130944   2.253   0.294   4.741 -0.6446  0.2795 -1.7600
 6437SOL    HW230945   2.152   0.197   4.777  0.8931  0.9325  1.5773
 6438SOL     OW30946   4.643   0.043   8.599 -0.0078  0.0490  0.3061
 6438SOL    HW130947   4.641   0.088   8.683 -0.9136  0.1152  0.2480
 6438SOL    HW230948   4.560   0.068   8.557  0.3593  2.3148  0.9546
 6439SOL     OW30949   3.062   1.728   1.542 -0.5051 -0.4147  0.1224
 6439SOL    HW130950   2.990   1.702   1.484  0.4958  0.2761 -1.4408
 6439SOL    HW230951   3.025   1.725   1.630 -2.7915 -0.3066 -0.8394
 6440SOL     OW30952   2.793   3.479   5.394 -0.1952  0.0127  0.3044
 6440SOL    HW130953   2.865   3.497   5.334 -0.2432 -0.4975  0.0940
 6440SOL    HW230954   2.766   3.568   5.416  0.0087  0.4071 -1.0303
 6441SOL     OW30955   3.202   2.668   7.810 -0.2029 -0.3901 -0.4519
 6441SOL    HW130956   3.259   2.593   7.792 -1.2964 -1.4708  0.5761
 6441SOL    HW230957   3.259   2.744   7.797 -0.1896 -0.2672  0.3209
 6442SOL     OW30958   0.922   2.702   2.346  0.3391  0.6048 -0.1768
 6442SOL    HW130959   0.907   2.668   2.435 -0.9944  1.7705  0.0436
 6442SOL    HW230960   1.013   2.683   2.325  0.4258 -0.7522  1.3837
 6443SOL     OW30961   2.743   1.849   6.584  0.0991 -0.0835  0.3134
 6443SOL    HW130962   2.812   1.844   6.518  1.0518 -0.5165  1.3407
 6443SOL    HW230963   2.670   1.814   6.534  2.1949 -0.3744 -2.4994
 6444SOL     OW30964   0.747   1.009  12.545  0.2535 -0.0605  0.2674
 6444SOL    HW130965   0.676   1.019  12.482  0.9484 -1.0051 -0.6725
 6444SOL    HW230966   0.733   0.918  12.574 -2.7406  1.4086  3.5224
 6445SOL     OW30967   3.855   2.768  11.060  0.0154 -0.7758 -0.4559
 6445SOL    HW130968   3.890   2.841  11.111  1.0771 -1.0384 -0.8205
 6445SOL    HW230969   3.903   2.786  10.979 -0.2529 -2.3825 -0.9792
 6446SOL     OW30970   1.941   4.540   2.769  0.4810  0.5386 -0.3362
 6446SOL    HW130971   2.004   4.470   2.787  0.1456 -0.6562 -3.8612
 6446SOL    HW230972   1.874   4.490   2.723  1.4422  1.4307 -2.7217
 6447SOL     OW30973   2.187   2.907   6.469  0.1871  0.0060  0.0844
 6447SOL    HW130974   2.266   2.960   6.484  0.9530 -0.3748 -2.5381
 6447SOL    HW230975   2.138   2.942   6.543  3.5983  1.9347  1.4668
 6448SOL     OW30976   1.957   3.940   9.604 -0.0075  0.0072 -0.0642
 6448SOL    HW130977   1.972   3.980   9.689 -1.1619 -0.9200  0.5625
 6448SOL    HW230978   1.990   4.014   9.553 -1.7066 -0.0055 -1.1859
 6449SOL     OW30979   2.373   0.707   7.229  0.0520  0.2577  0.4032
 6449SOL    HW130980   2.376   0.615   7.204  3.6294 -0.0138  1.7579
 6449SOL    HW230981   2.302   0.751   7.183 -1.4254  0.1182  2.5336
 6450SOL     OW30982   0.694   0.821   8.840 -0.2170  0.0907 -1.0174
 6450SOL    HW130983   0.764   0.793   8.900 -0.8260 -0.3947 -0.5366
 6450SOL    HW230984   0.612   0.795   8.882 -0.2309 -0.1398 -1.1858
 6451SOL     OW30985   0.823   3.989   7.291  0.2072  0.0782 -0.0160
 6451SOL    HW130986   0.738   4.030   7.304 -0.3560 -0.7065 -1.3288
 6451SOL    HW230987   0.830   4.010   7.198 -0.9617 -0.8376 -0.3018
 6452SOL     OW30988   1.152   2.869   7.451 -0.2356 -0.4200  0.1457
 6452SOL    HW130989   1.157   2.952   7.403  2.7290 -1.2372 -0.9406
 6452SOL    HW230990   1.057   2.872   7.463  0.0698  1.1064  2.1063
 6453SOL     OW30991   0.554   0.349   7.967 -0.1117  0.2938  0.5521
 6453SOL    HW130992   0.560   0.274   8.027  2.3600 -0.6051 -0.8291
 6453SOL    HW230993   0.645   0.378   7.967 -0.3104  0.9048  2.1466
 6454SOL     OW30994   1.494   1.663  11.308 -0.2396  0.0540 -0.3283
 6454SOL    HW130995   1.546   1.690  11.385 -0.1869 -2.2289  0.4284
 6454SOL    HW230996   1.513   1.572  11.328 -0.7115 -0.4835 -2.3588
 6455SOL     OW30997   3.827   4.619  12.180  0.2171  0.3175 -0.1283
 6455SOL    HW130998   3.832   4.714  12.189 -1.2737  0.6498 -2.8287
 6455SOL    HW230999   3.909   4.605  12.132 -0.3191  0.6244 -1.1259
 6456SOL     OW31000   4.682   1.469   6.839  0.2513  0.7390 -0.1471
 6456SOL    HW131001   4.649   1.395   6.890 -0.4443  0.9993 -0.2229
 6456SOL    HW231002   0.035   1.446   6.846 -0.2140 -0.3393  2.4015
 6457SOL     OW31003   1.639   1.925   8.380  0.0647  0.3456 -0.5381
 6457SOL    HW131004   1.681   1.851   8.336 -2.5633 -0.4820 -1.6924
 6457SOL    HW231005   1.666   1.921   8.471  1.9057  2.0398 -1.0044
 6458SOL     OW31006   1.029   3.636  16.608 -0.4376 -0.3824  0.1421
 6458SOL    HW131007   1.026   3.586  16.689  0.0672  1.6803  1.4177
 6458SOL    HW231008   0.963   3.586  16.559 -0.8317 -0.4779  0.7808
 6459SOL     OW31009   4.322   2.909   8.665 -0.4163  0.1422 -0.1872
 6459SOL    HW131010   4.338   2.884   8.575  0.2918 -0.3721  0.0805
 6459SOL    HW231011   4.352   3.000   8.669  0.4956 -0.2107  1.3340
 6460SOL     OW31012   0.498   3.049   9.065 -0.5818  0.0818  0.0256
 6460SOL    HW131013   0.418   3.029   9.114  0.4608 -0.2048  1.5810
 6460SOL    HW231014   0.450   3.097   8.997 -0.1746  1.8209  0.9490
 6461SOL     OW31015   3.940   2.080  17.076  0.8050 -0.1270  0.3135
 6461SOL    HW131016   3.880   2.133  17.025  0.4184 -0.3879  0.5014
 6461SOL    HW231017   3.891   1.999  17.066 -1.0151  1.0332 -0.1174
 6462SOL     OW31018   4.302   0.481   3.626 -0.3273  0.1190 -0.0245
 6462SOL    HW131019   4.314   0.471   3.720 -1.3036  2.1173  0.3206
 6462SOL    HW231020   4.393   0.461   3.607 -0.4504 -1.2723  0.8735
 6463SOL     OW31021   4.665   3.003  14.894 -0.2909  0.2923 -0.0332
 6463SOL    HW131022   4.589   3.011  14.835  0.8345 -2.0348 -1.7904
 6463SOL    HW231023   4.732   2.986  14.828 -2.2773 -1.1529 -1.6848
 6464SOL     OW31024   2.110   4.377  14.574 -0.7032  0.2554  0.0423
 6464SOL    HW131025   2.078   4.467  14.579  2.5427  1.4426 -0.8093
 6464SOL    HW231026   2.046   4.330  14.627  1.0730 -2.1113  0.0508
 6465SOL     OW31027   1.462   1.470  15.711  0.2607 -0.0049  1.1460
 6465SOL    HW131028   1.449   1.518  15.793 -2.0657  1.2523  0.0387
 6465SOL    HW231029   1.422   1.530  15.648  2.4654 -0.0161 -0.2412
 6466SOL     OW31030   0.511   2.382  12.975 -0.4678 -0.1473 -0.1742
 6466SOL    HW131031   0.578   2.315  12.986 -0.4139  0.3796  2.6516
 6466SOL    HW231032   0.445   2.346  13.034  0.0113 -1.1470 -0.2580
 6467SOL     OW31033   2.285   1.836   4.404 -0.8425 -0.3816  0.1626
 6467SOL    HW131034   2.320   1.897   4.339 -1.5282  2.3893  2.3593
 6467SOL    HW231035   2.224   1.788   4.348  0.7909 -0.4571 -1.5429
 6468SOL     OW31036   1.831   2.835  10.035 -0.1706 -0.0542  0.0872
 6468SOL    HW131037   1.906   2.881  10.071  0.0494  0.0288 -0.4770
 6468SOL    HW231038   1.763   2.902  10.038 -0.9292 -0.8611  1.1137
 6469SOL     OW31039   3.757   4.508   5.316  0.1154 -0.2169  1.0526
 6469SOL    HW131040   3.806   4.454   5.254 -0.9939  1.2979 -1.1516
 6469SOL    HW231041   3.811   4.588   5.316  1.2319 -0.9682  0.3676
 6470SOL     OW31042   2.273   3.213   8.872  0.0732 -0.0209 -0.1658
 6470SOL    HW131043   2.340   3.206   8.804  0.4797 -0.2225  0.2525
 6470SOL    HW231044   2.190   3.211   8.824  0.3614 -1.9379 -0.5820
 6471SOL     OW31045   0.311   2.974  11.627  0.5327 -0.1123 -0.3934
 6471SOL    HW131046   0.282   3.047  11.682  2.9263  2.4150 -2.5292
 6471SOL    HW231047   0.330   2.910  11.696 -0.9331 -2.0642 -1.8016
 6472SOL     OW31048   0.796   2.915   3.272 -0.0856 -0.4834  0.1751
 6472SOL    HW131049   0.790   3.011   3.277  0.5213 -0.3736 -1.1543
 6472SOL    HW231050   0.750   2.888   3.193 -0.6422 -1.2637  0.7654
 6473SOL     OW31051   3.215   0.733   4.942 -0.2046  0.3490  0.0033
 6473SOL    HW131052   3.294   0.739   4.888 -0.9472 -1.3397 -1.2712
 6473SOL    HW231053   3.151   0.696   4.882  0.5835  1.3803 -1.4590
 6474SOL     OW31054   4.238   0.015   7.133 -0.3678 -0.2829 -0.4695
 6474SOL    HW131055   4.229   4.696   7.057  0.4542 -1.9166  0.6970
 6474SOL    HW231056   4.175   0.082   7.108  1.0493  1.9174  1.9022
 6475SOL     OW31057   2.697   4.579  10.285 -1.1225  0.1253 -0.6067
 6475SOL    HW131058   2.766   4.530  10.243  1.1474  0.3624  2.8620
 6475SOL    HW231059   2.731   4.669  10.284 -2.3614  0.5805 -1.8129
 6476SOL     OW31060   2.127   0.919   2.197  0.6854  0.0432 -0.3265
 6476SOL    HW131061   2.180   0.996   2.177 -0.1777  0.5453 -0.6907
 6476SOL    HW231062   2.192   0.849   2.202  0.9388  0.4241  1.5836
 6477SOL     OW31063   0.289   1.683   1.676  0.0104 -0.6519  0.2297
 6477SOL    HW131064   0.230   1.621   1.719 -1.8921 -0.7930 -2.6397
 6477SOL    HW231065   0.300   1.642   1.591  1.2963 -2.9935  1.5137
 6478SOL     OW31066   3.818   1.864   1.212 -0.5867 -0.3765  0.0537
 6478SOL    HW131067   3.781   1.853   1.300  0.3862  0.0674  0.5168
 6478SOL    HW231068   3.873   1.786   1.210  0.2817  0.2740 -1.0436
 6479SOL     OW31069   2.644   3.439   6.866  0.8947 -0.2217 -0.1540
 6479SOL    HW131070   2.720   3.497   6.862 -0.3823  1.2846 -2.9664
 6479SOL    HW231071   2.666   3.387   6.943  2.2962 -0.6532 -0.8555
 6480SOL     OW31072   0.598   3.477  16.322 -0.7707  0.7562 -0.3806
 6480SOL    HW131073   0.551   3.420  16.260 -0.1607  0.3079 -0.4295
 6480SOL    HW231074   0.620   3.542  16.255  1.6943  1.5757  1.2643
 6481SOL     OW31075   1.923   2.964  15.880 -0.3909  0.2997 -0.2311
 6481SOL    HW131076   1.847   2.926  15.837 -3.9306  2.2797  4.2897
 6481SOL    HW231077   1.990   2.906  15.843  2.1663  1.1849  3.0484
 6482SOL     OW31078   3.647   0.547   1.829  0.1430  0.3616  0.0337
 6482SOL    HW131079   3.707   0.501   1.772  1.1287  1.2460  0.3640
 6482SOL    HW231080   3.690   0.631   1.841  1.9983 -0.7723  1.3214
 6483SOL     OW31081   1.446   2.454   3.520 -0.7617  0.3240 -0.0337
 6483SOL    HW131082   1.434   2.498   3.435  0.5316 -0.5427 -0.6712
 6483SOL    HW231083   1.440   2.365   3.486  0.5229  0.4231 -0.5099
 6484SOL     OW31084   0.689   3.511   2.075 -0.0983  0.0881  0.1986
 6484SOL    HW131085   0.727   3.558   2.001 -1.6306  1.7500  0.4601
 6484SOL    HW231086   0.608   3.487   2.029  0.5448 -1.5659 -0.0552
 6485SOL     OW31087   0.679   0.068   6.580  0.2765  0.7050 -0.3208
 6485SOL    HW131088   0.623   0.140   6.551 -1.4933  0.1910  1.8318
 6485SOL    HW231089   0.688   0.016   6.500 -1.3922 -0.5767  0.3351
 6486SOL     OW31090   0.355   1.992   3.503 -0.2233 -0.3272 -0.2736
 6486SOL    HW131091   0.271   1.979   3.547 -1.1268  0.3191 -1.8274
 6486SOL    HW231092   0.368   2.085   3.523  0.0321 -0.8046  1.8079
 6487SOL     OW31093   1.013   3.203   8.990 -0.1549  0.3949  0.4135
 6487SOL    HW131094   1.071   3.272   8.958 -0.9331 -0.0715 -2.0391
 6487SOL    HW231095   1.065   3.181   9.067  0.6514 -1.7779 -0.7619
 6488SOL     OW31096   0.274   4.472   9.851 -0.6206 -0.0588  0.3792
 6488SOL    HW131097   0.230   4.423   9.782  0.5059 -0.1446 -0.2873
 6488SOL    HW231098   0.250   4.420   9.928  1.4230 -1.5597  0.0235
 6489SOL     OW31099   3.968   1.133   9.538 -0.2035 -0.7464  0.0730
 6489SOL    HW131100   4.062   1.125   9.553  0.1053  1.8347 -0.4884
 6489SOL    HW231101   3.941   1.044   9.516 -1.0351 -0.4584 -0.0962
 6490SOL     OW31102   1.110   0.495   1.783  0.3094  0.1655 -0.0518
 6490SOL    HW131103   1.168   0.464   1.853  0.1286  1.1064  0.5259
 6490SOL    HW231104   1.051   0.420   1.785  1.0364 -0.3884  0.5393
 6491SOL     OW31105   4.628   0.159   5.820  0.8936 -0.3600 -0.2070
 6491SOL    HW131106   4.548   0.207   5.797  1.0069 -1.9119 -3.7170
 6491SOL    HW231107   4.603   0.088   5.878 -2.6381 -0.5855 -1.9977
 6492SOL     OW31108   1.103   1.884   9.243  0.2831  0.0827 -0.0600
 6492SOL    HW131109   1.015   1.885   9.279  0.7152  1.8401  0.9170
 6492SOL    HW231110   1.122   1.969   9.204  0.4029  0.4255  0.7585
 6493SOL     OW31111   0.366   0.164   8.786  0.1052  0.1437  0.1576
 6493SOL    HW131112   0.280   0.135   8.753 -0.9424  1.6567  1.5439
 6493SOL    HW231113   0.411   0.178   8.703  0.0304 -1.4329 -0.1493
 6494SOL     OW31114   3.582   0.030   7.827  0.0554  0.2212  0.1576
 6494SOL    HW131115   3.678   0.024   7.833  0.0274  0.1043  0.4570
 6494SOL    HW231116   3.564   0.122   7.812 -0.1975  0.3693  1.4342
 6495SOL     OW31117   1.218   4.153   2.270 -0.0103 -0.5221  0.4113
 6495SOL    HW131118   1.234   4.237   2.227 -1.6624  0.6122  2.0202
 6495SOL    HW231119   1.263   4.091   2.212 -2.3827  0.6405 -2.6416
 6496SOL     OW31120   4.474   1.688   4.789 -0.3417  0.5441  0.2970
 6496SOL    HW131121   4.524   1.620   4.743  0.1695  0.3374  1.1643
 6496SOL    HW231122   4.540   1.750   4.819  1.5862 -0.5805 -1.6149
 6497SOL     OW31123   3.798   3.725   0.254  0.6047  0.1961 -0.3184
 6497SOL    HW131124   3.813   3.741   0.347  3.5882 -0.1036 -0.7729
 6497SOL    HW231125   3.811   3.630   0.257  0.5552  0.2752  2.2170
 6498SOL     OW31126   3.054   1.124  11.808  0.3141  0.0384 -0.7334
 6498SOL    HW131127   3.106   1.154  11.882  0.8918 -0.4269 -0.9485
 6498SOL    HW231128   2.970   1.101  11.849  0.8832  1.9622  1.5174
 6499SOL     OW31129   1.172   3.714   8.720 -0.0471  0.1479 -0.6764
 6499SOL    HW131130   1.170   3.686   8.629 -3.4072 -1.1423 -0.2089
 6499SOL    HW231131   1.107   3.783   8.708 -0.0029  0.5315  1.1617
 6500SOL     OW31132   3.577   3.697   3.410 -0.4911  0.2379 -0.5295
 6500SOL    HW131133   3.539   3.651   3.335 -2.4606  1.0217 -0.0223
 6500SOL    HW231134   3.568   3.637   3.484 -0.6931 -0.6869 -1.3117
 6501SOL     OW31135   1.427   4.567   4.237  0.2678 -0.2910 -0.5882
 6501SOL    HW131136   1.437   4.633   4.305 -2.3908 -0.0756 -0.3858
 6501SOL    HW231137   1.398   4.621   4.163  1.8294 -0.2233 -1.1359
 6502SOL     OW31138   0.899   3.216  15.616  0.7106  0.4003  0.2397
 6502SOL    HW131139   0.979   3.200  15.665  1.0747 -0.4144 -0.6031
 6502SOL    HW231140   0.916   3.306  15.588 -1.0677  0.9080  0.7685
 6503SOL     OW31141   1.241   1.489  16.355 -0.1059 -0.0152 -0.2026
 6503SOL    HW131142   1.307   1.465  16.420 -2.6210 -2.5861  1.3338
 6503SOL    HW231143   1.298   1.545  16.302 -0.7476 -1.7053 -2.6473
 6504SOL     OW31144   2.630   0.710   1.706 -0.1690 -0.5608  0.7248
 6504SOL    HW131145   2.642   0.731   1.799  0.3003  1.5458  0.1646
 6504SOL    HW231146   2.573   0.783   1.685  1.9693  1.1427  0.9074
 6505SOL     OW31147   4.704   0.478   9.919 -0.6879 -0.5103  0.0749
 6505SOL    HW131148   0.016   0.398   9.914 -0.2441 -0.1834 -0.5469
 6505SOL    HW231149   4.666   0.484  10.006  1.1398 -1.7970  0.9726
 6506SOL     OW31150   2.340   3.938  16.849 -0.1292  0.2953 -0.1841
 6506SOL    HW131151   2.262   3.942  16.794 -0.3879 -3.9752 -0.1231
 6506SOL    HW231152   2.403   3.976  16.787  1.7504 -1.3389  0.7094
 6507SOL     OW31153   3.999   3.258   2.469 -0.1603  0.1663  0.2884
 6507SOL    HW131154   3.912   3.240   2.505 -0.0224  2.0371  1.6181
 6507SOL    HW231155   4.036   3.171   2.457 -1.5225 -0.1450 -1.5148
 6508SOL     OW31156   4.419   2.694   4.955 -0.0861  0.3040  0.1749
 6508SOL    HW131157   4.416   2.600   4.969  0.6439 -0.0231 -1.9058
 6508SOL    HW231158   4.512   2.718   4.961  0.0293 -0.4390  1.2363
 6509SOL     OW31159   2.779   0.204  14.488 -0.2385  0.2620 -0.5765
 6509SOL    HW131160   2.720   0.277  14.508  1.1524  0.8233  1.4798
 6509SOL    HW231161   2.716   0.135  14.468  0.5702 -1.1500  1.7414
 6510SOL     OW31162   3.200   2.476   5.821 -0.3549 -0.3641 -0.2218
 6510SOL    HW131163   3.236   2.472   5.909  0.0266 -0.2234 -0.3737
 6510SOL    HW231164   3.118   2.427   5.815 -0.7861  0.2571  0.5171
 6511SOL     OW31165   1.758   2.923  12.135  0.5157  0.8907 -0.2103
 6511SOL    HW131166   1.824   2.882  12.190  2.2539  1.7924 -1.6103
 6511SOL    HW231167   1.719   2.981  12.200 -0.0459  0.2694  0.0164
 6512SOL     OW31168   0.527   2.958  15.879 -0.3626  0.0487 -0.2831
 6512SOL    HW131169   0.579   2.895  15.928  0.3940  0.0103 -1.1306
 6512SOL    HW231170   0.437   2.928  15.893 -0.9164  1.9975  0.3898
 6513SOL     OW31171   0.658   1.954   3.729  0.0458 -0.4022 -0.6720
 6513SOL    HW131172   0.683   1.952   3.636 -2.1213 -1.4846 -1.2356
 6513SOL    HW231173   0.687   1.867   3.756 -2.3350 -0.9353  0.2175
 6514SOL     OW31174   3.600   1.045   7.299 -0.7111  0.4204 -0.1578
 6514SOL    HW131175   3.518   1.003   7.274 -0.6171  1.2023 -1.7483
 6514SOL    HW231176   3.654   0.976   7.338 -3.9014 -1.1412  1.4699
 6515SOL     OW31177   2.528   4.274   4.370  0.2997 -0.3701 -0.1642
 6515SOL    HW131178   2.549   4.275   4.464 -1.3009 -1.4500  0.1871
 6515SOL    HW231179   2.449   4.329   4.366 -2.0324 -3.6346  1.5115
 6516SOL     OW31180   3.909   0.593  17.573  0.0533  0.3233  0.2107
 6516SOL    HW131181   3.945   0.602  17.661 -0.1257 -0.4199  0.3548
 6516SOL    HW231182   3.929   0.678  17.533 -2.4645  0.7935 -0.0198
 6517SOL     OW31183   0.052   1.114  13.072  0.4687 -0.2733  0.2331
 6517SOL    HW131184   0.042   1.184  13.137  1.4357  1.9202 -1.9787
 6517SOL    HW231185   0.019   1.159  12.995  1.4240  0.3153  0.1754
 6518SOL     OW31186   1.959   1.644   2.978  0.0989 -0.3821 -0.6923
 6518SOL    HW131187   1.882   1.663   2.925 -1.6435 -2.4163  1.0941
 6518SOL    HW231188   1.922   1.616   3.062  0.2396  2.3431  0.2699
 6519SOL     OW31189   3.419   0.119   9.779 -0.3460 -0.3340 -0.1563
 6519SOL    HW131190   3.398   0.211   9.766 -0.4802 -0.7286 -2.7199
 6519SOL    HW231191   3.513   0.112   9.762 -0.1591 -1.2353  1.2674
 6520SOL     OW31192   4.282   3.245   4.608  0.0241 -0.5469 -0.1541
 6520SOL    HW131193   4.304   3.312   4.672  1.0615 -1.7229  0.7101
 6520SOL    HW231194   4.201   3.290   4.583  0.0952 -0.3426 -0.0159
 6521SOL     OW31195   1.900   0.521   0.850 -0.2051 -0.1724 -0.5581
 6521SOL    HW131196   1.987   0.548   0.880 -0.4357  1.5327 -1.4403
 6521SOL    HW231197   1.850   0.602   0.860  0.5727  0.1183  1.0650
 6522SOL     OW31198   0.340   2.976   0.750 -0.0163 -0.0996 -0.8882
 6522SOL    HW131199   0.300   2.979   0.837 -0.8733 -0.2407 -1.2737
 6522SOL    HW231200   0.301   2.900   0.706  0.4319 -0.9403  0.1949
 6523SOL     OW31201   0.879   2.717   9.007 -0.2999 -0.3778 -0.0626
 6523SOL    HW131202   0.897   2.746   9.097  2.5109 -0.8293 -0.4628
 6523SOL    HW231203   0.785   2.704   9.016 -0.1610 -0.2920  1.4882
 6524SOL     OW31204   4.241   3.559   7.269 -0.2453  0.5192  0.3086
 6524SOL    HW131205   4.150   3.528   7.269  0.1763 -0.7353 -0.9018
 6524SOL    HW231206   4.259   3.598   7.183 -0.6482 -2.1374 -0.9646
 6525SOL     OW31207   3.974   3.170   5.143  1.0355  0.4562  0.0931
 6525SOL    HW131208   3.990   3.198   5.052  1.4496  0.8944  0.3006
 6525SOL    HW231209   4.031   3.242   5.171  1.7750 -0.0763 -0.0234
 6526SOL     OW31210   4.151   3.909   1.472  0.3511 -1.1019 -0.5157
 6526SOL    HW131211   4.182   3.996   1.444 -0.3694 -0.0830  1.8543
 6526SOL    HW231212   4.212   3.855   1.422  0.2735 -0.6100 -1.1473
 6527SOL     OW31213   0.683   2.745   9.335 -0.7186 -0.6725 -0.3120
 6527SOL    HW131214   0.748   2.814   9.329  0.0677 -1.3920 -0.0190
 6527SOL    HW231215   0.619   2.773   9.270 -2.1600  1.9296  2.2481
 6528SOL     OW31216   4.620   4.467   4.267  0.1748  0.1338 -0.0066
 6528SOL    HW131217   4.621   4.382   4.311 -2.9366  0.1172  0.0728
 6528SOL    HW231218   4.591   4.527   4.336 -2.1969  2.4578 -2.9810
 6529SOL     OW31219   3.950   0.556   2.504 -0.1470  0.5123  0.3963
 6529SOL    HW131220   3.921   0.647   2.497  1.6468  0.9461 -1.4998
 6529SOL    HW231221   3.956   0.534   2.411  2.2982  0.8990  0.4587
 6530SOL     OW31222   2.592   1.276   4.037 -0.3388 -0.4054  0.1377
 6530SOL    HW131223   2.659   1.214   4.007  1.5647  0.5812  2.4358
 6530SOL    HW231224   2.516   1.219   4.049 -0.8246 -0.3318 -2.4191
 6531SOL     OW31225   0.671   3.573   0.756  0.1825 -0.0441 -0.2017
 6531SOL    HW131226   0.609   3.514   0.713  1.3130 -2.0400  0.8946
 6531SOL    HW231227   0.657   3.546   0.847  0.9849  0.0495 -0.0447
 6532SOL     OW31228   2.100   4.708   6.256  0.3575 -0.0581  0.3163
 6532SOL    HW131229   2.123   4.705   6.163 -2.6874 -0.0200 -0.4239
 6532SOL    HW231230   2.145   4.635   6.298 -0.8032 -0.6948  0.4370
 6533SOL     OW31231   0.421   2.834  13.121 -0.6877 -0.1167 -0.2689
 6533SOL    HW131232   0.370   2.836  13.040 -0.0775  2.2517 -0.5936
 6533SOL    HW231233   0.379   2.761  13.165  0.3355  0.7682  2.1991
 6534SOL     OW31234   0.855   1.528  16.207 -0.2600  0.6029  0.0895
 6534SOL    HW131235   0.869   1.490  16.294 -2.3646 -1.4903 -0.4596
 6534SOL    HW231236   0.797   1.461  16.169  1.2966  0.1315 -1.4561
 6535SOL     OW31237   0.296   2.774   8.096  0.8554  0.2284 -0.0548
 6535SOL    HW131238   0.333   2.699   8.143 -1.3476  0.2719  1.7748
 6535SOL    HW231239   0.274   2.735   8.011  0.2973 -0.3574  0.3546
 6536SOL     OW31240   0.400   2.539  11.868 -0.3060  0.4258  0.0743
 6536SOL    HW131241   0.450   2.457  11.866 -0.5939  0.3420 -3.2182
 6536SOL    HW231242   0.311   2.506  11.875  0.7663 -2.4323  0.1162
 6537SOL     OW31243   3.688   1.312   5.536  0.2095  0.4991 -0.5657
 6537SOL    HW131244   3.613   1.339   5.588  1.6307 -0.7219  2.1149
 6537SOL    HW231245   3.767   1.348   5.578 -1.4682  2.9012  0.5160
 6538SOL     OW31246   1.830   3.447   7.416 -0.3384  0.0785  0.3821
 6538SOL    HW131247   1.772   3.419   7.345 -1.0055  0.0954  0.9127
 6538SOL    HW231248   1.854   3.372   7.470  2.2118 -0.2668 -1.2527
 6539SOL     OW31249   0.001   2.793  10.787  0.5948  0.0858 -0.1991
 6539SOL    HW131250   4.652   2.770  10.815 -0.3785  0.4560 -3.0009
 6539SOL    HW231251   0.002   2.885  10.760  1.2465  0.8253  2.2766
 6540SOL     OW31252   3.009   0.645   7.687  0.3948 -0.3707 -0.4519
 6540SOL    HW131253   3.007   0.661   7.593  0.3303  1.5912 -0.1345
 6540SOL    HW231254   3.096   0.608   7.701 -0.4150 -1.0138  2.9730
 6541SOL     OW31255   2.346   0.449   4.765 -0.5886 -0.0613  0.0201
 6541SOL    HW131256   2.342   0.498   4.683 -2.0405  1.7017  1.1595
 6541SOL    HW231257   2.434   0.411   4.762 -0.0299  1.2167  0.1625
 6542SOL     OW31258   3.830   3.878  14.359 -0.2216 -0.0595 -0.0874
 6542SOL    HW131259   3.795   3.901  14.273  0.1609  1.1919  0.0807
 6542SOL    HW231260   3.896   3.945  14.381 -0.4603 -0.1052  0.7655
 6543SOL     OW31261   1.922   1.227   3.033  0.1993  0.0370  0.4534
 6543SOL    HW131262   1.989   1.172   2.993 -0.3789 -0.7717  0.5875
 6543SOL    HW231263   1.952   1.232   3.124 -0.9500  2.1511  0.7063
 6544SOL     OW31264   3.241   0.839   2.422  0.7513  0.0830 -0.4931
 6544SOL    HW131265   3.282   0.753   2.434 -0.4634  0.0041  3.1876
 6544SOL    HW231266   3.260   0.868   2.333 -0.5211  1.6145 -0.2775
 6545SOL     OW31267   1.874   4.591   0.760  0.1375 -0.1508  0.0818
 6545SOL    HW131268   1.844   4.649   0.690  0.4683 -0.0542  0.0215
 6545SOL    HW231269   1.832   4.639   0.831  0.9917  0.2776  0.2897
 6546SOL     OW31270   0.679   4.499   4.381 -0.1987 -0.7361 -0.1813
 6546SOL    HW131271   0.686   4.468   4.290 -2.0543  0.5073 -0.7486
 6546SOL    HW231272   0.648   4.589   4.381  2.2096  0.0903 -0.5168
 6547SOL     OW31273   3.536   0.648   6.311 -0.2498  0.2138  0.1073
 6547SOL    HW131274   3.539   0.654   6.216 -1.3759 -0.7264  0.0011
 6547SOL    HW231275   3.452   0.689   6.332 -1.0012 -0.5987 -1.3177
 6548SOL     OW31276   1.279   3.420   7.045 -0.1636 -0.1413 -0.0347
 6548SOL    HW131277   1.223   3.406   6.968  2.0060  2.6871 -2.1453
 6548SOL    HW231278   1.285   3.514   7.025  2.7791 -0.4363 -0.4885
 6549SOL     OW31279   3.224   0.546   1.936  0.2089  0.3713  0.2423
 6549SOL    HW131280   3.281   0.470   1.946 -0.3752 -0.6605 -4.2058
 6549SOL    HW231281   3.208   0.555   1.842  0.0985 -0.0221  0.2243
 6550SOL     OW31282   1.394   1.807   7.150  0.1545 -0.3916  0.2446
 6550SOL    HW131283   1.401   1.726   7.099 -5.9573 -0.6358 -0.2794
 6550SOL    HW231284   1.355   1.863   7.083 -1.6681 -0.1819  1.4725
 6551SOL     OW31285   0.666   1.804  17.169  0.4763  0.0178  0.2892
 6551SOL    HW131286   0.678   1.820  17.263 -0.9205  1.8407  0.1456
 6551SOL    HW231287   0.594   1.865  17.157  1.3224  0.9800  0.0483
 6552SOL     OW31288   4.263   2.652   5.215 -0.1136  0.0009  0.4752
 6552SOL    HW131289   4.294   2.691   5.133 -0.4611  0.3285  0.5015
 6552SOL    HW231290   4.335   2.600   5.251 -0.2019  0.0163  0.6766
 6553SOL     OW31291   1.989   2.658   2.634 -0.2800  0.2106  0.0855
 6553SOL    HW131292   1.900   2.641   2.606 -0.1060 -2.5825  1.2835
 6553SOL    HW231293   2.003   2.628   2.724  1.0252  0.7033  0.0508
 6554SOL     OW31294   3.267   3.302   2.305 -0.3770  0.0585  0.3278
 6554SOL    HW131295   3.236   3.270   2.389 -1.2368  2.6161  0.9608
 6554SOL    HW231296   3.348   3.340   2.339 -0.5216  0.5314  0.1421
 6555SOL     OW31297   3.534   4.729   1.679  0.9102 -0.4915 -0.3329
 6555SOL    HW131298   3.562   4.735   1.770 -1.6507  0.7691  0.3874
 6555SOL    HW231299   3.506   0.080   1.679 -2.6287 -1.5712 -2.1401
 6556SOL     OW31300   0.088   4.438   9.301  0.2883  0.4071 -0.5647
 6556SOL    HW131301   0.053   4.398   9.222 -2.4251 -1.3129  1.5190
 6556SOL    HW231302   0.064   4.527   9.275 -0.0638  0.6041  0.4082
 6557SOL     OW31303   1.095   0.668   2.325 -0.3613 -0.6718 -0.9024
 6557SOL    HW131304   1.120   0.597   2.383  1.8407  0.3639 -0.5538
 6557SOL    HW231305   1.176   0.718   2.313  0.3718 -1.2515  1.6094
 6558SOL     OW31306   0.082   3.643   1.843 -0.1608  0.5208 -0.2252
 6558SOL    HW131307   0.036   3.685   1.917  1.5113  2.1682 -0.1027
 6558SOL    HW231308   0.173   3.666   1.863  0.3003 -1.5889  0.0553
 6559SOL     OW31309   1.096   0.074  10.716  0.1033 -0.8938 -0.1903
 6559SOL    HW131310   1.141   0.136  10.774  0.7782 -2.3805  0.8691
 6559SOL    HW231311   1.128   0.102  10.630 -0.7376 -0.5855 -0.4046
 6560SOL     OW31312   2.472   4.143   9.184 -0.3934 -0.0342  0.6651
 6560SOL    HW131313   2.472   4.192   9.266  0.6338  1.2143 -0.0661
 6560SOL    HW231314   2.390   4.095   9.194 -0.6141  0.1372 -0.3592
 6561SOL     OW31315   4.438   1.144   3.624  0.2507 -0.0924  0.3296
 6561SOL    HW131316   4.460   1.228   3.585 -0.0330 -1.2514 -2.3617
 6561SOL    HW231317   4.511   1.089   3.595  0.3860  0.2161  0.0851
 6562SOL     OW31318   3.575   1.084   2.827  0.0190  0.1175 -0.4526
 6562SOL    HW131319   3.540   1.021   2.890  0.2214 -0.1823 -0.6404
 6562SOL    HW231320   3.532   1.167   2.847  0.2599  0.0870  0.2031
 6563SOL     OW31321   1.618   2.184  15.879 -0.0260 -0.3640 -0.1468
 6563SOL    HW131322   1.546   2.191  15.816  0.3178  2.7180 -0.1797
 6563SOL    HW231323   1.595   2.260  15.932  0.8758 -1.1182  1.3326
 6564SOL     OW31324   4.712   3.598   6.308 -0.5854 -0.1097  0.3097
 6564SOL    HW131325   4.681   3.508   6.322  0.1980 -0.6432 -1.3355
 6564SOL    HW231326   0.064   3.581   6.286 -0.5333 -1.9728  1.9537
 6565SOL     OW31327   3.313   0.594   3.274  0.0406 -0.2248  0.8746
 6565SOL    HW131328   3.396   0.609   3.228 -0.8560 -0.2799 -0.7710
 6565SOL    HW231329   3.259   0.540   3.216  2.2961 -1.7840  0.1916
 6566SOL     OW31330   3.992   2.530   7.181  0.6156 -0.1495 -0.1810
 6566SOL    HW131331   3.963   2.613   7.143  0.5912 -0.3243 -0.5427
 6566SOL    HW231332   3.908   2.487   7.191  1.6406 -2.0732  0.1115
 6567SOL     OW31333   1.274   0.233   5.553  0.2502 -0.2284 -0.5869
 6567SOL    HW131334   1.241   0.322   5.540 -1.1173 -0.1481  3.3024
 6567SOL    HW231335   1.193   0.187   5.530  0.9921 -1.6091 -0.4128
 6568SOL     OW31336   0.824   0.441   8.093  0.4854  0.4576  0.2162
 6568SOL    HW131337   0.907   0.430   8.048  0.2066 -1.3076  0.1031
 6568SOL    HW231338   0.850   0.416   8.181  1.2985  1.5592  0.2754
 6569SOL     OW31339   4.110   4.519   6.517 -0.0248 -0.0964 -0.0858
 6569SOL    HW131340   4.066   4.602   6.501 -2.2255 -1.2537 -0.0308
 6569SOL    HW231341   4.033   4.466   6.537 -0.8709  0.5478 -1.6965
 6570SOL     OW31342   2.745   1.665   3.468 -1.0191 -0.2395  0.0866
 6570SOL    HW131343   2.686   1.610   3.521  0.1566  0.1393  1.7913
 6570SOL    HW231344   2.747   1.743   3.524  0.3828  1.2412 -2.0223
 6571SOL     OW31345   0.658   4.648   2.510 -0.1418  0.3948  0.1964
 6571SOL    HW131346   0.734   4.667   2.565 -0.4354  0.8164  0.4527
 6571SOL    HW231347   0.633   4.730   2.467  2.2819  0.9838 -0.1074
 6572SOL     OW31348   2.286   2.067   6.709 -0.0671  0.0028 -0.2943
 6572SOL    HW131349   2.303   2.152   6.667  0.8099 -1.0497 -2.0594
 6572SOL    HW231350   2.266   2.010   6.635  1.4128 -2.7314  1.4073
 6573SOL     OW31351   0.702   1.032   1.034 -0.2831  0.1067  0.1308
 6573SOL    HW131352   0.620   1.008   1.078 -1.4055 -1.8532 -3.0686
 6573SOL    HW231353   0.710   1.127   1.028 -2.3871  0.2085 -0.7674
 6574SOL     OW31354   1.903   2.927   7.589  0.8699 -0.4038 -0.4300
 6574SOL    HW131355   1.848   2.887   7.521  2.7764  0.1991 -2.3053
 6574SOL    HW231356   1.959   2.977   7.530 -1.3051 -0.1843 -2.3331
 6575SOL     OW31357   0.261   0.188   9.722  0.4942  0.3392  0.1062
 6575SOL    HW131358   0.348   0.174   9.760  0.5385  2.0833  0.6668
 6575SOL    HW231359   0.206   0.218   9.795  1.9204  1.0657  0.8849
 6576SOL     OW31360   0.015   3.741   6.666  0.3252 -0.2888  0.2370
 6576SOL    HW131361   4.717   3.812   6.718 -1.6067 -0.7246 -0.5830
 6576SOL    HW231362   0.108   3.764   6.675  0.8564 -2.4839  0.3124
 6577SOL     OW31363   1.313   3.634   4.708  0.0244 -0.4816  0.6310
 6577SOL    HW131364   1.280   3.660   4.622  0.5070 -2.7256 -0.2223
 6577SOL    HW231365   1.271   3.549   4.717 -0.8266 -0.0382  0.7857
 6578SOL     OW31366   0.031   2.882   5.680  0.2941  0.0026  0.4397
 6578SOL    HW131367   0.040   2.803   5.733  0.3271 -0.0663  0.3302
 6578SOL    HW231368   4.694   2.926   5.716  0.5530  0.4613  0.4440
 6579SOL     OW31369   0.838   0.940   2.894 -0.2932 -0.7636  0.2641
 6579SOL    HW131370   0.777   0.868   2.910 -0.4648 -0.2366  1.8835
 6579SOL    HW231371   0.918   0.906   2.935 -1.2841 -2.2987  0.9284
 6580SOL     OW31372   4.284   1.752  12.259  0.4343  0.0079 -0.7367
 6580SOL    HW131373   4.364   1.714  12.221  0.8782 -1.0049  1.2265
 6580SOL    HW231374   4.206   1.707  12.227 -0.0295  0.4621 -0.2290
 6581SOL     OW31375   3.225   2.034   6.325 -0.2966  0.2742 -0.0262
 6581SOL    HW131376   3.136   2.062   6.301 -0.3702  0.1889  0.1451
 6581SOL    HW231377   3.217   1.939   6.313 -1.3633  0.0520  2.3541
 6582SOL     OW31378   0.276   3.250   2.280  0.4043  0.2342  0.4542
 6582SOL    HW131379   0.240   3.312   2.343  1.4352  1.7106 -0.4100
 6582SOL    HW231380   0.198   3.238   2.225  0.5669  1.7123 -0.0970
 6583SOL     OW31381   1.869   1.453   1.552  0.1854 -0.1237 -0.0675
 6583SOL    HW131382   1.804   1.429   1.486 -1.3307  1.3202  0.8910
 6583SOL    HW231383   1.945   1.406   1.519 -1.2467 -3.1366  0.9748
 6584SOL     OW31384   4.683   0.980   3.668 -0.2004 -0.0036 -0.4431
 6584SOL    HW131385   4.677   0.888   3.693  0.2535 -0.8247 -3.3499
 6584SOL    HW231386   0.037   0.989   3.652 -0.4571 -0.2464 -2.1450
 6585SOL     OW31387   2.180   4.334   7.398 -0.1836 -0.1193  0.3486
 6585SOL    HW131388   2.112   4.270   7.377  1.6621 -1.6252 -1.0955
 6585SOL    HW231389   2.123   4.410   7.410 -0.5477 -0.4088  0.4381
 6586SOL     OW31390   0.505   0.708   2.865  0.2133 -0.0947  0.7551
 6586SOL    HW131391   0.425   0.758   2.847  0.0888 -1.1697 -1.7078
 6586SOL    HW231392   0.544   0.759   2.936  3.7051 -0.9889 -0.5253
 6587SOL     OW31393   1.031   0.475   3.149 -0.9665 -0.2629  0.2593
 6587SOL    HW131394   1.004   0.567   3.155  1.9441  0.6622 -0.7249
 6587SOL    HW231395   0.962   0.426   3.193  0.4025 -1.8504  0.6472
 6588SOL     OW31396   3.862   0.879   9.474  0.3508  0.3639  0.3791
 6588SOL    HW131397   3.880   0.785   9.470 -0.4444  0.2481 -0.3687
 6588SOL    HW231398   3.804   0.891   9.399  0.6002  0.7814  0.2544
 6589SOL     OW31399   1.647   3.818   7.625  0.3549  0.1722  0.4619
 6589SOL    HW131400   1.624   3.741   7.676  2.6648 -0.0008  1.2353
 6589SOL    HW231401   1.734   3.800   7.590 -1.4267 -2.7832 -2.4649
 6590SOL     OW31402   2.686   1.177  16.423 -0.4683  0.2269 -0.1919
 6590SOL    HW131403   2.677   1.120  16.346 -1.8343 -5.4315  4.1645
 6590SOL    HW231404   2.734   1.253  16.389  0.8368 -0.6423 -0.2978
 6591SOL     OW31405   0.850   3.755   8.309 -0.5162  0.0013 -0.1569
 6591SOL    HW131406   0.829   3.669   8.273  0.6249 -0.1872 -0.3847
 6591SOL    HW231407   0.890   3.797   8.233  1.2663 -1.1895  0.1288
 6592SOL     OW31408   4.653   2.213   1.397 -0.6255  0.2175  0.4316
 6592SOL    HW131409   4.568   2.254   1.411 -1.1744 -0.5860 -0.5817
 6592SOL    HW231410   4.685   2.242   1.482 -0.8826 -0.7618  0.8600
 6593SOL     OW31411   1.087   1.475   5.062  0.1133 -0.2082  0.0252
 6593SOL    HW131412   1.130   1.545   5.110 -0.1229 -1.9752  2.7738
 6593SOL    HW231413   1.005   1.469   5.111 -0.8296  0.8705 -1.4290
 6594SOL     OW31414   3.819   3.973   3.359  0.4708 -0.0330 -0.2415
 6594SOL    HW131415   3.806   3.900   3.298 -2.6094 -0.0798  0.5061
 6594SOL    HW231416   3.754   3.950   3.425  2.4767  1.5505  2.2777
 6595SOL     OW31417   3.848   0.405  13.025  0.4361 -0.1284  0.5493
 6595SOL    HW131418   3.847   0.396  13.120  1.5052 -0.1219  0.5674
 6595SOL    HW231419   3.941   0.425  13.013  0.2630  0.5876  0.4297
 6596SOL     OW31420   2.405   2.903   6.200  0.1124  0.0532 -0.3619
 6596SOL    HW131421   2.365   2.944   6.123 -0.3180  1.2017  0.4759
 6596SOL    HW231422   2.374   2.812   6.192 -0.7344  0.3285 -0.1951
 6597SOL     OW31423   3.000   2.639   5.931 -0.0692  0.0105 -0.0527
 6597SOL    HW131424   2.953   2.648   5.848  1.6806  0.4511 -0.9962
 6597SOL    HW231425   3.070   2.580   5.902 -0.3629 -1.2831  1.8822
 6598SOL     OW31426   4.565   3.996   9.103  0.4965  0.0686  0.2288
 6598SOL    HW131427   4.569   4.051   9.025 -1.6656 -1.1931 -0.7534
 6598SOL    HW231428   4.633   3.931   9.085 -0.4710 -1.0018  0.4394
 6599SOL     OW31429   1.954   4.218  14.708  0.2456  0.0607 -0.0369
 6599SOL    HW131430   1.904   4.230  14.789 -0.0083  0.6857 -0.2786
 6599SOL    HW231431   1.958   4.123  14.701  0.8931 -0.0717  2.0160
 6600SOL     OW31432   3.838   1.246   4.581 -0.0678 -0.1191 -0.3756
 6600SOL    HW131433   3.910   1.309   4.573 -0.9420  0.8449 -0.6177
 6600SOL    HW231434   3.778   1.295   4.637  2.5285  0.1854  2.1049
 6601SOL     OW31435   0.911   2.288  11.713  0.0284 -0.3164  0.3265
 6601SOL    HW131436   0.995   2.277  11.668  0.0707  0.5113  0.1954
 6601SOL    HW231437   0.918   2.220  11.779 -0.9274  0.8245  1.5894
 6602SOL     OW31438   0.457   0.704   8.958 -0.5098  0.5492  0.4468
 6602SOL    HW131439   0.514   0.646   9.009 -0.2586  0.4418  0.0436
 6602SOL    HW231440   0.420   0.758   9.028  0.4250  0.7398  0.7993
 6603SOL     OW31441   2.525   1.316  14.128  0.2306  0.0381  0.3403
 6603SOL    HW131442   2.598   1.359  14.173  1.8206 -0.4880 -1.7448
 6603SOL    HW231443   2.453   1.361  14.172  0.9151  3.4479 -2.0191
 6604SOL     OW31444   4.274   4.188  13.261  0.2114 -0.6973 -0.4927
 6604SOL    HW131445   4.349   4.129  13.266 -0.1396 -1.0874  0.2814
 6604SOL    HW231446   4.277   4.218  13.353 -1.8840  0.2180 -0.7188
 6605SOL     OW31447   4.044   4.478   3.418  0.3359  0.1259 -0.7237
 6605SOL    HW131448   3.962   4.437   3.393 -0.1389 -0.0570  1.1360
 6605SOL    HW231449   4.012   4.514   3.501 -0.7549 -0.8821 -0.7229
 6606SOL     OW31450   2.346   1.823   4.925 -0.1061 -0.0383 -0.5595
 6606SOL    HW131451   2.399   1.799   4.849 -0.1314  1.8621 -1.1866
 6606SOL    HW231452   2.267   1.860   4.885  0.9239  0.9180 -1.6738
 6607SOL     OW31453   0.430   3.106   0.260  0.2679  0.1377  0.6788
 6607SOL    HW131454   0.445   3.185   0.312  0.2458  2.3470 -2.6815
 6607SOL    HW231455   0.400   3.138   0.175 -0.0628  0.6622  0.9954
 6608SOL     OW31456   3.472   1.976   2.244  0.0588  0.0061 -0.0128
 6608SOL    HW131457   3.535   1.911   2.213 -0.4295  0.4106 -1.8358
 6608SOL    HW231458   3.426   1.921   2.308  1.5039 -0.3333  0.7317
 6609SOL     OW31459   1.563   4.289  15.844  0.5165 -0.1551 -0.3022
 6609SOL    HW131460   1.482   4.247  15.815  0.3189 -1.4676  2.1053
 6609SOL    HW231461   1.528   4.325  15.926  0.8294 -1.2996  0.3451
 6610SOL     OW31462   0.056   0.182   9.929 -0.1197  0.3828  0.2515
 6610SOL    HW131463   0.048   0.087   9.929  1.0412  0.2914 -1.5218
 6610SOL    HW231464   4.711   0.198   9.888  0.9945  0.6504 -1.9599
 6611SOL     OW31465   2.894   4.446   3.073 -0.0307 -0.0874 -0.9954
 6611SOL    HW131466   2.912   4.458   2.979  2.0078  1.3448 -0.4308
 6611SOL    HW231467   2.854   4.531   3.090 -0.7506 -0.7697  0.7661
 6612SOL     OW31468   2.752   2.907   6.098  0.1325 -0.2340 -0.2300
 6612SOL    HW131469   2.712   2.895   6.184 -1.6778  0.4202 -0.9664
 6612SOL    HW231470   2.840   2.871   6.105  1.1032  2.1962  0.2748
 6613SOL     OW31471   1.616   0.258   7.710 -0.2349  0.8148  0.3771
 6613SOL    HW131472   1.641   0.269   7.802  2.2822 -4.5706  0.3390
 6613SOL    HW231473   1.636   0.165   7.705 -1.6916  0.5281 -0.2360
 6614SOL     OW31474   3.290   3.251  14.082  0.0230 -0.1140  0.0544
 6614SOL    HW131475   3.352   3.179  14.097 -0.2403 -0.3334  0.0919
 6614SOL    HW231476   3.257   3.268  14.170 -1.8192  1.5906 -0.9631
 6615SOL     OW31477   4.683   1.388   3.085 -0.1141 -0.3401  0.1309
 6615SOL    HW131478   4.688   1.341   3.169  0.5176 -0.9078 -0.2286
 6615SOL    HW231479   4.617   1.456   3.102  0.1235  0.0977 -0.6870
 6616SOL     OW31480   2.101   0.429   0.649 -0.5043  0.3437  0.1829
 6616SOL    HW131481   2.068   0.426   0.739 -1.4407  0.0858 -0.1793
 6616SOL    HW231482   2.192   0.460   0.655 -1.3330  2.5466  1.2628
 6617SOL     OW31483   1.970   3.929   9.286 -0.8762  0.3548  1.0674
 6617SOL    HW131484   1.984   3.856   9.226 -0.2202  1.7844 -0.5069
 6617SOL    HW231485   1.969   3.885   9.371 -0.3733 -0.2375  0.7651
 6618SOL     OW31486   1.209   2.801   9.395 -0.1593 -0.4427  0.3321
 6618SOL    HW131487   1.293   2.812   9.438  0.3751 -1.1706 -0.5441
 6618SOL    HW231488   1.152   2.820   9.470 -2.1919 -0.2073 -1.2523
 6619SOL     OW31489   4.085   2.525  14.065  0.1367  0.1125  0.3895
 6619SOL    HW131490   4.056   2.460  14.130  2.0934 -1.1574 -0.0148
 6619SOL    HW231491   4.164   2.482  14.032  0.7518  0.8482  0.8862
 6620SOL     OW31492   2.934   1.307   3.453  0.0466  0.1162 -0.3760
 6620SOL    HW131493   2.928   1.228   3.399 -1.0265 -0.0944  0.0586
 6620SOL    HW231494   3.028   1.315   3.469 -0.0795  0.4037  0.2248
 6621SOL     OW31495   0.025   3.599   8.845 -0.0930  0.1489  0.4860
 6621SOL    HW131496   4.697   3.556   8.794 -0.7690  0.4099  1.1719
 6621SOL    HW231497   0.077   3.619   8.766  1.2822  0.7264  1.5301
 6622SOL     OW31498   3.765   0.761   0.245  0.9921  0.1826  0.0268
 6622SOL    HW131499   3.694   0.696   0.241 -0.7752  2.0998  0.5268
 6622SOL    HW231500   3.736   0.820   0.314 -0.0552  1.0556 -1.1717
 6623SOL     OW31501   1.398   2.870   8.750 -0.3800  0.2300 -0.5478
 6623SOL    HW131502   1.319   2.900   8.796 -1.2788 -0.5600 -1.5902
 6623SOL    HW231503   1.443   2.828   8.824 -0.6579  0.1883 -0.4003
 6624SOL     OW31504   4.415   1.701   8.972 -0.7157  0.1067  0.8581
 6624SOL    HW131505   4.326   1.675   8.946 -0.6457  0.2984  0.4221
 6624SOL    HW231506   4.423   1.656   9.056 -2.9922 -1.2604  0.3554
 6625SOL     OW31507   3.331   2.839   6.983 -0.5411 -0.1229  0.1995
 6625SOL    HW131508   3.345   2.747   7.004  0.4725  0.6743  3.0460
 6625SOL    HW231509   3.326   2.833   6.888 -1.3210  0.9424  0.1686
 6626SOL     OW31510   0.751   1.194  15.384  0.3301 -0.4644  0.0752
 6626SOL    HW131511   0.780   1.156  15.301  0.7444 -0.7254  0.3371
 6626SOL    HW231512   0.783   1.139  15.456  1.6461 -0.9041 -0.8552
 6627SOL     OW31513   1.275   0.404   6.481  0.8914 -0.4695  0.3185
 6627SOL    HW131514   1.202   0.428   6.425  0.4670  1.6849  1.8093
 6627SOL    HW231515   1.234   0.422   6.566 -2.7059 -0.8782 -1.3544
 6628SOL     OW31516   4.216   4.625   6.232 -0.5104 -0.0093 -0.0313
 6628SOL    HW131517   4.270   4.595   6.159  0.4198 -0.5416  0.8809
 6628SOL    HW231518   4.187   4.544   6.276 -1.6785  0.3916 -0.0643
 6629SOL     OW31519   0.738   3.730  10.320 -0.2257 -0.0996 -0.3102
 6629SOL    HW131520   0.753   3.779  10.239 -2.3971 -0.3825 -0.9005
 6629SOL    HW231521   0.660   3.778  10.348 -0.3643 -0.9107  0.7115
 6630SOL     OW31522   0.392   2.895   5.876 -0.4658  0.2074 -0.9110
 6630SOL    HW131523   0.414   2.872   5.785  0.9909  1.3246 -0.8341
 6630SOL    HW231524   0.474   2.891   5.926 -2.7777  0.4050  2.9081
 6631SOL     OW31525   3.694   3.180  14.924 -0.5420 -0.4296 -0.4522
 6631SOL    HW131526   3.684   3.236  15.001  1.3591 -0.3928 -0.2343
 6631SOL    HW231527   3.610   3.204  14.883 -0.1097 -0.2719 -1.2490
 6632SOL     OW31528   2.438   3.517   7.168  0.9893  0.5672  0.4978
 6632SOL    HW131529   2.532   3.528   7.153  0.6035 -0.9404 -3.0539
 6632SOL    HW231530   2.440   3.528   7.263  2.4884  2.2346  0.2642
 6633SOL     OW31531   2.399   1.795  10.644 -0.3607  0.2148 -0.6871
 6633SOL    HW131532   2.437   1.857  10.706  1.2757  0.6745 -2.1367
 6633SOL    HW231533   2.335   1.851  10.601 -0.1690  0.1813 -1.0166
 6634SOL     OW31534   3.355   4.687   8.644  0.3038  1.0510 -0.4580
 6634SOL    HW131535   3.286   4.640   8.597  0.1186 -0.0976  0.9567
 6634SOL    HW231536   3.430   4.637   8.612 -0.2607 -0.0765 -0.0311
 6635SOL     OW31537   1.574   0.360   6.153 -0.1508  0.0833  0.3423
 6635SOL    HW131538   1.526   0.280   6.175 -0.6217  0.5077  0.8728
 6635SOL    HW231539   1.647   0.360   6.215  1.1649  2.0862 -1.1912
 6636SOL     OW31540   0.298   4.524   4.222  0.2140  0.4779  0.2721
 6636SOL    HW131541   0.381   4.516   4.174  0.5277 -0.5982  0.9925
 6636SOL    HW231542   0.258   4.440   4.201  1.7121 -0.3617  0.7658
 6637SOL     OW31543   0.953   3.464   2.126  0.1544 -0.4180  0.1604
 6637SOL    HW131544   0.858   3.475   2.118  0.7137  2.7093 -2.2104
 6637SOL    HW231545   0.952   3.372   2.152 -0.0524 -0.9199 -1.5817
 6638SOL     OW31546   2.078   3.535   5.246  0.0609  0.1488  0.1123
 6638SOL    HW131547   2.046   3.488   5.169 -4.4974  2.7692  0.3921
 6638SOL    HW231548   2.041   3.622   5.230 -1.2219 -0.6102 -1.0544
 6639SOL     OW31549   2.975   0.194   3.052  0.7226  0.1533 -0.9909
 6639SOL    HW131550   3.009   0.254   2.985 -0.3997  0.9602 -0.8260
 6639SOL    HW231551   2.938   0.254   3.117 -0.6821  0.8035 -2.3769
 6640SOL     OW31552   3.643   1.504   7.614 -0.6388  0.3247 -0.3323
 6640SOL    HW131553   3.576   1.543   7.558  0.2599  1.8685 -0.3359
 6640SOL    HW231554   3.617   1.536   7.700 -0.3239  1.8441 -0.8052
 6641SOL     OW31555   2.727   3.632  16.608 -0.2321 -0.1753 -0.3074
 6641SOL    HW131556   2.800   3.664  16.555  0.2767 -1.7794 -0.5726
 6641SOL    HW231557   2.663   3.661  16.543  0.0388  1.1306  0.0077
 6642SOL     OW31558   1.680   0.298  14.661 -0.5175  0.1335 -0.1326
 6642SOL    HW131559   1.603   0.315  14.606  0.6599 -0.4474 -1.9481
 6642SOL    HW231560   1.751   0.355  14.631 -0.4104 -0.1966 -0.4914
 6643SOL     OW31561   0.264   2.144  11.551  0.2217 -0.3090 -0.0433
 6643SOL    HW131562   0.247   2.099  11.467 -1.9100 -2.1981  1.3948
 6643SOL    HW231563   0.338   2.198  11.523  1.2906 -1.4635  0.5158
 6644SOL     OW31564   3.355   2.274   2.238 -0.2723  0.4596 -0.2740
 6644SOL    HW131565   3.342   2.359   2.281  5.3001  0.6530  1.0404
 6644SOL    HW231566   3.432   2.244   2.286 -1.1907 -0.6843  0.4742
 6645SOL     OW31567   4.592   1.373   9.459  0.5847 -0.4814  0.4465
 6645SOL    HW131568   4.500   1.397   9.451  0.1228 -2.6490 -0.7157
 6645SOL    HW231569   4.603   1.336   9.547  0.4714  0.9572  1.0582
 6646SOL     OW31570   3.361   0.173  11.977  0.2168  0.0270  0.2400
 6646SOL    HW131571   3.312   0.164  12.058 -1.4494  0.6836 -0.7014
 6646SOL    HW231572   3.295   0.142  11.915  1.3274  0.1111 -0.9924
 6647SOL     OW31573   3.152   1.964   0.262  0.4481 -0.5415  0.2981
 6647SOL    HW131574   3.238   1.946   0.300  0.6530  2.7627  1.4207
 6647SOL    HW231575   3.097   1.909   0.318 -1.2855  0.8507 -0.0404
 6648SOL     OW31576   3.335   4.495   4.186 -0.4256  0.8965  0.0108
 6648SOL    HW131577   3.349   4.586   4.213 -1.0293  0.5662  1.4291
 6648SOL    HW231578   3.241   4.485   4.200  0.5060 -2.6102  3.6173
 6649SOL     OW31579   3.766   2.664  15.739  0.1260 -0.0543 -0.2227
 6649SOL    HW131580   3.757   2.618  15.656 -2.4885  2.0557 -1.0984
 6649SOL    HW231581   3.799   2.595  15.797  0.3359  0.8803  0.7756
 6650SOL     OW31582   1.942   2.987  10.866 -0.4135 -0.1722 -0.2951
 6650SOL    HW131583   1.943   3.048  10.792 -1.4222  0.1838 -0.0225
 6650SOL    HW231584   2.011   2.922  10.852 -0.4697 -0.0912 -0.9261
 6651SOL     OW31585   2.333   4.418   1.690  0.0729 -0.5547 -0.2017
 6651SOL    HW131586   2.245   4.409   1.725 -0.9346  1.2712 -2.2707
 6651SOL    HW231587   2.346   4.324   1.676  0.4450 -0.4284 -0.7059
 6652SOL     OW31588   1.728   0.940   7.519 -0.1487 -0.2964  0.8120
 6652SOL    HW131589   1.773   0.863   7.482 -0.0549  0.4534 -0.6196
 6652SOL    HW231590   1.740   0.999   7.445 -1.4440 -1.3412 -0.2298
 6653SOL     OW31591   2.882   0.276  17.180 -0.1698 -0.1896 -0.1485
 6653SOL    HW131592   2.914   0.365  17.163 -1.8049  0.2670 -0.8333
 6653SOL    HW231593   2.793   0.300  17.206  0.1267  0.8790 -0.1336
 6654SOL     OW31594   3.618   1.648   5.017  0.2084 -0.1215  0.0143
 6654SOL    HW131595   3.612   1.613   5.106 -1.0048 -0.0686 -0.0500
 6654SOL    HW231596   3.560   1.589   4.970  0.2131 -0.0388 -0.0935
 6655SOL     OW31597   3.518   2.708   1.124  0.1066 -0.4942 -0.3415
 6655SOL    HW131598   3.480   2.796   1.132  0.6983 -0.2712  0.0087
 6655SOL    HW231599   3.448   2.658   1.167 -0.4404 -0.9579 -1.7811
 6656SOL     OW31600   2.418   4.201   7.504  0.3907 -0.4791 -0.1925
 6656SOL    HW131601   2.326   4.199   7.479  1.0420 -1.8614 -2.4953
 6656SOL    HW231602   2.425   4.293   7.477  0.6146 -1.3507 -3.1247
 6657SOL     OW31603   4.401   2.407  12.309  0.2181 -0.1023  0.7430
 6657SOL    HW131604   4.338   2.353  12.357  1.8614 -1.0909  1.8008
 6657SOL    HW231605   4.445   2.342  12.253 -0.2160 -0.4018  0.7502
 6658SOL     OW31606   0.440   2.471   6.787  0.1924  0.1325  0.0848
 6658SOL    HW131607   0.391   2.422   6.853 -0.8564  2.9832  1.4117
 6658SOL    HW231608   0.483   2.396   6.744  0.2576  1.7361 -2.6682
 6659SOL     OW31609   0.261   4.018  13.400 -0.3981  0.0282 -0.3268
 6659SOL    HW131610   0.301   4.021  13.487 -1.1501  0.7544 -0.0093
 6659SOL    HW231611   0.315   4.057  13.330  1.0540  1.4503  1.5754
 6660SOL     OW31612   1.822   2.101   7.275 -0.2779 -0.3748  0.5477
 6660SOL    HW131613   1.751   2.041   7.299 -1.0370  0.8718  1.4055
 6660SOL    HW231614   1.877   2.073   7.348 -1.3352  0.1893  1.5699
 6661SOL     OW31615   3.319   2.236   3.233  0.2284  0.4027 -0.2631
 6661SOL    HW131616   3.321   2.252   3.139  2.2260  0.1371 -0.2584
 6661SOL    HW231617   3.284   2.318   3.267 -1.3233 -0.5428  0.4309
 6662SOL     OW31618   1.878   2.274   0.274 -0.1071  0.3838 -0.6060
 6662SOL    HW131619   1.863   2.356   0.227 -1.4753 -0.4701 -1.6600
 6662SOL    HW231620   1.973   2.281   0.270  0.0705 -1.7624  0.0232
 6663SOL     OW31621   2.509   3.508  15.592  0.2153  0.1165  0.3007
 6663SOL    HW131622   2.521   3.415  15.608  2.4674  0.8379  2.9716
 6663SOL    HW231623   2.593   3.539  15.627  0.0556  0.3239  0.5044
 6664SOL     OW31624   2.803   0.708   8.555  0.5596  0.3112 -0.1189
 6664SOL    HW131625   2.819   0.633   8.498 -0.2520  0.5826 -0.6964
 6664SOL    HW231626   2.886   0.720   8.601  1.1229 -1.0255 -0.7933
 6665SOL     OW31627   4.023   4.088   2.828 -0.4381 -0.0439 -0.3819
 6665SOL    HW131628   3.940   4.059   2.865 -1.3919 -0.0560 -2.5164
 6665SOL    HW231629   4.050   4.174   2.860  1.9537 -0.5510 -1.0387
 6666SOL     OW31630   3.637   2.203  16.897 -0.3805 -0.2824 -0.1242
 6666SOL    HW131631   3.555   2.244  16.922  0.6551  0.9005  1.3449
 6666SOL    HW231632   3.621   2.200  16.802  3.6170  0.2032 -0.8303
 6667SOL     OW31633   1.950   4.548   6.689 -0.0790  0.5009 -0.1902
 6667SOL    HW131634   1.912   4.491   6.757  1.1426 -1.6923 -1.3631
 6667SOL    HW231635   1.868   4.562   6.641 -0.8191 -1.9845  0.3697
 6668SOL     OW31636   1.896   4.065  16.421  0.2413  0.2918 -0.0944
 6668SOL    HW131637   1.866   4.012  16.495  4.9738 -1.4719  0.5473
 6668SOL    HW231638   1.926   3.999  16.358 -0.7711 -0.0552 -0.2217
 6669SOL     OW31639   4.636   2.864   8.606 -0.1895  0.0161 -0.0043
 6669SOL    HW131640   4.678   2.931   8.552  0.4232  0.5834  1.1788
 6669SOL    HW231641   4.662   2.785   8.559  0.3163 -0.8876  1.8251
 6670SOL     OW31642   2.146   0.656  11.722  0.0574 -0.2037  0.0901
 6670SOL    HW131643   2.080   0.699  11.776 -1.2730 -1.8964 -0.1677
 6670SOL    HW231644   2.195   0.602  11.784  0.7659 -2.0790 -2.0899
 6671SOL     OW31645   4.325   2.318   3.604 -0.0469  0.4854 -0.1879
 6671SOL    HW131646   4.323   2.353   3.693  1.1624  1.4482 -0.5351
 6671SOL    HW231647   4.239   2.275   3.605  0.7776 -1.1685 -0.9303
 6672SOL     OW31648   2.480   4.072   5.369 -0.0857  0.3548 -0.0507
 6672SOL    HW131649   2.504   4.066   5.461  1.3493 -2.3395 -0.5933
 6672SOL    HW231650   2.428   4.152   5.375 -0.1145  0.2902  0.5366
 6673SOL     OW31651   1.643   3.364   9.049  0.2029 -0.3247  0.0076
 6673SOL    HW131652   1.611   3.454   9.047  0.8314 -0.1099 -0.4092
 6673SOL    HW231653   1.558   3.322   9.065  0.8591 -2.1537 -1.4064
 6674SOL     OW31654   1.750   3.721   8.760 -0.8593 -0.5571  0.2882
 6674SOL    HW131655   1.766   3.629   8.781 -0.2973 -0.7825 -1.1217
 6674SOL    HW231656   1.654   3.711   8.762 -1.2632  3.0667 -1.1042
 6675SOL     OW31657   4.705   4.283  12.960  0.4104  0.1646  0.3545
 6675SOL    HW131658   0.041   4.253  13.010  0.3612 -0.5385  0.0144
 6675SOL    HW231659   4.712   4.376  12.980 -0.5395  0.5287 -1.0669
 6676SOL     OW31660   2.956   2.427   4.368  0.5614  0.3631  0.4284
 6676SOL    HW131661   3.037   2.413   4.417  1.2603  2.3449 -0.1481
 6676SOL    HW231662   2.983   2.502   4.315 -0.9488 -0.1904 -1.1250
 6677SOL     OW31663   4.629   0.495   4.839  0.2436  0.3277 -0.1371
 6677SOL    HW131664   4.679   0.486   4.758 -0.5398 -0.9195 -0.4805
 6677SOL    HW231665   4.630   0.407   4.876  0.7196  0.6529  0.6275
 6678SOL     OW31666   4.173   2.513  12.970  0.2723  0.4285  0.5518
 6678SOL    HW131667   4.263   2.501  12.940  0.4730  0.1516  1.2695
 6678SOL    HW231668   4.133   2.522  12.883  0.6398 -2.2787  0.1066
 6679SOL     OW31669   4.269   0.833   2.407  0.6543 -0.2974 -0.5699
 6679SOL    HW131670   4.358   0.810   2.432  1.1048  0.0976 -1.7955
 6679SOL    HW231671   4.207   0.798   2.471  0.4073  1.5164  0.1573
 6680SOL     OW31672   4.518   2.091   6.062  0.2686 -0.4505  0.4224
 6680SOL    HW131673   4.517   1.997   6.044  0.1928 -0.3520 -0.0709
 6680SOL    HW231674   4.430   2.110   6.094 -0.0233 -2.4532  0.8201
 6681SOL     OW31675   4.602   4.208   4.469 -0.2909  0.2955 -0.5079
 6681SOL    HW131676   4.572   4.119   4.488  1.2436 -0.3493 -1.1807
 6681SOL    HW231677   4.531   4.231   4.409 -0.2868 -0.4730 -0.8044
 6682SOL     OW31678   4.124   1.759  13.326 -0.3932  0.0135 -0.2615
 6682SOL    HW131679   4.053   1.812  13.363 -1.2383 -0.4015 -1.2662
 6682SOL    HW231680   4.073   1.696  13.275  0.5492 -0.5353 -0.5156
 6683SOL     OW31681   4.659   2.989  11.593  0.4822 -0.5254  0.1131
 6683SOL    HW131682   4.632   2.906  11.632  0.1661 -0.9328 -0.9575
 6683SOL    HW231683   4.720   3.016  11.661 -0.7582  2.5590  0.0297
 6684SOL     OW31684   2.046   2.635   3.391  0.4052 -0.0384  0.4935
 6684SOL    HW131685   2.124   2.610   3.441  0.3505  1.2029  1.2148
 6684SOL    HW231686   1.990   2.558   3.404 -0.7798  1.6199  5.2591
 6685SOL     OW31687   2.958   2.025   2.982  0.3156 -0.3097 -0.6645
 6685SOL    HW131688   2.911   2.102   2.950  0.2706  0.8172  2.0522
 6685SOL    HW231689   2.974   2.039   3.076  3.4874 -0.3631 -1.2181
 6686SOL     OW31690   0.263   4.303  13.076 -0.4268  0.0660 -0.0667
 6686SOL    HW131691   0.274   4.284  13.169 -2.2620  0.2435  0.1883
 6686SOL    HW231692   0.275   4.398  13.077  0.3917 -0.0414  0.0253
 6687SOL     OW31693   0.785   2.652   2.086  0.1094 -0.3592 -0.0979
 6687SOL    HW131694   0.725   2.723   2.064 -0.3393 -0.8283 -0.3973
 6687SOL    HW231695   0.819   2.673   2.173 -2.0504  2.0790  0.1436
 6688SOL     OW31696   4.390   4.395  15.916 -0.4327 -0.3831  0.3419
 6688SOL    HW131697   4.479   4.407  15.883 -0.4036 -1.5732 -0.0219
 6688SOL    HW231698   4.343   4.343  15.851 -0.2282  1.2802 -1.1458
 6689SOL     OW31699   0.145   2.357   6.926  0.3742 -0.1913 -0.4656
 6689SOL    HW131700   0.073   2.313   6.970  1.6426 -1.4602  0.3081
 6689SOL    HW231701   0.108   2.354   6.837 -0.6102  0.0705 -0.0651
 6690SOL     OW31702   0.261   4.438  13.649  0.2584 -0.2780 -0.3460
 6690SOL    HW131703   0.186   4.396  13.691  0.8025  0.3433  1.2619
 6690SOL    HW231704   0.236   4.448  13.557 -1.5520  2.0623  0.4020
 6691SOL     OW31705   0.326   1.156   8.632 -0.2781  0.0213 -0.0813
 6691SOL    HW131706   0.232   1.162   8.613 -1.3811 -3.0796  4.4009
 6691SOL    HW231707   0.324   1.065   8.660 -0.1280  0.0689  0.0823
 6692SOL     OW31708   4.302   1.786   8.458 -0.1503 -0.4514 -0.1892
 6692SOL    HW131709   4.332   1.857   8.401  1.7790 -1.9286 -1.0053
 6692SOL    HW231710   4.345   1.818   8.537 -0.3861 -0.8140  0.0891
 6693SOL     OW31711   1.252   0.585   8.057  0.1422  0.0456  0.5339
 6693SOL    HW131712   1.225   0.677   8.053 -0.1423  0.0037  1.4630
 6693SOL    HW231713   1.343   0.590   8.027 -1.0233 -1.4644 -3.1970
 6694SOL     OW31714   2.946   1.254   9.013 -0.0494  0.1138  0.5208
 6694SOL    HW131715   2.874   1.274   8.954  0.5910  1.7626  0.3011
 6694SOL    HW231716   2.912   1.180   9.063 -1.5095  1.4444  1.5299
 6695SOL     OW31717   0.095   2.853  17.390 -0.1018  0.2623 -0.2088
 6695SOL    HW131718   0.026   2.915  17.411 -0.2800  0.8178 -2.4492
 6695SOL    HW231719   0.152   2.925  17.362  0.3982 -1.9311 -4.9947
 6696SOL     OW31720   2.593   2.216   3.348  0.4572 -0.1517 -0.2575
 6696SOL    HW131721   2.632   2.294   3.309 -0.4225  0.7684  0.7026
 6696SOL    HW231722   2.505   2.247   3.368  0.2785  0.9145 -2.7330
 6697SOL     OW31723   4.045   4.283   7.897  0.0015 -0.4270  0.3991
 6697SOL    HW131724   4.013   4.207   7.848  1.6780 -1.4540  0.9030
 6697SOL    HW231725   3.999   4.278   7.981 -1.2972  0.8429 -0.2302
 6698SOL     OW31726   3.519   0.660   3.065 -0.2169  0.3359  0.2711
 6698SOL    HW131727   3.603   0.687   3.030  0.6701  0.1918  2.2918
 6698SOL    HW231728   3.516   0.581   3.012 -1.1504 -0.6760  1.8440
 6699SOL     OW31729   0.451   3.774   7.636 -0.3928 -0.1346 -0.5737
 6699SOL    HW131730   0.462   3.743   7.546 -0.7130  0.5363 -0.8442
 6699SOL    HW231731   0.364   3.749   7.667 -0.4612  0.9342  0.1151
 6700SOL     OW31732   0.731   2.874   7.660 -0.2067  0.2547  0.0571
 6700SOL    HW131733   0.774   2.795   7.694  0.9649  0.4140 -1.0384
 6700SOL    HW231734   0.766   2.881   7.572  0.1163  1.7988  0.3034
 6701SOL     OW31735   1.844   3.277   8.023 -0.4405  0.4943 -0.2480
 6701SOL    HW131736   1.808   3.219   8.091 -2.6673  0.6364 -1.3011
 6701SOL    HW231737   1.897   3.210   7.979 -0.3306  1.0967 -1.0167
 6702SOL     OW31738   2.495   0.866   9.245  0.6579  0.7509 -0.1419
 6702SOL    HW131739   2.473   0.774   9.234  1.2088  0.8711 -2.2461
 6702SOL    HW231740   2.410   0.909   9.248  1.2695  1.8765  1.3752
 6703SOL     OW31741   4.012   2.273  16.070 -0.2766  0.4427  0.0720
 6703SOL    HW131742   3.997   2.180  16.086 -3.3299  1.1122  1.2580
 6703SOL    HW231743   4.044   2.313  16.151 -0.8442  0.4030  0.3209
 6704SOL     OW31744   1.798   0.921  13.971  0.5901 -0.1864 -0.1528
 6704SOL    HW131745   1.806   0.978  14.047  0.8225  0.2648 -0.5120
 6704SOL    HW231746   1.815   0.978  13.896 -1.0849  1.7782  1.0015
 6705SOL     OW31747   1.959   3.943   7.950 -0.5401 -0.1141 -0.2925
 6705SOL    HW131748   2.032   3.907   8.000 -1.2067 -0.9418  0.0809
 6705SOL    HW231749   1.922   3.858   7.926  0.1205 -0.6533  0.6072
 6706SOL     OW31750   2.415   4.555   1.940 -0.2758  0.2603 -1.2398
 6706SOL    HW131751   2.500   4.549   1.896  0.7419 -1.2428  0.9188
 6706SOL    HW231752   2.372   4.617   1.882 -0.0781  1.3896 -0.1651
 6707SOL     OW31753   1.233   0.845   6.621  0.5184 -0.4665  0.7155
 6707SOL    HW131754   1.199   0.899   6.693  1.3720 -0.9715  1.4899
 6707SOL    HW231755   1.323   0.826   6.649  0.2850  0.4138  2.0727
 6708SOL     OW31756   4.566   0.686   5.717 -0.4111 -0.4145  0.3169
 6708SOL    HW131757   4.521   0.637   5.786  0.3476 -1.1497  0.2826
 6708SOL    HW231758   4.577   0.613   5.657 -0.8496 -1.2272  1.2062
 6709SOL     OW31759   4.442   3.151  10.463 -0.2445 -0.3551 -0.6381
 6709SOL    HW131760   4.463   3.234  10.421  0.0083 -0.2307 -0.2615
 6709SOL    HW231761   4.468   3.087  10.396  1.8057 -1.2217  1.0026
 6710SOL     OW31762   0.611   2.464   4.712 -0.0697  0.5100 -0.5207
 6710SOL    HW131763   0.532   2.456   4.659  0.6200  1.3298 -1.6630
 6710SOL    HW231764   0.593   2.526   4.783  0.3275  0.1198 -0.0777
 6711SOL     OW31765   4.315   1.982  11.690  0.0629 -0.4103  0.1969
 6711SOL    HW131766   4.385   2.023  11.741  0.1959 -1.0219  0.5040
 6711SOL    HW231767   4.230   1.995  11.732 -0.2372  1.4319 -0.9658
 6712SOL     OW31768   1.267   2.258   7.181  0.0737  0.0790 -0.2496
 6712SOL    HW131769   1.248   2.210   7.262 -1.1991 -0.5617 -0.9297
 6712SOL    HW231770   1.242   2.346   7.210  0.2106 -0.6728  2.1570
 6713SOL     OW31771   1.362   0.839  15.686  0.0289  0.1287 -0.5386
 6713SOL    HW131772   1.407   0.885  15.615  0.0924  1.2433  0.2249
 6713SOL    HW231773   1.289   0.798  15.639  0.8653  0.2107 -1.9051
 6714SOL     OW31774   2.832   3.465   8.679 -0.4902 -0.7670  0.1089
 6714SOL    HW131775   2.910   3.485   8.629 -0.9540 -1.8450 -1.0532
 6714SOL    HW231776   2.866   3.491   8.765 -0.0461  1.3447 -0.7106
 6715SOL     OW31777   2.808   3.087  12.122  0.6027  0.2558  1.0053
 6715SOL    HW131778   2.900   3.063  12.133  1.0359  1.4677  0.1129
 6715SOL    HW231779   2.791   3.091  12.216 -1.1392  0.7949  0.6605
 6716SOL     OW31780   4.226   0.987   5.050  0.3677  0.3148 -0.1834
 6716SOL    HW131781   4.190   0.945   4.972  0.3556  0.4219 -0.2350
 6716SOL    HW231782   4.185   0.945   5.126  1.5081 -2.7812 -1.2608
 6717SOL     OW31783   3.721   0.424   9.167  0.4341  0.4977  0.1181
 6717SOL    HW131784   3.747   0.460   9.251 -0.0305 -2.2199  1.4259
 6717SOL    HW231785   3.658   0.481   9.123 -1.9294 -2.0192  0.1984
 6718SOL     OW31786   4.538   0.560   7.326  0.3898 -0.0398 -0.2114
 6718SOL    HW131787   4.625   0.525   7.306 -0.0509 -1.1522 -0.1841
 6718SOL    HW231788   4.544   0.636   7.269 -2.9575  1.6991  1.7307
 6719SOL     OW31789   2.138   1.906   8.786 -0.0673 -0.0360  0.5627
 6719SOL    HW131790   2.157   1.816   8.813  0.4523 -0.2041 -0.3650
 6719SOL    HW231791   2.213   1.931   8.732 -1.4290  0.7547 -0.9703
 6720SOL     OW31792   1.798   0.447   3.629 -0.9021 -0.0857  0.2323
 6720SOL    HW131793   1.857   0.414   3.697  2.5126  2.2289 -1.6375
 6720SOL    HW231794   1.858   0.503   3.580  1.9928 -2.4323  1.1237
 6721SOL     OW31795   0.479   2.956   4.606  0.0856  0.3554  0.0851
 6721SOL    HW131796   0.551   2.920   4.657 -0.5766 -0.8218  0.1806
 6721SOL    HW231797   0.403   2.967   4.663  0.4293  0.2938  0.5515
 6722SOL     OW31798   2.969   1.111   3.247  0.1843  0.0112 -0.4005
 6722SOL    HW131799   2.961   1.022   3.214  2.7306  0.0661 -1.1696
 6722SOL    HW231800   3.047   1.152   3.210  0.3799  0.0815  0.0939
 6723SOL     OW31801   2.741   2.606   4.625  0.6701 -0.2430 -0.0154
 6723SOL    HW131802   2.726   2.574   4.714 -1.0286 -2.8093 -1.2110
 6723SOL    HW231803   2.789   2.532   4.588 -2.2986 -3.4010  2.4024
 6724SOL     OW31804   4.359   2.497   6.037  0.5338 -0.1024 -0.4279
 6724SOL    HW131805   4.302   2.478   6.111 -0.6593  0.8339 -1.1125
 6724SOL    HW231806   4.409   2.573   6.066  0.4527 -0.8846  1.7158
 6725SOL     OW31807   2.580   1.415   9.220  0.5174 -0.7164  0.1415
 6725SOL    HW131808   2.558   1.322   9.226  1.8741 -1.0385  0.0679
 6725SOL    HW231809   2.674   1.421   9.236  0.6921 -1.7534 -0.4793
 6726SOL     OW31810   3.692   3.701   9.179  0.2377  0.2101 -0.0578
 6726SOL    HW131811   3.697   3.608   9.199 -0.3531  0.4130  1.0580
 6726SOL    HW231812   3.681   3.737   9.267 -1.7515 -0.1154 -0.1742
 6727SOL     OW31813   1.287   2.136   4.721  0.0853  0.5043 -0.5571
 6727SOL    HW131814   1.298   2.042   4.713 -3.1464  0.1880 -1.1143
 6727SOL    HW231815   1.319   2.140   4.811 -0.7908 -1.4334 -0.1681
 6728SOL     OW31816   0.572   2.035   5.949  0.2945 -0.3290 -0.4916
 6728SOL    HW131817   0.646   2.040   6.009 -0.3974  4.7205 -0.0530
 6728SOL    HW231818   0.515   2.104   5.982  0.0197 -0.8206  0.0403
 6729SOL     OW31819   2.038   2.189   4.269 -0.0844  0.6008  0.2492
 6729SOL    HW131820   2.117   2.172   4.320  0.7195 -2.7652 -2.0832
 6729SOL    HW231821   1.967   2.192   4.333 -1.1821 -0.8756 -0.8900
 6730SOL     OW31822   1.084   0.320  16.473 -0.2806  0.2158 -0.9680
 6730SOL    HW131823   1.151   0.368  16.521 -2.4287  0.5772  1.6711
 6730SOL    HW231824   1.088   0.231  16.506  0.5965  0.1947 -1.1358
 6731SOL     OW31825   1.666   2.118   2.566 -0.6395 -0.2700 -0.2981
 6731SOL    HW131826   1.683   2.130   2.473  0.3282  1.7027  0.1451
 6731SOL    HW231827   1.614   2.038   2.571 -0.9558 -0.1076 -0.9889
 6732SOL     OW31828   3.184   4.281  14.028 -0.7202 -0.3817  0.2868
 6732SOL    HW131829   3.185   4.374  14.049  0.2740 -0.7573  1.8937
 6732SOL    HW231830   3.259   4.260  13.972 -0.9259 -1.7651  0.5252
 6733SOL     OW31831   2.381   2.965   3.244 -0.3878 -0.1535 -0.0559
 6733SOL    HW131832   2.340   3.047   3.270 -0.2491  0.8044 -2.8524
 6733SOL    HW231833   2.468   2.997   3.219 -1.3539  1.1255 -1.7126
 6734SOL     OW31834   3.697   1.096   6.792 -0.1386 -0.0432 -0.2123
 6734SOL    HW131835   3.729   1.061   6.876  0.5054 -0.1941 -0.5204
 6734SOL    HW231836   3.633   1.162   6.819 -0.8075 -1.3300  1.3335
 6735SOL     OW31837   4.048   0.182   6.981  0.2866  0.4931  0.1828
 6735SOL    HW131838   4.086   0.261   6.941  1.2975 -0.4323 -0.6679
 6735SOL    HW231839   3.956   0.195   6.956 -0.6331 -0.0595  3.2460
 6736SOL     OW31840   1.550   4.630  11.445 -0.0377  0.2073 -0.4672
 6736SOL    HW131841   1.468   4.622  11.396 -1.0890  1.6563  1.0299
 6736SOL    HW231842   1.560   4.537  11.466  0.0847  0.6344  1.4109
 6737SOL     OW31843   1.156   1.246   8.310 -0.4920  0.4080  0.4756
 6737SOL    HW131844   1.225   1.206   8.257 -1.5602  0.4723 -0.9726
 6737SOL    HW231845   1.153   1.179   8.378 -1.5074  0.4805  0.5102
 6738SOL     OW31846   4.357   2.468   2.653  0.2716 -0.2082  0.3872
 6738SOL    HW131847   4.278   2.460   2.599  0.3528  0.6633  0.1351
 6738SOL    HW231848   4.313   2.524   2.717 -0.4717  0.9514 -1.1358
 6739SOL     OW31849   3.768   3.640   5.176  0.1180  0.2735  0.2551
 6739SOL    HW131850   3.812   3.679   5.100  1.6371 -2.3492 -0.2178
 6739SOL    HW231851   3.835   3.601   5.232  0.3659  1.4211  0.7574
 6740SOL     OW31852   4.329   3.126   2.327 -1.0263 -0.6259  0.2508
 6740SOL    HW131853   4.389   3.069   2.279 -0.4550 -1.6319  2.1218
 6740SOL    HW231854   4.379   3.118   2.409 -0.1368 -1.9062 -0.4126
 6741SOL     OW31855   4.166   1.360   5.220 -0.8610 -0.2224 -0.6934
 6741SOL    HW131856   4.194   1.358   5.312 -0.2420  0.6916 -0.8560
 6741SOL    HW231857   4.247   1.388   5.176 -0.6899 -0.9825 -0.8590
 6742SOL     OW31858   2.961   2.163   7.517  0.3902  0.4128  0.5488
 6742SOL    HW131859   3.007   2.081   7.534 -0.7232 -0.2368  0.4564
 6742SOL    HW231860   2.946   2.193   7.606  0.8761  0.5896  0.5699
 6743SOL     OW31861   4.446   2.864  12.719  0.2957 -0.3881  0.4880
 6743SOL    HW131862   4.447   2.770  12.741  2.0600 -0.6301 -0.5989
 6743SOL    HW231863   4.378   2.867  12.652  2.2876 -2.5310 -1.6559
 6744SOL     OW31864   4.354   0.448   3.909 -0.1298 -0.2855 -0.3778
 6744SOL    HW131865   4.297   0.491   3.974 -1.7154 -1.6780 -0.8435
 6744SOL    HW231866   4.442   0.469   3.939 -0.9650 -1.3919  2.8448
 6745SOL     OW31867   1.059   1.744  15.852 -0.0134 -0.1990  0.0575
 6745SOL    HW131868   1.095   1.829  15.827  0.0336 -1.3147 -3.6701
 6745SOL    HW231869   1.032   1.762  15.942  2.5202  0.7495  0.6229
 6746SOL     OW31870   2.397   1.832   4.631 -0.3584  0.0877  0.0411
 6746SOL    HW131871   2.485   1.844   4.595 -0.4596  3.8996  0.9787
 6746SOL    HW231872   2.340   1.843   4.555 -0.2987 -0.8193 -0.1364
 6747SOL     OW31873   3.714   3.618   8.334 -0.8290 -0.4231 -0.5134
 6747SOL    HW131874   3.771   3.546   8.360 -0.8417 -0.2731 -0.0798
 6747SOL    HW231875   3.644   3.577   8.282 -0.8849 -1.5594  0.4578
 6748SOL     OW31876   0.228   4.467  10.206  0.0643  0.3061  0.0259
 6748SOL    HW131877   0.163   4.510  10.150 -1.7679  1.2111  2.8298
 6748SOL    HW231878   0.309   4.511  10.180 -0.5513 -0.8674 -3.8587
 6749SOL     OW31879   0.228   4.583   6.194  0.1731  0.1151  0.5029
 6749SOL    HW131880   0.269   4.667   6.176 -5.0522  2.3140 -1.1937
 6749SOL    HW231881   0.134   4.592   6.177  0.7500  0.0945 -2.5266
 6750SOL     OW31882   4.233   3.629   7.831 -0.1622 -0.0538 -0.1889
 6750SOL    HW131883   4.197   3.571   7.898 -0.2115  0.6169  0.3596
 6750SOL    HW231884   4.319   3.649   7.868 -0.4534  0.4433  0.2035
 6751SOL     OW31885   1.726   3.909   9.841  0.0198  0.3850 -0.1094
 6751SOL    HW131886   1.766   3.887   9.926  2.3934  1.4243 -0.9566
 6751SOL    HW231887   1.788   3.979   9.823  1.4565 -0.6717  0.6945
 6752SOL     OW31888   3.221   0.366   0.112  0.1150  0.4357  0.5080
 6752SOL    HW131889   3.136   0.382   0.071 -0.6967 -1.1900  1.5314
 6752SOL    HW231890   3.284   0.419   0.064  0.3948  1.8304  2.4334
 6753SOL     OW31891   0.417   0.862  17.410  0.9706  0.1942  0.5898
 6753SOL    HW131892   0.492   0.923  17.407 -0.0708  1.4789  0.6636
 6753SOL    HW231893   0.395   0.872  17.318 -1.1368  0.2660  1.0994
 6754SOL     OW31894   1.988   0.943   9.434 -0.0739 -0.1316 -0.0746
 6754SOL    HW131895   1.904   0.956   9.478  0.7748 -1.5250  1.9302
 6754SOL    HW231896   1.962   0.877   9.370 -1.3250 -1.8161  2.2106
 6755SOL     OW31897   4.568   2.099   6.927  0.2765 -0.1668 -0.5229
 6755SOL    HW131898   4.489   2.062   6.889  0.3532 -0.2467 -0.6060
 6755SOL    HW231899   4.621   2.024   6.952 -1.7078 -1.4930 -0.3368
 6756SOL     OW31900   2.733   3.444   1.994  0.6128  0.0812  0.0075
 6756SOL    HW131901   2.679   3.516   1.962  1.0170  0.5023  0.2650
 6756SOL    HW231902   2.817   3.490   1.993 -1.2835  3.4730 -2.9850
 6757SOL     OW31903   0.096   1.536   8.199  0.5417 -0.4166 -0.9221
 6757SOL    HW131904   0.084   1.564   8.290 -2.1227  0.5459 -1.5624
 6757SOL    HW231905   0.085   1.442   8.215  1.5512 -0.1792  1.2862
 6758SOL     OW31906   1.529   4.471  13.901 -0.4066 -0.0620 -0.3282
 6758SOL    HW131907   1.480   4.517  13.833 -1.7077 -0.4044  0.3741
 6758SOL    HW231908   1.560   4.392  13.856  3.0560 -0.0306  1.9583
 6759SOL     OW31909   4.400   4.702   8.892 -0.1603  0.1654 -0.2428
 6759SOL    HW131910   4.470   4.648   8.928  0.3463  1.5033  0.7865
 6759SOL    HW231911   4.348   4.726   8.969  0.9400  2.0320 -0.0639
 6760SOL     OW31912   3.683   4.031   6.826 -0.0315 -0.3498  0.8054
 6760SOL    HW131913   3.679   4.003   6.734 -0.4812  1.2297  0.3447
 6760SOL    HW231914   3.755   3.974   6.852  0.4566 -0.7227 -1.3658
 6761SOL     OW31915   1.590   4.580   2.779  0.6254 -0.0055  0.3884
 6761SOL    HW131916   1.499   4.579   2.807  0.3830 -0.6807 -0.3871
 6761SOL    HW231917   1.619   4.494   2.811 -1.8160  0.1338  2.9514
 6762SOL     OW31918   3.912   0.364   1.404  0.2369  0.3133  0.6276
 6762SOL    HW131919   3.887   0.284   1.357  2.9575  0.3877 -0.9172
 6762SOL    HW231920   3.950   0.335   1.487  0.3555  0.8502  0.7595
 6763SOL     OW31921   3.234   2.094   8.882  0.5506  0.3879  0.3151
 6763SOL    HW131922   3.188   2.081   8.799 -1.2144 -1.2090  1.5430
 6763SOL    HW231923   3.309   2.035   8.877 -1.7319 -2.2822 -2.3288
 6764SOL     OW31924   3.429   0.814   4.755  0.3323  0.0705 -0.3433
 6764SOL    HW131925   3.398   0.873   4.686  0.5481  1.2992  0.6028
 6764SOL    HW231926   3.493   0.869   4.801 -2.4056  2.4548  0.5829
 6765SOL     OW31927   3.298   1.672   3.709  0.3211  0.4840 -0.0418
 6765SOL    HW131928   3.314   1.578   3.707  1.2029  0.6544 -0.8946
 6765SOL    HW231929   3.232   1.680   3.640  1.1454  0.8773 -0.7965
 6766SOL     OW31930   2.597   3.010  11.196  0.3723 -0.2488  0.6428
 6766SOL    HW131931   2.583   3.004  11.291 -0.9114  0.4425  0.5033
 6766SOL    HW231932   2.511   2.977  11.168  0.8995 -1.8470  0.9122
 6767SOL     OW31933   1.974   1.105   3.417 -0.2959 -0.5717 -0.4773
 6767SOL    HW131934   1.902   1.137   3.471  0.8240 -0.6173  1.0298
 6767SOL    HW231935   1.940   1.018   3.395  0.1349 -1.1489  1.2046
 6768SOL     OW31936   1.421   2.879  17.123 -0.0753  0.3251  0.0757
 6768SOL    HW131937   1.354   2.900  17.058 -0.1374  0.2865  0.1281
 6768SOL    HW231938   1.413   2.937  17.199  0.2216 -0.0496  0.3890
 6769SOL     OW31939   0.488   2.012   4.046  0.4352 -0.3287 -0.0418
 6769SOL    HW131940   0.439   1.949   4.098 -1.9266  1.4173 -0.1755
 6769SOL    HW231941   0.463   1.980   3.960 -1.2172 -1.7372  0.9685
 6770SOL     OW31942   2.021   2.266   8.102 -0.0128  0.3475  0.2433
 6770SOL    HW131943   1.984   2.215   8.174 -2.6097 -0.2208 -1.4814
 6770SOL    HW231944   2.115   2.251   8.100  0.0672  0.6996  1.1492
 6771SOL     OW31945   3.230   0.420   5.011 -0.1693  0.2865 -0.0718
 6771SOL    HW131946   3.275   0.380   5.085 -0.8476  2.1603  1.3733
 6771SOL    HW231947   3.305   0.452   4.961  0.7142 -0.9837  0.4487
 6772SOL     OW31948   1.319   3.128   2.417 -0.5723 -0.2084  0.7702
 6772SOL    HW131949   1.289   3.193   2.480 -1.5514 -1.2653  1.3951
 6772SOL    HW231950   1.411   3.155   2.416 -0.2092 -1.4590  0.0528
 6773SOL     OW31951   2.488   2.923   5.300  0.7357  0.3407 -0.3417
 6773SOL    HW131952   2.554   2.939   5.231 -2.0802  0.1992 -3.0689
 6773SOL    HW231953   2.530   2.957   5.379 -0.5670  1.1616 -0.0015
 6774SOL     OW31954   0.604   1.199  13.065 -0.6548 -0.1380 -0.1086
 6774SOL    HW131955   0.585   1.290  13.088  0.4657 -0.2347  1.1533
 6774SOL    HW231956   0.576   1.193  12.973 -1.6061  3.4646 -0.0352
 6775SOL     OW31957   3.527   3.874   7.111  0.1139 -0.0876  0.0923
 6775SOL    HW131958   3.616   3.843   7.099  1.5132  3.0237  2.5719
 6775SOL    HW231959   3.552   3.953   7.159  1.0777  0.1197 -0.7581
 6776SOL     OW31960   2.465   0.904   1.565  0.5051  0.2158  0.0827
 6776SOL    HW131961   2.526   0.912   1.492  0.5294 -3.1420 -0.2504
 6776SOL    HW231962   2.383   0.880   1.522  1.1730 -0.3042 -0.8868
 6777SOL     OW31963   3.953   1.925  13.443 -0.1019  0.3318 -0.1091
 6777SOL    HW131964   3.859   1.909  13.446 -0.1430  0.4610 -0.6859
 6777SOL    HW231965   3.958   1.979  13.522 -2.4893  1.1141 -0.4831
 6778SOL     OW31966   0.131   0.912   1.976  0.0624 -0.5178 -0.0049
 6778SOL    HW131967   0.105   0.821   1.959  0.6964 -0.4467 -1.3872
 6778SOL    HW231968   0.105   0.946   1.890 -1.3532 -1.2717  0.1249
 6779SOL     OW31969   1.575   0.483   4.389  0.5087 -0.2878 -0.1775
 6779SOL    HW131970   1.626   0.428   4.330  1.2203  0.4955 -0.2943
 6779SOL    HW231971   1.632   0.481   4.466 -1.3576 -1.6595  1.1640
 6780SOL     OW31972   1.496   1.369  14.656 -0.3815 -0.4236  0.0156
 6780SOL    HW131973   1.511   1.440  14.594 -2.6674 -0.1509 -0.2159
 6780SOL    HW231974   1.406   1.396  14.677 -0.5491 -1.6074  0.8034
 6781SOL     OW31975   3.752   1.063   5.622 -0.3706 -0.2487  0.1744
 6781SOL    HW131976   3.731   1.142   5.572  3.0463 -0.7489 -2.0475
 6781SOL    HW231977   3.794   1.007   5.557 -0.4958  0.4666 -0.5144
 6782SOL     OW31978   3.500   3.025   3.738 -0.1417  0.0766 -0.2578
 6782SOL    HW131979   3.584   2.985   3.718  0.5042  1.1233  0.3211
 6782SOL    HW231980   3.514   3.115   3.709  0.2712 -0.1254 -0.6829
 6783SOL     OW31981   3.994   2.705  16.747 -0.0789 -0.1621 -0.5883
 6783SOL    HW131982   4.069   2.764  16.740  0.7432 -1.3923 -2.1076
 6783SOL    HW231983   3.921   2.767  16.747  0.3241  0.3114 -1.5499
 6784SOL     OW31984   4.222   0.895   9.082  0.1149 -0.1400  0.7599
 6784SOL    HW131985   4.215   0.978   9.035  1.2899 -1.9247 -2.5432
 6784SOL    HW231986   4.232   0.839   9.005  0.2552  1.9735 -0.7563
 6785SOL     OW31987   0.694   0.698   8.105 -0.4773  0.0901 -0.1105
 6785SOL    HW131988   0.745   0.716   8.026  0.6359 -2.6492 -0.0266
 6785SOL    HW231989   0.738   0.615   8.122  2.1527  1.9711  2.3152
 6786SOL     OW31990   0.366   2.215  16.669 -0.1371  0.4125  0.0736
 6786SOL    HW131991   0.326   2.285  16.618  0.7108 -0.1774 -1.4037
 6786SOL    HW231992   0.437   2.183  16.613  0.9563  0.6370  1.3285
 6787SOL     OW31993   4.430   0.468   5.892 -0.2849 -0.0287 -0.5105
 6787SOL    HW131994   4.413   0.388   5.842  0.3742 -0.3598 -0.2101
 6787SOL    HW231995   4.375   0.460   5.970 -0.2700 -3.1452 -0.8053
 6788SOL     OW31996   0.178   3.554   4.314 -0.1473 -0.1334 -0.2899
 6788SOL    HW131997   0.268   3.555   4.346  0.0441  2.3363 -0.8982
 6788SOL    HW231998   0.139   3.485   4.368 -1.2561 -0.0119 -0.9269
 6789SOL     OW31999   3.978   1.270  17.416 -0.6705  0.1793 -0.3414
 6789SOL    HW132000   3.913   1.200  17.415  0.2960 -0.7099 -0.1974
 6789SOL    HW232001   3.926   1.347  17.442  0.2670  1.3362 -1.9179
 6790SOL     OW32002   0.725   2.628   4.529 -0.3928 -0.5438  0.2337
 6790SOL    HW132003   0.690   2.576   4.602 -1.4637 -1.5728 -1.0213
 6790SOL    HW232004   0.718   2.566   4.457  0.2029  0.9237 -1.0745
 6791SOL     OW32005   4.498   3.283  12.311  1.0780 -0.4086 -0.1972
 6791SOL    HW132006   4.420   3.254  12.358  0.8512  0.6010  0.0457
 6791SOL    HW232007   4.471   3.282  12.220 -0.1706 -0.4698  0.1795
 6792SOL     OW32008   0.645   0.036   9.642  0.3792  0.2241 -0.3103
 6792SOL    HW132009   0.585   4.705   9.662  0.2075  0.5569  0.3726
 6792SOL    HW232010   0.641   0.091   9.721  0.4179 -0.7877  0.3880
 6793SOL     OW32011   4.052   2.546   6.427 -0.2864  0.5878 -0.0282
 6793SOL    HW132012   3.989   2.549   6.354 -2.9384 -1.7845  2.1890
 6793SOL    HW232013   4.121   2.606   6.397 -1.3476  1.3358 -1.0048
 6794SOL     OW32014   2.346   2.847   3.536  0.2770 -0.1914 -0.0189
 6794SOL    HW132015   2.264   2.896   3.538  0.2372 -0.2616  0.1151
 6794SOL    HW232016   2.398   2.899   3.475  0.2026  0.8227  0.7835
 6795SOL     OW32017   4.637   3.496   6.052  0.2675  0.5837 -0.5957
 6795SOL    HW132018   4.677   3.415   6.021  0.8713  0.0727  1.5072
 6795SOL    HW232019   4.621   3.483   6.145  1.5363 -0.3359 -0.5113
 6796SOL     OW32020   1.917   1.417   5.170  0.1116  0.0456  0.3503
 6796SOL    HW132021   1.960   1.491   5.127 -2.1958  0.7586 -0.7619
 6796SOL    HW232022   1.957   1.405   5.256  0.1406  0.9611  0.4603
 6797SOL     OW32023   1.079   1.641   8.047 -0.5194  0.2339 -0.3575
 6797SOL    HW132024   0.984   1.653   8.053 -0.7940 -1.7825 -0.6505
 6797SOL    HW232025   1.097   1.591   8.126 -1.4988 -0.5993 -0.6602
 6798SOL     OW32026   2.250   1.877   6.912  0.9550  0.1399  0.1373
 6798SOL    HW132027   2.269   1.941   6.843  1.8455 -0.3006 -0.0162
 6798SOL    HW232028   2.155   1.890   6.921  1.0874 -0.8734  3.0060
 6799SOL     OW32029   0.023   3.291   5.917  0.6716  0.5929 -0.2583
 6799SOL    HW132030   0.042   3.197   5.914  1.8568  0.8007  0.7768
 6799SOL    HW232031   0.108   3.326   5.890  0.6584  0.5750 -0.3235
 6800SOL     OW32032   1.555   3.756  13.741 -0.4375  0.4226  0.2648
 6800SOL    HW132033   1.538   3.845  13.771 -0.4272  0.1539  1.0606
 6800SOL    HW232034   1.484   3.706  13.782 -1.9918  1.8803 -0.6694
 6801SOL     OW32035   2.471   3.360   3.532 -0.0254  0.2698  0.1281
 6801SOL    HW132036   2.424   3.323   3.458 -2.2989 -0.7290  2.0624
 6801SOL    HW232037   2.430   3.342   3.617 -0.9034 -0.3509 -0.4348
 6802SOL     OW32038   0.443   1.569  11.879  0.2235  0.1878  0.1775
 6802SOL    HW132039   0.380   1.505  11.912  1.9875 -0.4017  2.3701
 6802SOL    HW232040   0.389   1.647  11.862 -1.8013 -1.6182 -1.6874
 6803SOL     OW32041   3.368   1.660   8.018 -0.4117 -0.2975  0.3885
 6803SOL    HW132042   3.342   1.724   8.085  0.5402 -0.6938  1.1365
 6803SOL    HW232043   3.300   1.676   7.953  1.7551  0.0838 -1.7958
 6804SOL     OW32044   3.322   0.804  10.781  0.0805 -0.4836 -0.1918
 6804SOL    HW132045   3.342   0.744  10.852 -0.0426 -2.4616 -1.7947
 6804SOL    HW232046   3.357   0.889  10.805 -2.3722  0.3014  0.6799
 6805SOL     OW32047   3.183   0.121   3.901  0.4305 -0.6423  0.0275
 6805SOL    HW132048   3.217   0.198   3.948  0.8020 -0.6527 -0.2276
 6805SOL    HW232049   3.133   0.164   3.832 -1.2015 -1.5294  0.6693
 6806SOL     OW32050   2.244   3.798   5.335  0.0746  0.0089 -0.0045
 6806SOL    HW132051   2.214   3.864   5.398  0.8978 -0.4694  0.8758
 6806SOL    HW232052   2.162   3.786   5.287  0.1604  0.2144 -0.2097
 6807SOL     OW32053   0.411   3.261   6.199  0.0746 -0.1098 -0.5403
 6807SOL    HW132054   0.410   3.167   6.178  1.1650  0.1418 -1.7482
 6807SOL    HW232055   0.376   3.267   6.288  1.4243 -1.5997  0.1067
 6808SOL     OW32056   3.194   4.173   7.052 -0.1492 -0.2506  0.5763
 6808SOL    HW132057   3.278   4.168   7.098 -1.0389 -1.5350  2.0818
 6808SOL    HW232058   3.137   4.100   7.075 -2.0266  0.8766 -0.4666
 6809SOL     OW32059   1.224   3.263   2.826 -0.1911  0.0781  0.3942
 6809SOL    HW132060   1.315   3.233   2.830  0.7051  2.9290  1.4906
 6809SOL    HW232061   1.180   3.219   2.899 -0.5569  1.2643  0.8909
 6810SOL     OW32062   3.993   0.007   2.405  0.2142 -0.7223  0.3502
 6810SOL    HW132063   3.988   4.652   2.399  1.1176 -0.6783 -1.1772
 6810SOL    HW232064   3.978   0.042   2.317 -0.0422 -1.2049  0.2033
 6811SOL     OW32065   3.208   3.448   8.140 -0.5087  0.2027 -0.7515
 6811SOL    HW132066   3.132   3.502   8.117 -0.2061  0.0527 -2.1227
 6811SOL    HW232067   3.217   3.400   8.058  0.9460 -2.8175  1.2046
 6812SOL     OW32068   0.389   0.721   4.737  0.5363  0.0686  0.1556
 6812SOL    HW132069   0.471   0.683   4.703 -1.0445 -1.5084 -1.9679
 6812SOL    HW232070   0.404   0.725   4.831 -0.9657 -3.3306  0.5418
 6813SOL     OW32071   1.435   4.452   6.407 -0.3238 -0.2430  0.2809
 6813SOL    HW132072   1.427   4.398   6.486  0.6105  0.8819  1.1552
 6813SOL    HW232073   1.379   4.402   6.348 -0.6302  0.7745 -0.2952
 6814SOL     OW32074   2.613   2.216  14.933 -0.1697  0.0798 -0.1826
 6814SOL    HW132075   2.706   2.212  14.955 -0.2734  1.7409  0.5677
 6814SOL    HW232076   2.587   2.125  14.945  1.0357  0.2848  4.1935
 6815SOL     OW32077   2.093   2.876   3.470 -0.0716 -0.0429 -0.0668
 6815SOL    HW132078   2.059   2.788   3.452  1.2701 -1.0313  2.1403
 6815SOL    HW232079   2.019   2.931   3.494  0.3087  0.0954  0.7943
 6816SOL     OW32080   2.302   0.771   6.553  0.1532  0.2109 -0.0959
 6816SOL    HW132081   2.342   0.696   6.598  0.0156  0.7984  0.9876
 6816SOL    HW232082   2.257   0.730   6.479  0.4052  0.4532 -0.3813
 6817SOL     OW32083   1.663   1.394   6.891  0.1037  0.0645 -0.2762
 6817SOL    HW132084   1.725   1.325   6.914  1.1842  0.4706 -1.9473
 6817SOL    HW232085   1.583   1.347   6.914  0.9650  0.3393  3.2131
 6818SOL     OW32086   1.900   1.283   7.682 -0.4102 -0.1884 -0.5157
 6818SOL    HW132087   1.806   1.284   7.700 -0.1137 -0.4412  1.1117
 6818SOL    HW232088   1.919   1.189   7.679  0.0165 -0.1071 -0.3706
 6819SOL     OW32089   4.690   1.499   1.329  0.4315 -0.4254 -0.4640
 6819SOL    HW132090   4.714   1.504   1.237  0.0637  0.0886 -0.5356
 6819SOL    HW232091   4.677   1.592   1.351  1.3214 -0.2914 -0.5047
 6820SOL     OW32092   0.031   3.597  13.353 -0.0300  0.0727  0.3684
 6820SOL    HW132093   0.040   3.562  13.265 -1.1958 -0.4074  0.4393
 6820SOL    HW232094   4.700   3.660  13.342  0.7551  0.4494 -2.3810
 6821SOL     OW32095   2.938   3.736   2.303  0.0912  0.3024 -0.4113
 6821SOL    HW132096   2.956   3.753   2.395  0.6045 -2.8840  0.0933
 6821SOL    HW232097   2.931   3.821   2.260 -1.3169 -0.1338 -1.0334
 6822SOL     OW32098   1.094   0.613   5.691 -0.1471  0.5477  0.1673
 6822SOL    HW132099   1.163   0.640   5.753  0.0175 -1.6935  0.9598
 6822SOL    HW232100   1.072   0.524   5.717 -1.0816  0.7397  0.0242
 6823SOL     OW32101   0.589   3.773   7.062  0.1915 -0.4178  0.6206
 6823SOL    HW132102   0.497   3.791   7.044  0.6677 -2.4558 -4.0162
 6823SOL    HW232103   0.635   3.827   6.998 -1.4812  0.8671  0.5236
 6824SOL     OW32104   0.408   2.013  12.358  0.0253 -0.0755 -0.2604
 6824SOL    HW132105   0.429   1.957  12.284  2.1863  0.9724 -0.4346
 6824SOL    HW232106   0.423   2.099  12.320  3.3525 -0.5616 -0.0138
 6825SOL     OW32107   3.937   2.122   5.500  0.4040 -0.4496 -0.1821
 6825SOL    HW132108   3.941   2.175   5.421 -1.7008  2.2502  1.4857
 6825SOL    HW232109   3.857   2.146   5.548  0.2360 -3.0360  0.8209
 6826SOL     OW32110   3.620   0.766   3.705 -0.7391  0.3097 -0.3203
 6826SOL    HW132111   3.694   0.780   3.763 -0.2477 -0.3282 -0.7794
 6826SOL    HW232112   3.610   0.672   3.723 -2.0285  0.8629  1.7485
 6827SOL     OW32113   3.815   0.684   6.292 -0.2452  0.1697 -0.1860
 6827SOL    HW132114   3.738   0.629   6.286  0.9275 -1.1360 -3.0703
 6827SOL    HW232115   3.799   0.725   6.377 -0.9497 -3.0318  1.2249
 6828SOL     OW32116   3.767   1.603   1.688 -0.0214  0.8761  0.1176
 6828SOL    HW132117   3.818   1.522   1.697 -4.0856 -1.7996 -0.9826
 6828SOL    HW232118   3.799   1.631   1.603  1.5589 -1.3968 -0.0571
 6829SOL     OW32119   1.331   2.289   4.136 -0.3573  0.0753 -0.1549
 6829SOL    HW132120   1.414   2.279   4.182 -0.6696 -0.5414  0.2653
 6829SOL    HW232121   1.347   2.329   4.051  1.8295  0.9286  0.6565
 6830SOL     OW32122   0.916   2.364   7.533  0.9713 -0.1307 -0.4122
 6830SOL    HW132123   0.827   2.332   7.522  0.5681  1.2496 -1.2277
 6830SOL    HW232124   0.957   2.287   7.574  0.9616  1.2872  2.2322
 6831SOL     OW32125   2.064   1.807   2.418  0.2750  0.2741 -0.0100
 6831SOL    HW132126   2.038   1.736   2.359 -0.0291  0.8379 -0.5574
 6831SOL    HW232127   2.002   1.782   2.486 -1.7837  2.5955 -1.0332
 6832SOL     OW32128   0.919   2.176   6.670 -0.1125  0.2043  0.1453
 6832SOL    HW132129   0.862   2.123   6.615  0.4651  0.6049 -0.8294
 6832SOL    HW232130   0.853   2.210   6.731 -0.6831 -2.9009  1.3084
 6833SOL     OW32131   1.796   2.553   6.947  0.0054  0.5594 -0.0342
 6833SOL    HW132132   1.739   2.516   6.880  2.6572 -2.9034 -0.3921
 6833SOL    HW232133   1.873   2.496   6.940 -1.5890 -1.4243 -1.3084
 6834SOL     OW32134   2.060   0.460   2.770 -1.1994  0.6862  0.2452
 6834SOL    HW132135   2.010   0.398   2.822  0.4838  0.8998  2.1207
 6834SOL    HW232136   2.133   0.470   2.832  1.5801  0.6879 -3.0168
 6835SOL     OW32137   4.281   0.611   6.256  0.4811  0.2888 -0.0481
 6835SOL    HW132138   4.346   0.635   6.191 -0.1455 -1.6079 -1.3627
 6835SOL    HW232139   4.322   0.633   6.340  0.8543 -4.6015  1.0347
 6836SOL     OW32140   3.208   2.495   1.509 -0.4110 -0.4744  0.1158
 6836SOL    HW132141   3.195   2.590   1.512 -0.8228 -0.4876 -1.0581
 6836SOL    HW232142   3.292   2.489   1.555  0.9589  2.5493 -1.9073
 6837SOL     OW32143   1.395   3.842   6.361  0.0746 -0.1246  0.5164
 6837SOL    HW132144   1.457   3.795   6.417 -1.0637 -0.7933  1.2226
 6837SOL    HW232145   1.316   3.795   6.386  0.0436 -0.5075 -0.3161
 6838SOL     OW32146   0.762   4.591   0.687  0.0671 -0.2899 -1.0341
 6838SOL    HW132147   0.795   4.546   0.610  0.2130 -1.8631 -0.0589
 6838SOL    HW232148   0.710   4.659   0.645  0.2466  0.5846  0.1292
 6839SOL     OW32149   2.260   0.381   1.529  0.6698  0.4562  0.3794
 6839SOL    HW132150   2.352   0.408   1.529 -0.1336  3.2161  0.3538
 6839SOL    HW232151   2.223   0.420   1.450 -0.1123 -0.5223  0.2580
 6840SOL     OW32152   3.354   0.641   6.958  0.3140 -0.1029 -0.0690
 6840SOL    HW132153   3.297   0.709   6.995 -0.6430 -0.5904 -0.6381
 6840SOL    HW232154   3.371   0.681   6.873 -0.9236  1.5770  0.4610
 6841SOL     OW32155   2.943   2.467  12.976 -0.0061  0.0943  0.0753
 6841SOL    HW132156   2.968   2.419  12.897 -1.9080  0.0838 -0.5044
 6841SOL    HW232157   2.988   2.411  13.040 -0.2310 -0.8829 -0.6179
 6842SOL     OW32158   3.722   0.345  17.731  0.0569 -0.8203  0.4830
 6842SOL    HW132159   3.779   0.297  17.671 -0.3478 -0.6504 -0.0403
 6842SOL    HW232160   3.676   0.414  17.681  3.1793  1.5592  0.8887
 6843SOL     OW32161   2.987   3.584  17.566  0.0351 -0.3028  0.7359
 6843SOL    HW132162   3.020   3.613  17.650 -0.2412 -0.3431  0.8580
 6843SOL    HW232163   2.902   3.551  17.596 -1.1626  1.6460 -0.5183
 6844SOL     OW32164   0.772   1.447  15.903  0.2643  0.3316  0.2216
 6844SOL    HW132165   0.854   1.401  15.886  1.1592  2.1370 -0.3224
 6844SOL    HW232166   0.797   1.538  15.892  2.2931 -0.2442 -0.0063
 6845SOL     OW32167   0.874   4.227   6.409  0.4533  0.4664 -0.4150
 6845SOL    HW132168   0.924   4.293   6.457  1.7343 -1.7755  1.3298
 6845SOL    HW232169   0.826   4.273   6.340 -0.7910  1.0548  0.8299
 6846SOL     OW32170   4.276   1.127  16.575 -0.1685 -0.1707  0.1395
 6846SOL    HW132171   4.248   1.178  16.499 -0.5493 -1.8956 -0.8693
 6846SOL    HW232172   4.318   1.190  16.634  0.7444  0.8723 -1.6290
 6847SOL     OW32173   1.665   1.455   5.266 -0.3696  0.3343 -0.1698
 6847SOL    HW132174   1.751   1.466   5.225  0.4333 -1.2515  1.0801
 6847SOL    HW232175   1.659   1.538   5.312  0.4874  2.2699 -3.6145
 6848SOL     OW32176   1.924   3.432   9.443 -0.1235 -0.0562 -0.2871
 6848SOL    HW132177   1.955   3.505   9.496 -0.9146  0.7896 -0.9875
 6848SOL    HW232178   1.981   3.369   9.486 -1.6088 -2.0034 -1.1875
 6849SOL     OW32179   1.336   0.723   8.506 -0.3802 -0.1403  0.1331
 6849SOL    HW132180   1.374   0.709   8.419  1.5245 -0.0642  0.9435
 6849SOL    HW232181   1.243   0.705   8.492 -0.7393  1.6813  0.1935
 6850SOL     OW32182   3.651   4.484   6.769  0.3898 -0.3977 -0.0111
 6850SOL    HW132183   3.717   4.472   6.701 -1.1162  0.6706 -1.6585
 6850SOL    HW232184   3.588   4.541   6.725  2.5007  0.6304 -1.6972
 6851SOL     OW32185   1.346   1.652  13.861  0.2041 -0.1836  0.0307
 6851SOL    HW132186   1.315   1.708  13.790  2.2463  1.2556  0.2751
 6851SOL    HW232187   1.349   1.724  13.924 -3.5781 -1.5054  1.6852
 6852SOL     OW32188   0.067   1.527   1.090  0.1238  0.2876 -0.6270
 6852SOL    HW132189   0.033   1.589   1.025 -0.3820  1.4574  0.7680
 6852SOL    HW232190   0.081   1.449   1.036  0.8992 -0.3567  0.4988
 6853SOL     OW32191   0.816   2.931   0.316 -0.4046 -0.1914 -0.8472
 6853SOL    HW132192   0.852   2.868   0.253  1.6382 -0.8268  0.9689
 6853SOL    HW232193   0.862   2.923   0.399  1.1805  0.1879 -1.6860
 6854SOL     OW32194   2.958   3.663   4.140  0.2433 -0.3863  0.2433
 6854SOL    HW132195   2.940   3.720   4.065 -0.0091 -2.6629 -1.4396
 6854SOL    HW232196   3.024   3.712   4.188 -2.9402  3.1305  1.0303
 6855SOL     OW32197   4.195   3.834   3.785  0.3545  0.4280  0.2621
 6855SOL    HW132198   4.146   3.896   3.732  1.5532  0.9271 -0.2717
 6855SOL    HW232199   4.210   3.767   3.719  1.0451  0.4579  0.3884
 6856SOL     OW32200   0.346   4.388   6.630 -0.4995  0.0575  0.0545
 6856SOL    HW132201   0.314   4.378   6.540  2.0082 -0.3661 -0.7979
 6856SOL    HW232202   0.440   4.379   6.616 -0.3432 -1.2494  2.0276
 6857SOL     OW32203   1.217   0.737   4.201 -0.6870 -0.0952  0.4125
 6857SOL    HW132204   1.170   0.764   4.122  2.0610 -3.4839 -2.3535
 6857SOL    HW232205   1.183   0.803   4.262  0.5829  1.0155 -0.0789
 6858SOL     OW32206   2.500   1.609   2.140  0.3042 -0.7149 -0.3498
 6858SOL    HW132207   2.493   1.642   2.051  1.2608 -1.2285 -0.6225
 6858SOL    HW232208   2.508   1.515   2.122 -2.1410 -0.7241 -1.3315
 6859SOL     OW32209   2.952   4.189  16.911 -0.3590 -0.3650  0.3826
 6859SOL    HW132210   3.004   4.252  16.960 -1.6630  1.6540 -0.8394
 6859SOL    HW232211   2.964   4.226  16.824  0.7646 -1.5341  0.0394
 6860SOL     OW32212   4.296   0.330   1.187 -0.4796  0.3705 -0.0156
 6860SOL    HW132213   4.375   0.374   1.217 -0.2630 -0.5276  0.7347
 6860SOL    HW232214   4.233   0.399   1.207 -1.3985 -0.5800  0.3592
 6861SOL     OW32215   3.500   4.399   3.302 -0.2398  0.0170  0.0938
 6861SOL    HW132216   3.449   4.382   3.382 -0.3678  0.1291  0.0367
 6861SOL    HW232217   3.433   4.422   3.237 -1.9731  0.7131  2.0916
 6862SOL     OW32218   0.481   0.356  14.745 -0.0634 -0.1554 -0.5460
 6862SOL    HW132219   0.405   0.412  14.759 -0.0213 -0.4160  0.7509
 6862SOL    HW232220   0.499   0.376  14.654  1.1117  1.1640 -0.0201
 6863SOL     OW32221   2.600   3.720   5.146  0.2808 -0.2351 -0.9295
 6863SOL    HW132222   2.687   3.723   5.186 -0.9428 -0.0587  1.7490
 6863SOL    HW232223   2.625   3.686   5.061  1.2799  0.8756 -1.0847
 6864SOL     OW32224   2.077   0.396   2.413  0.5164 -0.0235  0.2064
 6864SOL    HW132225   2.142   0.338   2.374  2.4915  1.2999  1.5683
 6864SOL    HW232226   2.128   0.436   2.483  0.8237  0.5878 -0.3665
 6865SOL     OW32227   2.173   2.473   5.693 -0.5687  0.4676  0.2900
 6865SOL    HW132228   2.081   2.448   5.690 -0.5893  0.8166 -1.9985
 6865SOL    HW232229   2.172   2.569   5.693 -1.8908  0.4785  3.9264
 6866SOL     OW32230   0.330   2.291  13.177  0.4343  0.1876 -0.1299
 6866SOL    HW132231   0.265   2.223  13.158  0.6744 -0.1544  0.3038
 6866SOL    HW232232   0.285   2.333  13.251  0.5356 -0.1770  0.1336
 6867SOL     OW32233   2.984   0.187   3.728 -0.2762 -0.2234  0.3127
 6867SOL    HW132234   2.952   0.115   3.674  0.2267  0.2424 -0.6098
 6867SOL    HW232235   2.932   0.252   3.681 -1.8998 -0.5792  1.6160
 6868SOL     OW32236   0.141   0.992   8.313  0.5922  0.3060  0.5810
 6868SOL    HW132237   0.140   0.899   8.335  0.0224 -0.2055 -1.6457
 6868SOL    HW232238   0.233   1.004   8.287  0.6658  1.6543  1.4820
 6869SOL     OW32239   2.774   4.706   6.470  0.1686 -0.6482  0.0923
 6869SOL    HW132240   2.701   0.019   6.436  0.2937 -1.2156 -1.0725
 6869SOL    HW232241   2.725   4.629   6.498 -0.2297 -0.5558 -0.3379
 6870SOL     OW32242   0.368   3.244   8.872  0.6855  0.0409 -0.0239
 6870SOL    HW132243   0.332   3.217   8.787 -0.9039  1.6256  0.1314
 6870SOL    HW232244   0.293   3.293   8.904 -0.9147 -1.7067 -1.0393
 6871SOL     OW32245   1.984   1.003   5.591 -0.0350  0.3460  0.2290
 6871SOL    HW132246   1.941   1.039   5.668 -2.4933  0.4136 -1.1701
 6871SOL    HW232247   1.970   1.072   5.527  2.2571  0.8118  0.2605
 6872SOL     OW32248   0.036   4.740   2.986 -0.0992  0.4138 -0.6734
 6872SOL    HW132249   4.734   4.691   3.057 -1.5715  2.6741  0.0075
 6872SOL    HW232250   4.698   0.013   2.931  0.3116  2.9133 -0.6456
 6873SOL     OW32251   0.698   1.831   6.415  0.1637 -0.4278 -0.3005
 6873SOL    HW132252   0.718   1.790   6.499  3.7951  0.7662 -0.5953
 6873SOL    HW232253   0.604   1.849   6.409  0.0726 -1.0079 -0.6919
 6874SOL     OW32254   1.155   0.879   6.931 -0.1039 -0.1420 -0.1035
 6874SOL    HW132255   1.084   0.900   6.993 -0.2877 -0.7870 -0.0967
 6874SOL    HW232256   1.234   0.879   6.985 -1.1624  0.3216  1.4931
 6875SOL     OW32257   4.585   2.194  11.764 -0.7802  0.5396 -0.3000
 6875SOL    HW132258   4.623   2.139  11.833 -1.1722  0.0448 -0.4777
 6875SOL    HW232259   4.663   2.228  11.719  0.2088 -0.0181  0.9980
 6876SOL     OW32260   0.395   0.464   7.776 -0.4339 -0.8334  1.2616
 6876SOL    HW132261   0.438   0.411   7.844  0.7321  0.5232  1.5932
 6876SOL    HW232262   0.414   0.552   7.810 -1.1400  0.4163 -1.6397
 6877SOL     OW32263   0.662   0.615   8.513 -0.0725 -0.3782 -0.3145
 6877SOL    HW132264   0.645   0.552   8.443 -0.2234 -0.6205 -0.0630
 6877SOL    HW232265   0.585   0.591   8.564 -0.2232 -1.7423 -1.1895
 6878SOL     OW32266   1.479   0.225   9.274 -0.1333 -0.2114  0.1457
 6878SOL    HW132267   1.571   0.202   9.287 -0.4986 -1.2659  0.8300
 6878SOL    HW232268   1.446   0.141   9.243  4.4665 -0.9620 -2.7984
 6879SOL     OW32269   2.135   3.440   4.419 -0.5817 -0.2431  0.4377
 6879SOL    HW132270   2.148   3.349   4.391 -0.7366 -0.5479  1.3409
 6879SOL    HW232271   2.177   3.439   4.505  0.1509 -1.9326  0.0766
 6880SOL     OW32272   0.795   0.400  11.239  0.4416  0.5275 -0.1920
 6880SOL    HW132273   0.823   0.379  11.150 -0.2670 -0.1687 -0.2508
 6880SOL    HW232274   0.771   0.318  11.283  3.1557 -0.1990 -0.1078
 6881SOL     OW32275   1.513   1.340   9.402 -0.4224  0.0874  0.0083
 6881SOL    HW132276   1.423   1.338   9.368 -0.2917  0.3359 -0.3610
 6881SOL    HW232277   1.534   1.432   9.382 -0.8180  0.4524  1.2898
 6882SOL     OW32278   3.075   1.663  16.730  0.0301 -0.1039  0.1131
 6882SOL    HW132279   2.993   1.705  16.755  0.9621  1.6867  0.1441
 6882SOL    HW232280   3.066   1.670  16.635  1.5060 -0.4853 -0.0542
 6883SOL     OW32281   1.716   2.093   4.389  0.8627 -0.4362  0.2236
 6883SOL    HW132282   1.775   2.028   4.427  2.8451  1.4415  0.3784
 6883SOL    HW232283   1.656   2.103   4.463  0.2816 -1.0186 -0.1711
 6884SOL     OW32284   2.646   4.327   2.783 -0.2979 -0.0240 -0.2253
 6884SOL    HW132285   2.657   4.314   2.689 -0.7935  0.2735 -0.3282
 6884SOL    HW232286   2.550   4.328   2.789 -0.3032  1.8349 -0.5734
 6885SOL     OW32287   4.069   3.569   8.824  0.1764  0.7298 -0.1693
 6885SOL    HW132288   4.128   3.543   8.753  3.7564 -0.5142  3.2611
 6885SOL    HW232289   4.129   3.613   8.884  0.6951  1.5841 -1.3162
 6886SOL     OW32290   3.184   1.759   3.977  0.5546 -0.7358  0.1623
 6886SOL    HW132291   3.145   1.672   3.987  2.3279 -1.6330 -0.6196
 6886SOL    HW232292   3.258   1.739   3.919  0.3262  0.5520 -0.5659
 6887SOL     OW32293   0.304   2.498   9.615 -0.0280  0.1121 -0.5816
 6887SOL    HW132294   0.338   2.409   9.612  1.2747  0.5122  2.3691
 6887SOL    HW232295   0.300   2.515   9.709  0.2517 -1.3640 -0.3009
 6888SOL     OW32296   1.397   3.882  16.831  0.1502 -0.3674  0.5290
 6888SOL    HW132297   1.491   3.901  16.833 -0.5385  3.1965 -0.7903
 6888SOL    HW232298   1.374   3.960  16.881 -2.0350 -0.0503 -0.9674
 6889SOL     OW32299   1.671   3.881  14.731 -0.4338 -0.2481  0.2772
 6889SOL    HW132300   1.665   3.973  14.704 -3.4994 -0.3377  0.6421
 6889SOL    HW232301   1.588   3.851  14.692  0.6830  0.9284 -2.9838
 6890SOL     OW32302   1.196   4.461   8.327  0.0632 -0.0162 -0.3690
 6890SOL    HW132303   1.127   4.505   8.278  0.6422  1.0469 -0.2266
 6890SOL    HW232304   1.241   4.539   8.361  0.4830 -0.8585  0.9842
 6891SOL     OW32305   0.791   0.541  16.143 -0.0518 -0.1387  0.5006
 6891SOL    HW132306   0.871   0.511  16.187  0.9892  2.0486  0.1049
 6891SOL    HW232307   0.803   0.635  16.153 -0.4517 -0.1319  0.8909
 6892SOL     OW32308   4.014   2.085  12.544 -0.0638 -0.4024 -0.3466
 6892SOL    HW132309   4.015   1.994  12.511  0.3575 -0.4553 -0.1889
 6892SOL    HW232310   4.108   2.103  12.547 -0.2674  1.3155 -3.7961
 6893SOL     OW32311   4.699   0.940   3.084 -0.3545 -0.1998  0.0492
 6893SOL    HW132312   4.648   0.879   3.031  0.7218  1.1480 -2.5687
 6893SOL    HW232313   4.702   0.906   3.173  1.3159  2.7100  1.0866
 6894SOL     OW32314   1.587   3.573   7.744  0.1330  0.3496 -0.7051
 6894SOL    HW132315   1.546   3.588   7.829  0.6791 -0.7788 -0.2420
 6894SOL    HW232316   1.653   3.510   7.774  0.6378  0.7595 -0.9453
 6895SOL     OW32317   1.323   0.508  14.028  0.3598 -0.0135  0.1713
 6895SOL    HW132318   1.273   0.573  14.077 -1.5215 -1.7715  0.6179
 6895SOL    HW232319   1.251   0.461  13.985  0.8477 -0.6299  0.0267
 6896SOL     OW32320   4.483   4.669   1.424 -0.3194  0.6098 -0.1446
 6896SOL    HW132321   4.456   4.598   1.366 -0.8166 -0.7745  1.7678
 6896SOL    HW232322   4.564   4.635   1.460 -1.0344 -1.2510 -0.3008
 6897SOL     OW32323   0.356   0.650   7.457  0.5449  0.4582  0.2188
 6897SOL    HW132324   0.374   0.743   7.471  3.5181  0.0194 -0.7399
 6897SOL    HW232325   0.434   0.614   7.499  1.1140  2.5840  0.9731
 6898SOL     OW32326   2.098   1.291   8.399  0.1949  0.5393  0.4862
 6898SOL    HW132327   2.112   1.253   8.485 -1.4083  1.6080  1.2142
 6898SOL    HW232328   2.185   1.331   8.392  0.7091 -0.1362  2.9429
 6899SOL     OW32329   2.457   1.650   6.221  0.3335  0.2355 -0.5254
 6899SOL    HW132330   2.391   1.621   6.284 -2.5080 -0.3119 -3.7437
 6899SOL    HW232331   2.467   1.567   6.174 -0.0135 -1.4226  2.3237
 6900SOL     OW32332   4.632   2.448   9.783  0.6569 -0.2539 -0.0775
 6900SOL    HW132333   4.599   2.404   9.861 -0.0417  1.6371  0.6837
 6900SOL    HW232334   4.689   2.517   9.816  1.0881 -0.9904  0.7136
 6901SOL     OW32335   2.073   0.142   1.387  0.0769  0.1887  0.0234
 6901SOL    HW132336   2.167   0.125   1.397  0.4706  1.9258 -0.7240
 6901SOL    HW232337   2.066   0.217   1.328  0.4373  0.8284  0.8009
 6902SOL     OW32338   0.539   1.731   2.167  0.2702  0.4146  0.4814
 6902SOL    HW132339   0.445   1.724   2.182  0.3247  0.2074  0.7194
 6902SOL    HW232340   0.550   1.636   2.165  0.9241  0.5163 -0.7792
 6903SOL     OW32341   0.809   3.426   3.869  0.5302 -0.2443  0.1127
 6903SOL    HW132342   0.720   3.455   3.849 -0.6220 -2.3581  2.0508
 6903SOL    HW232343   0.802   3.339   3.828  1.2443  0.5614 -1.6895
 6904SOL     OW32344   3.887   0.780   4.598  0.5424  0.3575 -0.4265
 6904SOL    HW132345   3.840   0.837   4.537 -0.1886 -0.5913 -0.7535
 6904SOL    HW232346   3.978   0.809   4.597  1.1464 -1.5254 -0.4938
 6905SOL     OW32347   2.240   0.660   4.253 -0.2466  0.0845  0.5610
 6905SOL    HW132348   2.152   0.638   4.225 -0.8141  0.4666  2.0522
 6905SOL    HW232349   2.231   0.755   4.253  1.0781  0.2230 -3.0129
 6906SOL     OW32350   4.123   1.409  17.220 -0.4017  0.4098 -0.4253
 6906SOL    HW132351   4.145   1.480  17.281  0.5207 -0.0594 -0.2153
 6906SOL    HW232352   4.069   1.356  17.278 -2.0472  0.2663 -2.1029
 6907SOL     OW32353   1.758   3.870  16.560 -0.2826  0.1313  0.0216
 6907SOL    HW132354   1.730   3.900  16.647 -0.0949  1.4095 -0.3567
 6907SOL    HW232355   1.698   3.797  16.549  1.4337 -1.0865 -1.2365
 6908SOL     OW32356   2.884   4.329   0.354  0.3949 -0.5061  0.6247
 6908SOL    HW132357   2.823   4.267   0.395  0.6016 -1.6469 -0.7833
 6908SOL    HW232358   2.832   4.409   0.364  1.7959  0.3014  1.3791
 6909SOL     OW32359   3.861   1.326   8.491 -0.6837  0.1917  0.6733
 6909SOL    HW132360   3.895   1.268   8.560  0.8744 -1.8030 -1.7910
 6909SOL    HW232361   3.891   1.407   8.532  0.5194 -1.1680  2.4981
 6910SOL     OW32362   2.005   1.082  10.780  0.3063 -0.2298  0.0210
 6910SOL    HW132363   1.929   1.110  10.831  0.2337 -1.2781  0.4839
 6910SOL    HW232364   2.046   1.168  10.770  0.8723 -0.4688  0.2636
 6911SOL     OW32365   2.747   3.117   0.649 -0.2748  0.4866 -0.0635
 6911SOL    HW132366   2.788   3.131   0.734  1.3652 -1.8410 -0.4721
 6911SOL    HW232367   2.664   3.078   0.677  0.8254 -2.6366 -1.0985
 6912SOL     OW32368   2.278   2.740   0.862 -0.2909 -0.2593 -0.3384
 6912SOL    HW132369   2.263   2.676   0.793  1.4664 -0.1546 -0.7997
 6912SOL    HW232370   2.195   2.788   0.863  0.3335  0.8113  0.9996
 6913SOL     OW32371   4.681   4.313   9.107 -0.0859  0.1566 -0.2298
 6913SOL    HW132372   4.738   4.244   9.072 -0.9626 -0.1061 -1.1109
 6913SOL    HW232373   4.597   4.270   9.118  0.2149 -0.8784 -2.0841
 6914SOL     OW32374   2.484   0.060   9.439 -0.3377 -0.2429  0.3137
 6914SOL    HW132375   2.519   0.092   9.523 -1.0217 -2.2278  1.3544
 6914SOL    HW232376   2.547   4.730   9.419 -2.4854 -1.8190 -0.8601
 6915SOL     OW32377   0.947   4.276   7.371  0.1374 -0.4300 -0.1795
 6915SOL    HW132378   0.949   4.336   7.445  0.7801  0.3308 -0.8059
 6915SOL    HW232379   0.878   4.321   7.322 -0.5573 -0.9255  0.3511
 6916SOL     OW32380   0.050   1.043   1.720 -0.2238 -0.0367 -0.3365
 6916SOL    HW132381   4.707   1.069   1.680 -1.6728 -1.4686  1.6900
 6916SOL    HW232382   0.063   0.949   1.703 -0.9782  0.1623 -1.9373
 6917SOL     OW32383   1.729   4.342   8.005 -0.4446 -1.2605  0.4282
 6917SOL    HW132384   1.670   4.289   8.059  0.2648 -0.7603  1.7114
 6917SOL    HW232385   1.779   4.278   7.955  2.8633  0.5452  1.3467
 6918SOL     OW32386   2.435   4.113  10.146  0.0973 -0.4141 -0.2715
 6918SOL    HW132387   2.505   4.178  10.140 -1.1543  1.0958  1.4406
 6918SOL    HW232388   2.468   4.045  10.088 -0.6738  1.1821 -2.6123
 6919SOL     OW32389   1.077   4.136  11.783 -0.6388 -0.4428  0.3009
 6919SOL    HW132390   1.068   4.189  11.862 -3.3026  0.9170 -0.9438
 6919SOL    HW232391   0.990   4.098  11.774 -1.0044  0.2842  0.8034
 6920SOL     OW32392   1.625   1.316   7.726  0.1733 -0.2419  0.0968
 6920SOL    HW132393   1.540   1.296   7.766  1.2082  1.8767  3.3635
 6920SOL    HW232394   1.607   1.397   7.677  2.3643 -1.2423 -2.3496
 6921SOL     OW32395   4.079   2.023  11.805  0.5787  0.3521 -0.3135
 6921SOL    HW132396   4.048   2.109  11.832 -2.0115 -0.5041 -0.5830
 6921SOL    HW232397   4.033   1.970  11.870  0.7272 -1.1918 -1.4459
 6922SOL     OW32398   0.740   0.822   6.894 -0.0934  0.0134 -0.1768
 6922SOL    HW132399   0.776   0.839   6.981 -0.4799  0.3553 -0.0815
 6922SOL    HW232400   0.730   0.727   6.902 -0.9468  0.0194 -1.2302
 6923SOL     OW32401   1.377   2.422   5.209  0.3618 -0.1548  0.0078
 6923SOL    HW132402   1.312   2.379   5.264  1.0957  1.1613  1.8909
 6923SOL    HW232403   1.444   2.354   5.215  2.4733  1.6827 -2.4361
 6924SOL     OW32404   0.760   0.795  15.361 -1.2339 -0.5782 -0.2101
 6924SOL    HW132405   0.738   0.852  15.435  0.5519 -0.7854  0.4852
 6924SOL    HW232406   0.723   0.851  15.293 -0.0006 -0.2080 -0.5928
 6925SOL     OW32407   2.816   1.300   5.890  0.1942  0.1936 -0.8678
 6925SOL    HW132408   2.748   1.245   5.851 -1.0192  2.0411 -1.3762
 6925SOL    HW232409   2.862   1.336   5.814  1.2847  0.6816  0.0394
 6926SOL     OW32410   1.455   4.355   5.506  0.2573 -0.1090 -0.3330
 6926SOL    HW132411   1.497   4.434   5.472  1.5675  0.0189  1.5263
 6926SOL    HW232412   1.511   4.352   5.584 -1.4140 -3.2535  0.7391
 6927SOL     OW32413   1.828   0.289   5.209 -0.3674  0.0117  0.1856
 6927SOL    HW132414   1.740   0.325   5.216 -1.3506 -1.8807 -2.4102
 6927SOL    HW232415   1.848   0.265   5.300  1.4247  2.2249  0.3559
 6928SOL     OW32416   2.070   0.889   8.045 -0.3593  0.1032 -0.1575
 6928SOL    HW132417   2.095   0.961   8.103 -0.4988  0.7500 -0.9020
 6928SOL    HW232418   1.985   0.910   8.009 -1.0848 -0.6294  1.1242
 6929SOL     OW32419   0.897   0.638   1.667  0.2243 -0.3619  0.6686
 6929SOL    HW132420   0.962   0.595   1.723 -1.3062 -2.6941  0.6263
 6929SOL    HW232421   0.817   0.588   1.684 -1.2112  1.1418 -1.7469
 6930SOL     OW32422   1.655   1.304  16.432  0.1863  0.5588  0.1717
 6930SOL    HW132423   1.645   1.302  16.337 -0.3061 -0.2106  0.2373
 6930SOL    HW232424   1.571   1.258  16.445 -0.3589  1.2877 -0.8491
 6931SOL     OW32425   1.083   1.520   9.762  0.1981 -0.3932  0.8413
 6931SOL    HW132426   1.127   1.568   9.831  0.2906 -0.4580  0.8277
 6931SOL    HW232427   1.144   1.540   9.691 -1.0756 -0.1171 -0.1835
 6932SOL     OW32428   4.372   0.409   2.996  0.2762 -0.1411  0.0421
 6932SOL    HW132429   4.326   0.365   3.067  0.5550 -1.2757 -0.4880
 6932SOL    HW232430   4.454   0.359   3.001 -0.4628 -1.3120  0.2696
 6933SOL     OW32431   2.625   1.158   0.032  0.2253 -0.1466 -0.2977
 6933SOL    HW132432   2.560   1.130  17.725 -0.7867  1.2602  0.1071
 6933SOL    HW232433   2.651   1.080   0.081 -1.5326 -1.2678 -1.1190
 6934SOL     OW32434   4.341   4.603  13.447 -0.1160  0.5377 -0.1473
 6934SOL    HW132435   4.435   4.591  13.455 -0.0420  3.3218  3.1995
 6934SOL    HW232436   4.345   4.570  13.357  0.9317 -1.7491  0.7303
 6935SOL     OW32437   0.017   3.214   4.869 -0.1109 -0.1567 -0.3062
 6935SOL    HW132438   0.015   3.300   4.827 -1.1323 -0.5892 -1.1238
 6935SOL    HW232439   4.738   3.148   4.803 -0.6926  0.7090 -1.0034
 6936SOL     OW32440   2.342   3.870   3.580  0.4845  0.4817 -0.0038
 6936SOL    HW132441   2.382   3.950   3.614  1.0817  1.1691 -2.3321
 6936SOL    HW232442   2.323   3.832   3.665  3.0866 -0.5238  0.1063
 6937SOL     OW32443   2.846   3.697   5.563 -0.3513  0.4912 -0.4396
 6937SOL    HW132444   2.851   3.726   5.654  0.1602  1.3882 -0.7560
 6937SOL    HW232445   2.921   3.733   5.516  0.2938 -0.5926 -0.2310
 6938SOL     OW32446   3.033   4.653   9.493 -0.0239  0.0813 -0.5289
 6938SOL    HW132447   3.096   4.670   9.423  0.5958  2.4554  0.6025
 6938SOL    HW232448   3.086   4.679   9.568  0.6250 -0.3914 -0.8245
 6939SOL     OW32449   1.323   3.387   5.987  0.0380 -1.0210  0.5953
 6939SOL    HW132450   1.286   3.426   6.066 -1.3045  1.2260 -1.1604
 6939SOL    HW232451   1.364   3.465   5.950  0.6486 -1.5428  0.1827
 6940SOL     OW32452   1.482   3.492  12.740  0.1046  0.1676 -0.1543
 6940SOL    HW132453   1.524   3.465  12.659  0.0899  0.1735 -0.1639
 6940SOL    HW232454   1.446   3.576  12.711 -1.6452 -0.6678 -0.3886
 6941SOL     OW32455   1.465   0.415  16.736  0.0563 -0.1802 -0.3969
 6941SOL    HW132456   1.398   0.469  16.694  1.5676  2.2691  0.3167
 6941SOL    HW232457   1.414   0.336  16.753  0.5830 -0.2735  0.7642
 6942SOL     OW32458   2.244   4.059   2.417 -0.4600  0.1352 -0.6200
 6942SOL    HW132459   2.268   3.970   2.442  0.2794  0.6242  0.4344
 6942SOL    HW232460   2.152   4.047   2.395 -1.1704  0.4073  2.2683
 6943SOL     OW32461   3.257   3.739   8.171 -0.3467  0.4269 -0.4094
 6943SOL    HW132462   3.189   3.704   8.113 -0.4633 -0.9504  0.5521
 6943SOL    HW232463   3.325   3.671   8.166  1.5771  2.3845 -0.7867
 6944SOL     OW32464   0.054   4.527  16.924 -0.4079  0.0688 -0.3598
 6944SOL    HW132465   0.112   4.456  16.949 -2.7660 -1.4285  0.8184
 6944SOL    HW232466   4.716   4.506  16.975 -0.7770  1.6720 -0.2384
 6945SOL     OW32467   2.234   2.911   5.318 -0.0424  0.3514  0.3026
 6945SOL    HW132468   2.203   2.974   5.253 -3.3802 -0.0459  1.5076
 6945SOL    HW232469   2.329   2.916   5.305  0.2063 -0.0104  2.0166
 6946SOL     OW32470   3.774   1.854   0.749 -0.3824  0.2637  0.0530
 6946SOL    HW132471   3.697   1.815   0.707 -0.0488 -1.3022  0.9267
 6946SOL    HW232472   3.726   1.887   0.825 -0.5143 -2.4053  1.1078
 6947SOL     OW32473   1.607   3.481   3.954  0.1260 -0.5673  0.4737
 6947SOL    HW132474   1.688   3.495   4.005 -1.0617  1.6041  1.7604
 6947SOL    HW232475   1.612   3.541   3.880 -1.0555  1.6971  2.2633
 6948SOL     OW32476   1.861   2.608   7.783  0.6607  0.2409  0.6509
 6948SOL    HW132477   1.863   2.689   7.833 -0.0290 -0.9962  2.7176
 6948SOL    HW232478   1.948   2.581   7.813 -0.3742 -1.3532  2.2503
 6949SOL     OW32479   0.076   2.703   6.391  0.3884  0.8243  0.2265
 6949SOL    HW132480   0.123   2.627   6.358  1.1278  1.4762 -0.2189
 6949SOL    HW232481   0.149   2.764   6.382  0.6322  0.7443  1.6662
 6950SOL     OW32482   1.812   2.927  16.127 -0.0247  0.0432  0.5026
 6950SOL    HW132483   1.727   2.956  16.094 -0.5331  0.8919  2.5483
 6950SOL    HW232484   1.863   2.953  16.051 -0.6305 -1.4953 -0.4281
 6951SOL     OW32485   4.117   0.621   3.469 -0.2694 -0.3592 -0.4431
 6951SOL    HW132486   4.205   0.595   3.497 -0.7368  0.5318  1.8606
 6951SOL    HW232487   4.146   0.710   3.448 -0.8222 -0.3558 -1.1848
 6952SOL     OW32488   2.251   2.658  12.110 -0.0315  0.5019 -0.4051
 6952SOL    HW132489   2.285   2.640  12.022  2.3894  1.7111  0.2703
 6952SOL    HW232490   2.163   2.621  12.103  1.7306 -3.0000 -3.8966
 6953SOL     OW32491   2.216   3.227   4.094  0.3341  0.6621  0.5352
 6953SOL    HW132492   2.138   3.276   4.122  0.1079  1.1887 -1.0286
 6953SOL    HW232493   2.194   3.204   4.004  1.5908 -1.5374  0.8068
 6954SOL     OW32494   2.125   3.615  10.386  0.2238 -0.2711  0.1600
 6954SOL    HW132495   2.137   3.590  10.295 -0.7107 -1.0637  0.2607
 6954SOL    HW232496   2.031   3.612  10.402  0.1173 -2.1557 -0.8500
 6955SOL     OW32497   4.091   2.027   7.077  0.2925 -0.5117  0.9288
 6955SOL    HW132498   4.117   1.948   7.125  1.6223 -1.4637 -1.3798
 6955SOL    HW232499   4.103   2.080   7.156  0.4593  0.7436  0.0489
 6956SOL     OW32500   0.065   2.213   4.974  0.2096 -0.6165  0.1004
 6956SOL    HW132501   0.078   2.196   4.881 -2.0215  1.2402 -0.5440
 6956SOL    HW232502   0.037   2.129   5.011 -0.3335 -0.7064 -0.5137
 6957SOL     OW32503   3.049   1.010  16.498  0.2682  0.6561  0.1844
 6957SOL    HW132504   2.996   1.065  16.441 -0.9739  0.2479  0.9276
 6957SOL    HW232505   3.104   0.959  16.439 -0.6660 -1.3906  1.0939
 6958SOL     OW32506   2.061   3.937  13.824  0.0870 -0.4027 -0.0549
 6958SOL    HW132507   2.012   3.959  13.904  0.6968 -0.3505  0.3014
 6958SOL    HW232508   1.992   3.952  13.760  0.9061 -1.0704 -1.0814
 6959SOL     OW32509   4.081   0.542  15.334 -1.0736 -0.4677 -0.3418
 6959SOL    HW132510   4.164   0.547  15.381 -1.8558  0.2220  0.9641
 6959SOL    HW232511   4.044   0.465  15.378  0.2558 -0.1211  1.3774
 6960SOL     OW32512   3.010   0.735   8.744  0.1251 -0.4618  0.6018
 6960SOL    HW132513   3.093   0.781   8.757 -0.3835  0.2202  1.3646
 6960SOL    HW232514   3.015   0.661   8.804  2.4980 -1.1017 -0.3693
 6961SOL     OW32515   2.205   1.365   2.461 -0.2262 -0.5750  0.2449
 6961SOL    HW132516   2.132   1.371   2.399  1.0702 -2.5171 -1.4761
 6961SOL    HW232517   2.263   1.378   2.386 -0.7238  0.1780 -0.0177
 6962SOL     OW32518   0.628   2.308   7.577 -0.1015 -0.2131  0.4932
 6962SOL    HW132519   0.539   2.326   7.547 -0.7180 -2.2647  1.0969
 6962SOL    HW232520   0.611   2.223   7.618 -2.0487  1.9553  4.0881
 6963SOL     OW32521   3.318   1.941   8.117 -0.7241  0.0308  0.2028
 6963SOL    HW132522   3.409   1.969   8.107 -1.2868  1.6030 -0.4182
 6963SOL    HW232523   3.278   2.001   8.180  1.5219  1.0615  0.6553
 6964SOL     OW32524   3.889   0.150  11.415  0.2596  0.5809 -0.1275
 6964SOL    HW132525   3.945   0.073  11.426  0.0310  0.5402  0.6748
 6964SOL    HW232526   3.810   0.118  11.458  2.0216  2.0371  4.1363
 6965SOL     OW32527   4.653   4.020  14.744  0.6477  0.5077  0.1363
 6965SOL    HW132528   4.613   4.100  14.709 -1.0466 -0.1185  0.6637
 6965SOL    HW232529   4.737   4.064  14.763  1.4425 -1.3663  0.9206
 6966SOL     OW32530   0.763   4.372   6.804  0.2719 -0.0233 -0.5329
 6966SOL    HW132531   0.743   4.297   6.747 -0.1715 -0.3795  0.0890
 6966SOL    HW232532   0.687   4.429   6.791  1.0332  1.4928  1.7713
 6967SOL     OW32533   0.428   0.153  10.133  0.0666 -0.7023 -0.4122
 6967SOL    HW132534   0.471   0.232  10.102 -2.0055  0.2617 -0.8164
 6967SOL    HW232535   0.350   0.201  10.160 -1.3685 -2.9013 -0.5859
 6968SOL     OW32536   4.207   3.736   6.673  0.5535 -0.6753 -0.3079
 6968SOL    HW132537   4.186   3.802   6.606 -1.9671 -0.6323  0.5302
 6968SOL    HW232538   4.168   3.772   6.752  0.7536  1.2360 -1.0712
 6969SOL     OW32539   2.025   3.057   6.101  0.5672  0.5061  0.4828
 6969SOL    HW132540   2.094   2.996   6.075  0.7311  0.7779  0.2688
 6969SOL    HW232541   1.960   3.036   6.034  0.5928  1.0887  0.2744
 6970SOL     OW32542   2.424   3.075  16.008  0.0237  0.2578  0.4415
 6970SOL    HW132543   2.515   3.061  16.034  0.9164  0.3752 -2.6609
 6970SOL    HW232544   2.405   2.995  15.959  0.2637  0.9860 -0.8555
 6971SOL     OW32545   0.799   1.581   4.688  0.1936  0.0941 -0.0793
 6971SOL    HW132546   0.834   1.646   4.749 -3.2752  0.5750  1.3614
 6971SOL    HW232547   0.803   1.627   4.604  2.2671 -2.5652 -1.4526
 6972SOL     OW32548   0.876   2.857   8.421 -0.3009  0.4228 -0.2698
 6972SOL    HW132549   0.870   2.772   8.377  0.7941 -0.6373  1.6230
 6972SOL    HW232550   0.910   2.915   8.352  0.4250 -0.2061 -0.4454
 6973SOL     OW32551   3.918   1.949  13.153 -1.0546  0.2214 -0.3154
 6973SOL    HW132552   3.969   1.952  13.234 -0.7512 -0.7867 -0.4700
 6973SOL    HW232553   3.862   2.026  13.140 -0.7348  0.4670 -0.2526
 6974SOL     OW32554   3.140   0.233   7.172  0.6392  0.6187 -0.1488
 6974SOL    HW132555   3.080   0.281   7.230 -0.2057 -0.3163 -0.2498
 6974SOL    HW232556   3.090   0.154   7.150 -0.3192  1.4950 -1.2036
 6975SOL     OW32557   3.838   4.485   8.709  0.4627 -0.4223 -0.0159
 6975SOL    HW132558   3.866   4.444   8.791  0.3262 -0.7681 -0.1427
 6975SOL    HW232559   3.744   4.467   8.717  0.3279  0.4900  0.4628
 6976SOL     OW32560   3.186   0.235   2.253 -0.3473 -0.0703 -0.6274
 6976SOL    HW132561   3.259   0.256   2.312 -0.0086 -6.7170  1.3007
 6976SOL    HW232562   3.140   0.173   2.309 -2.2406  1.0963 -0.9011
 6977SOL     OW32563   0.401   1.486   8.269 -0.6727  0.3502  0.1012
 6977SOL    HW132564   0.352   1.404   8.268  0.1964 -0.1552 -0.3364
 6977SOL    HW232565   0.406   1.496   8.364 -0.9328 -0.1078  0.1627
 6978SOL     OW32566   0.382   2.095   4.509 -1.4178 -0.6399  0.7223
 6978SOL    HW132567   0.329   2.080   4.431 -0.6034 -0.7582  0.1873
 6978SOL    HW232568   0.460   2.041   4.497 -1.3387 -0.3458 -0.0734
 6979SOL     OW32569   3.124   3.740   6.375 -0.2117  0.7126  0.6569
 6979SOL    HW132570   3.126   3.831   6.405  0.5198  1.4116 -1.5128
 6979SOL    HW232571   3.038   3.704   6.396 -0.9273  1.9380 -0.1125
 6980SOL     OW32572   1.315   1.078   7.934  0.2320  0.1734 -0.2404
 6980SOL    HW132573   1.282   1.090   7.845  2.0742  2.0960 -0.6384
 6980SOL    HW232574   1.252   1.137   7.974  1.2104  1.3528 -0.4568
 6981SOL     OW32575   2.587   0.278  13.109  0.5052 -0.6471 -0.2715
 6981SOL    HW132576   2.652   0.300  13.042  1.4789 -0.4065  0.7411
 6981SOL    HW232577   2.625   0.298  13.194  0.3048  1.8783 -0.7772
 6982SOL     OW32578   3.675   3.768   2.114  0.4610  0.4709 -0.2178
 6982SOL    HW132579   3.634   3.735   2.035 -0.4175 -1.1675  0.9151
 6982SOL    HW232580   3.738   3.697   2.128  1.9934  1.5942 -1.3356
 6983SOL     OW32581   0.915   4.701   9.687  0.5423 -0.4015 -0.0326
 6983SOL    HW132582   0.849   0.025   9.662  1.9033  0.9668 -0.1047
 6983SOL    HW232583   0.935   4.657   9.604 -0.3969 -1.0245  0.0714
 6984SOL     OW32584   3.409   2.656   4.905 -0.4595  0.5561  0.0076
 6984SOL    HW132585   3.359   2.686   4.981 -0.4272  4.4074 -1.5290
 6984SOL    HW232586   3.459   2.588   4.951 -1.4266 -0.8902 -1.0785
 6985SOL     OW32587   2.237   4.354   8.570 -0.1601  0.1059  0.0045
 6985SOL    HW132588   2.239   4.368   8.664 -0.6381  0.2913 -0.0144
 6985SOL    HW232589   2.323   4.314   8.554  0.1732  0.2523  1.4609
 6986SOL     OW32590   4.542   0.265  13.758  0.4950  0.3396  0.6170
 6986SOL    HW132591   4.560   0.177  13.724 -0.9235  0.2191  0.1820
 6986SOL    HW232592   4.633   0.296  13.762 -0.2362  2.4786  0.6455
 6987SOL     OW32593   1.582   1.700   1.672 -0.3666 -0.0557 -0.4892
 6987SOL    HW132594   1.592   1.708   1.577 -2.8026  1.5599 -0.6076
 6987SOL    HW232595   1.575   1.605   1.682  0.6154 -0.0874 -0.1151
 6988SOL     OW32596   3.024   4.652   6.802  0.0647  0.1188  0.3688
 6988SOL    HW132597   3.017   4.566   6.760 -1.6091  0.3035  0.2865
 6988SOL    HW232598   3.107   4.632   6.845  0.2972 -0.6186 -0.4228
 6989SOL     OW32599   0.258   4.291  17.003  0.4641  0.1976 -0.1173
 6989SOL    HW132600   0.189   4.267  16.941 -0.5534  0.4652  0.9164
 6989SOL    HW232601   0.222   4.284  17.091 -1.5008  2.1696 -0.7423
 6990SOL     OW32602   4.176   1.341   7.121 -0.4200 -0.6083 -0.1127
 6990SOL    HW132603   4.131   1.407   7.069  0.2963 -2.4167 -3.0044
 6990SOL    HW232604   4.196   1.388   7.202  0.4282  0.6354 -1.0462
 6991SOL     OW32605   1.265   2.189   5.444  0.0034  0.6689  0.0731
 6991SOL    HW132606   1.313   2.238   5.511  0.0547 -1.9481  1.9671
 6991SOL    HW232607   1.185   2.153   5.482 -0.1136  0.7392 -0.1086
 6992SOL     OW32608   0.038   2.451   7.878  0.4160  0.5302  0.0708
 6992SOL    HW132609   4.731   2.491   7.805 -0.0218 -2.1926 -1.1340
 6992SOL    HW232610   0.062   2.368   7.838  2.7794  0.8666  0.8247
 6993SOL     OW32611   2.310   3.504   2.691 -0.1093 -0.0285 -0.0547
 6993SOL    HW132612   2.380   3.449   2.655 -1.9375 -2.5350  0.2512
 6993SOL    HW232613   2.337   3.506   2.783 -1.3212 -0.0902  0.3027
 6994SOL     OW32614   3.005   4.072  11.664  0.2608 -0.2215  0.0554
 6994SOL    HW132615   2.917   4.109  11.668 -0.2127 -1.1081 -1.7939
 6994SOL    HW232616   3.056   4.139  11.619  1.8550 -1.1735  0.4608
 6995SOL     OW32617   0.392   4.396   2.279 -0.1424  0.2493 -0.0498
 6995SOL    HW132618   0.311   4.444   2.262 -1.2243 -1.7656 -0.6497
 6995SOL    HW232619   0.381   4.308   2.244 -1.0814 -0.2528  1.5087
 6996SOL     OW32620   2.183   0.585   8.862 -0.2555 -0.2872 -0.4061
 6996SOL    HW132621   2.128   0.555   8.934  1.6598 -0.2827  1.0694
 6996SOL    HW232622   2.175   0.680   8.873 -2.3378 -0.6803  1.3465
 6997SOL     OW32623   1.125   3.713  13.695 -0.8901 -0.7483  0.0316
 6997SOL    HW132624   1.066   3.686  13.765 -0.5393 -0.7507  0.3309
 6997SOL    HW232625   1.070   3.736  13.620 -0.5361 -2.4746 -0.7497
 6998SOL     OW32626   0.623   0.401   3.872  0.2015  0.4173  0.1813
 6998SOL    HW132627   0.678   0.336   3.916 -1.4337 -1.7190 -0.9375
 6998SOL    HW232628   0.689   0.457   3.832 -0.0295 -0.4334 -1.3845
 6999SOL     OW32629   2.037   0.745   2.677  0.1563 -0.0449 -0.2107
 6999SOL    HW132630   1.972   0.698   2.625 -0.8160  1.9396 -0.7807
 6999SOL    HW232631   2.066   0.678   2.739 -0.5308 -1.2123 -1.1571
 7000SOL     OW32632   2.010   3.296  10.249  0.3156 -0.1608  0.1296
 7000SOL    HW132633   2.089   3.273  10.299  1.6099  1.9057 -0.9506
 7000SOL    HW232634   1.982   3.380  10.288 -0.7185 -0.9598  1.1124
 7001SOL     OW32635   0.919   4.099   5.013  0.3990  0.2282  0.0902
 7001SOL    HW132636   0.938   4.176   5.066  0.3772 -0.2088  0.7355
 7001SOL    HW232637   0.833   4.075   5.045  0.0640  0.5957 -0.5318
 7002SOL     OW32638   1.353   1.376  11.164  0.5140 -0.0688  0.1526
 7002SOL    HW132639   1.342   1.380  11.259 -2.4832  0.6730 -0.2185
 7002SOL    HW232640   1.271   1.414  11.132 -1.1854 -1.3955  2.9339
 7003SOL     OW32641   0.688   3.591   5.982 -0.5824  0.5102 -0.4323
 7003SOL    HW132642   0.604   3.552   5.959  0.4107 -2.0426  0.2667
 7003SOL    HW232643   0.746   3.559   5.914 -0.1029 -0.5064  0.4497
 7004SOL     OW32644   2.134   4.462   6.403 -0.6180 -0.1364 -0.1017
 7004SOL    HW132645   2.142   4.436   6.495  0.4261  1.1378  0.1670
 7004SOL    HW232646   2.123   4.376   6.363  0.8105  0.2213 -1.2260
 7005SOL     OW32647   3.111   4.142   9.092 -0.2957  0.2472 -0.0520
 7005SOL    HW132648   3.153   4.057   9.101  1.2102  0.8178 -1.6674
 7005SOL    HW232649   3.141   4.186   9.172  1.0970 -0.2165 -0.3189
 7006SOL     OW32650   2.003   2.184   7.782  0.3742 -0.2867  0.1537
 7006SOL    HW132651   2.030   2.199   7.872 -0.9409  3.0548 -0.0342
 7006SOL    HW232652   2.062   2.244   7.738  0.6485 -1.2172 -0.7656
 7007SOL     OW32653   4.161   2.463   3.413  0.3397 -0.2336 -0.2053
 7007SOL    HW132654   4.135   2.386   3.463 -0.5527 -0.3816 -0.8901
 7007SOL    HW232655   4.249   2.478   3.448  0.2543  0.4258 -0.2644
 7008SOL     OW32656   3.830   1.236   2.779 -0.0528 -0.9935 -0.2721
 7008SOL    HW132657   3.890   1.164   2.797  1.9373  1.2600  1.9651
 7008SOL    HW232658   3.747   1.200   2.812 -0.9614  0.3618 -1.0561
 7009SOL     OW32659   2.161   2.639   3.798 -0.0536  0.2943 -0.0854
 7009SOL    HW132660   2.188   2.605   3.883 -0.8178 -1.2982 -0.4668
 7009SOL    HW232661   2.235   2.610   3.744  0.5318  0.1512  0.7919
 7010SOL     OW32662   0.972   0.285   2.555 -0.0951 -0.4090  0.6230
 7010SOL    HW132663   0.959   0.202   2.509  3.2017  0.3441 -1.7274
 7010SOL    HW232664   0.882   0.313   2.543  0.1641 -0.0946 -0.6602
 7011SOL     OW32665   4.463   2.395   5.119 -0.2852  0.5370  0.0093
 7011SOL    HW132666   4.489   2.346   5.041  1.2486 -0.3157  1.0588
 7011SOL    HW232667   4.549   2.424   5.148 -0.8259 -1.3857  3.5664
 7012SOL     OW32668   4.275   1.546   1.731  0.4806 -0.1453  0.4819
 7012SOL    HW132669   4.327   1.471   1.760 -0.0530 -0.5943  0.2856
 7012SOL    HW232670   4.270   1.536   1.636 -0.3665 -1.1044  0.6262
 7013SOL     OW32671   1.552   2.937  15.869  0.0149  0.2540  0.2106
 7013SOL    HW132672   1.620   2.883  15.831  0.9850  0.7319  1.2643
 7013SOL    HW232673   1.527   2.876  15.938 -1.6747  0.9309  0.2186
 7014SOL     OW32674   0.323   3.911   0.112 -0.9835  0.2390 -0.0223
 7014SOL    HW132675   0.381   3.891   0.185  1.0259 -2.0451 -2.2465
 7014SOL    HW232676   0.382   3.885   0.041  0.1340 -3.5551  2.3104
 7015SOL     OW32677   2.688   1.855   2.207 -0.4079  0.4822  0.2424
 7015SOL    HW132678   2.606   1.872   2.161 -0.0425  0.5312 -0.3898
 7015SOL    HW232679   2.672   1.897   2.291 -0.4444  0.2935  0.3285
 7016SOL     OW32680   0.681   4.554   2.861 -0.1451  0.0184  0.0866
 7016SOL    HW132681   0.625   4.500   2.804  0.1374  1.1195 -1.2379
 7016SOL    HW232682   0.752   4.490   2.860  1.0186  1.3425 -0.9868
 7017SOL     OW32683   2.215   3.332  15.304 -0.1535  0.0665  0.1728
 7017SOL    HW132684   2.141   3.324  15.243 -1.4197 -2.1086  1.9968
 7017SOL    HW232685   2.179   3.396  15.364 -0.8030 -0.0107 -0.1361
 7018SOL     OW32686   4.356   2.766  15.324  0.2356  0.1644 -0.2437
 7018SOL    HW132687   4.329   2.854  15.350  0.4750 -0.3426  1.7543
 7018SOL    HW232688   4.448   2.791  15.316  0.4673 -0.7526 -0.5108
 7019SOL     OW32689   1.220   2.177   3.157  0.2899 -0.5181 -0.1543
 7019SOL    HW132690   1.191   2.267   3.144 -0.2069 -0.9055 -1.7470
 7019SOL    HW232691   1.242   2.174   3.250  0.7763 -1.8933 -0.3041
 7020SOL     OW32692   2.374   0.567  17.603 -0.1404 -0.4642  0.0022
 7020SOL    HW132693   2.332   0.495  17.650 -0.2772 -1.2098 -1.2659
 7020SOL    HW232694   2.361   0.538  17.513  3.5204  0.0556 -0.6964
 7021SOL     OW32695   0.234   0.303   3.576  0.2833 -0.2098  0.1209
 7021SOL    HW132696   0.282   0.278   3.497 -1.2906 -0.9186 -0.6197
 7021SOL    HW232697   0.291   0.262   3.641  0.4231  1.3970  1.0202
 7022SOL     OW32698   1.895   4.060   5.842 -0.0965 -0.5043 -0.7293
 7022SOL    HW132699   1.983   4.056   5.880 -0.6618 -1.6515  0.4846
 7022SOL    HW232700   1.876   3.966   5.841  2.4632 -1.0115 -2.1364
 7023SOL     OW32701   3.588   4.320   6.125  0.7409 -0.1004  0.0198
 7023SOL    HW132702   3.517   4.334   6.188 -1.4934  1.8380 -2.9219
 7023SOL    HW232703   3.638   4.401   6.118  0.4974  0.1029  0.5876
 7024SOL     OW32704   1.685   1.753   3.119  0.4061  0.1493 -0.4721
 7024SOL    HW132705   1.737   1.767   3.198  1.0107 -2.0809 -0.4786
 7024SOL    HW232706   1.645   1.839   3.109 -4.1373 -1.7634  1.3537
 7025SOL     OW32707   4.660   4.503  15.929 -0.3769  0.2237 -0.2527
 7025SOL    HW132708   4.652   4.586  15.977  0.7663 -0.9766  2.0380
 7025SOL    HW232709   0.004   4.465  15.953 -1.1516 -0.2771  1.6883
 7026SOL     OW32710   3.235   1.371   3.438  0.3281 -0.3456 -0.4111
 7026SOL    HW132711   3.234   1.299   3.501 -1.0564 -0.4188 -0.5183
 7026SOL    HW232712   3.275   1.337   3.357  1.9616 -0.4772  0.4427
 7027SOL     OW32713   2.354   0.404   3.127  0.1694  0.2380  0.1100
 7027SOL    HW132714   2.337   0.464   3.054 -1.1122 -2.4423 -1.8208
 7027SOL    HW232715   2.271   0.405   3.174 -0.4630 -0.0768 -0.9893
 7028SOL     OW32716   0.316   1.833   6.090 -0.7831  0.6319 -0.4669
 7028SOL    HW132717   0.241   1.775   6.096  1.4662 -1.8010  3.9346
 7028SOL    HW232718   0.331   1.838   5.996  1.2606 -0.9479 -0.2149
 7029SOL     OW32719   1.297   2.380   2.004  0.5327 -0.3722  0.3534
 7029SOL    HW132720   1.379   2.334   1.983  0.7958 -0.1598  0.8949
 7029SOL    HW232721   1.334   2.450   2.058 -1.1595  0.9796 -0.2738
 7030SOL     OW32722   2.905   3.977   3.127 -0.0325 -0.8620 -0.0110
 7030SOL    HW132723   2.856   3.962   3.046  0.6440 -0.8781 -0.4261
 7030SOL    HW232724   2.854   3.936   3.197 -2.5094  0.3055 -1.1566
 7031SOL     OW32725   4.251   1.631  11.361 -0.1101 -0.1308  0.2779
 7031SOL    HW132726   4.280   1.707  11.311  0.5520 -0.5839 -0.0370
 7031SOL    HW232727   4.192   1.667  11.427  0.5487  1.9403 -0.2495
 7032SOL     OW32728   1.769   0.228   3.189 -0.2290 -0.2625  0.2839
 7032SOL    HW132729   1.735   0.181   3.112 -1.2117  0.9662 -0.0431
 7032SOL    HW232730   1.688   0.266   3.223 -0.3216  0.0682 -0.3020
 7033SOL     OW32731   4.671   4.357   3.650 -0.2829 -0.3676 -0.1725
 7033SOL    HW132732   4.673   4.285   3.587  0.6955  0.5575 -1.2121
 7033SOL    HW232733   4.605   4.412   3.608 -1.5526 -0.4274  1.7771
 7034SOL     OW32734   1.646   2.965   0.929  0.3075  0.2872 -0.1270
 7034SOL    HW132735   1.651   2.871   0.911 -1.4198  0.0078  0.7946
 7034SOL    HW232736   1.680   2.960   1.018 -1.5201  0.5142  0.5996
 7035SOL     OW32737   3.704   3.090  15.283  0.1246 -0.1372  0.0780
 7035SOL    HW132738   3.751   3.012  15.312 -0.8256 -0.7110  0.0739
 7035SOL    HW232739   3.757   3.102  15.204  1.1278 -1.5463  0.5478
 7036SOL     OW32740   2.915   1.342  10.362 -0.1408 -0.9633  0.1047
 7036SOL    HW132741   2.847   1.357  10.428  0.0997  0.8275 -0.0441
 7036SOL    HW232742   2.995   1.361  10.412 -0.2328 -0.6293  0.1275
 7037SOL     OW32743   2.379   4.598   8.767  0.7095 -0.3528 -0.2348
 7037SOL    HW132744   2.307   4.616   8.707 -1.0567 -0.6155  1.7932
 7037SOL    HW232745   2.333   4.539   8.827  1.3921  1.1672  1.7888
 7038SOL     OW32746   1.316   4.684   6.315 -0.4812  0.0286 -0.4372
 7038SOL    HW132747   1.288   4.621   6.248  0.5295 -0.7100 -0.1473
 7038SOL    HW232748   1.335   4.626   6.388  1.5671 -0.5535 -1.4363
 7039SOL     OW32749   1.128   0.474   8.686  0.7080 -0.4515 -0.2753
 7039SOL    HW132750   1.165   0.445   8.602  2.5793  0.5263  0.2137
 7039SOL    HW232751   1.037   0.493   8.661  1.0195 -0.3195 -1.3393
 7040SOL     OW32752   3.228   1.604   4.296  0.2282 -0.4060 -0.7208
 7040SOL    HW132753   3.223   1.626   4.204  0.1296  1.1652 -0.3393
 7040SOL    HW232754   3.321   1.582   4.304  0.5331  1.4719  0.8587
 7041SOL     OW32755   3.302   1.067   7.195 -0.0801  0.4033  0.6640
 7041SOL    HW132756   3.266   1.031   7.276 -2.8373  0.6435 -0.4518
 7041SOL    HW232757   3.266   1.156   7.189  1.2346  0.8792 -0.2846
 7042SOL     OW32758   2.726   1.153   7.644 -0.0749  1.2119  0.2971
 7042SOL    HW132759   2.789   1.157   7.716 -1.2203  2.0538  1.2402
 7042SOL    HW232760   2.643   1.132   7.685  0.4499  0.3958  0.9440
 7043SOL     OW32761   0.045   3.195   3.498 -0.2686  0.3320 -0.4921
 7043SOL    HW132762   0.140   3.189   3.502 -0.3617 -0.5773  0.4952
 7043SOL    HW232763   0.034   3.214   3.591  1.6716 -1.8414  0.1934
 7044SOL     OW32764   1.831   1.952   5.978  0.5075  0.6239 -0.6865
 7044SOL    HW132765   1.830   2.046   5.995  0.5741  0.3597  0.8014
 7044SOL    HW232766   1.741   1.931   6.001  1.6609 -1.4156  2.0134
 7045SOL     OW32767   1.540   2.048   0.816  0.3090  0.1701 -0.1530
 7045SOL    HW132768   1.618   2.003   0.785  0.3489  1.4208 -1.8564
 7045SOL    HW232769   1.513   2.103   0.742 -1.1584 -0.4197 -0.0484
 7046SOL     OW32770   1.975   1.992  10.586 -0.4658  0.5799  0.1562
 7046SOL    HW132771   1.962   1.992  10.491 -0.2729  2.1234  0.1356
 7046SOL    HW232772   1.942   2.079  10.607 -1.2951  0.5000 -0.8768
 7047SOL     OW32773   1.559   1.310  12.996 -0.0883 -0.0575 -0.1577
 7047SOL    HW132774   1.477   1.359  12.993 -0.3632 -0.5711 -0.8872
 7047SOL    HW232775   1.612   1.367  13.052  0.2511 -1.3529  0.8438
 7048SOL     OW32776   3.171   3.034   6.773 -0.2370  0.0080  0.2303
 7048SOL    HW132777   3.123   3.115   6.793 -0.1969 -0.0737  0.6709
 7048SOL    HW232778   3.256   3.076   6.788 -0.1712  0.2110 -0.7482
 7049SOL     OW32779   2.538   2.199   3.057 -0.1526  0.3135  0.6480
 7049SOL    HW132780   2.544   2.177   3.150 -0.4690  1.4083  0.9249
 7049SOL    HW232781   2.461   2.255   3.046  0.2378  0.9839  1.3441
 7050SOL     OW32782   1.776   2.391  13.487 -0.6066  0.8685 -0.0729
 7050SOL    HW132783   1.836   2.423  13.555 -1.2217  0.1124  0.8373
 7050SOL    HW232784   1.758   2.476  13.447 -0.6636 -0.7111 -3.3254
 7051SOL     OW32785   1.563   1.814   4.706 -0.2576  0.2711  0.3183
 7051SOL    HW132786   1.651   1.804   4.669 -0.1702  0.4749  0.4749
 7051SOL    HW232787   1.580   1.851   4.792  1.1796 -0.3225  0.2903
 7052SOL     OW32788   4.525   0.782   9.944 -0.2460  0.2839  0.4742
 7052SOL    HW132789   4.602   0.780   9.888 -0.4355  3.0771  0.1301
 7052SOL    HW232790   4.459   0.799   9.878 -0.7091  0.6123  1.0235
 7053SOL     OW32791   0.946   1.141   6.664 -0.2220 -0.8487  0.3032
 7053SOL    HW132792   0.926   1.057   6.624 -0.3232  0.3181 -2.0689
 7053SOL    HW232793   1.000   1.178   6.595 -1.1313  2.0795  1.1571
 7054SOL     OW32794   1.440   0.389  10.628 -0.1834 -0.5746  0.2322
 7054SOL    HW132795   1.485   0.330  10.689 -0.2535 -1.0208 -0.1470
 7054SOL    HW232796   1.505   0.458  10.615 -0.4054 -0.4854 -0.4120
 7055SOL     OW32797   4.681   2.782   9.316  0.2033 -0.3350  0.7580
 7055SOL    HW132798   0.009   2.773   9.383  1.3615  0.9116 -0.2516
 7055SOL    HW232799   4.663   2.689   9.307 -2.0015  0.1911 -0.0798
 7056SOL     OW32800   2.677   3.562   7.630  0.4068 -0.4197  0.4501
 7056SOL    HW132801   2.707   3.647   7.598  1.0888 -0.1006  1.9484
 7056SOL    HW232802   2.661   3.592   7.719 -2.4624  1.4291 -0.6562
 7057SOL     OW32803   1.389   2.970   2.208 -0.4327  0.4522 -0.2385
 7057SOL    HW132804   1.362   3.032   2.275 -0.5746  0.8684 -0.6797
 7057SOL    HW232805   1.346   2.887   2.230  0.1779 -0.1669 -1.3765
 7058SOL     OW32806   0.875   2.773  15.584  0.0742  0.0809 -0.1006
 7058SOL    HW132807   0.851   2.833  15.655 -0.6998 -0.5686  0.1905
 7058SOL    HW232808   0.816   2.797  15.513 -0.8950  0.4895  0.8350
 7059SOL     OW32809   4.531   2.045   9.072  0.0542 -0.3456 -0.5483
 7059SOL    HW132810   4.520   2.027   9.165  1.5736  0.9626 -0.1167
 7059SOL    HW232811   4.554   2.138   9.074  2.0353 -0.8032 -1.1065
 7060SOL     OW32812   2.806   1.019  11.915 -0.1585 -0.1900 -0.4587
 7060SOL    HW132813   2.812   0.940  11.970  3.5218  0.0351 -0.5390
 7060SOL    HW232814   2.746   0.994  11.845 -0.6487  0.1846 -0.1794
 7061SOL     OW32815   4.064   3.638   1.491  0.2904 -0.6463 -0.2825
 7061SOL    HW132816   4.147   3.619   1.536  0.6968  2.1862  0.1416
 7061SOL    HW232817   4.087   3.729   1.474 -1.7345 -0.3208 -1.2778
 7062SOL     OW32818   1.812   0.325   6.764 -0.3576  0.2408  0.3079
 7062SOL    HW132819   1.750   0.267   6.720  0.5066  0.0225 -0.6448
 7062SOL    HW232820   1.890   0.269   6.759 -0.8671 -0.4322 -0.1113
 7063SOL     OW32821   0.784   2.098   2.399 -0.5039 -0.1442  0.7909
 7063SOL    HW132822   0.693   2.128   2.410 -0.4715  0.3441 -0.2990
 7063SOL    HW232823   0.791   2.089   2.304 -2.5513 -1.3357  0.7456
 7064SOL     OW32824   1.263   4.652   7.470  0.2286  0.3106 -1.1116
 7064SOL    HW132825   1.280   4.679   7.560  1.4674 -1.5040 -0.8041
 7064SOL    HW232826   1.326   4.581   7.453  1.0816  0.4768  1.3024
 7065SOL     OW32827   4.392   3.540   6.616  0.1421 -0.0645 -0.0528
 7065SOL    HW132828   4.416   3.572   6.529  0.3928  0.3587  0.1724
 7065SOL    HW232829   4.335   3.611   6.644 -0.3931 -0.0539 -1.1356
 7066SOL     OW32830   0.923   4.364   2.448  0.1725 -0.1098  0.3304
 7066SOL    HW132831   0.829   4.380   2.432  0.1577 -1.3680 -0.8772
 7066SOL    HW232832   0.934   4.368   2.543 -1.2557 -1.0495  0.5438
 7067SOL     OW32833   2.417   2.968  10.842  0.0604 -0.4759 -0.5974
 7067SOL    HW132834   2.388   2.972  10.933 -1.1453 -2.0583 -0.9131
 7067SOL    HW232835   2.453   3.056  10.829  0.8305 -1.0011 -2.1253
 7068SOL     OW32836   1.593   4.147   8.440  0.3298  0.3921  0.0378
 7068SOL    HW132837   1.511   4.167   8.486 -0.7343  1.2907 -2.2424
 7068SOL    HW232838   1.600   4.053   8.453  0.3245  0.3845 -0.0154
 7069SOL     OW32839   0.413   1.516   8.559 -0.1298  0.6340 -0.0447
 7069SOL    HW132840   0.451   1.429   8.554  0.6210  0.9586  0.0434
 7069SOL    HW232841   0.362   1.511   8.641 -0.4794  0.2752 -0.2843
 7070SOL     OW32842   1.259   0.957   6.361  0.1430 -0.7197  0.0939
 7070SOL    HW132843   1.243   0.887   6.424 -0.4933 -1.1283 -0.5199
 7070SOL    HW232844   1.302   0.914   6.287  0.9353 -0.5832  0.4776
 7071SOL     OW32845   0.528   2.252  12.346  0.2033 -0.3619  0.1867
 7071SOL    HW132846   0.556   2.231  12.435  1.6081  0.6350 -0.0250
 7071SOL    HW232847   0.590   2.323  12.330  1.3055 -1.7479 -1.6503
 7072SOL     OW32848   1.326   0.886  16.943 -0.3931  0.0034 -0.1255
 7072SOL    HW132849   1.312   0.894  16.849 -1.1812 -0.6573 -0.0660
 7072SOL    HW232850   1.406   0.834  16.944  0.5673  1.4629 -0.9558
 7073SOL     OW32851   3.492   1.267  17.521 -0.2001  0.0391 -0.4051
 7073SOL    HW132852   3.422   1.330  17.536  0.1455  0.4750 -0.6185
 7073SOL    HW232853   3.479   1.241  17.430  0.0450 -0.0808 -0.4077
 7074SOL     OW32854   1.068   4.411  14.501 -0.6590 -0.3378  0.4481
 7074SOL    HW132855   1.067   4.370  14.415 -0.8866 -0.5338  0.5453
 7074SOL    HW232856   1.018   4.353  14.558  0.0586 -0.6124  0.8000
 7075SOL     OW32857   2.705   4.150   0.854  0.0253  0.1901  0.1506
 7075SOL    HW132858   2.704   4.215   0.924 -1.5599  0.9076 -0.5430
 7075SOL    HW232859   2.709   4.205   0.775  2.1809 -0.3861 -0.1286
 7076SOL     OW32860   1.938   4.542   7.998 -0.1575  0.3198 -0.3666
 7076SOL    HW132861   1.882   4.467   8.016  1.7616 -1.2383 -0.8709
 7076SOL    HW232862   2.012   4.486   7.976 -0.7937 -0.3004 -0.9421
 7077SOL     OW32863   4.488   4.445   7.630  0.2125  0.1200 -0.2138
 7077SOL    HW132864   4.486   4.510   7.560 -0.2620  0.0583 -0.2564
 7077SOL    HW232865   4.517   4.368   7.581 -1.5435 -1.2870  0.9883
 7078SOL     OW32866   0.834   0.883   1.501 -0.0586  0.3416 -0.0941
 7078SOL    HW132867   0.861   0.804   1.548 -1.4180 -1.1469 -1.8035
 7078SOL    HW232868   0.899   0.953   1.512  0.5310  0.0180 -1.4836
 7079SOL     OW32869   3.876   3.022   2.919 -0.6806 -0.1288  0.1058
 7079SOL    HW132870   3.885   3.068   3.002  1.7364 -0.6437  0.1156
 7079SOL    HW232871   3.964   3.009   2.884  0.6727  0.6791  3.2702
 7080SOL     OW32872   4.094   1.133   7.465  0.6903 -0.3845 -0.0097
 7080SOL    HW132873   4.116   1.040   7.466 -0.6532 -0.6744  2.0425
 7080SOL    HW232874   4.068   1.153   7.555 -1.6291 -1.2516 -0.4963
 7081SOL     OW32875   1.183   3.837   3.485 -0.2848  0.0039  0.2889
 7081SOL    HW132876   1.260   3.780   3.489  0.7420  1.4514  1.1472
 7081SOL    HW232877   1.120   3.789   3.432  0.1964 -0.3842  0.0727
 7082SOL     OW32878   2.222   1.846  11.756 -0.3947 -0.5724 -0.4361
 7082SOL    HW132879   2.201   1.930  11.797 -0.6816 -0.9712  0.2255
 7082SOL    HW232880   2.297   1.811  11.804 -0.7082  0.2076  0.6335
 7083SOL     OW32881   3.329   1.092   8.395 -0.0706 -0.1211 -0.1965
 7083SOL    HW132882   3.299   1.007   8.427  0.5863 -0.4842 -0.5716
 7083SOL    HW232883   3.339   1.055   8.308  0.7677  0.7720 -0.4759
 7084SOL     OW32884   3.440   4.327   3.563  0.2451  0.2321  0.0171
 7084SOL    HW132885   3.472   4.263   3.627 -1.4051  2.2287  2.8087
 7084SOL    HW232886   3.369   4.274   3.525  1.4975 -1.5914  0.2159
 7085SOL     OW32887   3.423   2.993   2.067  0.5323  0.1594 -0.2409
 7085SOL    HW132888   3.332   2.998   2.040  0.6398 -0.2261 -0.6770
 7085SOL    HW232889   3.469   2.971   1.986  2.5727  0.7824  0.7506
 7086SOL     OW32890   1.770   0.729   4.673 -0.0907  0.3293  0.0214
 7086SOL    HW132891   1.800   0.641   4.648 -1.3340  0.4114 -1.7192
 7086SOL    HW232892   1.801   0.783   4.601 -1.0952  2.3932  1.1346
 7087SOL     OW32893   0.994   1.155   8.694  0.1999  0.3384 -0.7525
 7087SOL    HW132894   0.945   1.229   8.729 -0.8396  0.8526 -3.2677
 7087SOL    HW232895   0.973   1.076   8.742 -1.6131 -0.1818 -2.4101
 7088SOL     OW32896   2.072   3.485   1.241  0.4794 -0.0317  0.0894
 7088SOL    HW132897   2.100   3.487   1.150  0.8276 -2.1117  0.1605
 7088SOL    HW232898   2.054   3.392   1.254 -1.1005  0.1158 -0.9916
 7089SOL     OW32899   1.364   2.277   9.237  0.0811 -0.6951 -0.4494
 7089SOL    HW132900   1.387   2.370   9.239 -1.6506 -0.2402 -1.5261
 7089SOL    HW232901   1.340   2.255   9.328 -0.4409  1.0524 -0.1594
 7090SOL     OW32902   2.687   0.255   7.408 -0.2639 -0.1174 -0.1307
 7090SOL    HW132903   2.690   0.230   7.500 -0.3403  0.9829  0.1799
 7090SOL    HW232904   2.654   0.172   7.373  0.0118 -0.4872  0.4971
 7091SOL     OW32905   4.383   4.331   6.330 -0.4255 -0.0165  0.5582
 7091SOL    HW132906   4.307   4.307   6.382  1.2663 -1.5898  2.2750
 7091SOL    HW232907   4.450   4.367   6.388 -1.2066 -0.0529  1.4761
 7092SOL     OW32908   0.264   0.181   6.651  0.8209  0.2430  0.1460
 7092SOL    HW132909   0.212   0.111   6.614 -1.9474  2.0134  0.7214
 7092SOL    HW232910   0.326   0.172   6.578  1.5484  0.5003  0.7239
 7093SOL     OW32911   3.950   1.347   5.013  0.0141 -0.2358  0.5363
 7093SOL    HW132912   4.012   1.356   5.086 -0.7719 -1.9447  1.4059
 7093SOL    HW232913   3.975   1.266   4.968  0.6193 -0.0252  0.4964
 7094SOL     OW32914   4.163   3.854   4.301  0.4825  0.5240 -0.3472
 7094SOL    HW132915   4.129   3.940   4.322 -2.4231 -0.9539  1.0124
 7094SOL    HW232916   4.202   3.878   4.217  4.4156 -2.2274  0.6272
 7095SOL     OW32917   3.013   3.720  11.939  0.0792  0.2904 -0.3407
 7095SOL    HW132918   2.971   3.768  12.010 -0.7273 -1.0106  0.0563
 7095SOL    HW232919   2.943   3.656  11.923  1.7853 -1.4700 -0.7171
 7096SOL     OW32920   2.266   3.284   6.335  0.0623 -0.2343  0.2691
 7096SOL    HW132921   2.291   3.192   6.348  1.9583  0.4912  1.6597
 7096SOL    HW232922   2.310   3.325   6.409  1.1227  0.5837 -0.8208
 7097SOL     OW32923   3.672   1.365   6.257  0.7980 -0.9997 -0.0290
 7097SOL    HW132924   3.750   1.412   6.227 -2.0550  2.3608 -2.1094
 7097SOL    HW232925   3.715   1.348   6.341  0.8107 -1.0777 -0.0507
 7098SOL     OW32926   4.572   2.454   2.875  0.0106  0.2773  0.6531
 7098SOL    HW132927   4.632   2.528   2.887 -1.0167  1.2852 -0.3816
 7098SOL    HW232928   4.551   2.460   2.782  3.3625  1.5371 -0.0312
 7099SOL     OW32929   0.459   1.075   9.060  0.8264 -0.4470 -0.1741
 7099SOL    HW132930   0.448   1.143   9.127  2.0421  0.9904 -1.4291
 7099SOL    HW232931   0.426   0.998   9.106 -0.4000 -0.4608 -1.0828
 7100SOL     OW32932   0.427   0.514   8.600  0.1844 -0.1331 -0.4583
 7100SOL    HW132933   0.357   0.467   8.555 -0.3684 -1.4516  1.7915
 7100SOL    HW232934   0.379   0.532   8.680  3.0658  0.4454  1.1505
 7101SOL     OW32935   0.329   2.338  10.291 -0.6266  0.1842  0.2474
 7101SOL    HW132936   0.415   2.317  10.328 -0.0671  0.2513 -1.0307
 7101SOL    HW232937   0.311   2.248  10.262  0.9311 -0.5088  1.3729
 7102SOL     OW32938   1.338   0.699   5.826 -0.3291  0.2174 -0.0468
 7102SOL    HW132939   1.417   0.737   5.787 -0.4002 -0.7902 -1.1614
 7102SOL    HW232940   1.356   0.707   5.920 -1.1854 -1.3733  0.2542
 7103SOL     OW32941   2.988   0.606   6.970 -0.0722 -0.4484 -0.0163
 7103SOL    HW132942   3.050   0.675   6.994  1.1621 -0.7399 -2.4063
 7103SOL    HW232943   3.047   0.537   6.940  0.0093 -0.3690 -0.0358
 7104SOL     OW32944   3.820   4.575   4.607  0.3057  0.9125  0.0173
 7104SOL    HW132945   3.780   4.536   4.530 -0.5807  1.5396  0.1636
 7104SOL    HW232946   3.797   4.668   4.598  0.6221  1.0552  0.6746
 7105SOL     OW32947   1.919   0.926   3.121  0.2972  0.1789 -0.1897
 7105SOL    HW132948   1.941   0.934   3.028 -1.9730  1.2323 -0.6404
 7105SOL    HW232949   1.823   0.934   3.121  0.3306  0.6371  1.6612
 7106SOL     OW32950   1.971   4.165   7.277  0.0464 -0.0012  0.5587
 7106SOL    HW132951   2.020   4.087   7.301  0.5098  0.5229  1.3242
 7106SOL    HW232952   1.983   4.166   7.182 -1.2308  0.3265  0.4030
 7107SOL     OW32953   1.524   0.270   8.984 -0.0237 -0.0519 -0.0694
 7107SOL    HW132954   1.542   0.290   9.076  0.7783  2.2334 -0.7333
 7107SOL    HW232955   1.479   0.187   8.998 -0.0245 -0.3654 -1.9899
 7108SOL     OW32956   1.614   3.595   3.384  0.2085 -0.0327  0.0459
 7108SOL    HW132957   1.648   3.599   3.474  0.3893 -1.8528  0.0693
 7108SOL    HW232958   1.654   3.511   3.360  1.4083  0.1635  1.3574
 7109SOL     OW32959   4.375   0.689   3.420 -0.1979  0.8344  0.8988
 7109SOL    HW132960   4.441   0.638   3.372  0.2777  1.3525  1.0064
 7109SOL    HW232961   4.326   0.741   3.356  0.5638  1.2987  0.6857
 7110SOL     OW32962   2.602   0.150   2.412 -0.2841  0.2539 -0.3236
 7110SOL    HW132963   2.596   0.184   2.322  0.0535 -1.1343 -0.8575
 7110SOL    HW232964   2.696   0.149   2.425 -0.2639 -1.5721 -0.6634
 7111SOL     OW32965   0.736   4.107   9.023  0.2085  0.5713  0.0380
 7111SOL    HW132966   0.758   4.017   8.999 -0.6164  0.3231  0.2224
 7111SOL    HW232967   0.809   4.121   9.083 -0.5094  2.7831  0.3920
 7112SOL     OW32968   3.936   1.169  16.025 -0.1611 -0.2292 -0.0279
 7112SOL    HW132969   4.028   1.181  16.001 -0.1092  1.8527  1.2740
 7112SOL    HW232970   3.912   1.261  16.021  0.6990  0.0681  1.6424
 7113SOL     OW32971   4.575   0.895   2.592 -0.0068  0.5055 -0.5530
 7113SOL    HW132972   4.643   0.907   2.526 -0.5262  0.4854 -1.0930
 7113SOL    HW232973   4.546   0.810   2.559 -1.3639  0.4450  0.8190
 7114SOL     OW32974   2.387   2.866   6.696  0.2994 -0.6235  0.7827
 7114SOL    HW132975   2.304   2.820   6.708 -0.2830  0.3632  0.5473
 7114SOL    HW232976   2.423   2.812   6.626 -1.3262 -0.1693 -0.4064
 7115SOL     OW32977   2.588   3.820   4.294  0.1086 -0.3224 -0.1578
 7115SOL    HW132978   2.572   3.864   4.377 -0.9656  2.0630 -1.5989
 7115SOL    HW232979   2.521   3.752   4.303 -1.2163  0.8589 -1.0090
 7116SOL     OW32980   0.621   4.668   7.955  0.5459  0.0850  0.2246
 7116SOL    HW132981   0.667   4.688   7.873 -4.1267 -0.2119 -2.4944
 7116SOL    HW232982   0.618   0.012   8.000 -1.2944 -0.5831  1.3430
 7117SOL     OW32983   2.147   3.197   2.826  0.2904 -0.3573 -0.5002
 7117SOL    HW132984   2.084   3.264   2.853  0.2446  0.2661 -2.1269
 7117SOL    HW232985   2.104   3.168   2.745  0.3367 -1.1123 -0.2591
 7118SOL     OW32986   0.452   3.469  11.142  0.3609 -0.0266  0.0894
 7118SOL    HW132987   0.501   3.494  11.221  1.3178 -0.4784 -0.3603
 7118SOL    HW232988   0.399   3.395  11.170  1.5240  0.6887  4.1765
 7119SOL     OW32989   3.724   1.865   5.241 -0.4006 -0.0366  0.3763
 7119SOL    HW132990   3.718   1.897   5.151 -0.5956  0.0460  0.4197
 7119SOL    HW232991   3.675   1.931   5.289  0.8653 -1.6487  3.8976
 7120SOL     OW32992   1.367   1.718  15.588 -0.3162  0.0190  0.3001
 7120SOL    HW132993   1.344   1.806  15.618 -0.1300  0.3723 -0.5890
 7120SOL    HW232994   1.410   1.742  15.506  1.7220 -2.4157  0.6527
 7121SOL     OW32995   0.420   3.567  10.833 -0.1653  0.2081  0.5497
 7121SOL    HW132996   0.449   3.622  10.760 -1.0497 -2.1339 -1.5907
 7121SOL    HW232997   0.505   3.579  10.875  0.0733 -1.8201  0.6438
 7122SOL     OW32998   2.865   2.072   2.072 -0.7099 -0.3980 -0.5160
 7122SOL    HW132999   2.836   1.997   2.124  1.5148  1.4393  3.3736
 7122SOL    HW233000   2.945   2.047   2.025 -0.1616 -1.2183  0.8465
 7123SOL     OW33001   2.918   2.725   9.147  0.7160  0.0999 -0.2151
 7123SOL    HW133002   2.907   2.637   9.110 -1.9258 -0.1686  1.1807
 7123SOL    HW233003   3.006   2.704   9.180  1.2432 -0.7406 -2.1399
 7124SOL     OW33004   3.602   3.405   7.604  0.3412  0.4173  0.1260
 7124SOL    HW133005   3.656   3.433   7.530 -0.5905 -3.2947 -1.9559
 7124SOL    HW233006   3.679   3.406   7.661 -1.1731 -1.1424  2.2015
 7125SOL     OW33007   3.898   1.762  11.378 -0.0192 -0.3220 -0.1004
 7125SOL    HW133008   3.880   1.678  11.335 -0.8988 -0.1267 -0.1238
 7125SOL    HW233009   3.932   1.816  11.307  0.4723 -1.6449 -0.8592
 7126SOL     OW33010   4.354   3.808   5.064  0.1873 -0.3752 -0.3151
 7126SOL    HW133011   4.353   3.864   4.986 -0.4176  0.1888  0.0959
 7126SOL    HW233012   4.274   3.834   5.110  0.6615 -1.2368  1.0132
 7127SOL     OW33013   0.998   4.352   2.703 -0.0947 -0.1552  0.3978
 7127SOL    HW133014   0.993   4.319   2.793 -1.6191 -1.0706 -0.0286
 7127SOL    HW233015   1.048   4.433   2.708 -0.9561  0.4045 -0.0561
 7128SOL     OW33016   4.259   4.561   8.356 -0.0377  0.8215  0.6474
 7128SOL    HW133017   4.290   4.614   8.430  1.4846 -1.1638  1.4190
 7128SOL    HW233018   4.170   4.537   8.383  0.8648 -3.9563 -0.6873
 7129SOL     OW33019   0.310   4.474  11.501  0.0910 -0.5658 -0.0270
 7129SOL    HW133020   0.288   4.564  11.475 -2.0822 -1.4650 -1.3019
 7129SOL    HW233021   0.394   4.497  11.540  0.3396 -0.5491 -0.5673
 7130SOL     OW33022   0.490   2.626   4.888  0.3336 -0.3246  0.8229
 7130SOL    HW133023   0.518   2.710   4.924 -0.5735 -0.5358  2.0389
 7130SOL    HW233024   0.427   2.659   4.824  0.7963 -1.5927 -0.2639
 7131SOL     OW33025   2.713   4.270   2.509 -0.0214  0.2238  0.3786
 7131SOL    HW133026   2.622   4.261   2.479  0.5276  1.2488 -1.5784
 7131SOL    HW233027   2.736   4.177   2.511  1.7199  0.7006  2.1036
 7132SOL     OW33028   0.861   3.508  10.241  0.3365  0.4914  0.0164
 7132SOL    HW133029   0.852   3.521  10.147 -0.9445  0.9597  0.1942
 7132SOL    HW233030   0.810   3.584  10.268  0.9075  0.6363  0.6620
 7133SOL     OW33031   0.417   0.329   5.427  0.3232  0.1069 -0.0539
 7133SOL    HW133032   0.459   0.389   5.490  0.5298 -0.4638  0.3470
 7133SOL    HW233033   0.360   0.283   5.489 -2.2533  1.4199 -1.4270
 7134SOL     OW33034   4.359   3.433   2.287  0.3108  0.3819 -0.1742
 7134SOL    HW133035   4.385   3.478   2.206  2.7890  2.0099  1.5307
 7134SOL    HW233036   4.381   3.341   2.275 -0.4366  0.2677 -0.7170
 7135SOL     OW33037   2.819   2.724   8.619  0.7660 -0.1491 -0.0375
 7135SOL    HW133038   2.814   2.672   8.539 -0.3897 -1.6986  1.0399
 7135SOL    HW233039   2.783   2.667   8.687  0.1839  0.8671  0.5105
 7136SOL     OW33040   0.552   1.380   7.080 -0.1574 -0.2729  0.3605
 7136SOL    HW133041   0.482   1.445   7.081 -0.8949 -1.0963  1.9732
 7136SOL    HW233042   0.608   1.423   7.145  1.2513  0.0028 -1.0600
 7137SOL     OW33043   3.056   3.143   7.330  0.0340 -0.3187  0.0381
 7137SOL    HW133044   3.026   3.198   7.259  1.0708 -1.1787 -1.0771
 7137SOL    HW233045   3.125   3.100   7.279  0.0206  0.1563 -0.3705
 7138SOL     OW33046   2.601   2.765  10.845 -0.6496  0.2604 -0.2130
 7138SOL    HW133047   2.531   2.824  10.870 -0.4988  1.1923 -1.9612
 7138SOL    HW233048   2.651   2.758  10.926 -0.3908  0.0001 -0.3935
 7139SOL     OW33049   1.338   4.066   3.425  0.3997  0.4116 -0.0645
 7139SOL    HW133050   1.271   4.006   3.457 -2.8166  3.2194 -1.4437
 7139SOL    HW233051   1.354   4.123   3.501 -0.6610 -0.9989  1.2173
 7140SOL     OW33052   0.631   1.768  17.691 -0.9711  0.0389  0.1210
 7140SOL    HW133053   0.636   1.853  17.735 -3.3148 -0.1360  0.7126
 7140SOL    HW233054   0.592   1.714   0.001  1.3454 -1.3227  0.3636
 7141SOL     OW33055   1.067   1.341   3.897 -0.3756  0.2493 -0.2905
 7141SOL    HW133056   1.085   1.395   3.820  0.3676 -1.4568 -1.3215
 7141SOL    HW233057   1.070   1.401   3.972 -2.1252 -1.0284  0.7844
 7142SOL     OW33058   3.886   3.327   6.366  0.0115 -0.6768 -0.0474
 7142SOL    HW133059   3.914   3.274   6.440 -2.3721 -0.0594  1.3060
 7142SOL    HW233060   3.815   3.378   6.406 -0.9297 -1.1680 -1.0825
 7143SOL     OW33061   2.591   1.798  13.916  0.0323 -0.2895  0.6756
 7143SOL    HW133062   2.538   1.754  13.982 -0.2311 -0.6293  0.2308
 7143SOL    HW233063   2.611   1.724  13.859  0.6214  0.1362  0.3152
 7144SOL     OW33064   0.924   4.167   4.180  0.2480 -0.4825  0.6407
 7144SOL    HW133065   0.947   4.240   4.122 -1.6637  0.5090  1.1328
 7144SOL    HW233066   0.848   4.139   4.129  2.1872  0.9542 -3.0542
 7145SOL     OW33067   0.558   0.289   2.740 -0.2003 -0.0086  0.5065
 7145SOL    HW133068   0.647   0.316   2.720 -0.1080 -0.8498 -0.1870
 7145SOL    HW233069   0.583   0.216   2.797 -0.4586 -2.2205 -2.2279
 7146SOL     OW33070   1.121   0.764   3.940  0.2472  0.3632  1.1471
 7146SOL    HW133071   1.178   0.840   3.928 -0.2984  0.3730 -1.4415
 7146SOL    HW233072   1.090   0.768   3.850 -0.3677 -0.2098  1.3306
 7147SOL     OW33073   2.467   1.198   3.185  0.1417 -0.2388 -1.1350
 7147SOL    HW133074   2.530   1.197   3.113  1.4223  0.7806 -0.0196
 7147SOL    HW233075   2.415   1.274   3.159 -0.9391 -0.6920 -0.2970
 7148SOL     OW33076   4.044   0.760  13.817  0.1461 -0.4595  0.5047
 7148SOL    HW133077   4.094   0.802  13.747 -0.9416  1.0888  0.6494
 7148SOL    HW233078   3.982   0.704  13.771  0.6078 -0.0292 -0.6274
 7149SOL     OW33079   1.141   3.619   4.961  0.2415 -0.8814  0.3987
 7149SOL    HW133080   1.222   3.579   4.927  0.1357 -0.8692  0.1340
 7149SOL    HW233081   1.161   3.712   4.953  0.5397 -0.9110  0.7804
 7150SOL     OW33082   2.889   1.304   2.437  0.3758  0.2666  0.0564
 7150SOL    HW133083   2.967   1.308   2.492 -0.4314  2.4690  1.0166
 7150SOL    HW233084   2.874   1.395   2.413  0.6785 -0.1430 -1.7294
 7151SOL     OW33085   4.371   3.418  11.463 -0.3345 -0.0673 -0.2695
 7151SOL    HW133086   4.332   3.356  11.402  1.0474  0.1528 -1.3745
 7151SOL    HW233087   4.352   3.379  11.549 -1.8627 -0.0720 -0.6158
 7152SOL     OW33088   2.933   2.327   2.184 -0.0036  0.5094  0.2408
 7152SOL    HW133089   2.906   2.267   2.115  0.7204  0.0584  0.3546
 7152SOL    HW233090   2.910   2.269   2.257  1.0777 -2.6301 -1.9437
 7153SOL     OW33091   3.197   1.672   7.799  0.4405 -0.5056  0.0912
 7153SOL    HW133092   3.228   1.740   7.739 -0.2053  1.4578  2.0184
 7153SOL    HW233093   3.145   1.730   7.854 -0.7437 -1.3957 -0.0739
 7154SOL     OW33094   2.462   2.675   6.504  0.4215 -0.6774  0.8720
 7154SOL    HW133095   2.404   2.599   6.512  0.1495 -0.6272 -0.6207
 7154SOL    HW233096   2.515   2.641   6.432  1.1734  0.5907  0.8230
 7155SOL     OW33097   2.710   3.038  12.393 -0.0074  0.3061 -0.6807
 7155SOL    HW133098   2.711   3.019  12.486  0.8182 -0.2523 -0.8134
 7155SOL    HW233099   2.735   2.954  12.354  0.5252  0.5070 -0.7752
 7156SOL     OW33100   1.223   3.842   1.845 -0.2721 -0.5949  0.1219
 7156SOL    HW133101   1.256   3.919   1.892  0.2303  0.0782 -1.3464
 7156SOL    HW233102   1.153   3.817   1.906  0.9704  1.7531  2.5086
 7157SOL     OW33103   4.123   2.290  13.093 -0.2429 -0.4930 -0.1940
 7157SOL    HW133104   4.129   2.369  13.040 -1.1247 -0.3985 -0.1664
 7157SOL    HW233105   4.063   2.239  13.038 -1.6916  1.4190 -0.4040
 7158SOL     OW33106   3.657   3.961   2.451 -0.0469  0.2105 -0.3981
 7158SOL    HW133107   3.665   3.871   2.420  2.5212  0.3529 -0.1281
 7158SOL    HW233108   3.562   3.967   2.465  0.3193  0.7812  1.8716
 7159SOL     OW33109   0.079   4.359   8.376  0.2832  0.4739 -0.0438
 7159SOL    HW133110   0.087   4.343   8.282  0.6537 -0.6381  0.1765
 7159SOL    HW233111   0.116   4.286   8.426 -1.6245 -1.2276 -1.1367
 7160SOL     OW33112   3.005   0.774   1.979  0.0223 -0.7517  0.6329
 7160SOL    HW133113   2.994   0.799   2.071  2.9593 -2.2193  1.3512
 7160SOL    HW233114   3.084   0.721   1.978  0.1016 -0.6709  2.3742
 7161SOL     OW33115   3.834   4.064   0.382  0.2782 -0.9170  0.3743
 7161SOL    HW133116   3.914   4.073   0.331  0.2927 -1.6128  0.2807
 7161SOL    HW233117   3.775   4.114   0.324 -3.0267 -1.5379  3.1989
 7162SOL     OW33118   4.467   3.434  14.339 -0.7532 -0.2021 -0.1039
 7162SOL    HW133119   4.548   3.463  14.381 -0.9773  0.0290  0.1767
 7162SOL    HW233120   4.456   3.508  14.280  1.3018 -0.5354 -0.8898
 7163SOL     OW33121   2.462   3.080  17.565 -0.2100 -0.2334  0.1018
 7163SOL    HW133122   2.542   3.045  17.526  2.4072  3.1370  2.4979
 7163SOL    HW233123   2.397   3.028  17.517  0.9853 -0.4910 -1.2194
 7164SOL     OW33124   1.625   3.405  12.539  0.6639  0.0426 -0.2240
 7164SOL    HW133125   1.695   3.358  12.494 -1.4467 -1.6804 -1.7197
 7164SOL    HW233126   1.559   3.358  12.488 -1.4376  2.7712 -0.0641
 7165SOL     OW33127   3.950   2.970   5.369  0.1864 -0.8399  0.3033
 7165SOL    HW133128   3.949   3.035   5.299 -0.3747 -0.2359  0.8602
 7165SOL    HW233129   4.041   2.940   5.364  1.2323  2.4336 -0.7011
 7166SOL     OW33130   2.720   0.287  10.334  0.1189 -0.1083 -0.6052
 7166SOL    HW133131   2.741   0.212  10.389  0.7257  1.4179  1.2388
 7166SOL    HW233132   2.643   0.309  10.386  0.6636 -1.6597  0.8596
 7167SOL     OW33133   2.286   2.291   6.911  0.1322 -0.0696 -0.2058
 7167SOL    HW133134   2.373   2.276   6.948  0.0457 -0.4065 -0.1462
 7167SOL    HW233135   2.250   2.202   6.912 -0.2915  0.0961 -0.6449
 7168SOL     OW33136   0.408   0.245   6.036  1.1278 -0.5227  0.3461
 7168SOL    HW133137   0.424   0.305   6.109  0.3608  0.3209 -0.1677
 7168SOL    HW233138   0.465   0.176   6.069  1.4657  0.4651  1.8093
 7169SOL     OW33139   1.276   2.442   8.817  0.1007  0.4632  0.1675
 7169SOL    HW133140   1.223   2.473   8.891 -3.0997 -2.4620 -0.8795
 7169SOL    HW233141   1.255   2.493   8.739 -1.8095  1.6130  1.4326
 7170SOL     OW33142   0.279   2.253   5.897 -0.9242 -0.1740  0.1197
 7170SOL    HW133143   0.240   2.333   5.933 -2.4776 -0.7530 -0.2676
 7170SOL    HW233144   0.348   2.231   5.960 -1.6701  4.3768  2.5148
 7171SOL     OW33145   3.809   0.025   2.630  0.2139 -0.5945  0.0550
 7171SOL    HW133146   3.863   0.018   2.551 -1.0739  0.6545 -0.9290
 7171SOL    HW233147   3.879   0.010   2.694 -1.3265 -2.2758  1.3322
 7172SOL     OW33148   0.163   0.414  11.387 -0.2164 -0.2970 -0.3056
 7172SOL    HW133149   0.148   0.490  11.331  3.2555  0.8084  0.2264
 7172SOL    HW233150   0.201   0.355  11.322  2.6644  0.6689  0.4745
 7173SOL     OW33151   3.854   1.065   5.232  0.4139 -0.4964  0.4707
 7173SOL    HW133152   3.926   1.111   5.275  1.1856 -0.2534 -1.0443
 7173SOL    HW233153   3.795   1.137   5.211 -0.9732 -1.4711  1.0804
 7174SOL     OW33154   4.092   3.408  14.722  0.2743  0.5559 -0.0432
 7174SOL    HW133155   4.143   3.330  14.745  0.0731  0.5935  0.5537
 7174SOL    HW233156   4.032   3.414  14.797  2.0916 -0.2321  1.4807
 7175SOL     OW33157   2.789   2.500   8.760  0.3069  0.2536  0.0499
 7175SOL    HW133158   2.883   2.483   8.760  0.0472 -1.1903  0.4487
 7175SOL    HW233159   2.740   2.436   8.707  0.3643  0.2591 -0.0099
 7176SOL     OW33160   4.562   2.941   9.468 -0.2505  0.5050 -0.1516
 7176SOL    HW133161   4.526   2.874   9.526  0.4220  0.2160 -0.0609
 7176SOL    HW233162   4.586   2.878   9.400 -1.6396  1.3614 -1.4299
 7177SOL     OW33163   2.937   4.494   7.320 -0.1121  0.2624  0.0608
 7177SOL    HW133164   2.878   4.433   7.365  2.6069 -1.9222  0.7094
 7177SOL    HW233165   2.957   4.442   7.242 -0.4165 -1.3599  1.0739
 7178SOL     OW33166   4.671   0.878  13.024 -0.2746 -0.1130  0.4400
 7178SOL    HW133167   0.011   0.835  12.994 -1.5108 -0.1081 -2.9281
 7178SOL    HW233168   4.709   0.963  13.046  2.6166 -0.9833 -1.0910
 7179SOL     OW33169   3.167   1.359  10.553  0.9574 -0.2776 -0.2611
 7179SOL    HW133170   3.153   1.387  10.644  0.6146 -1.2681 -0.0081
 7179SOL    HW233171   3.158   1.266  10.572 -2.6148  0.2411  0.5205
 7180SOL     OW33172   2.627   0.639  14.580  0.1616  0.0693  0.2328
 7180SOL    HW133173   2.601   0.684  14.660 -1.1148 -0.6428  0.2053
 7180SOL    HW233174   2.591   0.707  14.523 -0.1197  0.3411  0.7340
 7181SOL     OW33175   3.865   0.040   9.353  0.2321 -0.0937 -0.6404
 7181SOL    HW133176   3.836   0.083   9.273  0.6754  1.2310 -0.0989
 7181SOL    HW233177   3.836   4.690   9.341 -1.9349  0.2898  1.5555
 7182SOL     OW33178   0.372   0.857   9.182  0.3802 -0.2576  0.0308
 7182SOL    HW133179   0.282   0.825   9.194  0.8179 -1.9400 -0.9753
 7182SOL    HW233180   0.415   0.831   9.263  1.2660  1.5925  0.1458
 7183SOL     OW33181   0.902   2.090   3.809  0.4551  0.3151 -0.0304
 7183SOL    HW133182   0.840   2.080   3.736 -0.5470  0.1093  0.8524
 7183SOL    HW233183   0.853   2.049   3.881  0.1940  0.4816 -0.1143
 7184SOL     OW33184   3.430   3.888   2.159 -0.1640 -0.4539 -0.2770
 7184SOL    HW133185   3.391   3.808   2.124 -0.8919 -0.4152  0.4601
 7184SOL    HW233186   3.521   3.867   2.179 -0.2610  0.0472  0.7217
 7185SOL     OW33187   4.499   1.357   6.246 -0.0971  0.1849 -0.0642
 7185SOL    HW133188   4.485   1.305   6.325 -1.6566  2.7884  1.3941
 7185SOL    HW233189   4.429   1.320   6.191 -0.0388  0.5853 -0.4092
 7186SOL     OW33190   4.609   0.289   3.087 -0.9447 -0.0861  0.2262
 7186SOL    HW133191   4.702   0.269   3.076 -0.9021 -0.5628  1.3539
 7186SOL    HW233192   4.597   0.287   3.182  1.6209  1.4352  0.5808
 7187SOL     OW33193   3.036   2.231   6.439 -0.9150  0.3139  0.4139
 7187SOL    HW133194   3.030   2.261   6.348 -0.6545  0.6361  0.5015
 7187SOL    HW233195   2.993   2.302   6.488 -1.6449  1.1903 -1.5079
 7188SOL     OW33196   1.014   4.308   9.906 -0.0120 -0.6235 -0.1542
 7188SOL    HW133197   0.933   4.308   9.855  0.8119  1.8695 -1.4807
 7188SOL    HW233198   1.059   4.377   9.858  0.9430 -0.7100  0.6134
 7189SOL     OW33199   4.146   2.226   8.609 -0.1183 -0.1365 -0.2174
 7189SOL    HW133200   4.059   2.220   8.569 -0.2252 -0.3896  0.0655
 7189SOL    HW233201   4.187   2.273   8.535 -2.5394  1.1285 -0.7550
 7190SOL     OW33202   1.974   0.445   4.849 -0.0890  0.1111  0.1249
 7190SOL    HW133203   2.019   0.527   4.830  1.2735 -0.9044 -1.0001
 7190SOL    HW233204   1.924   0.469   4.927 -3.4032  0.3853 -2.1018
 7191SOL     OW33205   1.417   2.109  14.916  0.3594 -0.3431 -0.0396
 7191SOL    HW133206   1.434   2.072  14.829  0.2441 -0.7436  0.1057
 7191SOL    HW233207   1.402   2.200  14.894  0.1460 -0.3011  0.2805
 7192SOL     OW33208   3.970   3.237   4.875 -0.2340  0.0555  0.4544
 7192SOL    HW133209   3.912   3.305   4.841  0.6908  0.1549 -0.9831
 7192SOL    HW233210   4.059   3.273   4.865  0.1667 -1.1735 -0.4822
 7193SOL     OW33211   0.783   3.227   2.937  0.3702 -0.1595 -0.0600
 7193SOL    HW133212   0.707   3.224   2.995 -0.7707 -2.2670 -1.6673
 7193SOL    HW233213   0.747   3.234   2.848 -0.5539  0.1441  0.3448
 7194SOL     OW33214   4.401   2.754   9.079  0.1645 -0.1382  0.2974
 7194SOL    HW133215   4.363   2.841   9.094  0.6713  0.1552 -0.1189
 7194SOL    HW233216   4.405   2.731   9.172  1.1234 -0.1625  0.2476
 7195SOL     OW33217   4.218   2.271   5.113  0.3148 -0.1890  0.5891
 7195SOL    HW133218   4.171   2.353   5.094  0.3014 -0.6314 -1.2790
 7195SOL    HW233219   4.311   2.294   5.110 -0.2366  1.6256 -2.4977
 7196SOL     OW33220   1.730   1.570   9.296  0.5855  0.3635 -0.3142
 7196SOL    HW133221   1.690   1.633   9.357 -0.3938 -0.4004 -0.1820
 7196SOL    HW233222   1.713   1.620   9.216 -1.8487  1.8523  1.1213
 7197SOL     OW33223   3.413   2.497   4.518  0.2885 -0.1951  0.6287
 7197SOL    HW133224   3.349   2.548   4.568 -1.2400  0.2886 -1.8250
 7197SOL    HW233225   3.483   2.563   4.523 -0.6104  0.7484  0.8379
 7198SOL     OW33226   0.857   4.226   9.247  0.0101 -0.5814  0.5186
 7198SOL    HW133227   0.818   4.312   9.234 -0.0459 -0.4083  1.8504
 7198SOL    HW233228   0.882   4.231   9.340  0.1327  1.7401  0.3519
 7199SOL     OW33229   1.071   1.751   3.704 -0.8334  0.2690  0.3453
 7199SOL    HW133230   1.039   1.783   3.789  2.1642 -0.5280  1.7577
 7199SOL    HW233231   0.989   1.714   3.671 -1.5031  1.6560  0.4256
 7200SOL     OW33232   2.010   1.678   1.942 -0.0324 -0.2572  0.0871
 7200SOL    HW133233   2.021   1.716   1.855  0.1935 -0.3714  0.0655
 7200SOL    HW233234   1.930   1.625   1.935 -0.6388  0.4613  1.6263
 7201SOL     OW33235   0.590   2.977  14.039 -0.5704 -0.1456 -0.3300
 7201SOL    HW133236   0.639   3.042  13.987 -0.1167 -0.9447 -0.9113
 7201SOL    HW233237   0.600   3.013  14.127 -0.4260 -0.4743 -0.2109
 7202SOL     OW33238   1.839   1.569   5.639 -0.2260 -0.6064  0.1909
 7202SOL    HW133239   1.753   1.527   5.635 -0.4619 -0.1754  0.8591
 7202SOL    HW233240   1.847   1.569   5.734 -0.9673 -1.0535  0.2549
 7203SOL     OW33241   1.593   2.353  12.942  0.4718  0.1212 -0.1308
 7203SOL    HW133242   1.557   2.442  12.936  0.9636  0.3793  0.6857
 7203SOL    HW233243   1.685   2.372  12.962  0.5064 -0.2910  0.0997
 7204SOL     OW33244   3.277   0.564   9.958  0.1115  0.2129  0.1353
 7204SOL    HW133245   3.346   0.536   9.899  0.1545 -0.0925  0.3332
 7204SOL    HW233246   3.308   0.509  10.029  0.3423 -0.4405 -0.4793
 7205SOL     OW33247   2.501   2.000   5.833 -0.5102  0.2372  0.1998
 7205SOL    HW133248   2.511   1.971   5.923 -3.7721 -0.7139  0.2823
 7205SOL    HW233249   2.509   1.913   5.795  0.5245  1.1043 -1.5741
 7206SOL     OW33250   2.139   2.630   6.317 -0.0929  0.1074  0.3721
 7206SOL    HW133251   2.157   2.577   6.395 -0.1411 -2.4879 -1.3887
 7206SOL    HW233252   2.175   2.712   6.352  2.1754 -1.0246  0.7111
 7207SOL     OW33253   4.319   1.375   5.788  0.1353  0.3035 -0.8189
 7207SOL    HW133254   4.384   1.309   5.814  2.2525  2.0215 -1.7369
 7207SOL    HW233255   4.377   1.450   5.798 -0.7744  0.6930  1.3383
 7208SOL     OW33256   0.821   1.699   3.586  0.2109 -0.2008  0.0186
 7208SOL    HW133257   0.739   1.650   3.585  0.4447 -0.6159  0.8440
 7208SOL    HW233258   0.816   1.768   3.520 -0.9705  0.7780  1.1439
 7209SOL     OW33259   2.693   2.667   4.216  0.1269  0.6095 -0.3678
 7209SOL    HW133260   2.780   2.645   4.248 -0.1067 -0.5958 -0.5562
 7209SOL    HW233261   2.707   2.708   4.131 -0.9934  2.1875  0.2058
 7210SOL     OW33262   0.834   1.582   0.241 -0.0112  0.2554  0.5089
 7210SOL    HW133263   0.890   1.658   0.251  1.4530 -0.6878 -0.4969
 7210SOL    HW233264   0.854   1.542   0.325 -2.1107  0.6402  1.1928
 7211SOL     OW33265   0.885   4.708   4.506 -0.3525 -0.6551  0.5055
 7211SOL    HW133266   0.874   4.657   4.426  0.0794  0.8899 -0.5484
 7211SOL    HW233267   0.916   4.649   4.574 -2.1788 -0.6902  1.2899
 7212SOL     OW33268   3.655   0.429  14.096  0.2987  0.3271 -0.4320
 7212SOL    HW133269   3.611   0.351  14.061 -1.6765  0.5221  1.6142
 7212SOL    HW233270   3.723   0.451  14.033  1.9599  1.9046  1.9449
 7213SOL     OW33271   4.133   2.716   2.351 -0.9258  0.5439  0.7816
 7213SOL    HW133272   4.070   2.671   2.295  0.2887  0.8587 -0.8171
 7213SOL    HW233273   4.212   2.723   2.297 -0.6198  2.1236  1.4137
 7214SOL     OW33274   0.876   2.970   3.578 -0.5788  0.1432  0.3946
 7214SOL    HW133275   0.852   2.884   3.614  3.4302 -0.9682  0.4242
 7214SOL    HW233276   0.807   2.976   3.512  0.5053 -1.9286 -0.9165
 7215SOL     OW33277   2.190   0.744   2.450  0.0403 -0.0863 -0.2588
 7215SOL    HW133278   2.145   0.772   2.530  3.6598  0.2476  1.6645
 7215SOL    HW233279   2.130   0.763   2.378  1.6938  0.4623 -1.4858
 7216SOL     OW33280   4.379   3.614   7.000  0.5717  0.5884  0.2077
 7216SOL    HW133281   4.364   3.633   6.908  4.1294 -1.6115 -0.7878
 7216SOL    HW233282   4.465   3.652   7.018 -0.5118  3.9720 -1.6528
 7217SOL     OW33283   1.927   4.475   4.273 -0.3700 -0.4474  0.1139
 7217SOL    HW133284   1.858   4.541   4.279  0.5970  0.5967 -0.4126
 7217SOL    HW233285   1.947   4.475   4.366  1.6048 -0.9905 -0.3143
 7218SOL     OW33286   1.370   4.208   4.447 -0.1164 -0.0534 -0.2158
 7218SOL    HW133287   1.345   4.121   4.480 -3.3175  0.3851 -1.5662
 7218SOL    HW233288   1.298   4.257   4.486  0.4279  0.5081  0.0951
 7219SOL     OW33289   3.814   4.362   3.677  0.1511 -0.1261  0.4199
 7219SOL    HW133290   3.767   4.366   3.593  0.4808 -1.0158  0.2022
 7219SOL    HW233291   3.874   4.437   3.670  0.4225 -0.5438 -1.8767
 7220SOL     OW33292   1.058   0.739   1.064  0.2649  0.0008  0.1492
 7220SOL    HW133293   1.029   0.761   0.975  0.0433 -3.9131 -0.7392
 7220SOL    HW233294   0.989   0.776   1.119 -0.5012 -2.1706  0.6146
 7221SOL     OW33295   1.558   3.798   5.390 -0.1059  0.1543  0.1256
 7221SOL    HW133296   1.569   3.892   5.382 -0.0908  0.1063 -0.4660
 7221SOL    HW233297   1.648   3.776   5.413  0.1014  0.5052 -0.3578
 7222SOL     OW33298   0.374   4.666   4.465  0.0324  0.4252 -0.8031
 7222SOL    HW133299   0.343   4.610   4.393 -1.0471  0.7576 -0.6000
 7222SOL    HW233300   0.440   4.714   4.416  1.3766  0.3106  0.9066
 7223SOL     OW33301   0.373   1.596   6.283  0.6319 -0.0799  0.6075
 7223SOL    HW133302   0.289   1.570   6.246  0.1315  2.4055  0.0232
 7223SOL    HW233303   0.383   1.686   6.251  2.3629 -0.9535 -1.3519
 7224SOL     OW33304   0.277   0.661  16.239 -0.1317  0.4775 -0.1911
 7224SOL    HW133305   0.348   0.633  16.182  1.7979 -0.6544  2.7850
 7224SOL    HW233306   0.242   0.738  16.194  1.0613  1.2112  0.1528
 7225SOL     OW33307   2.468   3.630   7.441  0.0374  0.3852  0.6726
 7225SOL    HW133308   2.378   3.651   7.465 -0.2433 -0.4029  0.2860
 7225SOL    HW233309   2.516   3.712   7.450  0.6076  0.2803 -1.3277
 7226SOL     OW33310   1.376   2.022  16.662 -0.1280  0.4087  0.2925
 7226SOL    HW133311   1.382   2.011  16.756 -1.2520  0.1884  0.3434
 7226SOL    HW233312   1.416   1.944  16.624  0.0597  2.5185 -3.8531
 7227SOL     OW33313   1.378   1.617   8.948  0.3917  0.0174 -0.1519
 7227SOL    HW133314   1.284   1.616   8.929 -0.0257 -1.9436  1.9583
 7227SOL    HW233315   1.387   1.686   9.014  0.6138 -1.4950  1.4338
 7228SOL     OW33316   0.591   1.757   2.964 -0.4033  0.7364  0.0469
 7228SOL    HW133317   0.508   1.768   3.010 -0.0330 -0.7455  1.0998
 7228SOL    HW233318   0.657   1.808   3.011  1.3311 -1.7320  0.3266
 7229SOL     OW33319   1.013   1.331  14.946 -0.0826  0.0568  0.2398
 7229SOL    HW133320   1.101   1.307  14.916 -0.4493  0.6151 -1.2803
 7229SOL    HW233321   1.016   1.427  14.944 -0.9900  0.1135  1.6728
 7230SOL     OW33322   4.115   3.337   5.658 -0.5993  0.3687  0.3688
 7230SOL    HW133323   4.211   3.340   5.661 -0.6045  1.0213 -0.2059
 7230SOL    HW233324   4.105   3.431   5.673  1.0734  0.5924  0.0653
 7231SOL     OW33325   1.769   4.350   2.688 -0.2086 -0.0565 -0.1462
 7231SOL    HW133326   1.831   4.340   2.616  0.6547  0.1720  0.5743
 7231SOL    HW233327   1.714   4.272   2.677  1.2309 -1.1674  0.6778
 7232SOL     OW33328   0.763   3.536   4.748  0.2799  0.4129 -0.1433
 7232SOL    HW133329   0.761   3.441   4.734  0.4901  0.6443 -1.7642
 7232SOL    HW233330   0.794   3.544   4.838 -1.3203 -2.0594  0.6595
 7233SOL     OW33331   3.250   0.810   4.439  0.5040  0.4220  0.3634
 7233SOL    HW133332   3.240   0.758   4.359  1.6160  0.5130  0.1606
 7233SOL    HW233333   3.300   0.740   4.481  1.0282  0.8146  0.3944
 7234SOL     OW33334   2.556   2.432   4.266  0.4270  0.3336  0.1530
 7234SOL    HW133335   2.470   2.466   4.291  0.1894  0.0166 -0.2310
 7234SOL    HW233336   2.598   2.514   4.241  3.6350 -0.8071  1.7490
 7235SOL     OW33337   2.137   2.641   8.617  0.3409 -0.2333 -0.1251
 7235SOL    HW133338   2.207   2.607   8.673  0.3156 -0.9404 -0.5149
 7235SOL    HW233339   2.064   2.631   8.679  0.1627  2.0293  0.0057
 7236SOL     OW33340   1.673   2.651   2.517  0.5451 -0.2194 -0.4404
 7236SOL    HW133341   1.731   2.605   2.455  0.1450 -1.1582 -0.1146
 7236SOL    HW233342   1.639   2.578   2.569  1.0235  1.6571  2.5087
 7237SOL     OW33343   2.049   1.559  13.502  0.5686 -0.1780 -0.2419
 7237SOL    HW133344   2.138   1.532  13.476  1.5989  1.0537  2.0142
 7237SOL    HW233345   2.038   1.641  13.452  0.8745 -1.3160 -2.1957
 7238SOL     OW33346   4.193   4.520   7.592 -0.7503  0.0807 -0.3331
 7238SOL    HW133347   4.221   4.595   7.539  4.1593 -0.8985  0.8540
 7238SOL    HW233348   4.256   4.515   7.663 -1.5061 -0.3109  0.3058
 7239SOL     OW33349   0.721   4.229   7.769 -0.3466 -0.1998 -0.1901
 7239SOL    HW133350   0.691   4.186   7.689  0.5010 -1.6620  0.2920
 7239SOL    HW233351   0.657   4.301   7.769  0.9204  0.9400 -2.6355
 7240SOL     OW33352   0.644   1.446   3.968  0.0813  0.0044 -0.2866
 7240SOL    HW133353   0.731   1.416   3.943 -0.0287  1.3981 -2.3019
 7240SOL    HW233354   0.637   1.537   3.940 -2.4771 -0.0311  0.2127
 7241SOL     OW33355   2.165   1.647   6.642  0.0629  0.3250  0.2270
 7241SOL    HW133356   2.217   1.567   6.633  0.7494  0.8877 -0.7630
 7241SOL    HW233357   2.078   1.620   6.613  1.5439 -2.3272 -1.7399
 7242SOL     OW33358   1.542   0.708  16.673  0.1939  0.3778  0.0369
 7242SOL    HW133359   1.608   0.764  16.633  0.7750 -3.0035 -3.7388
 7242SOL    HW233360   1.567   0.626  16.631  0.5985  0.6237 -0.2051
 7243SOL     OW33361   2.654   3.985   9.951  0.4451  0.0854  0.6634
 7243SOL    HW133362   2.710   4.024   9.884 -1.1953  1.6873  0.2165
 7243SOL    HW233363   2.717   3.962  10.019 -1.1805  1.5118  2.6351
 7244SOL     OW33364   3.877   4.593   1.916 -0.2291 -0.2887  0.1366
 7244SOL    HW133365   3.849   4.503   1.899  1.2553 -1.0753  1.8001
 7244SOL    HW233366   3.944   4.608   1.848  0.9226  0.1921  1.3701
 7245SOL     OW33367   4.456   2.406   9.214  0.2045 -0.0368  0.1045
 7245SOL    HW133368   4.385   2.416   9.150  1.3799 -0.2048 -1.2125
 7245SOL    HW233369   4.419   2.372   9.296 -0.7093 -0.9446 -0.6793
 7246SOL     OW33370   2.283   3.558   2.048  0.1939 -0.1673 -0.4712
 7246SOL    HW133371   2.345   3.625   2.077 -0.2610 -0.0484  0.2409
 7246SOL    HW233372   2.270   3.524   2.137 -1.9450  0.2049 -0.6353
 7247SOL     OW33373   0.274   2.886  12.535 -0.3265  0.5654 -0.5140
 7247SOL    HW133374   0.230   2.846  12.610  0.3404 -0.7604 -0.8356
 7247SOL    HW233375   0.317   2.807  12.502 -1.8876 -0.3367 -0.3735
 7248SOL     OW33376   3.193   2.349   2.022 -0.1740  0.4340 -0.3473
 7248SOL    HW133377   3.111   2.360   2.071  0.7813 -0.4396  1.4443
 7248SOL    HW233378   3.233   2.273   2.064  0.1905  0.8933  0.1349
 7249SOL     OW33379   3.699   1.232  17.722  0.0424  0.2989  0.0218
 7249SOL    HW133380   3.746   1.192  17.649 -0.7041  0.2845 -0.4469
 7249SOL    HW233381   3.622   1.265  17.675 -0.3019 -2.7368 -1.5511
 7250SOL     OW33382   1.576   3.066  11.492  0.3134 -0.0159  0.3665
 7250SOL    HW133383   1.625   3.031  11.567  0.0671 -1.0344  0.0461
 7250SOL    HW233384   1.517   3.127  11.535  0.7936  0.2981  0.5815
 7251SOL     OW33385   4.507   0.088   9.150 -0.0288 -0.4653  0.4176
 7251SOL    HW133386   4.573   0.156   9.142  0.9706 -1.5773 -0.9136
 7251SOL    HW233387   4.562   0.012   9.171 -0.3482 -0.3404  1.7510
 7252SOL     OW33388   2.713   4.272   8.547  0.3614  0.1910 -0.4366
 7252SOL    HW133389   2.761   4.190   8.541  1.4924  0.7896  0.5274
 7252SOL    HW233390   2.783   4.330   8.578 -0.8064  0.0537  2.4397
 7253SOL     OW33391   3.789   3.609   0.807  0.1197 -0.1544  0.3170
 7253SOL    HW133392   3.735   3.634   0.733  0.1877  0.1136  0.3565
 7253SOL    HW233393   3.811   3.517   0.794 -0.0458 -0.1423 -0.0242
 7254SOL     OW33394   4.284   2.672   7.872  0.1159 -0.0700 -0.1699
 7254SOL    HW133395   4.296   2.577   7.860 -0.6043 -0.0776 -0.8390
 7254SOL    HW233396   4.263   2.698   7.782 -0.2919 -2.3767 -0.7384
 7255SOL     OW33397   0.975   2.777   9.265 -0.1859 -0.3769  0.2614
 7255SOL    HW133398   0.937   2.841   9.323  0.2723 -1.1665  1.4326
 7255SOL    HW233399   1.057   2.766   9.313  0.0793 -2.8708 -0.7202
 7256SOL     OW33400   4.071   1.711   8.783  0.4431  0.3816  0.3164
 7256SOL    HW133401   4.099   1.741   8.869  2.7796 -0.7473 -0.0487
 7256SOL    HW233402   4.073   1.792   8.732 -0.6829  1.5223  2.0835
 7257SOL     OW33403   3.773   3.057  11.643  0.5665 -0.1934 -0.0730
 7257SOL    HW133404   3.721   3.122  11.690 -0.4389 -0.4602 -0.8106
 7257SOL    HW233405   3.712   3.037  11.572 -0.1517 -1.3023  0.8584
 7258SOL     OW33406   2.111   2.438   7.693  0.0067  0.7757 -0.2915
 7258SOL    HW133407   2.167   2.508   7.659  1.4769 -0.7817 -1.0559
 7258SOL    HW233408   2.029   2.463   7.650  0.8903  2.0916 -1.2002
 7259SOL     OW33409   2.765   3.187   7.645 -0.5254  0.1879  0.3245
 7259SOL    HW133410   2.713   3.246   7.590 -0.5077 -0.5130 -0.4304
 7259SOL    HW233411   2.855   3.214   7.629 -0.2123 -0.6236  0.7024
 7260SOL     OW33412   1.440   3.641   5.968 -0.2765 -0.0057  0.1912
 7260SOL    HW133413   1.364   3.699   5.975  1.3537  1.9764  1.4341
 7260SOL    HW233414   1.467   3.661   5.879  0.1842  2.2786  0.8373
 7261SOL     OW33415   1.859   1.197   6.889  0.5090 -0.2705  0.2304
 7261SOL    HW133416   1.831   1.118   6.842  0.7441 -0.1454 -0.1210
 7261SOL    HW233417   1.921   1.223   6.821  0.0620  0.5703  0.1501
 7262SOL     OW33418   2.284   4.739  11.153  0.6177  0.1234  0.3557
 7262SOL    HW133419   2.273   4.655  11.109 -0.3902 -0.6284  2.0452
 7262SOL    HW233420   2.248   0.060  11.089 -1.2161  1.5743  2.7559
 7263SOL     OW33421   1.920   0.094   2.610  0.3402 -0.2711 -0.2827
 7263SOL    HW133422   2.013   0.080   2.626  0.5314  3.2133  1.7279
 7263SOL    HW233423   1.889   0.036   2.680  1.1981  0.1538  0.4437
 7264SOL     OW33424   0.862   3.052  11.427  0.4403 -0.1338  0.1377
 7264SOL    HW133425   0.802   2.984  11.457  2.0962 -1.0723  1.3603
 7264SOL    HW233426   0.865   3.030  11.334 -1.0276  2.7269 -0.6053
 7265SOL     OW33427   4.251   2.674   7.227 -0.8494  0.4638  0.0269
 7265SOL    HW133428   4.286   2.647   7.142  0.6124 -0.6400  0.9842
 7265SOL    HW233429   4.173   2.619   7.227 -0.7207  0.3090  3.4679
 7266SOL     OW33430   1.638   0.142   9.709 -0.2524  0.4360  0.1745
 7266SOL    HW133431   1.716   0.127   9.655  0.4017  0.1439  1.1960
 7266SOL    HW233432   1.644   0.061   9.759  1.3596  0.5833  0.2227
 7267SOL     OW33433   2.940   1.663  13.010  0.0182  0.1046  0.6211
 7267SOL    HW133434   2.864   1.609  13.031 -0.0057  0.2400  0.8835
 7267SOL    HW233435   2.919   1.720  12.936 -0.5416  1.1220  1.5704
 7268SOL     OW33436   4.060   1.864  12.384 -0.1663 -0.8398 -0.4768
 7268SOL    HW133437   4.152   1.853  12.358  0.3114  1.7530  0.1540
 7268SOL    HW233438   4.041   1.771  12.396  1.1315 -1.2278 -1.3201
 7269SOL     OW33439   1.697   4.233   5.899 -0.7446  0.3400 -0.2363
 7269SOL    HW133440   1.631   4.164   5.889 -1.9208  1.3312  0.5918
 7269SOL    HW233441   1.780   4.191   5.877 -1.5598 -0.8837 -0.9769
 7270SOL     OW33442   3.613   2.461  11.704 -0.1979 -1.1141 -0.2720
 7270SOL    HW133443   3.595   2.447  11.797  0.1655  1.1884  0.1546
 7270SOL    HW233444   3.674   2.390  11.684 -0.6172 -1.9703  1.4618
 7271SOL     OW33445   4.242   1.056   4.717 -0.2485  0.2013  0.3075
 7271SOL    HW133446   4.204   1.143   4.730  1.3181  1.0106 -0.4363
 7271SOL    HW233447   4.329   1.068   4.755  0.0602  0.0488 -0.3472
 7272SOL     OW33448   4.387   3.666   6.167  0.2343  0.3654 -0.1371
 7272SOL    HW133449   4.404   3.667   6.073 -0.5423 -0.7690 -0.3018
 7272SOL    HW233450   4.383   3.576   6.200  2.6101 -0.0282 -0.9742
 7273SOL     OW33451   1.849   3.689   7.902  0.1237 -0.0426 -0.5258
 7273SOL    HW133452   1.912   3.645   7.959 -0.7567  0.3519  0.7399
 7273SOL    HW233453   1.806   3.610   7.868  1.3759 -1.0319  0.1825
 7274SOL     OW33454   0.630   1.400  12.373 -0.3764 -0.3538  0.0819
 7274SOL    HW133455   0.615   1.444  12.289  0.0017  1.7311  1.1097
 7274SOL    HW233456   0.589   1.460  12.435 -0.4911  0.0180 -0.3457
 7275SOL     OW33457   0.367   0.976   6.848  0.4147 -0.0564 -0.0924
 7275SOL    HW133458   0.459   0.976   6.873 -0.1055 -0.8357  1.7900
 7275SOL    HW233459   0.332   1.029   6.920 -0.3281  2.2124 -2.1333
 7276SOL     OW33460   0.690   2.231   9.255 -0.3961 -0.7764  0.8157
 7276SOL    HW133461   0.708   2.325   9.253  0.7319 -0.9801  0.8743
 7276SOL    HW233462   0.769   2.204   9.303  1.7385  0.6702 -1.8774
 7277SOL     OW33463   1.557   3.716   2.081 -0.0642 -0.0695 -0.0346
 7277SOL    HW133464   1.531   3.704   1.990 -1.5147 -1.5143  0.5577
 7277SOL    HW233465   1.510   3.651   2.133 -1.2569 -0.0950 -1.1476
 7278SOL     OW33466   4.152   3.938   5.204 -0.0401  0.0486 -0.3098
 7278SOL    HW133467   4.087   3.968   5.268 -0.9833 -0.3884 -1.0755
 7278SOL    HW233468   4.166   4.023   5.161 -0.1966  0.1493 -0.1619
 7279SOL     OW33469   1.517   3.865   0.257 -0.2760 -0.3229  0.0026
 7279SOL    HW133470   1.487   3.889   0.344 -1.4542  2.3350 -1.1517
 7279SOL    HW233471   1.513   3.952   0.217 -0.8245  0.1973  1.1892
 7280SOL     OW33472   3.713   1.550   4.110  0.1658 -0.2798  0.4065
 7280SOL    HW133473   3.745   1.638   4.125 -1.1378  0.2584  0.0606
 7280SOL    HW233474   3.712   1.564   4.015  0.1958 -0.2617  0.4091
 7281SOL     OW33475   1.171   3.538   1.773 -0.1174 -0.2274 -0.0147
 7281SOL    HW133476   1.200   3.568   1.687 -0.2463 -0.9956 -0.3264
 7281SOL    HW233477   1.164   3.623   1.817  0.3514  1.0243 -2.3532
 7282SOL     OW33478   1.890   4.023  14.384  0.1273  0.0712 -0.2190
 7282SOL    HW133479   1.907   4.116  14.368  0.1517 -0.3581 -2.6181
 7282SOL    HW233480   1.859   4.020  14.475  0.2768 -1.1316 -0.2040
 7283SOL     OW33481   3.825   3.510   6.168 -0.7966 -0.1013 -0.0678
 7283SOL    HW133482   3.747   3.554   6.201 -0.0802  0.5384  0.7777
 7283SOL    HW233483   3.848   3.447   6.236 -0.5280 -0.6812 -0.6925
 7284SOL     OW33484   1.772   0.427   2.694  0.4862 -0.1005  0.2988
 7284SOL    HW133485   1.858   0.405   2.730  0.6160  0.7339  0.5033
 7284SOL    HW233486   1.784   0.386   2.608 -0.3529  0.0298  0.1188
 7285SOL     OW33487   0.170   4.105   8.401  0.8813  0.3800  0.0296
 7285SOL    HW133488   0.251   4.076   8.442  0.6874 -0.8928 -0.4791
 7285SOL    HW233489   0.134   4.030   8.353  0.1492  0.4822  0.4161
 7286SOL     OW33490   3.216   2.695  16.108 -0.1620 -0.2159  0.5783
 7286SOL    HW133491   3.288   2.758  16.106 -0.0637 -0.3964 -2.1887
 7286SOL    HW233492   3.182   2.707  16.019 -1.8493 -0.7457  1.1560
 7287SOL     OW33493   3.568   3.081  16.297  0.3930  0.1942  0.1242
 7287SOL    HW133494   3.571   3.175  16.316 -0.3416  0.9639 -3.5704
 7287SOL    HW233495   3.480   3.051  16.318  0.3082 -0.1125 -0.6815
 7288SOL     OW33496   1.983   3.379   7.082 -0.1520  0.0661  0.1808
 7288SOL    HW133497   1.999   3.424   6.999 -0.6959  0.3303  0.2171
 7288SOL    HW233498   2.073   3.359   7.105 -0.5467  0.8117  2.3402
 7289SOL     OW33499   1.712   2.421   6.388  0.3615 -0.3644 -0.6023
 7289SOL    HW133500   1.621   2.444   6.408 -0.1135 -2.5175 -0.3436
 7289SOL    HW233501   1.758   2.503   6.370  0.3649 -0.1073  0.5912
 7290SOL     OW33502   1.146   0.138   9.734 -0.0589  0.3178 -0.4853
 7290SOL    HW133503   1.128   0.179   9.650 -0.1996 -0.5107 -0.8605
 7290SOL    HW233504   1.060   0.097   9.744  0.9247 -1.5810  0.2372
 7291SOL     OW33505   3.265   4.242  16.964 -0.2628 -0.4566  0.2645
 7291SOL    HW133506   3.347   4.229  17.010  0.3687 -0.5338 -0.8875
 7291SOL    HW233507   3.213   4.180  17.014  0.9425 -0.5282  1.4187
 7292SOL     OW33508   4.695   0.425  16.228  0.4028  0.0331  0.2384
 7292SOL    HW133509   4.738   0.469  16.155 -1.6427 -2.0345 -2.2015
 7292SOL    HW233510   4.730   0.463  16.308 -1.1640 -0.0583  0.9678
 7293SOL     OW33511   4.075   0.790   1.939  0.0801 -0.1958 -0.2504
 7293SOL    HW133512   4.067   0.864   1.879 -1.9185 -0.4425 -0.3080
 7293SOL    HW233513   4.114   0.718   1.889  2.2032  0.0963  1.0254
 7294SOL     OW33514   2.973   4.357  15.587  0.4098  0.1328  0.0229
 7294SOL    HW133515   3.014   4.306  15.657 -1.2332  0.6854  1.3723
 7294SOL    HW233516   2.879   4.359  15.603  0.5262 -2.4376  1.0234
 7295SOL     OW33517   4.232   1.217   2.522 -0.6690 -0.6003 -1.1025
 7295SOL    HW133518   4.323   1.191   2.510 -0.3488  0.2561 -0.5259
 7295SOL    HW233519   4.243   1.306   2.555 -0.7995 -0.2580 -1.9906
 7296SOL     OW33520   0.058   0.786   7.686 -0.1036  0.0600 -0.2918
 7296SOL    HW133521   0.075   0.691   7.686 -0.8370 -0.0728  2.4389
 7296SOL    HW233522   0.065   0.808   7.594  2.1792 -0.3465 -0.2192
 7297SOL     OW33523   1.227   3.207   4.933 -0.4821  0.3605  0.1316
 7297SOL    HW133524   1.255   3.193   5.024  1.2406  1.6805 -0.2057
 7297SOL    HW233525   1.299   3.260   4.902 -3.2063  2.1477 -3.1282
 7298SOL     OW33526   2.906   2.395  11.784 -0.7117  0.1643 -0.6693
 7298SOL    HW133527   2.922   2.484  11.752  0.0164  0.4772  0.5442
 7298SOL    HW233528   2.964   2.395  11.861  0.8648 -1.8281 -1.8697
 7299SOL     OW33529   1.811   2.835   1.230 -0.7386  0.1701  0.2281
 7299SOL    HW133530   1.800   2.751   1.275 -2.0272  1.8665  3.0265
 7299SOL    HW233531   1.721   2.865   1.227 -0.3158  1.4892  0.7993
 7300SOL     OW33532   0.430   2.985   7.485 -0.0318 -0.7583 -0.4493
 7300SOL    HW133533   0.507   3.029   7.448 -0.2763 -0.6997 -0.8922
 7300SOL    HW233534   0.360   3.036   7.443 -1.1397 -3.3243 -1.7583
 7301SOL     OW33535   3.674   2.161   6.558 -0.4178  0.0197  0.5063
 7301SOL    HW133536   3.654   2.205   6.640  1.0925  0.1463  0.8182
 7301SOL    HW233537   3.608   2.092   6.557 -0.5542  0.1570 -0.7072
 7302SOL     OW33538   1.285   0.175  17.318  0.6141 -0.3989 -0.2747
 7302SOL    HW133539   1.221   0.138  17.379  2.2873  1.7485  2.7676
 7302SOL    HW233540   1.333   0.243  17.366 -0.2513 -0.2822  0.4287
 7303SOL     OW33541   0.148   2.000   6.746  0.1090  0.3040 -0.6169
 7303SOL    HW133542   0.201   2.040   6.815 -1.7732  0.9522  0.4512
 7303SOL    HW233543   0.073   1.964   6.794  0.2985 -1.7031 -1.8100
 7304SOL     OW33544   4.518   2.486   3.322 -0.0513 -0.2518  0.9556
 7304SOL    HW133545   4.436   2.532   3.337 -0.1911 -0.3933  0.6259
 7304SOL    HW233546   4.488   2.431   3.251 -3.3071  3.0083 -0.1754
 7305SOL     OW33547   0.920   0.997   2.634  0.2807  0.0993  0.3408
 7305SOL    HW133548   0.829   0.980   2.612  0.1474 -1.5650  2.2128
 7305SOL    HW233549   0.916   0.962   2.723  0.3814  1.5672  0.9265
 7306SOL     OW33550   3.065   2.508   5.078  0.2776 -0.1278  0.3822
 7306SOL    HW133551   3.014   2.427   5.075 -0.5955  0.4722 -0.6848
 7306SOL    HW233552   3.138   2.485   5.136  0.4975 -0.1781  0.0831
 7307SOL     OW33553   4.602   2.390   3.662 -0.1346 -0.4747 -0.1179
 7307SOL    HW133554   4.538   2.331   3.621 -0.2722  0.6105 -1.4709
 7307SOL    HW233555   4.660   2.424   3.594 -0.5777 -0.9061 -0.7160
 7308SOL     OW33556   3.089   3.012  16.488  0.9383 -0.0115 -0.1554
 7308SOL    HW133557   3.037   2.962  16.425 -0.9422  1.6342  0.0817
 7308SOL    HW233558   3.176   3.008  16.449  0.1562 -2.6096 -1.6399
 7309SOL     OW33559   0.608   2.013   4.408 -0.3839  0.6211  0.4493
 7309SOL    HW133560   0.630   1.950   4.340 -0.2316  2.2661 -1.0404
 7309SOL    HW233561   0.693   2.045   4.439 -0.9267  1.7090  0.8293
 7310SOL     OW33562   4.151   2.630   4.118 -0.1552 -0.8265  0.8739
 7310SOL    HW133563   4.065   2.647   4.157  0.2552  1.4426  0.8114
 7310SOL    HW233564   4.172   2.712   4.073 -0.0044 -1.0834  0.4732
 7311SOL     OW33565   3.734   1.661   8.248 -0.7927  0.2381  0.1567
 7311SOL    HW133566   3.645   1.627   8.260 -0.5151  0.1745  1.9035
 7311SOL    HW233567   3.716   1.755   8.258  1.1686  0.5985  0.1790
 7312SOL     OW33568   0.526   3.830   1.806  0.1697  0.1929  0.4295
 7312SOL    HW133569   0.561   3.856   1.892  1.0354 -2.2933  0.8352
 7312SOL    HW233570   0.602   3.849   1.751  0.8589 -1.4261  0.8137
 7313SOL     OW33571   2.289   2.695   5.116 -0.7318 -0.2642 -0.0027
 7313SOL    HW133572   2.243   2.778   5.113  1.1838  0.7366 -1.6571
 7313SOL    HW233573   2.259   2.653   5.197 -0.3369  0.2745  0.4150
 7314SOL     OW33574   1.497   3.934   1.193 -0.6534  0.6447  0.1398
 7314SOL    HW133575   1.457   3.994   1.129 -2.8719 -0.7828  0.1821
 7314SOL    HW233576   1.469   3.851   1.154  1.9373 -0.0133 -0.3055
 7315SOL     OW33577   1.657   0.449   5.876 -0.3391 -0.2409  0.0675
 7315SOL    HW133578   1.732   0.392   5.859 -1.0968 -0.5531 -2.2359
 7315SOL    HW233579   1.693   0.537   5.872 -3.2447  0.9507 -0.1656
 7316SOL     OW33580   2.872   1.118   4.178 -0.1076  0.4029  0.0862
 7316SOL    HW133581   2.864   1.057   4.105  1.5118 -2.4764  2.2718
 7316SOL    HW233582   2.922   1.063   4.239  2.8754  1.9845 -0.9702
 7317SOL     OW33583   3.559   1.796   3.545  0.1859 -0.0750 -0.0926
 7317SOL    HW133584   3.543   1.702   3.554 -0.2714 -0.0713 -0.8211
 7317SOL    HW233585   3.479   1.820   3.499  0.3896 -1.0060 -0.9405
 7318SOL     OW33586   2.089   1.021  14.846  0.5750 -0.3991  0.5284
 7318SOL    HW133587   2.016   0.960  14.839 -1.9114  2.6139  0.4346
 7318SOL    HW233588   2.126   1.009  14.759 -0.8039 -0.2445 -0.0700
 7319SOL     OW33589   0.613   4.599   8.488  0.1225 -0.4841  0.2466
 7319SOL    HW133590   0.551   4.526   8.494 -0.5434  0.0021 -0.8030
 7319SOL    HW233591   0.688   4.546   8.458 -0.2410 -0.1838 -1.1805
 7320SOL     OW33592   0.145   4.507  13.379 -0.2186 -0.1794  0.0830
 7320SOL    HW133593   0.197   4.431  13.356 -0.5046 -0.3731  0.0796
 7320SOL    HW233594   0.196   4.576  13.336 -1.2365  0.9819  0.6963
 7321SOL     OW33595   2.436   4.374   5.113  0.3348  0.1930  0.5305
 7321SOL    HW133596   2.376   4.329   5.173  1.1672 -0.5832  0.7851
 7321SOL    HW233597   2.369   4.413   5.057 -0.6964 -0.1811  1.5021
 7322SOL     OW33598   0.869   3.269   4.728  0.3222  0.9919 -0.0692
 7322SOL    HW133599   0.893   3.198   4.668 -2.3108  0.4322 -0.4285
 7322SOL    HW233600   0.849   3.211   4.801  0.9078 -1.5951 -1.9480
 7323SOL     OW33601   4.545   2.339   1.894  0.3766 -0.3251 -1.1512
 7323SOL    HW133602   4.555   2.252   1.854 -1.1055 -1.1776  0.3021
 7323SOL    HW233603   4.453   2.353   1.871 -0.1897  1.4390  2.2274
 7324SOL     OW33604   2.969   2.587   6.817 -0.6210 -0.2227 -0.2080
 7324SOL    HW133605   2.988   2.681   6.830 -1.1615 -0.3360  1.3884
 7324SOL    HW233606   2.907   2.567   6.887  0.4380  0.3122  0.8803
 7325SOL     OW33607   0.065   4.142   6.040 -0.1020 -0.4945  0.4254
 7325SOL    HW133608   0.044   4.098   6.122  0.6231 -0.8661  0.4144
 7325SOL    HW233609   4.731   4.202   6.035  0.5152  0.1642 -0.9432
 7326SOL     OW33610   1.336   1.565   7.031  0.0443  0.2392  0.4378
 7326SOL    HW133611   1.326   1.505   6.958 -0.0572 -0.8433  1.3327
 7326SOL    HW233612   1.388   1.513   7.093  0.2801  0.8882  0.7920
 7327SOL     OW33613   2.686   1.852   7.629  0.6483  0.3302 -0.0574
 7327SOL    HW133614   2.725   1.808   7.553  0.2763 -0.3116  0.1296
 7327SOL    HW233615   2.622   1.908   7.585  1.0264 -0.1022 -1.1603
 7328SOL     OW33616   4.248   0.516   7.992  0.4734  0.3795  0.0657
 7328SOL    HW133617   4.341   0.507   8.014  0.7616  3.2412  0.0344
 7328SOL    HW233618   4.256   0.539   7.899  0.1052  1.4315  0.2918
 7329SOL     OW33619   4.122   4.731   9.030 -0.2729  0.4343 -0.1697
 7329SOL    HW133620   4.125   4.724   9.125  1.2753  1.3338 -0.1400
 7329SOL    HW233621   4.177   0.069   9.020  0.2265  0.1018 -0.0391
 7330SOL     OW33622   3.077   2.086   1.548  0.2420  0.0430 -0.2602
 7330SOL    HW133623   3.148   2.064   1.608  1.1671 -2.1787 -2.1745
 7330SOL    HW233624   3.016   2.122   1.613 -0.8188  0.4049 -1.4591
 7331SOL     OW33625   1.721   1.753   2.111 -0.5980  0.2750 -0.2260
 7331SOL    HW133626   1.753   1.801   2.035  0.2454  0.7500  0.4183
 7331SOL    HW233627   1.754   1.665   2.093 -3.2018 -0.5983 -0.6843
 7332SOL     OW33628   3.072   0.378   4.363  0.1323 -0.2462 -0.5962
 7332SOL    HW133629   3.054   0.426   4.282  0.9534  0.2007 -0.5147
 7332SOL    HW233630   3.102   0.446   4.422  0.0349 -0.6385 -0.0985
 7333SOL     OW33631   3.242   1.007   9.238  0.5474  0.1915 -0.0598
 7333SOL    HW133632   3.179   1.077   9.223 -1.0993 -0.8895  1.8817
 7333SOL    HW233633   3.247   1.002   9.333  2.1751 -0.1099 -0.1607
 7334SOL     OW33634   2.051   2.989   1.124  0.2422  0.3562 -0.0853
 7334SOL    HW133635   1.982   2.935   1.160 -0.4011  0.7842 -0.6631
 7334SOL    HW233636   2.095   2.926   1.067 -1.8075  0.2866 -1.5950
 7335SOL     OW33637   3.402   2.904   6.430  0.1259  0.0786 -0.6580
 7335SOL    HW133638   3.491   2.877   6.406  1.0765  1.5538  1.1886
 7335SOL    HW233639   3.417   2.941   6.517 -1.7556 -1.2899  0.2472
 7336SOL     OW33640   3.669   4.612   6.229  0.2694 -0.2566 -0.0518
 7336SOL    HW133641   3.754   4.594   6.269 -0.2497 -1.9653  0.2635
 7336SOL    HW233642   3.685   4.682   6.165 -0.2661  0.5027  0.6587
 7337SOL     OW33643   3.000   4.618   5.300  0.0802 -0.0972  0.2413
 7337SOL    HW133644   2.965   4.668   5.227 -0.0773 -0.1211  0.3009
 7337SOL    HW233645   2.939   4.628   5.373  2.2958  1.0049  1.9682
 7338SOL     OW33646   1.273   0.318   8.072  0.2186  0.3434 -0.1484
 7338SOL    HW133647   1.365   0.337   8.056  0.1245  2.1013  1.4307
 7338SOL    HW233648   1.246   0.395   8.123 -3.1917 -1.6389  1.0509
 7339SOL     OW33649   4.328   1.660  10.222  0.3314  0.0276 -0.1936
 7339SOL    HW133650   4.248   1.610  10.239  0.1426  0.1733 -0.6308
 7339SOL    HW233651   4.391   1.602  10.265  0.3335  0.5359  0.4832
 7340SOL     OW33652   0.857   3.037  17.655 -0.5000  0.0265 -0.0943
 7340SOL    HW133653   0.844   3.128  17.681  0.8961  0.0106  0.6585
 7340SOL    HW233654   0.873   3.049  17.562 -1.9378 -0.8862 -0.4578
 7341SOL     OW33655   4.276   2.282  11.358  0.3389 -0.4920 -0.1589
 7341SOL    HW133656   4.328   2.316  11.431 -1.9521 -0.1932  1.3324
 7341SOL    HW233657   4.231   2.209  11.401  2.0179 -1.6990 -0.4438
 7342SOL     OW33658   0.673   1.119  13.481  0.4510 -0.0872  0.2896
 7342SOL    HW133659   0.702   1.062  13.552  0.4806 -1.2406 -0.6353
 7342SOL    HW233660   0.729   1.093  13.407  0.6069 -1.4534  0.8889
 7343SOL     OW33661   3.356   0.972  16.978  0.3279 -0.7295 -0.1776
 7343SOL    HW133662   3.409   1.045  16.946 -0.9867  1.5819  2.9445
 7343SOL    HW233663   3.298   0.965  16.902 -1.1415 -0.1909  0.8846
 7344SOL     OW33664   1.150   3.094   0.051 -0.1672  0.8935 -0.2367
 7344SOL    HW133665   1.225   3.147   0.025  1.0736 -1.1188 -0.7609
 7344SOL    HW233666   1.153   3.040  17.730  0.4381  0.2247  0.2408
 7345SOL     OW33667   1.842   0.934  14.347 -0.3124 -0.2038 -0.0608
 7345SOL    HW133668   1.803   0.931  14.434  1.0095  1.9990  0.6142
 7345SOL    HW233669   1.779   0.992  14.304  0.2143  0.2442 -0.2297
 7346SOL     OW33670   3.379   3.940   6.570  0.3319 -0.1913 -0.5517
 7346SOL    HW133671   3.292   3.957   6.534 -0.2499  1.0423  1.5074
 7346SOL    HW233672   3.358   3.916   6.660  0.2268  1.0564 -0.2509
 7347SOL     OW33673   1.002   1.810   3.990 -0.3929  0.1516 -0.2917
 7347SOL    HW133674   1.047   1.894   3.999  1.8682 -1.0180 -0.7210
 7347SOL    HW233675   0.913   1.824   4.023 -0.4053  0.8248 -0.6244
 7348SOL     OW33676   1.071   4.178   7.128  0.1784 -0.4467 -0.2024
 7348SOL    HW133677   1.034   4.187   7.216  0.0461 -0.7924 -0.2228
 7348SOL    HW233678   1.118   4.098   7.149 -2.9138 -2.5006 -1.1344
 7349SOL     OW33679   4.251   4.623  11.799 -0.5194 -0.4799 -0.2066
 7349SOL    HW133680   4.236   4.671  11.717  0.0288  2.9710  1.7034
 7349SOL    HW233681   4.345   4.617  11.783 -0.3795 -0.2886  0.5550
 7350SOL     OW33682   0.072   3.787   2.908  1.2276  0.0794 -0.1513
 7350SOL    HW133683   0.018   3.709   2.894 -0.0594  0.3788  3.2652
 7350SOL    HW233684   0.018   3.853   2.864  0.4966 -1.4514 -1.5360
 7351SOL     OW33685   0.235   1.604   0.798  0.1843 -0.0459 -0.0267
 7351SOL    HW133686   0.140   1.596   0.812  0.1800 -0.9367 -0.5660
 7351SOL    HW233687   0.259   1.517   0.767  1.9976 -0.7497  3.4036
 7352SOL     OW33688   0.206   2.211   7.495 -0.1523 -0.0325 -0.0001
 7352SOL    HW133689   0.118   2.229   7.463 -0.5280  0.6353  1.3746
 7352SOL    HW233690   0.240   2.213   7.406  1.2949 -0.6028  0.5363
 7353SOL     OW33691   2.860   1.427   0.475  0.0377  0.5057 -0.5632
 7353SOL    HW133692   2.953   1.447   0.485 -0.2473 -0.1309  3.3878
 7353SOL    HW233693   2.863   1.450   0.382  1.2920  2.3124 -0.0655
 7354SOL     OW33694   2.490   1.213   0.940  0.1786  0.2472  0.4856
 7354SOL    HW133695   2.488   1.118   0.937 -0.0471  0.3562 -2.4115
 7354SOL    HW233696   2.574   1.228   0.984  0.3497 -0.9735  0.5735
 7355SOL     OW33697   3.997   0.143   3.523  0.1055  0.0709  0.2039
 7355SOL    HW133698   3.913   0.126   3.481 -0.1039  0.6606  0.3801
 7355SOL    HW233699   4.006   0.069   3.583 -1.6159 -1.7292 -1.7831
 7356SOL     OW33700   2.156   0.485  12.130 -0.8329  0.8807 -0.4835
 7356SOL    HW133701   2.150   0.550  12.060  2.2233  1.3358 -0.3247
 7356SOL    HW233702   2.112   0.526  12.204  1.0683  0.4498  0.8956
 7357SOL     OW33703   0.521   1.994   8.906 -0.3954  0.0913 -0.2453
 7357SOL    HW133704   0.431   2.006   8.937  0.0959  2.5156  0.2675
 7357SOL    HW233705   0.510   1.982   8.812 -1.5764  2.1426 -0.3704
 7358SOL     OW33706   4.497   0.273  13.408 -0.1765  0.0678 -0.1364
 7358SOL    HW133707   4.476   0.208  13.476 -2.0950 -1.3521 -2.0920
 7358SOL    HW233708   4.516   0.222  13.329 -0.5917  0.0634 -0.2335
 7359SOL     OW33709   2.149   3.584  14.446  0.2388 -0.0696  0.4398
 7359SOL    HW133710   2.113   3.673  14.446  4.1579  1.5171  1.0997
 7359SOL    HW233711   2.236   3.597  14.483 -0.1873 -0.0910  1.4432
 7360SOL     OW33712   0.798   1.888   2.593 -0.3086  0.3312  0.3788
 7360SOL    HW133713   0.804   1.805   2.545  0.2637  0.6258 -0.0699
 7360SOL    HW233714   0.779   1.943   2.517  1.7533  1.5124  0.6987
 7361SOL     OW33715   3.650   0.163   9.207 -0.3417  0.0659  0.0374
 7361SOL    HW133716   3.638   0.252   9.173 -0.8060  0.4474  1.1985
 7361SOL    HW233717   3.702   0.132   9.133 -3.4161 -2.1998 -1.1836
 7362SOL     OW33718   3.053   3.124   9.326  0.5316  0.1048  0.0019
 7362SOL    HW133719   3.004   3.100   9.247  0.9191  1.8376 -0.7404
 7362SOL    HW233720   2.979   3.151   9.381  1.1603  0.9341  0.4440
 7363SOL     OW33721   1.863   0.293   9.818  0.7268 -0.1573 -0.7565
 7363SOL    HW133722   1.910   0.259   9.894 -2.6371  3.3163  2.9352
 7363SOL    HW233723   1.785   0.238   9.828 -0.4811  1.6269 -0.3434
 7364SOL     OW33724   0.439   2.618  10.185  0.0457 -0.5057  0.2047
 7364SOL    HW133725   0.405   2.552  10.246 -0.1141  0.3903  1.0859
 7364SOL    HW233726   0.403   2.601  10.098 -0.9468  0.8639  0.3412
 7365SOL     OW33727   3.280   2.921   8.399  0.0760  0.4131 -0.0220
 7365SOL    HW133728   3.300   2.909   8.492  0.7334 -0.5036 -0.2903
 7365SOL    HW233729   3.327   3.004   8.392  1.8962 -0.4847  1.6061
 7366SOL     OW33730   4.559   0.791  15.750  0.0514 -0.9484  0.2623
 7366SOL    HW133731   4.564   0.701  15.720  1.1773 -0.7535 -0.1532
 7366SOL    HW233732   4.643   0.833  15.732 -0.1488 -1.1310 -1.0923
 7367SOL     OW33733   2.529   1.221  13.092 -0.0348  0.1604 -0.0115
 7367SOL    HW133734   2.442   1.193  13.065 -0.1583 -0.5074  1.0617
 7367SOL    HW233735   2.578   1.162  13.036  0.3419 -1.0707  1.5985
 7368SOL     OW33736   2.880   4.683  12.483  1.0187  0.1121 -0.3698
 7368SOL    HW133737   2.876   4.716  12.573 -2.6822  0.0270 -0.5202
 7368SOL    HW233738   2.829   4.602  12.480  0.2098  0.5658  1.3974
 7369SOL     OW33739   1.206   0.773  15.227 -0.2518 -0.4958  0.1195
 7369SOL    HW133740   1.295   0.786  15.195  0.0374 -0.0786  1.0777
 7369SOL    HW233741   1.174   0.863  15.230 -1.5610 -0.9548 -0.2159
 7370SOL     OW33742   2.915   1.633   0.823  0.4567 -0.2449 -0.1816
 7370SOL    HW133743   2.918   1.706   0.761 -2.2645 -0.3444 -0.4268
 7370SOL    HW233744   2.990   1.579   0.799  0.1308 -1.0680  0.6607
 7371SOL     OW33745   2.726   0.036   2.070 -0.5825 -0.0126  0.4219
 7371SOL    HW133746   2.759   4.690   2.046 -1.3320 -0.2993  0.4329
 7371SOL    HW233747   2.784   0.061   2.142 -0.1967 -0.0126  0.1125
 7372SOL     OW33748   2.572   1.518   7.591  0.3091 -0.3033  0.0065
 7372SOL    HW133749   2.665   1.542   7.591  0.3673 -0.5363 -1.9625
 7372SOL    HW233750   2.575   1.468   7.510 -2.0849  0.8466 -0.7652
 7373SOL     OW33751   2.961   3.571   1.325 -0.2203  0.4989  0.1833
 7373SOL    HW133752   2.922   3.651   1.289  0.1124 -0.5382 -2.4460
 7373SOL    HW233753   2.880   3.531   1.357 -0.6151  0.4268 -0.9055
 7374SOL     OW33754   0.209   2.437  13.355 -0.0113 -0.5336  0.2170
 7374SOL    HW133755   0.241   2.419  13.444  0.0056 -1.8211 -0.0481
 7374SOL    HW233756   0.180   2.528  13.351  0.0732 -0.4247  1.8017
 7375SOL     OW33757   0.123   3.421  17.546 -0.0319  0.3017  0.0905
 7375SOL    HW133758   0.043   3.428  17.495 -0.4192  0.8094  0.7580
 7375SOL    HW233759   0.192   3.427  17.480 -1.1427 -1.6286 -1.2305
 7376SOL     OW33760   0.390   2.607  12.160  0.0296  0.3213 -0.3852
 7376SOL    HW133761   0.389   2.608  12.064  1.2491 -0.7040 -0.4100
 7376SOL    HW233762   0.301   2.631  12.187 -0.1774 -0.1740 -0.6235
 7377SOL     OW33763   3.885   3.393   3.267 -0.1473 -0.3686  0.4447
 7377SOL    HW133764   3.972   3.431   3.262 -0.3233 -0.0677 -0.4715
 7377SOL    HW233765   3.886   3.315   3.212 -1.4545  0.7400 -1.1848
 7378SOL     OW33766   2.386   3.954   8.506 -0.0384  0.5847 -0.6944
 7378SOL    HW133767   2.418   3.865   8.521  1.0342  1.3566  1.6647
 7378SOL    HW233768   2.294   3.954   8.479 -0.1965 -1.5255 -0.1973
 7379SOL     OW33769   3.015   3.481   1.926  0.5475  0.1349  0.2017
 7379SOL    HW133770   3.063   3.431   1.992 -1.1206  0.1657  1.4160
 7379SOL    HW233771   3.025   3.417   1.856 -0.1554 -0.6864  0.8543
 7380SOL     OW33772   3.899   4.328   6.249  0.2132  0.6139  0.3421
 7380SOL    HW133773   3.894   4.394   6.180  2.3854 -1.3203 -1.6886
 7380SOL    HW233774   3.907   4.376   6.331 -2.3010 -0.6217  1.3143
 7381SOL     OW33775   2.215   4.480  15.296 -0.4906 -0.0252  0.0896
 7381SOL    HW133776   2.221   4.487  15.201 -1.6181 -2.0777 -0.1464
 7381SOL    HW233777   2.210   4.573  15.314 -1.9069 -0.1414  0.2656
 7382SOL     OW33778   1.263   4.723   9.272 -0.0908  0.0966 -0.4277
 7382SOL    HW133779   1.275   4.709   9.366  2.0307 -0.2349 -0.7600
 7382SOL    HW233780   1.199   0.053   9.267  0.1823  0.6164  3.6064
 7383SOL     OW33781   3.355   3.725   9.923  0.8405  0.2764 -1.1577
 7383SOL    HW133782   3.293   3.665   9.882 -0.3628  1.1800 -0.6810
 7383SOL    HW233783   3.431   3.684   9.882  0.9898  0.2625 -0.8649
 7384SOL     OW33784   2.014   3.320   8.803  0.2734 -0.6355  0.1562
 7384SOL    HW133785   2.056   3.405   8.793  0.8533 -1.2228 -2.3405
 7384SOL    HW233786   1.921   3.341   8.805  0.4320  0.0054  0.6128
 7385SOL     OW33787   4.016   1.068   2.619  0.1554 -0.0438  0.5798
 7385SOL    HW133788   4.086   1.111   2.570  1.0147 -1.4191  0.6057
 7385SOL    HW233789   3.944   1.131   2.610 -1.0798 -1.3853  0.9406
 7386SOL     OW33790   2.718   1.852   8.567 -0.0488  0.1514  0.7243
 7386SOL    HW133791   2.732   1.758   8.570 -2.8700 -0.2058  2.4194
 7386SOL    HW233792   2.804   1.885   8.541  0.7417 -0.9424  1.9745
 7387SOL     OW33793   4.361   0.015   2.627 -0.1926 -0.2335  0.2625
 7387SOL    HW133794   4.387   4.712   2.546 -1.2345  0.6042 -0.5373
 7387SOL    HW233795   4.318   0.090   2.585 -0.7643 -0.1059  1.0555
 7388SOL     OW33796   2.589   1.473   2.583  0.2540 -0.1356  0.0434
 7388SOL    HW133797   2.500   1.441   2.598  0.0966 -0.0565 -0.7034
 7388SOL    HW233798   2.565   1.550   2.532  0.2607  0.0408  0.3031
 7389SOL     OW33799   3.202   2.545   0.508  0.0413  0.4915  0.1385
 7389SOL    HW133800   3.218   2.597   0.430  2.8297 -0.3737  0.1314
 7389SOL    HW233801   3.171   2.616   0.563  3.8360  0.9970  1.6391
 7390SOL     OW33802   4.155   0.991  15.706  0.3134 -0.1346 -0.0389
 7390SOL    HW133803   4.130   0.903  15.678  1.1892 -0.7442  1.1079
 7390SOL    HW233804   4.071   1.036  15.696  1.1784  1.3289 -0.6453
 7391SOL     OW33805   0.084   0.315   5.673 -0.2089 -0.2487 -0.1060
 7391SOL    HW133806   0.129   0.339   5.754  2.2313  1.6768 -2.0463
 7391SOL    HW233807   0.015   0.260   5.710  0.0668 -1.0630 -0.8166
 7392SOL     OW33808   4.653   4.528   1.797  0.1837  0.0269 -0.1514
 7392SOL    HW133809   4.626   4.616   1.825 -0.7356  0.5512 -2.6756
 7392SOL    HW233810   4.660   4.545   1.703 -0.8103 -0.0000 -0.2387
 7393SOL     OW33811   1.100   3.364   9.866 -0.5680  0.2781  0.8968
 7393SOL    HW133812   1.181   3.345   9.817 -0.9625  3.5873 -0.9847
 7393SOL    HW233813   1.087   3.275   9.899  0.6530  0.0288  0.6990
 7394SOL     OW33814   0.733   1.217  17.272  0.1701  0.5316  0.7581
 7394SOL    HW133815   0.806   1.279  17.279 -0.2682  1.2001 -0.7614
 7394SOL    HW233816   0.718   1.227  17.178  0.5726 -0.1909  0.6195
 7395SOL     OW33817   2.785   3.287   2.896  0.4231 -0.3520 -0.3236
 7395SOL    HW133818   2.865   3.243   2.867  1.3789  0.5702  0.8927
 7395SOL    HW233819   2.804   3.289   2.989 -0.5218  0.9388 -0.1546
 7396SOL     OW33820   3.505   1.982   3.089 -0.2161  0.3301 -0.3528
 7396SOL    HW133821   3.539   2.070   3.076  2.2412 -0.4270  0.9199
 7396SOL    HW233822   3.478   1.985   3.181  0.1368 -3.4361 -0.1256
 7397SOL     OW33823   3.745   4.478  12.797  0.2492 -0.2197  0.0376
 7397SOL    HW133824   3.667   4.529  12.815 -0.3532 -0.5000 -1.8279
 7397SOL    HW233825   3.713   4.423  12.726  0.2465 -0.2396  0.0542
 7398SOL     OW33826   4.561   2.792  13.518  0.1738 -0.0021 -0.2348
 7398SOL    HW133827   4.633   2.758  13.465  1.1144  1.3493  0.1707
 7398SOL    HW233828   4.563   2.884  13.491  2.3146  0.1654  0.5583
 7399SOL     OW33829   0.820   2.864   5.068  0.4419  0.0883 -0.1973
 7399SOL    HW133830   0.879   2.922   5.020  2.2690 -1.0547  0.6612
 7399SOL    HW233831   0.793   2.910   5.148  0.0799 -0.2727 -0.1133
 7400SOL     OW33832   0.856   2.689   3.532  0.1207  0.1207  0.0413
 7400SOL    HW133833   0.775   2.657   3.493 -0.6371  1.5833  0.3837
 7400SOL    HW233834   0.919   2.693   3.460 -0.4751 -0.7884 -0.5318
 7401SOL     OW33835   0.183   2.082   9.210  0.6446  0.4499  0.0327
 7401SOL    HW133836   0.152   2.029   9.283 -1.6804  0.4161 -0.9736
 7401SOL    HW233837   0.250   2.138   9.249  0.0701  0.3009  1.2502
 7402SOL     OW33838   1.356   4.637   3.440  0.2185  0.2153 -0.3223
 7402SOL    HW133839   1.308   4.621   3.520 -1.4271 -1.6658 -1.6784
 7402SOL    HW233840   1.441   4.662   3.476  1.3143  0.5494 -3.1181
 7403SOL     OW33841   0.288   2.154   2.520 -0.1614 -0.1348 -0.3421
 7403SOL    HW133842   0.309   2.076   2.571 -0.4249  0.4876  0.7228
 7403SOL    HW233843   0.296   2.224   2.585 -1.6568 -0.5083  0.2519
 7404SOL     OW33844   3.003   4.530   8.948  0.1641  0.2410 -0.1901
 7404SOL    HW133845   2.937   4.470   8.984  1.2262 -0.7937  0.0356
 7404SOL    HW233846   3.081   4.510   8.999 -1.3994 -1.2183  1.6191
 7405SOL     OW33847   4.450   4.375   8.280  0.7363 -0.1205 -0.7308
 7405SOL    HW133848   4.511   4.422   8.336  1.5947 -1.0649 -0.8835
 7405SOL    HW233849   4.381   4.442   8.280  0.3594 -0.5050 -0.0569
 7406SOL     OW33850   2.705   3.908   3.657  0.5964 -0.2690 -0.5919
 7406SOL    HW133851   2.780   3.874   3.707  0.3618 -1.8503 -1.3379
 7406SOL    HW233852   2.750   3.925   3.574 -1.4410  2.1532 -1.1891
 7407SOL     OW33853   4.021   0.761   7.724 -0.4458 -0.4875 -0.5006
 7407SOL    HW133854   4.032   0.837   7.780  1.4135 -0.1915 -1.2866
 7407SOL    HW233855   3.971   0.706   7.785 -0.0240  1.7593  1.8753
 7408SOL     OW33856   3.682   2.614   1.860  0.4681 -0.2908  0.2307
 7408SOL    HW133857   3.602   2.660   1.887 -0.3984 -1.1819 -0.8138
 7408SOL    HW233858   3.731   2.688   1.824 -0.8382 -0.0053 -0.9637
 7409SOL     OW33859   0.466   2.117   6.583 -0.3368 -0.2743  0.1474
 7409SOL    HW133860   0.379   2.142   6.554  0.6230  2.0115 -0.7425
 7409SOL    HW233861   0.445   2.107   6.676 -1.7234  2.8961  0.1758
 7410SOL     OW33862   0.446   3.744   2.307 -0.0891 -0.2863 -0.2744
 7410SOL    HW133863   0.390   3.733   2.384 -0.4120  1.6491 -0.2282
 7410SOL    HW233864   0.487   3.658   2.301  1.5317  0.2794  2.6548
 7411SOL     OW33865   1.088   4.154   9.132  0.6560  0.1012 -0.0686
 7411SOL    HW133866   1.101   4.075   9.184  0.1481  0.5158  0.6895
 7411SOL    HW233867   1.005   4.186   9.169 -0.1855 -0.2291 -1.6490
 7412SOL     OW33868   3.193   2.224   0.206 -0.2971  0.2180 -0.2916
 7412SOL    HW133869   3.167   2.135   0.230  2.1201 -0.2603  0.5905
 7412SOL    HW233870   3.148   2.243   0.124  2.0378 -3.0224 -2.3172
 7413SOL     OW33871   0.713   4.381   7.242  0.6262  0.3801  0.1690
 7413SOL    HW133872   0.690   4.433   7.319  2.4948  2.3741 -0.6279
 7413SOL    HW233873   0.629   4.367   7.198  0.7486 -2.2067  0.7811
 7414SOL     OW33874   3.063   3.306  15.814  0.7240 -0.3915  0.2629
 7414SOL    HW133875   3.094   3.386  15.856  1.9170  0.2019 -1.7813
 7414SOL    HW233876   2.969   3.326  15.808  0.4307 -1.7731  0.1404
 7415SOL     OW33877   4.205   0.565   2.856  0.3162 -0.1824 -0.5474
 7415SOL    HW133878   4.283   0.619   2.846  1.5344 -1.6282  1.0012
 7415SOL    HW233879   4.243   0.495   2.910  1.3924  0.6684 -0.2089
 7416SOL     OW33880   0.385   1.986   8.367  0.0286  0.4030  0.0305
 7416SOL    HW133881   0.314   2.041   8.401 -1.1577 -1.2568  0.2513
 7416SOL    HW233882   0.387   1.915   8.432  2.2806 -1.7916 -2.4501
 7417SOL     OW33883   3.609   4.468   7.311 -0.1202  0.4419 -0.6226
 7417SOL    HW133884   3.673   4.405   7.279 -1.0960 -0.8045 -0.0783
 7417SOL    HW233885   3.661   4.529   7.364 -0.7227  1.1306 -0.8241
 7418SOL     OW33886   1.727   3.377   7.183 -0.4599 -0.3598  0.0450
 7418SOL    HW133887   1.816   3.356   7.156 -0.3791  0.4044 -0.2859
 7418SOL    HW233888   1.681   3.366   7.100 -1.9597 -1.3992  1.0103
 7419SOL     OW33889   1.855   2.494   8.563 -0.1321  0.1340  0.8760
 7419SOL    HW133890   1.849   2.584   8.596 -1.8938  0.3504 -0.0661
 7419SOL    HW233891   1.764   2.465   8.560 -0.5394  1.4425  0.6676
 7420SOL     OW33892   3.971   1.896   4.455  0.1699 -0.1322 -0.1140
 7420SOL    HW133893   3.882   1.911   4.423  0.2824  0.7751  0.0048
 7420SOL    HW233894   3.953   1.839   4.530  0.4782  1.9252  1.4983
 7421SOL     OW33895   0.308   0.158   9.181 -0.0103  0.2197  0.0257
 7421SOL    HW133896   0.325   0.071   9.144 -3.0100 -1.3699  2.3716
 7421SOL    HW233897   0.390   0.207   9.190 -1.0606  1.6192  1.8695
 7422SOL     OW33898   2.958   0.564  14.619  0.0887 -0.2289  0.2628
 7422SOL    HW133899   3.036   0.605  14.657  1.4292  0.2465 -2.9763
 7422SOL    HW233900   2.896   0.587  14.688 -2.5048 -0.7169 -1.9050
 7423SOL     OW33901   0.212   1.491  11.544  0.4385 -0.0558  0.3658
 7423SOL    HW133902   0.243   1.581  11.537  0.2397  0.0678  1.1143
 7423SOL    HW233903   0.208   1.478  11.449  0.3881  0.8679  0.2414
 7424SOL     OW33904   0.293   1.888   2.621  0.0775  1.0052 -0.3546
 7424SOL    HW133905   0.382   1.905   2.653 -0.8766  0.7099  2.3981
 7424SOL    HW233906   0.241   1.897   2.700 -1.8534  0.5958 -1.5867
 7425SOL     OW33907   2.532   2.756   3.098  0.3354 -0.0232 -0.5809
 7425SOL    HW133908   2.479   2.822   3.143  1.0780  1.7811 -2.3684
 7425SOL    HW233909   2.485   2.740   3.016 -0.3476  2.9799 -0.7745
 7426SOL     OW33910   4.164   0.355  12.571  0.0785 -0.4160 -0.0889
 7426SOL    HW133911   4.216   0.350  12.651 -1.0039  4.4693  0.8898
 7426SOL    HW233912   4.130   0.266  12.560 -1.5461  0.3616 -1.5009
 7427SOL     OW33913   0.419   2.251   4.995 -0.2361 -0.3651 -0.1180
 7427SOL    HW133914   0.331   2.236   4.961 -0.9077  0.4101  1.2664
 7427SOL    HW233915   0.454   2.172   4.954  3.9225  0.8888  0.9890
 7428SOL     OW33916   3.055   2.353  17.718 -0.4350  0.1157 -0.4463
 7428SOL    HW133917   2.962   2.372  17.724 -0.7330 -0.6268 -3.0462
 7428SOL    HW233918   3.042   2.274  17.665  0.8777  0.7704 -1.7272
 7429SOL     OW33919   0.235   3.565   7.410 -0.3344  0.2971 -0.0988
 7429SOL    HW133920   0.200   3.553   7.322  1.3348  1.0703 -0.8696
 7429SOL    HW233921   0.226   3.482   7.458  0.3280  1.2039  1.6044
 7430SOL     OW33922   1.993   2.674  11.446  0.0991 -0.0033  0.1548
 7430SOL    HW133923   1.952   2.755  11.475 -2.1876 -1.1228  0.0369
 7430SOL    HW233924   2.067   2.663  11.506 -1.2248  2.2775  2.1815
 7431SOL     OW33925   1.136   1.783   5.037  0.3976 -0.1974 -0.4200
 7431SOL    HW133926   1.071   1.810   4.972 -0.4637 -0.9807  0.1198
 7431SOL    HW233927   1.109   1.840   5.109  2.0964  1.2940 -0.9570
 7432SOL     OW33928   4.119   2.794  12.089  0.5515 -0.3736  0.2720
 7432SOL    HW133929   4.100   2.736  12.163  1.0838  0.0033  0.6964
 7432SOL    HW233930   4.033   2.833  12.075  1.1230  0.3816 -1.1537
 7433SOL     OW33931   3.896   3.045  15.980  0.0458  0.0479 -0.1717
 7433SOL    HW133932   3.922   3.111  15.917  0.5883  0.6464  0.6761
 7433SOL    HW233933   3.968   2.983  15.972 -0.1428  0.0691 -1.9371
 7434SOL     OW33934   4.010   3.152   7.430  0.0155  0.1859 -0.2457
 7434SOL    HW133935   4.029   3.078   7.373 -0.2938  0.6669 -0.9801
 7434SOL    HW233936   4.090   3.204   7.423  0.5779 -0.5742  0.6833
 7435SOL     OW33937   3.193   2.314   4.546 -0.5323  0.3596 -0.1136
 7435SOL    HW133938   3.256   2.386   4.551 -1.3471  1.0820 -0.1593
 7435SOL    HW233939   3.173   2.303   4.639 -0.1224  0.8225  0.0247
 7436SOL     OW33940   1.938   0.216   1.734 -0.1986 -0.0669 -0.3637
 7436SOL    HW133941   1.954   0.139   1.680  0.7511 -1.3408  1.7084
 7436SOL    HW233942   1.884   0.190   1.809  1.1387 -1.2711  0.1807
 7437SOL     OW33943   4.319   1.494   4.950 -0.3332  0.0203 -0.3144
 7437SOL    HW133944   4.233   1.531   4.971 -0.2723  0.9889 -1.7628
 7437SOL    HW233945   4.359   1.570   4.909  1.0104  0.0265  1.0146
 7438SOL     OW33946   2.068   0.881   4.605  0.0087  0.0467  0.0613
 7438SOL    HW133947   2.128   0.955   4.612 -2.6409  2.3708 -2.3707
 7438SOL    HW233948   1.989   0.933   4.614  0.3117  0.6469 -0.7748
 7439SOL     OW33949   1.407   0.515   9.263 -0.1324 -0.4799  0.2453
 7439SOL    HW133950   1.404   0.420   9.268 -0.2676 -0.3451  3.0721
 7439SOL    HW233951   1.387   0.534   9.355  0.4635 -1.7558  0.6287
 7440SOL     OW33952   4.364   3.193  14.559 -0.6445  0.5440  0.0137
 7440SOL    HW133953   4.436   3.141  14.595 -0.7090 -1.2584 -2.4817
 7440SOL    HW233954   4.326   3.224  14.641  0.1974  0.7046  0.3444
 7441SOL     OW33955   2.176   3.745   3.794  0.1882 -0.2233  0.1382
 7441SOL    HW133956   2.164   3.737   3.888  3.3396  1.2123  0.6646
 7441SOL    HW233957   2.084   3.755   3.771  0.2459 -0.0911 -0.0390
 7442SOL     OW33958   2.963   1.061  14.100  0.3526  0.0413 -0.1305
 7442SOL    HW133959   3.047   1.104  14.084  1.8776 -2.5594  0.9691
 7442SOL    HW233960   2.984   0.975  14.064 -0.2344 -0.8494  1.6775
 7443SOL     OW33961   4.169   4.204  10.283 -0.5859 -0.1970  0.1568
 7443SOL    HW133962   4.220   4.149  10.223  0.2680  1.1625 -0.3650
 7443SOL    HW233963   4.231   4.272  10.310  0.4772 -1.6374  1.4547
 7444SOL     OW33964   3.346   3.636   5.987 -0.1875  0.0502  0.2948
 7444SOL    HW133965   3.305   3.570   5.931  1.1851 -0.7923  0.2877
 7444SOL    HW233966   3.339   3.584   6.067 -2.0995 -0.0809  0.0493
 7445SOL     OW33967   1.926   0.701   0.119  0.0892 -0.0179  0.1230
 7445SOL    HW133968   1.922   0.723   0.212 -0.2097 -0.8177  0.3024
 7445SOL    HW233969   1.857   0.756   0.084 -1.3304 -0.7802  1.7216
 7446SOL     OW33970   0.595   2.858   3.492 -0.0164 -0.1487 -0.7038
 7446SOL    HW133971   0.635   2.788   3.440  2.6017  2.3032 -1.9362
 7446SOL    HW233972   0.585   2.922   3.422  0.3365 -0.2777 -0.8753
 7447SOL     OW33973   4.395   1.401  15.965 -0.9183 -0.3790 -0.3658
 7447SOL    HW133974   4.419   1.466  15.899 -1.2113 -1.6430 -1.7219
 7447SOL    HW233975   4.452   1.429  16.037 -0.0310  1.4605 -1.7858
 7448SOL     OW33976   0.227   0.561   4.535  0.0458 -0.1735 -0.6552
 7448SOL    HW133977   0.304   0.541   4.481 -1.7135 -1.9092 -2.5304
 7448SOL    HW233978   0.270   0.626   4.590 -0.7461 -2.0576  2.1490
 7449SOL     OW33979   1.031   2.711   7.644 -0.8189 -0.2995 -0.2799
 7449SOL    HW133980   1.036   2.727   7.738  0.2598  1.4771 -0.6336
 7449SOL    HW233981   1.087   2.778   7.604 -0.5364  0.0803  0.7593
 7450SOL     OW33982   4.139   2.358  14.286  0.0777 -0.1680 -1.1145
 7450SOL    HW133983   4.229   2.366  14.255  0.8695 -1.9007  0.6512
 7450SOL    HW233984   4.127   2.263  14.281  1.1147 -0.3769  0.3197
 7451SOL     OW33985   3.476   1.193   6.281  0.8663 -0.8070 -0.2736
 7451SOL    HW133986   3.414   1.264   6.293  0.1924 -1.4925  0.2864
 7451SOL    HW233987   3.558   1.243   6.276  1.0031 -0.9699  0.3419
 7452SOL     OW33988   2.349   0.086   1.734 -0.1903  0.1966  0.1063
 7452SOL    HW133989   2.383   0.146   1.667 -0.6318  0.8147  0.4335
 7452SOL    HW233990   2.313   0.017   1.679 -2.9920  0.0765  2.0962
 7453SOL     OW33991   2.156   4.470   4.119 -0.0122 -0.2870  0.4659
 7453SOL    HW133992   2.068   4.465   4.154 -0.7032  2.1636 -0.9220
 7453SOL    HW233993   2.167   4.386   4.075 -1.1164 -0.1684 -0.0261
 7454SOL     OW33994   4.258   1.582   8.309  0.1848 -0.0702 -0.2646
 7454SOL    HW133995   4.272   1.663   8.357  0.3914  0.2423 -0.8512
 7454SOL    HW233996   4.164   1.569   8.299 -0.0791  2.0200 -0.4675
 7455SOL     OW33997   0.663   0.792   3.840 -0.5541 -1.5393 -0.1044
 7455SOL    HW133998   0.701   0.721   3.788 -0.3453 -2.2215  0.9623
 7455SOL    HW233999   0.615   0.842   3.774  0.7537  0.3796  0.4368
 7456SOL     OW34000   4.043   3.024   7.158  0.1994 -0.8589  0.0254
 7456SOL    HW134001   4.121   3.026   7.103  0.8382  3.3065  1.0636
 7456SOL    HW234002   3.997   3.093   7.110  0.5649  0.1720  1.1422
 7457SOL     OW34003   4.631   1.802  12.084  0.2053 -0.1863  0.1207
 7457SOL    HW134004   4.629   1.830  12.175 -1.1544  3.0134 -0.9013
 7457SOL    HW234005   4.589   1.716  12.090  1.0435 -0.3424  3.4851
 7458SOL     OW34006   0.595   0.926  11.694  0.0447 -0.7436 -0.6563
 7458SOL    HW134007   0.574   0.849  11.747 -1.6027  1.5262  1.9193
 7458SOL    HW234008   0.512   0.938  11.648  0.2974  2.6437 -0.1763
 7459SOL     OW34009   4.066   2.363  12.746 -0.0866  0.7865  0.3859
 7459SOL    HW134010   4.016   2.294  12.790 -0.4568  0.2051 -0.9594
 7459SOL    HW234011   4.148   2.316  12.733 -0.9269 -0.7705  0.7974
 7460SOL     OW34012   2.820   2.788  13.669 -0.0063  0.0170 -0.1460
 7460SOL    HW134013   2.829   2.874  13.628 -0.0797 -0.7160 -1.7198
 7460SOL    HW234014   2.869   2.803  13.749 -0.8975 -4.2848  1.1948
 7461SOL     OW34015   0.925   2.690  14.469 -0.0612 -0.3385  0.1485
 7461SOL    HW134016   0.941   2.745  14.393  0.4155  2.1119  2.0183
 7461SOL    HW234017   1.016   2.672  14.493 -0.8901 -1.8792  2.2086
 7462SOL     OW34018   3.607   3.855  10.752 -0.7595 -0.2334 -0.3811
 7462SOL    HW134019   3.534   3.841  10.812 -0.1032  0.1093  0.4984
 7462SOL    HW234020   3.655   3.927  10.794 -1.3583  0.0982 -0.2578
 7463SOL     OW34021   0.843   3.296   8.805 -0.0093 -0.4953  0.2673
 7463SOL    HW134022   0.900   3.243   8.862  1.1876 -0.1173 -0.5756
 7463SOL    HW234023   0.905   3.363   8.777 -2.0111  0.4776 -1.8221
 7464SOL     OW34024   3.608   0.160  10.768 -0.2400 -0.4102  0.5932
 7464SOL    HW134025   3.550   0.100  10.814  0.7980 -2.2792 -0.5520
 7464SOL    HW234026   3.589   0.242  10.815 -0.4478 -1.1812  1.8606
 7465SOL     OW34027   4.288   1.392  11.465  0.3826  0.1779  0.1861
 7465SOL    HW134028   4.378   1.362  11.455  0.3527  0.5134 -1.0539
 7465SOL    HW234029   4.296   1.487  11.474  0.4572 -0.0589  2.7417
 7466SOL     OW34030   0.628   0.799   5.829  0.1106 -0.3781  0.0788
 7466SOL    HW134031   0.554   0.853   5.856  0.3579 -0.2501  0.5004
 7466SOL    HW234032   0.694   0.823   5.894  1.5864  1.2564 -2.0334
 7467SOL     OW34033   2.623   3.986   4.504 -0.0428  0.2331  0.1565
 7467SOL    HW134034   2.656   3.931   4.575  0.9683  0.7567  0.1026
 7467SOL    HW234035   2.696   4.048   4.495 -0.3599  0.6240  0.2468
 7468SOL     OW34036   4.223   0.528  14.820 -0.2607  0.6579  0.8882
 7468SOL    HW134037   4.208   0.550  14.728  0.3640  0.5751  0.7698
 7468SOL    HW234038   4.315   0.542  14.840  0.1457 -1.8311  0.6801
 7469SOL     OW34039   2.919   2.548   5.617  0.3162  0.2201  0.1336
 7469SOL    HW134040   2.824   2.538   5.611  0.3702  0.7983 -1.7062
 7469SOL    HW234041   2.922   2.643   5.623  0.4702  0.0691  2.2871
 7470SOL     OW34042   4.675   1.444  10.593 -0.3378  0.1041  0.7167
 7470SOL    HW134043   4.591   1.474  10.557  0.0391  1.7310  1.1763
 7470SOL    HW234044   0.003   1.470  10.531 -1.9243  1.0552 -0.6456
 7471SOL     OW34045   4.161   0.506   2.078 -0.2689  0.2715 -0.2439
 7471SOL    HW134046   4.088   0.480   2.134 -0.2724  0.0415 -0.3546
 7471SOL    HW234047   4.197   0.582   2.124 -0.2335  1.8468 -2.8669
 7472SOL     OW34048   4.363   2.034   6.659 -0.0023 -0.1042  0.4751
 7472SOL    HW134049   4.436   1.972   6.654 -0.5038 -0.5139 -1.4709
 7472SOL    HW234050   4.322   2.010   6.576 -1.8928 -0.3431  1.4987
 7473SOL     OW34051   2.080   2.402   3.114 -0.4053 -0.4299 -0.2275
 7473SOL    HW134052   2.011   2.469   3.113 -0.1984 -0.1784  1.4836
 7473SOL    HW234053   2.031   2.327   3.082 -0.6441  0.5202 -2.0982
 7474SOL     OW34054   2.349   1.892   1.375 -0.2242 -0.3578 -0.1507
 7474SOL    HW134055   2.371   1.818   1.432 -0.2669  0.6632  1.1873
 7474SOL    HW234056   2.329   1.859   1.287 -2.0976  0.8926 -0.1869
 7475SOL     OW34057   3.497   0.548   8.234  0.4857  0.4979  0.4651
 7475SOL    HW134058   3.435   0.510   8.173  1.1746  0.3196 -0.1162
 7475SOL    HW234059   3.496   0.493   8.313  0.1886  0.5668  0.5081
 7476SOL     OW34060   0.620   2.938   4.202  0.0741  1.3391 -0.3009
 7476SOL    HW134061   0.629   2.864   4.142 -0.7639  2.6329 -2.0267
 7476SOL    HW234062   0.524   2.948   4.201 -0.0134  0.4098 -1.0367
 7477SOL     OW34063   4.711   2.771  14.502 -0.9486  0.6532  0.5702
 7477SOL    HW134064   4.708   2.766  14.406  1.0183  0.0269  0.5235
 7477SOL    HW234065   4.726   2.678  14.524  0.9992  0.7960 -0.0902
 7478SOL     OW34066   0.369   0.481   3.977  0.5193  0.4886  0.1712
 7478SOL    HW134067   0.328   0.401   3.944  0.3607  0.8691 -0.5559
 7478SOL    HW234068   0.461   0.465   3.958  0.2312  0.1136 -0.9236
 7479SOL     OW34069   1.667   1.114   3.067  0.1950  0.4863  0.3290
 7479SOL    HW134070   1.735   1.178   3.047 -1.5579  1.9741 -0.8412
 7479SOL    HW234071   1.617   1.174   3.122 -0.3135 -0.1612  0.5821
 7480SOL     OW34072   3.806   2.474   0.354  0.4675  0.2965 -0.2231
 7480SOL    HW134073   3.828   2.383   0.372 -0.2099  0.0153 -0.7901
 7480SOL    HW234074   3.749   2.503   0.426  2.8585  1.9709  0.9957
 7481SOL     OW34075   0.012   1.541   2.477  0.0137 -0.1295  0.0201
 7481SOL    HW134076   0.087   1.600   2.475  1.0923 -1.5502 -1.2897
 7481SOL    HW234077   4.732   1.557   2.569  0.8776 -1.6069  0.4736
 7482SOL     OW34078   4.367   4.706  12.951  0.8016 -0.2427 -0.0878
 7482SOL    HW134079   4.400   4.645  12.885  1.4517  1.6877 -1.5309
 7482SOL    HW234080   4.308   0.016  12.894  2.8691  0.6993 -1.3916
 7483SOL     OW34081   3.360   1.544   8.370  0.3058 -0.0627  0.1935
 7483SOL    HW134082   3.319   1.504   8.447 -0.0901  0.0836  0.0624
 7483SOL    HW234083   3.427   1.477   8.369  1.0307  0.6879 -0.9652
 7484SOL     OW34084   2.665   4.552   4.571 -0.4806  0.2003 -0.1917
 7484SOL    HW134085   2.719   4.595   4.504  2.1049 -1.3813  0.9115
 7484SOL    HW234086   2.597   4.620   4.571 -0.1557  0.5241 -1.2070
 7485SOL     OW34087   2.699   0.860   7.137 -0.6199  0.0143 -0.1204
 7485SOL    HW134088   2.694   0.844   7.231  1.0370  0.1253 -0.0018
 7485SOL    HW234089   2.644   0.786   7.110  1.7081 -1.4278 -0.9870
 7486SOL     OW34090   0.522   1.136  12.364  0.3645 -0.1990 -0.5156
 7486SOL    HW134091   0.430   1.160  12.354  0.4178  0.0625 -0.3951
 7486SOL    HW234092   0.571   1.219  12.359  1.8715 -0.9476  1.5834
 7487SOL     OW34093   3.334   1.278   1.925 -0.0603 -0.2220  0.0106
 7487SOL    HW134094   3.384   1.228   1.989 -0.0144  0.7918  0.7733
 7487SOL    HW234095   3.399   1.341   1.894 -0.5051  0.0462 -0.3876
 7488SOL     OW34096   1.584   0.255   2.383  0.2066  0.1394  0.3295
 7488SOL    HW134097   1.678   0.255   2.402  0.2419  2.1160  0.1658
 7488SOL    HW234098   1.555   0.185   2.442 -1.6821  0.3286 -0.3890
 7489SOL     OW34099   2.991   2.853   4.708  0.3581  0.6017  0.7904
 7489SOL    HW134100   3.016   2.886   4.795  0.8651 -2.3023  1.7273
 7489SOL    HW234101   2.979   2.760   4.726  0.5087  0.1764 -1.3765
 7490SOL     OW34102   4.136   3.117  14.307  0.0226  0.3685  0.3295
 7490SOL    HW134103   4.071   3.052  14.336  1.3462 -0.1267  2.2260
 7490SOL    HW234104   4.202   3.069  14.257  1.3827  1.5601  0.9683
 7491SOL     OW34105   1.310   3.752   5.528 -0.3282  0.1425  0.1503
 7491SOL    HW134106   1.394   3.773   5.486 -0.8573 -0.4873 -1.1830
 7491SOL    HW234107   1.249   3.763   5.456  1.1563 -4.0863 -1.7670
 7492SOL     OW34108   2.462   0.095  11.434  0.8077 -0.5006 -0.5503
 7492SOL    HW134109   2.532   0.058  11.488  0.5128 -0.4925 -0.1656
 7492SOL    HW234110   2.510   0.162  11.386 -0.5693  1.3078  0.6195
 7493SOL     OW34111   2.731   1.746  13.259 -0.5215  0.0880  0.0242
 7493SOL    HW134112   2.815   1.711  13.230 -0.6608  1.4403 -2.0034
 7493SOL    HW234113   2.702   1.772  13.172 -1.8577  0.6103  0.6334
 7494SOL     OW34114   0.360   2.651  15.139  0.2650 -0.2764  0.4693
 7494SOL    HW134115   0.272   2.614  15.136  0.2560 -0.2779  0.8189
 7494SOL    HW234116   0.344   2.738  15.175 -2.2410  0.4376 -2.3505
 7495SOL     OW34117   0.311   4.563   2.767  0.3508 -0.4718  0.3343
 7495SOL    HW134118   0.320   4.570   2.672 -2.1112  3.2056  0.3655
 7495SOL    HW234119   0.217   4.580   2.765 -0.0222 -2.6675 -0.7520
 7496SOL     OW34120   3.684   4.495   9.326  0.1139 -0.2775  0.5186
 7496SOL    HW134121   3.655   4.485   9.236 -0.5696  1.9839  0.4704
 7496SOL    HW234122   3.769   4.451   9.325  1.0671  1.5412  1.4466
 7497SOL     OW34123   0.254   2.586   7.078  0.3936 -0.0165 -0.5030
 7497SOL    HW134124   0.173   2.621   7.114  0.2355 -1.1221  0.1978
 7497SOL    HW234125   0.215   2.522   7.018  1.5161 -0.6952 -0.5020
 7498SOL     OW34126   0.770   2.600   8.653  0.0370  0.0463 -0.2809
 7498SOL    HW134127   0.863   2.625   8.652  0.1684 -0.5136 -2.4607
 7498SOL    HW234128   0.782   2.505   8.651 -0.3007  0.0174 -1.2220
 7499SOL     OW34129   4.396   1.466   7.569  0.1900  0.1926  0.4085
 7499SOL    HW134130   4.357   1.393   7.521 -1.1894  1.1712  0.0319
 7499SOL    HW234131   4.351   1.467   7.653 -0.1647  0.9319  0.2122
 7500SOL     OW34132   1.322   4.702   2.832  0.0338 -0.5896  0.7579
 7500SOL    HW134133   1.282   4.728   2.749  0.1942  1.3079  1.2724
 7500SOL    HW234134   1.249   4.646   2.857 -3.4224  2.9277 -1.5700
 7501SOL     OW34135   0.574   1.839   4.774 -0.4509  0.4653  0.1173
 7501SOL    HW134136   0.515   1.814   4.845  0.0384 -2.3946 -0.4895
 7501SOL    HW234137   0.522   1.818   4.696  0.1857  0.4671 -0.3128
 7502SOL     OW34138   4.692   3.672   2.345  0.7785  0.2052 -0.0459
 7502SOL    HW134139   4.703   3.732   2.419 -1.9100  0.2182  0.3602
 7502SOL    HW234140   4.622   3.620   2.384  2.3785 -0.8393  1.3626
 7503SOL     OW34141   0.799   0.652   5.309  0.1951 -0.1976  0.9155
 7503SOL    HW134142   0.746   0.701   5.372 -0.5064  0.3417 -0.0870
 7503SOL    HW234143   0.796   0.565   5.349  0.2059  0.2482  1.8776
 7504SOL     OW34144   0.236   0.246   0.042  0.0186 -0.2493  0.0613
 7504SOL    HW134145   0.225   0.195  17.719  2.1078  1.2480 -1.1916
 7504SOL    HW234146   0.178   0.319   0.022  0.9227  0.6398  0.7245
 7505SOL     OW34147   1.037   0.425   7.920 -0.5304 -1.0902  0.3502
 7505SOL    HW134148   1.121   0.398   7.957  0.4997  0.3716 -0.9362
 7505SOL    HW234149   1.064   0.423   7.828  1.2727 -0.9118  0.8776
 7506SOL     OW34150   0.230   2.547   3.154 -0.2095  0.1443  0.4595
 7506SOL    HW134151   0.268   2.635   3.157 -1.7661  0.7868  1.2162
 7506SOL    HW234152   0.196   2.544   3.065 -1.2963 -0.2833  0.8818
 7507SOL     OW34153   3.969   3.392  15.523  0.0380 -0.2936  0.1213
 7507SOL    HW134154   3.876   3.372  15.510  0.1452 -1.9505  1.7741
 7507SOL    HW234155   3.996   3.428  15.439 -0.3156 -1.2593 -0.4134
 7508SOL     OW34156   0.897   2.170  11.990 -0.3571 -0.2548 -0.7609
 7508SOL    HW134157   0.844   2.115  12.049 -0.5732  2.0621  1.2104
 7508SOL    HW234158   0.980   2.151  12.033  0.6266  2.9573 -1.2659
 7509SOL     OW34159   4.272   0.685   8.534  0.2595  0.0495  0.6938
 7509SOL    HW134160   4.196   0.731   8.499  0.3319  1.3811  2.2676
 7509SOL    HW234161   4.261   0.590   8.529  0.4673  0.3645 -5.0563
 7510SOL     OW34162   0.892   1.234   6.059  0.0313 -0.3281  0.2993
 7510SOL    HW134163   0.961   1.232   5.993  0.3606  0.8540  0.6036
 7510SOL    HW234164   0.818   1.247   6.000  3.1700  3.6894 -2.8004
 7511SOL     OW34165   4.176   2.508  10.593 -0.3449 -0.0645  0.0976
 7511SOL    HW134166   4.196   2.559  10.672  2.4038 -2.3480  0.8820
 7511SOL    HW234167   4.247   2.526  10.532  1.0566 -0.1445  1.7061
 7512SOL     OW34168   3.077   0.113   8.667  0.0180  0.1286  0.2984
 7512SOL    HW134169   3.012   0.108   8.737  0.6243 -0.2723  0.8329
 7512SOL    HW234170   3.083   0.023   8.635  1.5709  0.1651  0.4683
 7513SOL     OW34171   1.846   2.936   5.543  0.1075 -0.1362  0.1201
 7513SOL    HW134172   1.939   2.955   5.532 -0.4041  1.3254 -1.6791
 7513SOL    HW234173   1.855   2.870   5.611 -3.4602 -1.9957 -1.2050
 7514SOL     OW34174   3.794   1.714   7.071  0.1217  0.0007  0.4875
 7514SOL    HW134175   3.700   1.725   7.087 -0.6576 -1.0231 -3.3349
 7514SOL    HW234176   3.826   1.766   7.145 -1.7343  1.3590  0.3258
 7515SOL     OW34177   2.258   2.474   6.545 -0.0151 -0.1902  0.9246
 7515SOL    HW134178   2.333   2.424   6.578 -0.0179 -0.3176  0.7425
 7515SOL    HW234179   2.193   2.404   6.545 -1.0733  0.8009  3.3442
 7516SOL     OW34180   4.359   0.062   9.895 -0.0015  0.0227 -0.4920
 7516SOL    HW134181   4.328   4.729   9.842 -0.0962 -0.1974 -0.1360
 7516SOL    HW234182   4.299   0.132   9.872  1.4338  1.9540  1.6557
 7517SOL     OW34183   0.579   2.496   5.614  0.1858 -0.3144  0.1563
 7517SOL    HW134184   0.601   2.445   5.536 -2.5950  0.3074 -1.0252
 7517SOL    HW234185   0.576   2.578   5.564  0.0062 -0.0495  0.5983
 7518SOL     OW34186   0.419   1.762   4.179  0.0439  0.0749 -0.5036
 7518SOL    HW134187   0.331   1.800   4.182 -0.1166 -0.5980  2.9759
 7518SOL    HW234188   0.394   1.670   4.172  0.3318 -0.1725  1.8050
 7519SOL     OW34189   2.397   3.756   6.677 -0.5361 -0.6491 -0.0312
 7519SOL    HW134190   2.426   3.692   6.742  1.0283  1.7158  1.5488
 7519SOL    HW234191   2.302   3.741   6.673 -0.4786 -0.9419 -0.3708
 7520SOL     OW34192   3.066   0.368   9.297  0.5793  0.1212  0.3105
 7520SOL    HW134193   3.009   0.444   9.296 -0.8023 -0.9395 -1.4481
 7520SOL    HW234194   3.017   0.315   9.360  1.3951  0.4309  1.2092
 7521SOL     OW34195   0.190   4.643   8.055  0.2122 -0.0731  0.3585
 7521SOL    HW134196   0.097   4.667   8.062  0.3002  1.1887 -2.7330
 7521SOL    HW234197   0.185   4.551   8.083 -1.8895 -0.4214 -1.0978
 7522SOL     OW34198   3.214   2.664   0.243 -0.4665 -0.4626 -0.2911
 7522SOL    HW134199   3.171   2.732   0.192  1.0376  0.4935 -0.2772
 7522SOL    HW234200   3.298   2.657   0.197 -1.0545 -0.3545 -1.3755
 7523SOL     OW34201   0.242   3.168   8.627 -0.0419  0.1764  0.2357
 7523SOL    HW134202   0.160   3.132   8.594  0.2265 -0.6556  0.4898
 7523SOL    HW234203   0.301   3.162   8.552  0.9403 -0.4926  1.0717
 7524SOL     OW34204   0.024   0.247   4.922 -0.7428 -0.0240  0.1376
 7524SOL    HW134205   0.010   0.154   4.905 -2.1598  0.2456 -0.1402
 7524SOL    HW234206   0.086   0.245   4.996  0.5031  0.0949 -0.9022
 7525SOL     OW34207   3.792   3.853   1.423  0.2037 -0.2924  0.4177
 7525SOL    HW134208   3.787   3.758   1.430 -0.4377 -0.2899  0.0408
 7525SOL    HW234209   3.805   3.867   1.516 -0.8684 -1.9988  0.8343
 7526SOL     OW34210   1.408   0.157   7.120 -0.0120 -0.6830  0.0178
 7526SOL    HW134211   1.466   0.215   7.069 -1.6635  1.1104  0.1679
 7526SOL    HW234212   1.442   0.070   7.100 -1.9858 -1.8475  1.7970
 7527SOL     OW34213   4.564   0.450   0.917 -0.3738 -0.1370  0.0864
 7527SOL    HW134214   4.487   0.406   0.882 -0.6676  0.2050  0.3012
 7527SOL    HW234215   4.619   0.372   0.922 -2.8026 -1.6835  2.2528
 7528SOL     OW34216   0.706   4.571   9.969  0.3131  0.5691 -0.3508
 7528SOL    HW134217   0.693   4.620  10.050 -1.1855  2.3086 -1.6475
 7528SOL    HW234218   0.684   4.483  10.002  0.7880  0.6745  0.2480
 7529SOL     OW34219   3.695   3.504   8.955 -0.1407 -0.3035 -0.2540
 7529SOL    HW134220   3.737   3.559   8.889  0.9995  1.3289  1.8238
 7529SOL    HW234221   3.606   3.541   8.961  2.0134  5.1102 -1.9666
 7530SOL     OW34222   2.906   0.622   9.084  0.0919 -0.2654  0.5818
 7530SOL    HW134223   2.984   0.670   9.113  0.0823 -0.0240  0.2164
 7530SOL    HW234224   2.830   0.670   9.117 -0.6343 -0.3156 -1.0236
 7531SOL     OW34225   3.915   4.436   4.278  0.5395 -0.0059  0.3794
 7531SOL    HW134226   3.950   4.502   4.219  0.7217  1.3632  2.0024
 7531SOL    HW234227   3.869   4.379   4.216  0.0531  1.9303 -1.0353
 7532SOL     OW34228   2.920   4.696   2.725  0.2812 -0.4215 -0.2901
 7532SOL    HW134229   2.899   4.604   2.736 -1.5192  0.0362  0.1695
 7532SOL    HW234230   3.014   4.706   2.743  0.3895 -1.7488 -0.1226
 7533SOL     OW34231   3.920   1.979  17.601 -0.3504 -0.4499  0.1629
 7533SOL    HW134232   3.837   1.937  17.579 -0.1177 -1.0494  0.4407
 7533SOL    HW234233   3.942   2.008  17.512 -0.4357 -0.7059  0.0576
 7534SOL     OW34234   0.414   1.873   8.129  0.2254  0.1575  0.2076
 7534SOL    HW134235   0.324   1.840   8.133 -0.4455  2.2496  2.6202
 7534SOL    HW234236   0.409   1.924   8.210 -0.2930  0.8092 -0.2386
 7535SOL     OW34237   0.732   0.783   5.573 -0.1887 -0.3599 -0.0677
 7535SOL    HW134238   0.812   0.793   5.625 -0.2878 -0.4683  0.1059
 7535SOL    HW234239   0.664   0.809   5.635  0.0120  1.7745 -0.7372
 7536SOL     OW34240   0.544   3.889   0.248 -0.1528 -0.0640  0.1284
 7536SOL    HW134241   0.591   3.839   0.182  1.0490 -0.2693  1.1479
 7536SOL    HW234242   0.616   3.939   0.285  0.8209 -1.4618  0.1095
 7537SOL     OW34243   0.034   4.578   2.705 -0.5653 -0.4309  0.5592
 7537SOL    HW134244   4.739   4.496   2.671  0.5190 -1.2362  1.4082
 7537SOL    HW234245   4.694   4.629   2.716  0.0289  0.7984 -0.8396
 7538SOL     OW34246   3.386   3.562   9.233 -0.4249  0.3063 -0.0437
 7538SOL    HW134247   3.425   3.476   9.246 -0.2909  0.3253 -0.3206
 7538SOL    HW234248   3.348   3.580   9.319  0.4376 -0.6967  0.5493
 7539SOL     OW34249   1.340   0.905   3.571 -0.1167 -0.0942  0.2690
 7539SOL    HW134250   1.296   0.881   3.653  1.4629 -0.9438  0.8538
 7539SOL    HW234251   1.385   0.822   3.556 -1.5357 -0.4727 -1.9154
 7540SOL     OW34252   2.466   2.105   5.046 -0.0116 -0.2074  0.2953
 7540SOL    HW134253   2.401   2.068   5.105 -2.8666 -0.2250 -2.8660
 7540SOL    HW234254   2.433   2.091   4.957  2.2093 -3.3848 -0.0470
 7541SOL     OW34255   0.519   2.645   1.930  0.1634  0.6483 -0.5070
 7541SOL    HW134256   0.589   2.696   1.971  1.1977  0.5294 -2.1180
 7541SOL    HW234257   0.474   2.608   2.007  0.9928  1.4768  0.3636
 7542SOL     OW34258   1.112   0.365   8.417 -0.4167  0.2157 -0.3000
 7542SOL    HW134259   1.186   0.404   8.370  0.6043  1.6097  2.4456
 7542SOL    HW234260   1.051   0.345   8.346 -0.8194 -0.2620  0.1840
 7543SOL     OW34261   3.762   2.949   3.657 -0.6488  0.0425  0.0414
 7543SOL    HW134262   3.828   2.900   3.707 -2.4597 -1.0982  1.2884
 7543SOL    HW234263   3.799   3.037   3.664 -0.2531 -0.2438  1.5663
 7544SOL     OW34264   0.376   4.577   2.497  0.6387  0.6588 -0.1919
 7544SOL    HW134265   0.379   4.513   2.426 -0.5541 -0.4739  0.7605
 7544SOL    HW234266   0.469   4.598   2.503  1.2274 -2.4163  1.6336
 7545SOL     OW34267   2.787   1.201  13.261  0.0005 -0.3500 -0.1489
 7545SOL    HW134268   2.812   1.109  13.268  1.5026  0.1335  0.7322
 7545SOL    HW234269   2.870   1.247  13.273 -0.6201  0.0226  2.6322
 7546SOL     OW34270   0.734   3.526   4.206 -0.0530 -1.1044  0.9459
 7546SOL    HW134271   0.766   3.564   4.287 -2.1689 -0.2722  1.3751
 7546SOL    HW234272   0.817   3.497   4.167 -0.8010  1.4516 -2.5316
 7547SOL     OW34273   4.448   2.556   8.254 -0.8673 -0.1261 -0.2373
 7547SOL    HW134274   4.470   2.489   8.188  1.9218  1.5332 -1.0285
 7547SOL    HW234275   4.406   2.627   8.205 -0.0534  0.4312 -0.1423
 7548SOL     OW34276   2.499   3.956   3.056 -0.2755  0.2869  0.8020
 7548SOL    HW134277   2.447   4.035   3.039 -1.7951 -0.8792  0.0196
 7548SOL    HW234278   2.500   3.954   3.152  0.7050 -0.2009  0.7788
 7549SOL     OW34279   3.689   0.241   1.723 -0.2962 -0.1229 -0.1084
 7549SOL    HW134280   3.652   0.220   1.637  0.1577 -1.6959  0.0816
 7549SOL    HW234281   3.606   0.266   1.765  0.9260  0.5930  1.8945
 7550SOL     OW34282   3.590   2.158   7.204 -0.0376 -0.2339  0.0779
 7550SOL    HW134283   3.494   2.155   7.206 -0.0390  0.9128  1.5951
 7550SOL    HW234284   3.602   2.130   7.113 -1.4992 -2.8975  0.7145
 7551SOL     OW34285   1.276   2.031   1.688  0.5952 -0.1658 -0.2170
 7551SOL    HW134286   1.320   2.045   1.772 -0.0239 -2.1706  0.4261
 7551SOL    HW234287   1.186   2.037   1.718  0.2249 -4.1182 -0.6252
 7552SOL     OW34288   3.795   3.858   4.189  0.0710 -0.5279 -0.0954
 7552SOL    HW134289   3.868   3.918   4.170 -0.1379 -0.6798 -1.3765
 7552SOL    HW234290   3.789   3.824   4.100  2.4693  3.8640 -1.9928
 7553SOL     OW34291   3.252   3.679   2.119  0.3166  0.1273 -0.4455
 7553SOL    HW134292   3.211   3.739   2.056  0.1055 -0.1817 -0.6043
 7553SOL    HW234293   3.182   3.651   2.178  1.9870  1.1285  2.0201
 7554SOL     OW34294   2.828   4.660   4.385  0.3273  0.0187  0.7597
 7554SOL    HW134295   2.894   4.634   4.450  1.0577 -0.3035 -0.1191
 7554SOL    HW234296   2.857   0.006   4.357 -0.7169 -0.4870 -1.8051
 7555SOL     OW34297   1.351   1.659  14.303 -0.2570 -1.0665 -0.2458
 7555SOL    HW134298   1.283   1.592  14.314  0.9061 -1.9223  1.8958
 7555SOL    HW234299   1.354   1.663  14.208 -3.0842  0.1042 -0.2843
 7556SOL     OW34300   0.712   2.426   4.344 -0.1337 -0.4301  0.1627
 7556SOL    HW134301   0.730   2.495   4.280 -0.1376 -0.5511  0.0303
 7556SOL    HW234302   0.766   2.352   4.318  2.6682  2.0838 -1.2019
 7557SOL     OW34303   1.254   3.695  14.025  0.0562  0.1196  0.1347
 7557SOL    HW134304   1.290   3.646  13.951  1.1964  0.7316  0.2801
 7557SOL    HW234305   1.295   3.642  14.093  0.2869 -0.7234 -0.6572
 7558SOL     OW34306   4.203   2.862   3.974 -0.2066  0.5771 -0.1232
 7558SOL    HW134307   4.285   2.912   3.980  1.1179 -1.6724  0.4285
 7558SOL    HW234308   4.151   2.912   4.037 -1.0199  0.7538 -0.9347
 7559SOL     OW34309   3.626   1.269  10.260  0.3024  0.7708  0.0860
 7559SOL    HW134310   3.662   1.280  10.348  1.5070 -0.6568 -0.2303
 7559SOL    HW234311   3.532   1.276  10.279  0.4877  0.1696  1.2100
 7560SOL     OW34312   4.239   2.704   8.841  0.4415 -0.4369 -0.0946
 7560SOL    HW134313   4.267   2.781   8.792 -1.8808  0.5497  0.1159
 7560SOL    HW234314   4.287   2.706   8.924  0.2779  2.5596 -0.0719
 7561SOL     OW34315   2.679   2.389   3.603  0.2885 -0.5292 -0.5673
 7561SOL    HW134316   2.648   2.323   3.540  1.3916 -0.6696 -0.9577
 7561SOL    HW234317   2.646   2.354   3.686  1.5373 -1.4327 -0.4565
 7562SOL     OW34318   1.694   4.640   6.307  0.9633  0.0218 -0.4133
 7562SOL    HW134319   1.681   4.591   6.389 -0.0287  0.8410 -0.0784
 7562SOL    HW234320   1.766   4.590   6.269  0.6445 -0.7503 -0.0190
 7563SOL     OW34321   4.275   1.464   2.646 -0.2014 -0.5880  0.2960
 7563SOL    HW134322   4.184   1.477   2.670 -0.1766  0.9252 -0.4217
 7563SOL    HW234323   4.306   1.555   2.651  1.5368 -1.2273  1.2217
 7564SOL     OW34324   4.115   2.646   6.125  0.8061  0.0807 -0.5021
 7564SOL    HW134325   4.199   2.690   6.131  1.8087 -1.7790 -0.9911
 7564SOL    HW234326   4.108   2.621   6.033 -0.1832  1.3822 -0.7951
 7565SOL     OW34327   1.814   4.620   5.553  0.9153 -0.3806  0.4490
 7565SOL    HW134328   1.859   4.545   5.515 -3.1632 -2.1825 -0.8012
 7565SOL    HW234329   1.728   4.580   5.570  0.3947  0.2137 -0.7865
 7566SOL     OW34330   1.782   1.073   1.975 -0.2838 -0.2827  0.1706
 7566SOL    HW134331   1.839   0.997   1.962 -0.9432 -0.8148  0.3993
 7566SOL    HW234332   1.768   1.094   1.883 -0.3338  0.8334  0.4351
 7567SOL     OW34333   3.700   4.061   4.626  0.1810  0.4069 -0.2816
 7567SOL    HW134334   3.666   4.053   4.537 -0.5683  0.7044 -0.0211
 7567SOL    HW234335   3.652   3.986   4.661 -1.1665  1.0606 -0.7287
 7568SOL     OW34336   3.747   0.931   4.423  0.1578  0.4832 -0.1393
 7568SOL    HW134337   3.656   0.942   4.394  0.5641 -2.1680 -2.4458
 7568SOL    HW234338   3.778   1.022   4.425  2.0251 -0.1051 -1.8677
 7569SOL     OW34339   4.550   4.347   5.945  0.1744  0.6122 -0.1026
 7569SOL    HW134340   4.538   4.310   5.857  1.0902  1.8137 -0.7236
 7569SOL    HW234341   4.471   4.318   5.991  0.0037  0.7451 -0.3094
 7570SOL     OW34342   2.103   3.086  13.450 -0.0338 -0.0209  0.5351
 7570SOL    HW134343   2.080   3.004  13.407  2.1042  0.7922 -2.1610
 7570SOL    HW234344   2.198   3.079  13.458  0.3265  0.7221 -2.9659
 7571SOL     OW34345   3.013   3.257   6.790 -0.4316  0.5047 -0.0887
 7571SOL    HW134346   2.923   3.240   6.764 -2.5222  0.8195  6.9792
 7571SOL    HW234347   3.029   3.345   6.758  0.2514 -0.0531 -1.2892
 7572SOL     OW34348   1.838   1.423   3.631 -0.0722 -0.0207 -0.0430
 7572SOL    HW134349   1.873   1.374   3.706  1.4181  0.2546 -0.5582
 7572SOL    HW234350   1.786   1.360   3.581  0.6096 -0.1184 -0.6223
 7573SOL     OW34351   2.388   1.118   8.208 -0.1740  0.4675  0.1877
 7573SOL    HW134352   2.434   1.034   8.209 -0.5453  0.2762  1.2315
 7573SOL    HW234353   2.302   1.084   8.235 -1.1056  0.9860 -2.1258
 7574SOL     OW34354   0.961   4.466   4.380 -0.9138  0.1045 -0.5879
 7574SOL    HW134355   1.045   4.439   4.419 -1.1568  0.4174  0.1467
 7574SOL    HW234356   0.900   4.424   4.441 -0.3816 -0.9548 -0.7724
 7575SOL     OW34357   0.732   2.663   8.048  0.2775 -0.1253 -0.4049
 7575SOL    HW134358   0.673   2.645   8.122  0.2921 -1.8008 -0.8024
 7575SOL    HW234359   0.680   2.625   7.977  0.8543  0.3337 -1.0709
 7576SOL     OW34360   2.867   1.960   3.374  0.3833 -0.2442  0.6924
 7576SOL    HW134361   2.950   1.972   3.328 -1.3014  3.3807 -1.3974
 7576SOL    HW234362   2.824   1.923   3.297  1.4858  0.6696 -0.3662
 7577SOL     OW34363   2.181   0.057   2.687 -0.1909 -0.0621  0.4486
 7577SOL    HW134364   2.217   0.037   2.773  1.8324 -1.0034 -0.6159
 7577SOL    HW234365   2.247   0.118   2.654  0.4527 -1.7826 -1.4307
 7578SOL     OW34366   1.849   1.060  17.590 -0.2597 -0.5756 -0.2477
 7578SOL    HW134367   1.831   0.968  17.609 -1.2436  0.2597  2.8857
 7578SOL    HW234368   1.842   1.092  17.680 -1.2279 -0.2825 -0.4374
 7579SOL     OW34369   1.065   1.486   2.751  0.6840 -0.1051  0.2760
 7579SOL    HW134370   1.014   1.464   2.673  1.3088 -0.9738  0.1070
 7579SOL    HW234371   1.114   1.563   2.723 -0.0098  0.7555  1.4762
 7580SOL     OW34372   3.017   3.886   7.936 -0.3478  0.7782 -0.3170
 7580SOL    HW134373   2.962   3.870   8.012  1.7529  0.1868  1.0689
 7580SOL    HW234374   2.959   3.864   7.863 -1.3230 -1.7567  1.2454
 7581SOL     OW34375   3.072   3.930   7.192  0.0532  0.3814  0.2090
 7581SOL    HW134376   3.128   3.943   7.269  0.8325  1.1124 -0.4869
 7581SOL    HW234377   2.987   3.919   7.236  0.4075 -1.7811  0.3180
 7582SOL     OW34378   1.388   0.432   8.331  0.0289  0.0097 -0.6918
 7582SOL    HW134379   1.481   0.422   8.352 -0.2279 -2.1272 -0.5952
 7582SOL    HW234380   1.383   0.504   8.268 -1.5782  1.2602  0.8472
 7583SOL     OW34381   2.857   4.327   7.998 -0.0617  0.6167  0.0587
 7583SOL    HW134382   2.831   4.405   8.048 -3.2073 -0.5639  0.2765
 7583SOL    HW234383   2.826   4.253   8.049  0.3936 -0.6840 -1.5727
 7584SOL     OW34384   4.518   2.411   8.025 -0.2302  0.1818 -0.3726
 7584SOL    HW134385   4.605   2.436   7.993 -0.9048  0.6027 -1.8566
 7584SOL    HW234386   4.460   2.442   7.955  1.4519  1.6932 -1.1103
 7585SOL     OW34387   1.728   1.064   3.856 -0.2763 -0.5936 -0.8356
 7585SOL    HW134388   1.658   1.073   3.792 -1.3466 -0.3224  0.3675
 7585SOL    HW234389   1.677   1.079   3.936 -0.6191 -3.0099 -0.5937
 7586SOL     OW34390   2.639   3.538   8.074  0.0544  0.3876 -0.3993
 7586SOL    HW134391   2.663   3.463   8.020 -2.8957 -2.2393  1.8958
 7586SOL    HW234392   2.585   3.498   8.142  1.1545  3.0530  2.0420
 7587SOL     OW34393   0.776   1.966  12.685  0.2501 -0.2887  0.1487
 7587SOL    HW134394   0.809   2.027  12.752 -1.0394  1.0254 -0.4127
 7587SOL    HW234395   0.784   1.885  12.735  3.1204  0.3528  0.7487
 7588SOL     OW34396   1.939   4.157   9.159 -0.4754  0.0443 -0.1944
 7588SOL    HW134397   1.947   4.076   9.209 -0.3520 -1.2139 -2.2359
 7588SOL    HW234398   1.968   4.133   9.070 -0.8233  0.3175 -0.3816
 7589SOL     OW34399   3.308   2.508   3.265  0.3957 -0.2093 -0.6762
 7589SOL    HW134400   3.300   2.534   3.357 -0.0557 -0.9629 -0.5034
 7589SOL    HW234401   3.235   2.558   3.230  0.4657  0.5698  0.2808
 7590SOL     OW34402   1.219   1.088   0.857 -0.7366  0.6819  0.0137
 7590SOL    HW134403   1.245   1.114   0.945  3.2835 -0.8979 -0.6896
 7590SOL    HW234404   1.131   1.127   0.858 -0.8903  0.3518 -0.5554
 7591SOL     OW34405   0.464   1.026   7.966 -0.5232 -0.4293 -0.2249
 7591SOL    HW134406   0.369   1.033   7.958 -0.2888 -0.0192 -2.6628
 7591SOL    HW234407   0.467   1.043   8.060  2.0855  0.1881 -0.4139
 7592SOL     OW34408   0.669   1.414  17.037 -0.0967 -0.1023 -0.0305
 7592SOL    HW134409   0.743   1.462  17.074  0.2670  1.2124 -2.4446
 7592SOL    HW234410   0.705   1.334  16.998 -0.8383 -1.6446  2.4432
 7593SOL     OW34411   2.535   4.308   0.102  0.2195  0.0310  0.4185
 7593SOL    HW134412   2.600   4.311   0.032  0.2604  1.4072  0.4987
 7593SOL    HW234413   2.561   4.233   0.153 -1.3738 -0.9621 -0.2130
 7594SOL     OW34414   0.815   2.917  11.178 -0.1264 -0.2895  0.2563
 7594SOL    HW134415   0.849   2.846  11.123 -0.2296  0.9882 -1.4337
 7594SOL    HW234416   0.828   2.988  11.116  0.8585  0.1431  0.9529
 7595SOL     OW34417   3.890   1.238  13.137 -0.2167 -0.2529  0.8041
 7595SOL    HW134418   3.889   1.222  13.231 -3.9309 -1.5245  0.5734
 7595SOL    HW234419   3.880   1.146  13.112  0.3371 -0.2406  0.5575
 7596SOL     OW34420   0.344   1.923   1.346  0.0473  0.1709 -0.3964
 7596SOL    HW134421   0.307   1.861   1.283 -1.4092 -0.6881  1.3162
 7596SOL    HW234422   0.387   1.981   1.283  3.4110  0.1827  1.9661
 7597SOL     OW34423   1.343   1.691  16.726 -0.0883 -0.4104  0.4494
 7597SOL    HW134424   1.401   1.686  16.651 -1.5327 -1.1603 -0.6234
 7597SOL    HW234425   1.405   1.717  16.794  3.2033 -1.4113 -2.2075
 7598SOL     OW34426   3.919   3.376  14.953  0.0853 -0.3882 -0.1987
 7598SOL    HW134427   3.849   3.311  14.955  0.4365 -0.8346 -3.1606
 7598SOL    HW234428   3.879   3.452  14.910 -0.5338 -1.8251 -2.1591
 7599SOL     OW34429   1.673   4.134  14.624  0.4197 -0.2907  0.1569
 7599SOL    HW134430   1.655   4.159  14.533 -1.0940  0.2707  0.6012
 7599SOL    HW234431   1.631   4.206  14.671  1.1249  1.4367 -1.8281
 7600SOL     OW34432   3.066   4.233   4.161  0.0194  0.0835  0.2472
 7600SOL    HW134433   3.001   4.288   4.204 -0.1589  1.0811 -1.3207
 7600SOL    HW234434   3.033   4.214   4.073  1.0113  0.6491 -0.2553
 7601SOL     OW34435   4.140   2.009   9.891  0.0885 -0.0913 -0.6112
 7601SOL    HW134436   4.064   1.958   9.920  0.4913 -1.3645 -1.8291
 7601SOL    HW234437   4.192   2.023   9.970 -0.4580  2.7786 -0.7686
 7602SOL     OW34438   1.356   0.205   4.336  0.1511  0.1776 -0.1615
 7602SOL    HW134439   1.288   0.138   4.339  0.9840 -0.6630 -0.1172
 7602SOL    HW234440   1.406   0.180   4.258  0.5050 -0.8668  0.3987
 7603SOL     OW34441   4.560   3.093   6.078  0.2679  0.0171  0.2880
 7603SOL    HW134442   4.481   3.054   6.114  0.1321 -1.7643 -1.9649
 7603SOL    HW234443   4.530   3.184   6.080 -2.6847 -0.8852 -3.3671
 7604SOL     OW34444   3.127   1.738   5.023 -0.2232  0.0524 -0.2713
 7604SOL    HW134445   3.099   1.780   4.942  2.1385  1.2692 -0.4480
 7604SOL    HW234446   3.042   1.701   5.048  0.5062  0.4691  2.7904
 7605SOL     OW34447   4.683   2.271   7.099  0.1630 -0.2319  0.1402
 7605SOL    HW134448   4.678   2.195   7.042 -2.9334 -0.2263  0.3650
 7605SOL    HW234449   4.614   2.252   7.163 -0.3359 -0.2266 -0.3949
 7606SOL     OW34450   1.576   2.095   7.897  0.2428 -0.1089 -0.1909
 7606SOL    HW134451   1.558   2.140   7.814 -2.1781 -0.7287 -0.0014
 7606SOL    HW234452   1.637   2.028   7.867 -0.2322 -0.4937 -0.2875
 7607SOL     OW34453   2.235   2.518  14.992  0.1038  0.2681 -0.7407
 7607SOL    HW134454   2.147   2.508  14.954 -0.3740 -1.3528  0.8302
 7607SOL    HW234455   2.287   2.465  14.931 -0.2889 -0.3481 -0.5420
 7608SOL     OW34456   4.587   2.998  16.850  0.3158  0.6708  0.5352
 7608SOL    HW134457   4.500   2.973  16.817  0.0094  1.1020  1.0149
 7608SOL    HW234458   4.618   2.921  16.898  0.6341  0.4236 -0.0664
 7609SOL     OW34459   3.921   1.924   6.585 -0.0015  0.1782  0.9438
 7609SOL    HW134460   3.943   1.845   6.634 -1.2121 -1.4042 -1.0970
 7609SOL    HW234461   3.907   1.984   6.658  0.5813  2.7508 -1.0368
 7610SOL     OW34462   1.184   2.125   6.710 -0.5799  0.3712 -0.0962
 7610SOL    HW134463   1.168   2.103   6.802 -1.4539 -0.6384 -0.5015
 7610SOL    HW234464   1.092   2.137   6.689 -0.2550  0.8573 -1.2130
 7611SOL     OW34465   2.262   2.454   4.916  0.0194  0.1137  0.1527
 7611SOL    HW134466   2.313   2.451   4.997 -1.2353 -1.9829  0.8487
 7611SOL    HW234467   2.212   2.536   4.917  0.2268  0.2856 -3.0258
 7612SOL     OW34468   1.023   0.023   7.076 -0.3662 -0.3988  0.4828
 7612SOL    HW134469   1.011   4.721   7.162 -1.0746 -0.1997  0.4818
 7612SOL    HW234470   0.966   4.709   7.022 -0.8541 -0.1161  0.7058
 7613SOL     OW34471   0.958   2.788  15.154 -0.6302 -0.2084  0.0013
 7613SOL    HW134472   0.894   2.819  15.090  0.9839  0.8701 -1.0975
 7613SOL    HW234473   1.033   2.845  15.139  0.5097 -2.3900 -2.4595
 7614SOL     OW34474   4.431   4.035   8.032 -0.0039 -0.2104 -0.0934
 7614SOL    HW134475   4.379   4.014   8.110  1.0490  0.1976  0.7210
 7614SOL    HW234476   4.388   3.982   7.965 -3.4461  0.4194  1.6123
 7615SOL     OW34477   0.749   2.687   1.384  0.6373  0.0756 -0.1303
 7615SOL    HW134478   0.686   2.619   1.406  0.0427  0.0816 -1.8065
 7615SOL    HW234479   0.835   2.661   1.419  0.1109  0.0064  1.0983
 7616SOL     OW34480   4.644   0.927   2.304  0.3165  0.4371 -0.2672
 7616SOL    HW134481   4.697   0.853   2.335  0.4402  0.3260 -0.7431
 7616SOL    HW234482   4.596   0.876   2.239 -0.7059  0.8235  0.1872
 7617SOL     OW34483   1.182   0.856   5.036 -0.2769  0.2000  0.1905
 7617SOL    HW134484   1.206   0.879   4.946  1.5986 -1.0558  0.3889
 7617SOL    HW234485   1.104   0.913   5.039 -1.0176 -0.8893  1.5475
 7618SOL     OW34486   4.279   0.844   8.806 -0.0982 -0.2972  0.7150
 7618SOL    HW134487   4.370   0.873   8.815  0.2254 -2.3296  3.9238
 7618SOL    HW234488   4.290   0.769   8.748  0.0399 -0.0991  0.4843
 7619SOL     OW34489   1.151   2.135   0.998 -0.1069  0.1899  0.5387
 7619SOL    HW134490   1.147   2.160   1.090  2.4998  1.6647  0.2775
 7619SOL    HW234491   1.192   2.209   0.952  4.0992 -2.4364  0.0401
 7620SOL     OW34492   1.669   2.345   7.271  0.6569  0.4250 -0.0248
 7620SOL    HW134493   1.595   2.355   7.330 -0.2989 -0.3557 -1.1036
 7620SOL    HW234494   1.718   2.270   7.305 -1.6323 -1.8353 -1.7158
 7621SOL     OW34495   3.004   2.470   5.375 -0.1813 -0.8510  0.0636
 7621SOL    HW134496   2.933   2.491   5.314  0.2310  1.4792  0.3790
 7621SOL    HW234497   2.973   2.522   5.448  3.4087  0.7645  0.4550
 7622SOL     OW34498   3.449   3.017   0.242  0.3173 -0.7009 -0.1751
 7622SOL    HW134499   3.454   3.105   0.279  1.9913 -1.1441  0.6616
 7622SOL    HW234500   3.524   2.970   0.278  2.0009  1.1514 -1.2304
 7623SOL     OW34501   1.476   2.288  15.646  0.1832 -0.1621  0.1652
 7623SOL    HW134502   1.480   2.382  15.663  1.4103 -0.8030  3.4158
 7623SOL    HW234503   1.537   2.279  15.573 -1.6334  2.9584 -1.6981
 7624SOL     OW34504   2.744   1.727   1.934  0.3271  0.2964  0.1147
 7624SOL    HW134505   2.661   1.697   1.896  0.0966  0.1048  0.7726
 7624SOL    HW234506   2.710   1.741   2.022  0.7835  1.8668  0.0342
 7625SOL     OW34507   0.901   2.731  12.594  0.3208  0.5162 -0.4549
 7625SOL    HW134508   0.939   2.644  12.603 -0.0773  0.1695 -2.1856
 7625SOL    HW234509   0.967   2.764  12.532  1.2441 -1.6888 -0.6580
 7626SOL     OW34510   3.257   1.179   0.752 -0.3502  0.5680 -0.0515
 7626SOL    HW134511   3.297   1.254   0.708 -2.0323 -0.1696 -2.8110
 7626SOL    HW234512   3.190   1.156   0.688  0.2722 -1.4855  0.0574
 7627SOL     OW34513   1.351   2.305   3.854 -0.4478 -0.4209  0.1270
 7627SOL    HW134514   1.444   2.281   3.855 -0.5062 -0.8023 -3.4964
 7627SOL    HW234515   1.310   2.247   3.790 -3.3544  1.1125  0.5965
 7628SOL     OW34516   4.495   4.673   6.321  0.6442  0.2361  0.3490
 7628SOL    HW134517   4.435   4.664   6.247  1.9140  1.9026 -0.8870
 7628SOL    HW234518   4.488   0.027   6.337  0.7956  0.5996 -1.7084
 7629SOL     OW34519   0.598   3.783   3.658  0.4769 -0.1119 -0.1350
 7629SOL    HW134520   0.603   3.791   3.754  1.0246 -1.3535 -0.0594
 7629SOL    HW234521   0.519   3.730   3.662  0.0723  0.4094 -1.3513
 7630SOL     OW34522   3.168   4.311  11.805 -0.1268  0.3278 -0.4457
 7630SOL    HW134523   3.136   4.287  11.718 -1.0523 -0.8650  0.2286
 7630SOL    HW234524   3.087   4.346  11.843  1.1367  1.8652  0.8139
 7631SOL     OW34525   0.407   1.645   6.967 -0.3286 -0.3414 -0.1598
 7631SOL    HW134526   0.380   1.686   6.885  1.2756  1.5305  0.2556
 7631SOL    HW234527   0.423   1.726   7.017  0.1803 -1.3040  1.2520
 7632SOL     OW34528   1.962   0.552  13.120 -0.4151 -0.3773 -0.2812
 7632SOL    HW134529   1.985   0.461  13.142  2.9310  0.6080  0.3181
 7632SOL    HW234530   1.970   0.549  13.025  0.4685  2.0720 -0.2673
 7633SOL     OW34531   3.729   2.718  11.714 -0.0830 -0.0076 -0.5099
 7633SOL    HW134532   3.687   2.776  11.650  1.0205  1.2454 -0.1069
 7633SOL    HW234533   3.677   2.637  11.712  0.4537 -0.3526 -0.3941
 7634SOL     OW34534   4.041   0.165   4.204 -0.6502  0.2231 -0.1036
 7634SOL    HW134535   4.049   0.250   4.247  0.5457 -0.3110  0.7152
 7634SOL    HW234536   4.114   0.166   4.142  0.4606 -0.1338  1.2018
 7635SOL     OW34537   3.604   2.928   8.654 -0.3792  0.0476 -0.3973
 7635SOL    HW134538   3.538   2.861   8.636 -1.7885  1.1484  0.6534
 7635SOL    HW234539   3.637   2.910   8.742 -3.0256  2.0683  1.0038
 7636SOL     OW34540   1.945   1.737   2.672 -0.2117  0.4080  0.4904
 7636SOL    HW134541   1.876   1.752   2.737 -0.5483  1.0355 -0.0074
 7636SOL    HW234542   1.986   1.656   2.700 -0.6250 -0.3523 -1.1117
 7637SOL     OW34543   4.652   2.749   2.264  0.5087 -1.0787  0.4766
 7637SOL    HW134544   4.644   2.662   2.225 -3.7387  0.1864 -1.3959
 7637SOL    HW234545   4.713   2.797   2.208  0.2653  1.1812  2.1368
 7638SOL     OW34546   0.559   2.295   2.440 -0.0729  0.5497  0.1718
 7638SOL    HW134547   0.518   2.329   2.520  0.8961  0.6535  0.6263
 7638SOL    HW234548   0.489   2.237   2.413  0.4273 -0.7070  1.5760
 7639SOL     OW34549   1.089   3.076   3.819 -0.1392  0.4418 -0.2425
 7639SOL    HW134550   1.115   3.007   3.758  3.3329  1.3481  0.1757
 7639SOL    HW234551   1.170   3.128   3.821 -0.9352  1.6712 -0.3837
 7640SOL     OW34552   0.624   2.986   8.413 -0.2750  0.3516  0.6663
 7640SOL    HW134553   0.712   2.982   8.449 -0.4264  1.7303  1.1913
 7640SOL    HW234554   0.574   2.965   8.492 -0.9860 -1.2738 -0.2038
 7641SOL     OW34555   2.906   0.320   1.537 -0.7681  0.6767 -0.2791
 7641SOL    HW134556   2.864   0.238   1.510  1.2207 -1.1931  2.2850
 7641SOL    HW234557   2.838   0.373   1.577 -0.0175  0.2814  1.5234
 7642SOL     OW34558   1.412   2.497   9.621  0.1821  0.4399 -0.6019
 7642SOL    HW134559   1.415   2.522   9.528 -2.3770  0.9056 -0.5712
 7642SOL    HW234560   1.366   2.413   9.621 -0.8609  0.9978 -2.1163
 7643SOL     OW34561   0.436   2.224   1.674 -0.0684  0.0214 -0.4372
 7643SOL    HW134562   0.359   2.168   1.682 -0.3430  0.4996  0.2332
 7643SOL    HW234563   0.422   2.268   1.758 -0.7262 -1.1175  0.0477
 7644SOL     OW34564   3.479   2.694   0.142  0.4805  0.4103  0.1237
 7644SOL    HW134565   3.481   2.760   0.074 -0.8874 -0.4608 -0.7757
 7644SOL    HW234566   3.545   2.730   0.201  1.4374 -2.2133  0.6845
 7645SOL     OW34567   3.776   2.518   3.553  0.3560 -0.4670 -0.3092
 7645SOL    HW134568   3.808   2.435   3.587  3.4559  0.1568 -1.6948
 7645SOL    HW234569   3.732   2.552   3.631 -3.0453 -1.2656 -1.8690
 7646SOL     OW34570   2.869   0.460   3.721  0.5217  0.1271  0.0981
 7646SOL    HW134571   2.868   0.498   3.634 -0.0840 -1.4735 -0.5986
 7646SOL    HW234572   2.869   0.538   3.776 -1.1002  0.1050  0.1369
 7647SOL     OW34573   4.702   1.181   6.068 -0.2755 -0.8870  0.4206
 7647SOL    HW134574   4.695   1.191   6.163 -1.8228  1.5651  0.0468
 7647SOL    HW234575   4.717   1.088   6.052 -0.1670 -0.9321  0.7865
 7648SOL     OW34576   0.913   1.045   4.660 -0.2196 -0.2828 -0.1285
 7648SOL    HW134577   0.882   1.117   4.606  0.2443  1.8883  2.4951
 7648SOL    HW234578   0.862   1.073   4.736  0.5602 -0.1744  0.3563
 7649SOL     OW34579   1.050   2.545   5.682  0.0300 -0.4568 -0.1071
 7649SOL    HW134580   1.132   2.529   5.635 -0.4945 -0.5657 -1.0056
 7649SOL    HW234581   0.987   2.522   5.613  1.8247 -2.1592 -1.1792
 7650SOL     OW34582   2.023   2.840   0.900  0.1434  0.4792 -0.7289
 7650SOL    HW134583   1.981   2.814   0.981  1.0100 -0.2501 -0.5180
 7650SOL    HW234584   1.976   2.922   0.882  0.5300  0.9856  0.5829
 7651SOL     OW34585   0.422   4.173   4.957  0.0112  0.0811 -0.0376
 7651SOL    HW134586   0.422   4.123   5.039  2.6318 -0.3668 -0.3186
 7651SOL    HW234587   0.442   4.100   4.898  2.2714  0.4523  0.2623
 7652SOL     OW34588   4.210   1.213  15.956 -0.0630 -0.1034  0.1435
 7652SOL    HW134589   4.282   1.274  15.943 -1.4148  1.2874 -0.7763
 7652SOL    HW234590   4.237   1.126  15.925  1.7685 -0.1319  1.8443
 7653SOL     OW34591   1.970   4.059  14.062  0.3432  0.5386  0.2273
 7653SOL    HW134592   2.007   4.144  14.042 -0.3341  0.6374 -0.6434
 7653SOL    HW234593   1.927   4.080  14.145  0.0761 -0.9484  0.4721
 7654SOL     OW34594   0.610   3.492   3.281 -0.3709  0.2747 -0.4517
 7654SOL    HW134595   0.644   3.544   3.354  0.0403  0.9009 -1.0943
 7654SOL    HW234596   0.690   3.450   3.248  1.0462  2.2758  0.4451
 7655SOL     OW34597   3.461   0.122   5.412  0.1259  0.0679  0.2326
 7655SOL    HW134598   3.452   0.163   5.498  0.1648  0.6835 -0.0621
 7655SOL    HW234599   3.383   0.067   5.403  0.3425 -0.4121  1.2040
 7656SOL     OW34600   0.956   1.597  11.717  0.7089  0.0789  0.1978
 7656SOL    HW134601   0.975   1.691  11.719 -2.7483  0.7752  0.7394
 7656SOL    HW234602   0.862   1.609  11.732  0.6805  0.3085 -0.1757
 7657SOL     OW34603   3.097   2.293   0.453  0.3117  0.3843 -0.3072
 7657SOL    HW134604   3.139   2.285   0.368  1.5625  1.0838  0.2409
 7657SOL    HW234605   3.115   2.387   0.462  1.8140  0.0232  0.3143
 7658SOL     OW34606   3.110   1.454   0.771  0.0971  0.2435  0.1743
 7658SOL    HW134607   3.193   1.498   0.752  0.5623 -0.6817  0.0761
 7658SOL    HW234608   3.075   1.443   0.682 -0.2636  0.9507  0.2313
 7659SOL     OW34609   4.340   0.100   5.509  0.5941  0.3197  0.1494
 7659SOL    HW134610   4.354   0.074   5.418 -1.0725  1.4667 -0.4189
 7659SOL    HW234611   4.245   0.103   5.511  0.5425  0.4583 -2.4842
 7660SOL     OW34612   3.681   1.672  11.018 -0.2548  0.1622 -0.2032
 7660SOL    HW134613   3.600   1.722  11.013  0.2790  1.1910  1.5473
 7660SOL    HW234614   3.649   1.582  11.033 -2.6504  1.1861  0.8920
 7661SOL     OW34615   0.485   1.626   4.525 -0.2699  0.1367 -0.3758
 7661SOL    HW134616   0.433   1.680   4.465 -3.0815 -2.5449 -0.3694
 7661SOL    HW234617   0.412   1.585   4.570  0.9965  0.8564  2.3220
 7662SOL     OW34618   2.789   3.108  11.072  0.0269  0.7260  0.2114
 7662SOL    HW134619   2.708   3.084  11.117  0.2882 -2.1354 -0.9004
 7662SOL    HW234620   2.769   3.200  11.051 -0.8087  1.2771  3.4467
 7663SOL     OW34621   0.487   1.834  12.189  0.2136  0.1734 -0.0157
 7663SOL    HW134622   0.410   1.781  12.167  0.1435  0.4479 -0.4247
 7663SOL    HW234623   0.494   1.880  12.105  0.9224  0.9621  0.4785
 7664SOL     OW34624   3.416   0.940   3.800  0.2199 -0.9165 -0.1242
 7664SOL    HW134625   3.470   0.869   3.765  0.7031  0.6071 -2.4580
 7664SOL    HW234626   3.456   1.021   3.768  0.6399 -0.2654  2.0817
 7665SOL     OW34627   1.170   2.955   8.887 -0.4591  0.1418 -0.8297
 7665SOL    HW134628   1.076   2.945   8.872 -0.7026  0.8484  0.2099
 7665SOL    HW234629   1.171   2.998   8.973 -1.3715 -0.1619 -0.6773
 7666SOL     OW34630   4.520   2.584   1.694 -0.4546  0.2848  0.6459
 7666SOL    HW134631   4.577   2.509   1.712  0.3557  0.7778  0.1206
 7666SOL    HW234632   4.445   2.572   1.753 -1.2038 -1.1517 -0.6050
 7667SOL     OW34633   1.319   3.245   4.565 -0.2427 -0.1524  0.0714
 7667SOL    HW134634   1.276   3.169   4.525  3.1068 -2.0354 -0.0098
 7667SOL    HW234635   1.255   3.284   4.624  1.6976  1.1058  1.3525
 7668SOL     OW34636   1.361   2.839   4.406  0.1127  0.7344 -0.5632
 7668SOL    HW134637   1.297   2.779   4.367  1.1733 -0.2589 -0.7882
 7668SOL    HW234638   1.313   2.913   4.442 -2.6112 -2.3096  2.0021
 7669SOL     OW34639   0.818   4.341   2.967  0.3857 -0.0686  0.1590
 7669SOL    HW134640   0.829   4.351   3.062  2.0504 -0.0269 -0.0557
 7669SOL    HW234641   0.740   4.285   2.975  1.3779 -1.1377  2.4750
 7670SOL     OW34642   2.314   1.773   9.485  0.3900  0.5515  0.2406
 7670SOL    HW134643   2.321   1.778   9.581 -0.1329 -0.0928  0.3148
 7670SOL    HW234644   2.405   1.748   9.470  0.6264  0.3940  1.9207
 7671SOL     OW34645   1.991   1.130   8.202  0.0321  0.5870 -0.1302
 7671SOL    HW134646   1.952   1.086   8.278  3.4556  0.1469  1.3367
 7671SOL    HW234647   2.039   1.197   8.249  1.1501 -2.2199  2.7454
 7672SOL     OW34648   0.910   0.775  12.566 -0.3047 -1.1425  0.2672
 7672SOL    HW134649   0.899   0.786  12.472  1.8516 -3.4579 -0.2461
 7672SOL    HW234650   0.817   0.769  12.588  0.3028 -2.1495  2.5050
 7673SOL     OW34651   0.327   1.723   1.933  0.0884 -0.1550  0.0546
 7673SOL    HW134652   0.409   1.674   1.927 -0.1716 -0.6466  0.5518
 7673SOL    HW234653   0.299   1.721   1.842  3.0266 -0.0696 -0.8559
 7674SOL     OW34654   4.477   0.854   8.435 -0.2262  1.0013  0.1784
 7674SOL    HW134655   4.508   0.880   8.522 -0.3037 -0.4324  0.6261
 7674SOL    HW234656   4.411   0.791   8.464  0.8871 -1.1715 -2.0889
 7675SOL     OW34657   3.364   1.031   3.398  0.1199  0.7136  0.6848
 7675SOL    HW134658   3.327   0.977   3.328  2.7494  0.6949 -0.6778
 7675SOL    HW234659   3.383   1.113   3.352 -0.9467  1.1757  1.0629
 7676SOL     OW34660   4.478   2.025   5.007  0.2417 -0.0839 -0.3741
 7676SOL    HW134661   4.416   2.000   5.075  0.9880 -0.9600 -0.0303
 7676SOL    HW234662   4.553   1.983   5.047  0.8019 -0.8639 -2.2372
 7677SOL     OW34663   3.306   2.387   5.437  0.3209  0.0456  0.1423
 7677SOL    HW134664   3.242   2.322   5.465 -0.6141  0.2000 -1.6160
 7677SOL    HW234665   3.343   2.428   5.515 -0.0892  0.0105  0.3552
 7678SOL     OW34666   0.870   0.916  12.293  0.0827  0.1947  0.2975
 7678SOL    HW134667   0.882   0.967  12.213  0.2411 -0.6684 -0.2379
 7678SOL    HW234668   0.801   0.960  12.343  0.9906  1.5923  0.3172
 7679SOL     OW34669   4.383   4.016  16.181 -0.0791  0.1412  0.4195
 7679SOL    HW134670   4.361   3.973  16.264 -1.3916 -0.2611 -0.1467
 7679SOL    HW234671   4.320   4.087  16.181  2.2454  2.1962 -2.4276
 7680SOL     OW34672   4.040   2.463   1.726 -0.5586  0.7063 -0.8907
 7680SOL    HW134673   4.011   2.378   1.759 -1.1254  1.3920  0.4103
 7680SOL    HW234674   3.976   2.463   1.655 -0.2915 -0.8721 -1.1257
 7681SOL     OW34675   4.395   0.927   1.359 -0.4546 -0.2552 -0.1608
 7681SOL    HW134676   4.457   0.883   1.301  1.1239  0.5184  0.9464
 7681SOL    HW234677   4.362   0.851   1.406 -0.6219  0.0091  0.1529
 7682SOL     OW34678   0.593   1.852  17.442 -0.8974  0.3592  0.5173
 7682SOL    HW134679   0.583   1.795  17.518 -1.2971  2.6290  2.1755
 7682SOL    HW234680   0.682   1.882  17.457 -1.4239  1.5671  1.1914
 7683SOL     OW34681   2.138   4.264   4.629 -0.1056  0.6451  0.3196
 7683SOL    HW134682   2.091   4.271   4.712  0.3268  1.8870  0.4558
 7683SOL    HW234683   2.128   4.358   4.613 -0.7926  0.7317  1.2997
 7684SOL     OW34684   3.151   0.922   8.985 -0.1247  0.2951 -0.1034
 7684SOL    HW134685   3.156   0.831   9.014 -0.1704  0.4741  0.4607
 7684SOL    HW234686   3.153   0.969   9.068  0.0544  0.8044 -0.3905
 7685SOL     OW34687   0.159   3.958   5.564 -0.1822  0.0096 -0.0528
 7685SOL    HW134688   0.088   3.959   5.499  0.0749  2.1356 -0.2837
 7685SOL    HW234689   0.181   4.050   5.573 -1.0066  0.4232 -2.1983
 7686SOL     OW34690   2.597   3.906  15.697  0.1846  0.0572 -0.3630
 7686SOL    HW134691   2.604   3.965  15.772 -0.8779 -0.7564  0.3719
 7686SOL    HW234692   2.590   3.825  15.747  1.0236 -1.1103 -2.1125
 7687SOL     OW34693   3.604   0.127   4.463  0.0274 -0.1895  0.5231
 7687SOL    HW134694   3.560   0.041   4.467  1.9712 -1.2826 -1.7246
 7687SOL    HW234695   3.684   0.094   4.422  0.0907 -1.6140  1.7945
 7688SOL     OW34696   2.734   0.949  17.306  1.0173  0.0125  0.0469
 7688SOL    HW134697   2.688   0.876  17.264 -2.3632  1.0674  1.8608
 7688SOL    HW234698   2.670   1.019  17.292  2.0140  0.9817  0.4146
 7689SOL     OW34699   2.371   0.778   4.858  0.3470 -0.4552 -0.1150
 7689SOL    HW134700   2.445   0.807   4.910 -1.4505  0.9066  1.6741
 7689SOL    HW234701   2.412   0.753   4.775  0.3536  0.8461 -0.4984
 7690SOL     OW34702   3.811   2.504   2.268 -0.3298  0.2478 -0.2073
 7690SOL    HW134703   3.858   2.512   2.350  0.7898  0.4264 -0.8623
 7690SOL    HW234704   3.724   2.525   2.303 -1.5936 -1.9546 -1.9897
 7691SOL     OW34705   1.825   0.450   4.599  0.4913 -0.1762  0.1657
 7691SOL    HW134706   1.783   0.366   4.613  0.1611 -0.0887 -0.3097
 7691SOL    HW234707   1.873   0.454   4.682  0.2156 -1.1525  0.3707
 7692SOL     OW34708   4.410   0.519  13.900 -0.7589 -0.3774 -0.2682
 7692SOL    HW134709   4.426   0.574  13.976  1.1291  1.9854 -2.3571
 7692SOL    HW234710   4.482   0.547  13.843 -1.1946 -0.1305 -0.7019
 7693SOL     OW34711   4.088   0.049   3.262  0.1417  0.0786  0.3808
 7693SOL    HW134712   4.132   4.705   3.247  1.6843  1.2246 -1.4517
 7693SOL    HW234713   4.068   0.045   3.356  0.0781 -0.6438  0.3342
 7694SOL     OW34714   1.639   2.371  11.587 -0.6482 -0.1177 -0.1898
 7694SOL    HW134715   1.644   2.428  11.511  3.2527  1.0097  0.8793
 7694SOL    HW234716   1.731   2.369  11.616 -0.4945  0.8008 -0.6166
 7695SOL     OW34717   2.298   2.831   8.811 -0.1477  0.2153 -0.1696
 7695SOL    HW134718   2.335   2.744   8.826  0.2554  0.4552  0.2522
 7695SOL    HW234719   2.236   2.827   8.884  0.7610  1.0933  0.6602
 7696SOL     OW34720   3.845   2.477   9.063 -0.4005 -0.0931  0.6237
 7696SOL    HW134721   3.928   2.515   9.093  0.0668 -1.4653  1.0958
 7696SOL    HW234722   3.859   2.384   9.079 -3.0603 -0.5262  0.3299
 7697SOL     OW34723   4.505   1.623  15.812  0.0577 -0.4872  0.0748
 7697SOL    HW134724   4.557   1.667  15.745 -0.3647  0.6333  0.4822
 7697SOL    HW234725   4.451   1.694  15.847 -0.2637  0.6030 -2.6367
 7698SOL     OW34726   0.471   3.899  17.632 -0.3784  0.3922  0.2278
 7698SOL    HW134727   0.486   3.813  17.591 -1.1392  1.5359 -2.4670
 7698SOL    HW234728   0.467   3.965  17.562  1.5032 -0.1570 -0.4159
 7699SOL     OW34729   1.619   0.530  13.978 -0.0809  0.2992 -0.1564
 7699SOL    HW134730   1.608   0.583  14.058 -0.3773  2.1935 -1.4546
 7699SOL    HW234731   1.526   0.511  13.968 -0.6738  3.3832 -0.6062
 7700SOL     OW34732   1.818   3.500   3.569 -0.0223 -0.4075 -0.4289
 7700SOL    HW134733   1.749   3.530   3.629  1.0862 -0.2023  0.7514
 7700SOL    HW234734   1.801   3.406   3.563 -0.3211 -0.3535 -0.4107
 7701SOL     OW34735   2.058   2.885   3.758  0.1526  0.0053  0.2355
 7701SOL    HW134736   1.965   2.863   3.759  0.1464 -0.0880 -3.1431
 7701SOL    HW234737   2.098   2.802   3.732  0.4500 -0.2723  1.5806
 7702SOL     OW34738   1.593   1.903   6.111  0.7129 -0.5738 -0.2413
 7702SOL    HW134739   1.520   1.870   6.163  0.9079  1.3244  1.2346
 7702SOL    HW234740   1.548   1.937   6.034 -0.8379  0.8700  1.2981
 7703SOL     OW34741   2.552   4.414  10.472 -0.7170 -0.0240 -0.3337
 7703SOL    HW134742   2.612   4.439  10.401 -0.7878 -3.9200 -1.7629
 7703SOL    HW234743   2.540   4.497  10.518 -0.7027 -1.8371  2.9801
 7704SOL     OW34744   2.292   0.129   4.130 -0.5117  0.3762 -0.1077
 7704SOL    HW134745   2.345   0.121   4.051 -1.3004  1.8912 -0.7958
 7704SOL    HW234746   2.316   0.043   4.166  1.1072 -0.0140 -2.1067
 7705SOL     OW34747   0.397   2.795   6.963 -0.2293  0.6706 -0.0615
 7705SOL    HW134748   0.345   2.720   6.993 -0.8016  1.8132  1.7777
 7705SOL    HW234749   0.335   2.862   6.991  0.9264  0.6947  2.4622
 7706SOL     OW34750   4.126   1.805   8.050 -0.6510  0.1707  0.5192
 7706SOL    HW134751   4.123   1.899   8.068  1.6644  0.2352  0.5357
 7706SOL    HW234752   4.211   1.787   8.009 -0.4711  1.6884  0.2376
 7707SOL     OW34753   0.542   2.088  16.517  0.2055  0.0149 -0.3323
 7707SOL    HW134754   0.500   2.137  16.446  0.1009  1.9863  1.0894
 7707SOL    HW234755   0.543   2.001  16.478 -1.6095  0.4575 -1.3400
 7708SOL     OW34756   3.619   0.259   1.425 -0.8639 -0.5637  0.0526
 7708SOL    HW134757   3.610   0.349   1.395  3.1612 -0.0577  0.3655
 7708SOL    HW234758   3.541   0.225   1.380 -1.8830  0.5403  1.0084
 7709SOL     OW34759   0.245   3.908   7.995 -0.8368  0.4346  0.0633
 7709SOL    HW134760   0.271   3.860   7.917 -0.2280  0.7431  0.0713
 7709SOL    HW234761   0.326   3.949   8.028 -0.6243 -1.4214  1.8791
 7710SOL     OW34762   0.334   2.630   6.585 -0.2668  0.0945  0.1904
 7710SOL    HW134763   0.382   2.575   6.647 -0.3384 -0.4787 -0.2605
 7710SOL    HW234764   0.369   2.716   6.607  0.3023 -0.2358  0.5591
 7711SOL     OW34765   0.379   3.965   3.926  0.2672 -0.0618  0.3647
 7711SOL    HW134766   0.357   4.057   3.910  2.5546  0.4006 -0.1013
 7711SOL    HW234767   0.320   3.944   3.999  0.9138 -3.3652 -0.0768
 7712SOL     OW34768   0.794   2.591   6.559 -0.0274  0.3087  0.2606
 7712SOL    HW134769   0.836   2.598   6.473  0.6111 -1.6903  0.3960
 7712SOL    HW234770   0.737   2.666   6.542  0.6494  0.3637 -1.7951
 7713SOL     OW34771   1.886   4.263  10.162 -0.1803 -0.3811 -0.4133
 7713SOL    HW134772   1.965   4.310  10.189 -1.5872  1.7153 -0.0087
 7713SOL    HW234773   1.826   4.317  10.212 -0.0878  0.9957 -1.7936
 7714SOL     OW34774   1.629   1.984  14.698  0.3006  0.1047  0.0584
 7714SOL    HW134775   1.681   2.000  14.619 -0.8787  1.9502 -0.3493
 7714SOL    HW234776   1.680   2.036  14.761 -0.6142 -0.3396  1.1595
 7715SOL     OW34777   0.660   0.789  17.239  0.4761  0.2430 -0.0215
 7715SOL    HW134778   0.654   0.865  17.297  2.1319  0.5647 -0.2695
 7715SOL    HW234779   0.649   0.723  17.307  2.2659 -1.7142 -1.6519
 7716SOL     OW34780   1.473   0.679   8.264 -0.4707 -0.2241  0.0277
 7716SOL    HW134781   1.429   0.758   8.233  0.3148  0.5321  0.7993
 7716SOL    HW234782   1.560   0.720   8.268 -0.5813 -0.0521  0.6438
 7717SOL     OW34783   3.744   2.216   4.492 -0.1809  0.3701  0.3014
 7717SOL    HW134784   3.798   2.213   4.571  0.4670  2.4788 -0.0458
 7717SOL    HW234785   3.658   2.220   4.533 -0.1606 -1.2837  0.5153
 7718SOL     OW34786   2.956   1.359  14.281 -0.2050 -0.6534  0.5056
 7718SOL    HW134787   3.039   1.385  14.240 -1.7305  1.6033 -1.1440
 7718SOL    HW234788   2.990   1.315  14.359 -0.4907  2.8072  2.5950
 7719SOL     OW34789   3.202   2.310   6.861 -0.1259 -0.0855 -0.0982
 7719SOL    HW134790   3.232   2.252   6.791 -1.7179 -0.6555 -0.3141
 7719SOL    HW234791   3.107   2.312   6.850  0.1260 -0.7772 -2.4051
 7720SOL     OW34792   3.489   2.306   4.302  0.4364 -0.2556 -0.0543
 7720SOL    HW134793   3.489   2.345   4.389  0.2185  1.1370 -0.6796
 7720SOL    HW234794   3.410   2.252   4.303  1.1515 -1.3088  0.0676
 7721SOL     OW34795   3.352   4.031   9.278  0.8407  0.1781 -0.0738
 7721SOL    HW134796   3.284   4.098   9.271 -1.2758 -1.8095  1.2858
 7721SOL    HW234797   3.301   3.952   9.260 -1.5256  1.7392 -0.2480
 7722SOL     OW34798   2.505   0.341   6.477  0.5764  0.1966  0.4347
 7722SOL    HW134799   2.537   0.273   6.536 -0.7861 -0.3074  0.5887
 7722SOL    HW234800   2.414   0.309   6.474  0.4974  0.4332  0.3569
 7723SOL     OW34801   0.331   2.633   5.741  0.3744  0.8625 -0.5630
 7723SOL    HW134802   0.389   2.640   5.816 -0.2098  0.3136 -0.0526
 7723SOL    HW234803   0.352   2.548   5.702  1.0196  0.5035  0.5915
 7724SOL     OW34804   0.054   3.511   3.327 -0.2654  0.3809 -0.0979
 7724SOL    HW134805   0.122   3.578   3.322 -1.7279  1.7494 -1.4175
 7724SOL    HW234806   0.056   3.482   3.418  2.8810 -0.5036 -0.4447
 7725SOL     OW34807   3.219   3.988   5.015 -0.0481  0.5360 -0.0984
 7725SOL    HW134808   3.260   4.070   4.989  0.2107  1.0934  2.0540
 7725SOL    HW234809   3.174   4.016   5.095 -1.9398 -1.5966 -0.4024
 7726SOL     OW34810   4.539   0.984   6.937 -0.0254 -0.4674 -0.3086
 7726SOL    HW134811   4.448   1.011   6.934  0.2401  0.4999  0.7043
 7726SOL    HW234812   4.541   0.905   6.882 -2.4610 -1.1888  0.6540
 7727SOL     OW34813   3.653   1.412  15.534  0.3478 -0.3398 -0.0525
 7727SOL    HW134814   3.582   1.359  15.571  2.4622 -1.9104  1.7649
 7727SOL    HW234815   3.617   1.452  15.456  0.2564 -0.1432  0.0905
 7728SOL     OW34816   1.885   0.297   5.832  0.2390 -0.2307 -0.2356
 7728SOL    HW134817   1.963   0.265   5.787 -0.0367 -1.0404 -0.1467
 7728SOL    HW234818   1.842   0.212   5.838  2.8307 -1.6650 -1.8590
 7729SOL     OW34819   2.139   0.491   8.592  0.5337  0.0012  0.1003
 7729SOL    HW134820   2.131   0.557   8.523  2.0326  0.4272  0.3239
 7729SOL    HW234821   2.084   0.533   8.657  0.1471  0.6870 -0.6639
 7730SOL     OW34822   2.804   0.288   5.306 -0.1507  0.0088 -0.3218
 7730SOL    HW134823   2.899   0.280   5.301 -0.6748 -6.1191 -0.1828
 7730SOL    HW234824   2.790   0.206   5.354 -2.3359  1.6362  1.8112
 7731SOL     OW34825   1.268   1.585  15.910  0.1945  0.5174 -0.9080
 7731SOL    HW134826   1.243   1.615  15.998  3.3232 -0.1851  0.2028
 7731SOL    HW234827   1.214   1.650  15.865  1.2219  1.5941 -0.5838
 7732SOL     OW34828   3.827   3.587  15.769  0.2901 -0.1212  0.0681
 7732SOL    HW134829   3.863   3.537  15.842 -0.2291 -1.5943 -0.6828
 7732SOL    HW234830   3.749   3.534  15.752  1.2336 -0.8898 -1.8108
 7733SOL     OW34831   4.340   4.049   2.511 -0.2026  0.0732 -0.6541
 7733SOL    HW134832   4.270   4.084   2.457 -0.6633  0.3106  0.0910
 7733SOL    HW234833   4.344   4.123   2.572 -2.0568 -0.7495  0.4549
 7734SOL     OW34834   2.379   1.743   3.604 -0.3459  0.4190 -0.0979
 7734SOL    HW134835   2.378   1.837   3.585 -2.5495  0.5697  0.7221
 7734SOL    HW234836   2.336   1.737   3.689 -2.8613  0.9184 -1.3112
 7735SOL     OW34837   4.419   1.829   3.306 -0.4644 -0.1786 -0.3075
 7735SOL    HW134838   4.446   1.834   3.214  0.6297 -2.8183 -0.1543
 7735SOL    HW234839   4.431   1.918   3.337 -2.6101  0.5792 -1.6614
 7736SOL     OW34840   0.404   1.298   3.976 -0.2447 -0.2290 -0.2330
 7736SOL    HW134841   0.388   1.222   4.031 -1.6817  1.6176  1.9010
 7736SOL    HW234842   0.500   1.305   3.977 -0.2208 -0.6710  1.0749
 7737SOL     OW34843   2.722   1.162  10.265 -0.1542 -0.1225  0.4015
 7737SOL    HW134844   2.782   1.106  10.314 -0.9453 -1.6816 -0.4197
 7737SOL    HW234845   2.764   1.247  10.280 -0.0523  0.0475 -0.8285
 7738SOL     OW34846   2.255   0.180   6.337  0.7623  0.0343  0.4820
 7738SOL    HW134847   2.186   0.114   6.329 -0.1581  0.9701  0.7421
 7738SOL    HW234848   2.246   0.240   6.263 -0.9962  0.7724  1.3050
 7739SOL     OW34849   2.734   0.522   6.861 -0.4853 -0.2998  0.1450
 7739SOL    HW134850   2.817   0.541   6.906 -0.4802 -0.9863  0.4395
 7739SOL    HW234851   2.668   0.542   6.927  1.7476  0.0916  2.2789
 7740SOL     OW34852   1.782   1.647  15.523 -0.4158 -0.0756  0.1234
 7740SOL    HW134853   1.753   1.681  15.438 -2.4506 -1.6672  0.1718
 7740SOL    HW234854   1.876   1.643  15.507 -0.8605  0.4726 -2.7801
 7741SOL     OW34855   3.698   2.108   5.719  0.4807 -0.5756 -0.4523
 7741SOL    HW134856   3.651   2.059   5.786  0.9389  1.5857  1.4512
 7741SOL    HW234857   3.650   2.058   5.653 -0.4206  1.3675 -1.2734
 7742SOL     OW34858   1.079   2.473   9.939 -0.6560 -0.0963  0.0522
 7742SOL    HW134859   1.081   2.528  10.018 -2.2975 -0.6044  0.4625
 7742SOL    HW234860   1.165   2.490   9.902 -1.8181  2.4490 -1.4986
 7743SOL     OW34861   3.336   1.027   4.045  0.1155  0.1264  0.1357
 7743SOL    HW134862   3.424   1.047   4.077  0.5128 -4.2807  1.8006
 7743SOL    HW234863   3.365   0.982   3.966  2.0811  1.3815  0.1396
 7744SOL     OW34864   4.086   0.499   1.255  0.0375  0.2290 -0.0181
 7744SOL    HW134865   4.037   0.449   1.320 -0.9990  1.2153 -0.0496
 7744SOL    HW234866   4.010   0.530   1.205  0.3132 -1.6950 -1.6162
 7745SOL     OW34867   1.344   2.740   8.508 -0.6774  0.0336  0.1130
 7745SOL    HW134868   1.370   2.780   8.591 -2.0339 -0.5114  0.8024
 7745SOL    HW234869   1.298   2.664   8.543 -0.7170  0.3250  0.6941
 7746SOL     OW34870   3.076   1.609   5.558 -0.4329 -0.0375  0.0093
 7746SOL    HW134871   3.142   1.626   5.626  1.3595  0.7844 -1.9229
 7746SOL    HW234872   2.995   1.627   5.606  0.0640  1.4901  0.2778
 7747SOL     OW34873   1.535   0.456   2.995 -0.0062 -0.2031 -0.0300
 7747SOL    HW134874   1.441   0.459   3.014  0.1382  1.6660  0.3713
 7747SOL    HW234875   1.551   0.382   3.054 -2.0045 -1.4036 -0.9626
 7748SOL     OW34876   3.614   1.933  16.367 -0.0183  0.1966 -0.2188
 7748SOL    HW134877   3.598   1.845  16.334  1.3833 -0.8449  1.8924
 7748SOL    HW234878   3.655   1.922  16.453 -1.5936 -0.0139  0.4934
 7749SOL     OW34879   2.667   3.006   2.400  0.7913  0.0930 -0.0804
 7749SOL    HW134880   2.738   2.943   2.410  0.5738 -0.2403 -0.6359
 7749SOL    HW234881   2.611   2.971   2.330 -0.8514 -1.6127  2.0741
 7750SOL     OW34882   2.483   4.353   6.691 -0.0573 -0.5910  0.3000
 7750SOL    HW134883   2.566   4.388   6.655 -0.1896 -1.8485 -1.2420
 7750SOL    HW234884   2.443   4.436   6.717  1.8119  0.7881 -1.1721
 7751SOL     OW34885   2.105   0.810   3.742 -0.5381 -0.4021  0.7171
 7751SOL    HW134886   2.044   0.833   3.812 -2.0772 -1.3788 -0.3168
 7751SOL    HW234887   2.056   0.815   3.661  0.3313 -1.7107  0.1197
 7752SOL     OW34888   4.222   1.901   2.847  0.5535  0.1299 -0.1168
 7752SOL    HW134889   4.169   1.881   2.924  0.0930  0.4084 -0.3616
 7752SOL    HW234890   4.158   1.924   2.780 -0.7461 -0.6273  0.8724
 7753SOL     OW34891   3.076   2.443  16.143 -1.1524  0.1575  0.7078
 7753SOL    HW134892   3.005   2.463  16.081 -0.1270 -0.1062 -0.5542
 7753SOL    HW234893   3.147   2.499  16.112 -2.3194  2.7250  2.6391
 7754SOL     OW34894   4.572   4.163   8.865 -0.1689 -0.1431  0.0938
 7754SOL    HW134895   4.650   4.160   8.810 -1.2001 -3.3972 -1.2062
 7754SOL    HW234896   4.522   4.226   8.814 -1.4787 -1.8686 -0.7410
 7755SOL     OW34897   4.378   1.999   4.653 -0.2862 -0.3425  0.2167
 7755SOL    HW134898   4.324   1.958   4.720 -0.9860  0.8504  0.3672
 7755SOL    HW234899   4.321   1.991   4.576 -1.0393 -0.5452  0.8022
 7756SOL     OW34900   3.055   0.509   8.901 -0.2390 -0.1463  0.0638
 7756SOL    HW134901   3.097   0.446   8.960  2.7899  0.8749 -0.9931
 7756SOL    HW234902   2.984   0.546   8.955  0.4100 -0.9922  1.5127
 7757SOL     OW34903   1.730   3.557   5.580  0.0660  0.3273  0.0603
 7757SOL    HW134904   1.678   3.491   5.534  0.1774 -0.2531  0.7727
 7757SOL    HW234905   1.817   3.524   5.555 -0.3972 -0.0846 -1.0358
 7758SOL     OW34906   2.350   3.261   2.176  0.6851 -0.2787  0.9540
 7758SOL    HW134907   2.445   3.278   2.176  0.6083  0.1605  1.3099
 7758SOL    HW234908   2.348   3.196   2.106 -0.1510 -0.4273  1.1256
 7759SOL     OW34909   0.365   2.648   2.734  0.1999 -0.0039  0.0445
 7759SOL    HW134910   0.436   2.711   2.741  0.0866 -0.0622  1.7503
 7759SOL    HW234911   0.292   2.707   2.714  0.3593 -0.1193 -0.8654
 7760SOL     OW34912   4.241   0.272   3.469  0.0797  0.0365 -0.2438
 7760SOL    HW134913   4.244   0.354   3.517 -1.1825  0.4989 -0.9375
 7760SOL    HW234914   4.151   0.246   3.489  1.0572 -1.0305  2.7681
 7761SOL     OW34915   3.709   0.708   7.621  0.5952  0.6851  0.3932
 7761SOL    HW134916   3.762   0.707   7.700  3.6441  0.7644 -1.6287
 7761SOL    HW234917   3.645   0.642   7.646  0.5984  1.3231  2.0579
 7762SOL     OW34918   4.559   1.650   7.434 -0.7955  0.0648  0.2225
 7762SOL    HW134919   4.550   1.582   7.368  2.3843  1.2215 -1.3858
 7762SOL    HW234920   4.501   1.611   7.500 -2.6192  0.1301 -1.3546
 7763SOL     OW34921   0.048   1.670  17.314  0.1522 -0.2244  0.3073
 7763SOL    HW134922   0.140   1.647  17.326  0.2155 -1.7011 -2.9852
 7763SOL    HW234923   0.054   1.762  17.339 -2.0106  0.1184 -0.4407
 7764SOL     OW34924   0.828   2.327   8.654 -0.2893  0.5339 -0.6045
 7764SOL    HW134925   0.838   2.245   8.702  1.8564  1.0542 -0.1470
 7764SOL    HW234926   0.886   2.307   8.580  0.1908  0.0861 -0.1118
 7765SOL     OW34927   1.051   3.905   3.100 -0.3526  0.0015 -0.1514
 7765SOL    HW134928   0.965   3.912   3.142 -0.0823  0.9651  0.2462
 7765SOL    HW234929   1.020   3.914   3.010  0.6106  0.2147 -0.4619
 7766SOL     OW34930   2.831   3.652  15.698  0.5817  0.7955  0.0853
 7766SOL    HW134931   2.832   3.713  15.772 -0.3353  0.3176  0.4922
 7766SOL    HW234932   2.838   3.718  15.629 -2.4944  0.2189 -0.7844
 7767SOL     OW34933   3.517   3.865   4.680  0.3068  0.2351  0.1466
 7767SOL    HW134934   3.484   3.792   4.626  1.4012 -0.0553 -0.1358
 7767SOL    HW234935   3.459   3.865   4.756  0.7707  2.7520  0.4955
 7768SOL     OW34936   0.295   0.329   4.320  0.4036  0.5431 -0.0017
 7768SOL    HW134937   0.331   0.280   4.393  0.6716  1.0628  0.2142
 7768SOL    HW234938   0.204   0.339   4.348  0.3602 -0.6857  0.3022
 7769SOL     OW34939   2.064   1.032   1.217  0.7130 -0.4697 -0.3548
 7769SOL    HW134940   2.080   1.066   1.129  1.4005 -2.4470 -0.9778
 7769SOL    HW234941   2.147   1.063   1.252  0.4653 -1.0144  0.7462
 7770SOL     OW34942   0.596   2.945  10.442  0.4482  0.2972  0.4801
 7770SOL    HW134943   0.502   2.926  10.446  0.8147 -1.3462  1.4970
 7770SOL    HW234944   0.638   2.866  10.409  2.5529  1.8476 -0.5622
 7771SOL     OW34945   3.363   4.008   6.853 -0.0240  0.0480  0.2627
 7771SOL    HW134946   3.410   3.949   6.913  1.5609  1.3853  0.3385
 7771SOL    HW234947   3.404   4.093   6.870 -0.5938  0.5090 -0.6651
 7772SOL     OW34948   2.506   3.184   5.820  0.0390 -0.4799 -0.0108
 7772SOL    HW134949   2.431   3.195   5.879 -0.3418 -0.7484 -0.4489
 7772SOL    HW234950   2.522   3.090   5.826  1.1068 -0.2862  0.2825
 7773SOL     OW34951   0.827   3.476   9.967 -0.2266 -0.2875  0.0324
 7773SOL    HW134952   0.847   3.420   9.892 -0.6704  0.3105 -0.5281
 7773SOL    HW234953   0.828   3.560   9.922 -1.2187 -0.9283 -1.1772
 7774SOL     OW34954   0.738   0.159   5.565  1.0555 -0.1347 -0.1346
 7774SOL    HW134955   0.684   0.128   5.638 -0.5522  0.6113 -1.0218
 7774SOL    HW234956   0.754   0.077   5.519  0.2321  0.2916 -1.1716
 7775SOL     OW34957   3.050   1.392  12.965 -0.5290 -0.0224  0.5623
 7775SOL    HW134958   2.960   1.423  12.964 -0.2616  0.6473 -3.0661
 7775SOL    HW234959   3.068   1.394  13.059 -0.1705  1.8018  0.4560
 7776SOL     OW34960   2.382   1.732  16.830 -0.3201  0.1587 -0.2033
 7776SOL    HW134961   2.451   1.666  16.818  1.2384  1.4256  1.7023
 7776SOL    HW234962   2.385   1.743  16.925 -0.3879 -1.8209  0.0272
 7777SOL     OW34963   4.198   2.895   5.590  0.1665 -0.0558  0.0847
 7777SOL    HW134964   4.254   2.821   5.613 -0.3285 -0.7223 -0.8913
 7777SOL    HW234965   4.212   2.897   5.496 -2.7087 -0.8828 -0.3478
 7778SOL     OW34966   1.241   3.174   9.604 -1.0899  0.1793 -0.5572
 7778SOL    HW134967   1.281   3.206   9.684  0.5191 -4.3299  0.4440
 7778SOL    HW234968   1.310   3.116   9.572  0.1888  1.4414 -0.0574
 7779SOL     OW34969   0.674   1.664  10.723  0.3266  0.5239 -0.0066
 7779SOL    HW134970   0.689   1.584  10.672 -2.2658 -1.0385  1.7088
 7779SOL    HW234971   0.759   1.700  10.748  0.8539 -0.0085 -1.0270
 7780SOL     OW34972   1.454   2.915   2.691 -0.1224  0.0392 -0.4744
 7780SOL    HW134973   1.505   2.844   2.652 -1.2164 -2.0219  1.8902
 7780SOL    HW234974   1.378   2.909   2.632  1.6702 -0.3407 -2.7235
 7781SOL     OW34975   0.125   1.630   7.362 -0.0534 -0.0881  0.2117
 7781SOL    HW134976   0.096   1.634   7.453  1.1942  1.6755  0.5319
 7781SOL    HW234977   0.057   1.681   7.318  1.4062 -0.6722 -2.7160
 7782SOL     OW34978   4.310   4.286  12.877 -0.4271  0.2780  0.3520
 7782SOL    HW134979   4.246   4.238  12.824 -1.1960 -0.0467  1.5959
 7782SOL    HW234980   4.257   4.345  12.930 -0.9657  1.4236 -1.4597
 7783SOL     OW34981   2.200   4.272  12.882  0.4095 -0.4883  0.4049
 7783SOL    HW134982   2.292   4.296  12.880  0.1487  0.6299  1.5475
 7783SOL    HW234983   2.203   4.244  12.974  0.7036 -2.1859 -0.1205
 7784SOL     OW34984   2.964   3.076   2.868 -0.0430  0.0214  0.1794
 7784SOL    HW134985   2.994   3.033   2.788  3.8513  2.7201  0.1831
 7784SOL    HW234986   2.876   3.046   2.889 -0.9945  3.2845  0.9643
 7785SOL     OW34987   0.726   2.091  14.445  0.1942  0.1689  0.3725
 7785SOL    HW134988   0.718   2.181  14.414 -0.9403 -0.3046 -0.7125
 7785SOL    HW234989   0.635   2.061  14.446  0.7996 -1.7425 -1.0629
 7786SOL     OW34990   1.270   1.085  11.121 -0.0135 -0.2248  0.1904
 7786SOL    HW134991   1.262   1.171  11.164 -4.1620 -0.2772 -0.4228
 7786SOL    HW234992   1.178   1.089  11.095  0.2445 -1.7073 -0.9333
 7787SOL     OW34993   2.802   0.031   4.114 -0.8995  0.1087 -0.4976
 7787SOL    HW134994   2.732   4.716   4.149  0.1114 -1.1552 -0.4660
 7787SOL    HW234995   2.822   0.097   4.179 -1.1002 -0.6457  0.3345
 7788SOL     OW34996   2.471   3.392   8.232 -0.1295  0.4275 -0.1377
 7788SOL    HW134997   2.385   3.420   8.261 -1.0386  0.1720 -2.5663
 7788SOL    HW234998   2.467   3.296   8.237 -1.2127  0.4058 -1.3648
 7789SOL     OW34999   3.001   3.345  12.460  0.5992 -0.2802 -0.1492
 7789SOL    HW135000   2.917   3.385  12.440 -0.2494 -1.6997  0.5645
 7789SOL    HW235001   2.986   3.310  12.548  0.2906  0.3188  0.0338
 7790SOL     OW35002   4.297   2.738  11.907 -0.0773  0.1343  0.1428
 7790SOL    HW135003   4.227   2.742  11.973  0.3252  1.0173  0.5289
 7790SOL    HW235004   4.246   2.782  11.839 -3.1047 -0.6025  1.9175
 7791SOL     OW35005   2.211   2.994   8.597 -0.1673 -0.5787  0.4862
 7791SOL    HW135006   2.244   2.951   8.676 -3.2624 -1.3692  1.3444
 7791SOL    HW235007   2.122   3.012   8.626  0.1364 -1.2300  1.8297
 7792SOL     OW35008   1.569   2.885   7.684 -0.2464 -0.4089 -0.1573
 7792SOL    HW135009   1.571   2.878   7.779 -1.2665 -1.1128 -0.1929
 7792SOL    HW235010   1.636   2.821   7.662  2.0738  1.4315  1.4586
 7793SOL     OW35011   4.004   3.051   4.063  0.2788  0.0529 -0.0329
 7793SOL    HW135012   3.909   3.034   4.059  0.6995 -2.2844  0.0549
 7793SOL    HW235013   4.009   3.109   4.139 -0.2883 -0.2579  0.2428
 7794SOL     OW35014   4.602   2.239  12.163  0.3775  0.1285  0.3772
 7794SOL    HW135015   4.687   2.251  12.204 -0.2895  1.1466  1.4844
 7794SOL    HW235016   4.637   2.199  12.084 -0.4872  0.8931 -0.3989
 7795SOL     OW35017   4.004   2.538   8.789  0.1617 -0.2928  0.5566
 7795SOL    HW135018   4.040   2.474   8.850  2.8183  0.4070 -0.2766
 7795SOL    HW235019   4.083   2.591   8.787 -0.0372 -0.0334 -0.7681
 7796SOL     OW35020   1.150   1.997  12.693 -0.2301 -0.8149  0.3562
 7796SOL    HW135021   1.071   2.051  12.699  1.1887  1.0626  2.3436
 7796SOL    HW235022   1.132   1.947  12.614 -2.5731  0.5434  0.0479
 7797SOL     OW35023   2.279   4.024  13.679 -0.2376 -0.6561 -0.0458
 7797SOL    HW135024   2.278   3.951  13.618  0.4229 -1.1708  0.5519
 7797SOL    HW235025   2.212   4.000  13.744  0.1246  0.2077  0.6515
 7798SOL     OW35026   2.123   0.058   5.394 -0.4254 -0.3849  0.1054
 7798SOL    HW135027   2.217   0.075   5.399 -0.0554 -2.2071 -0.6551
 7798SOL    HW235028   2.117   0.066   5.299 -2.0944 -0.2474  0.2217
 7799SOL     OW35029   1.176   4.212   4.810 -0.0259  0.1107  0.1119
 7799SOL    HW135030   1.089   4.233   4.845  0.5634  0.2573  1.4955
 7799SOL    HW235031   1.197   4.133   4.860 -2.0187 -1.4678 -1.5710
 7800SOL     OW35032   0.367   0.828  11.916  0.0705  0.1946  0.3613
 7800SOL    HW135033   0.416   0.756  11.877  0.7343  0.0752  1.4010
 7800SOL    HW235034   0.370   0.794  12.006 -0.5118  2.0278  1.0681
 7801SOL     OW35035   1.301   3.632  16.737 -0.2007 -0.4526  0.4241
 7801SOL    HW135036   1.215   3.661  16.708 -0.3321 -1.2301  0.0189
 7801SOL    HW235037   1.341   3.705  16.783 -2.4658  1.0511 -0.0293
 7802SOL     OW35038   3.360   4.258   8.599 -0.1117  0.0833  0.0012
 7802SOL    HW135039   3.315   4.185   8.555 -2.1294  0.6839  1.0432
 7802SOL    HW235040   3.291   4.323   8.583 -2.0105 -2.0802 -0.7880
 7803SOL     OW35041   3.570   1.171  16.722  0.3645  0.0216 -0.1224
 7803SOL    HW135042   3.532   1.172  16.810 -1.3048  2.7043 -0.8728
 7803SOL    HW235043   3.627   1.094  16.713  0.4368  0.1756 -0.9318
 7804SOL     OW35044   2.997   2.629   8.039 -0.7014  0.4136  0.0031
 7804SOL    HW135045   2.928   2.575   8.001  0.3897 -0.3851 -0.8645
 7804SOL    HW235046   3.048   2.652   7.961  2.6009 -1.9193  1.4369
 7805SOL     OW35047   3.196   4.478   2.007 -0.3203  0.0913  0.4719
 7805SOL    HW135048   3.243   4.560   2.022 -1.0341  0.5709  0.1444
 7805SOL    HW235049   3.251   4.437   1.940  0.4030  0.0157  1.1164
 7806SOL     OW35050   0.169   1.011   2.603  0.9360  0.2773  0.4724
 7806SOL    HW135051   0.196   1.101   2.623 -0.4744  0.3680  2.0143
 7806SOL    HW235052   0.137   1.022   2.513 -0.1165 -1.0218  0.6830
 7807SOL     OW35053   2.601   3.279   6.461  0.2558  0.3851  0.5072
 7807SOL    HW135054   2.670   3.264   6.396 -1.1869 -1.5270 -0.5621
 7807SOL    HW235055   2.552   3.198   6.450  0.2182  0.3882  0.6595
 7808SOL     OW35056   4.405   0.992  15.889 -0.3666 -0.3141  0.4283
 7808SOL    HW135057   4.465   0.931  15.846 -0.4911  0.0010 -0.2027
 7808SOL    HW235058   4.329   0.985  15.832 -0.7720 -0.1534  0.9507
 7809SOL     OW35059   1.991   1.355   6.385  0.2942  0.4448  0.4155
 7809SOL    HW135060   2.054   1.283   6.381  1.0002  1.0243  1.1488
 7809SOL    HW235061   1.908   1.308   6.380  1.0819 -0.8480 -0.3165
 7810SOL     OW35062   0.189   1.243   9.520 -0.2100 -0.6600 -0.1010
 7810SOL    HW135063   0.266   1.186   9.525 -0.0254 -0.2932  1.1408
 7810SOL    HW235064   0.234   1.318   9.560  1.1104 -0.6841 -1.5203
 7811SOL     OW35065   3.926   2.104   4.689  0.8415  0.0225 -0.0882
 7811SOL    HW135066   3.895   2.108   4.780 -0.1062 -1.6152 -0.3255
 7811SOL    HW235067   3.905   2.015   4.661 -0.3990 -0.6841  3.0368
 7812SOL     OW35068   2.439   3.711   3.828  0.1978 -0.2757 -0.6015
 7812SOL    HW135069   2.355   3.674   3.801  0.4722 -0.5049 -1.1373
 7812SOL    HW235070   2.426   3.788   3.883 -0.3344  0.4056 -1.6915
 7813SOL     OW35071   4.441   0.035   4.094  0.4196 -0.3061  0.1873
 7813SOL    HW135072   4.446   0.091   4.172 -0.1623 -0.9446  0.6860
 7813SOL    HW235073   4.528   0.052   4.058  0.2195 -0.0851 -0.1935
 7814SOL     OW35074   2.854   3.642  11.541  0.6034 -0.5800  0.2234
 7814SOL    HW135075   2.795   3.682  11.605  1.0126  1.6194 -0.7879
 7814SOL    HW235076   2.926   3.704  11.527 -0.4480  0.4109 -0.7232
 7815SOL     OW35077   4.732   4.165   2.427 -0.8197  0.4446  0.1258
 7815SOL    HW135078   0.048   4.169   2.350 -0.1882 -0.4627  0.5469
 7815SOL    HW235079   4.649   4.185   2.382 -1.4484 -1.9895  0.1743
 7816SOL     OW35080   0.926   2.691  12.316 -0.5564 -0.8550  0.1400
 7816SOL    HW135081   0.831   2.703  12.326 -0.3286 -0.2935  1.6993
 7816SOL    HW235082   0.931   2.706  12.222 -0.2115  1.1800  0.5005
 7817SOL     OW35083   2.358   1.939   8.642 -0.4243 -0.6226  0.3052
 7817SOL    HW135084   2.343   2.002   8.572 -1.9584 -0.5982  0.6446
 7817SOL    HW235085   2.452   1.946   8.658  0.0762  0.1405 -2.9845
 7818SOL     OW35086   4.686   3.232  16.855 -0.5332  0.0414 -0.0893
 7818SOL    HW135087   4.701   3.237  16.950  0.6146 -0.8178 -0.2421
 7818SOL    HW235088   4.654   3.143  16.842 -2.4008  0.8168 -0.8879
 7819SOL     OW35089   2.078   3.626   8.593  0.3632 -1.0166 -0.1936
 7819SOL    HW135090   2.164   3.607   8.631 -0.3499 -1.4880  1.1849
 7819SOL    HW235091   2.060   3.685   8.666  0.0338 -0.9883 -0.2987
 7820SOL     OW35092   0.754   0.860  11.486 -0.2292  0.1145  0.1352
 7820SOL    HW135093   0.811   0.786  11.505  0.5341  1.2985  2.4205
 7820SOL    HW235094   0.697   0.853  11.563  0.9257 -1.7509  0.8031
 7821SOL     OW35095   0.240   1.634  12.610  0.7020  0.0745  0.5597
 7821SOL    HW135096   0.274   1.544  12.601 -0.5327 -0.2614 -0.6838
 7821SOL    HW235097   0.312   1.687  12.576  0.4459  1.1040  1.6088
 7822SOL     OW35098   4.734   1.814   9.245  0.9731  0.4789  0.5091
 7822SOL    HW135099   4.704   1.736   9.292  2.4806 -0.1147  0.4879
 7822SOL    HW235100   4.658   1.859   9.208  0.2878 -0.4299  0.8317
 7823SOL     OW35101   3.778   4.198  15.590  0.1237  0.0163  0.0657
 7823SOL    HW135102   3.865   4.210  15.554 -0.1538  0.7708 -0.3700
 7823SOL    HW235103   3.743   4.130  15.532  0.8788 -0.2042 -0.1231
 7824SOL     OW35104   0.377   1.133   0.936  0.4229 -0.2238 -0.6278
 7824SOL    HW135105   0.342   1.221   0.927 -0.0659 -0.3272  0.2671
 7824SOL    HW235106   0.402   1.129   1.028  1.8349  1.2008 -0.9523
 7825SOL     OW35107   0.863   1.608   6.443 -0.3368  0.3514 -0.3465
 7825SOL    HW135108   0.794   1.581   6.383 -0.8941 -1.3469  1.0854
 7825SOL    HW235109   0.858   1.699   6.413  0.4643  0.3133 -0.6222
 7826SOL     OW35110   3.994   3.375   8.990  0.1467  0.3704 -0.1970
 7826SOL    HW135111   4.030   3.451   8.945  0.4077 -0.3593 -1.2278
 7826SOL    HW235112   3.899   3.388   8.998  0.1866  1.3907 -1.4463
 7827SOL     OW35113   4.377   4.317  17.148  0.2252  0.3455 -0.1266
 7827SOL    HW135114   4.408   4.365  17.071  0.7579 -0.7770 -0.6116
 7827SOL    HW235115   4.447   4.332  17.212 -0.8403  1.1051  0.8535
 7828SOL     OW35116   4.001   2.257   3.498 -0.5378  0.1776  0.1240
 7828SOL    HW135117   4.010   2.184   3.560 -1.1251  1.2266  1.4534
 7828SOL    HW235118   3.964   2.208   3.424 -0.5557  2.9722 -1.7088
 7829SOL     OW35119   2.573   4.182  12.520 -0.4631  0.1640 -0.4115
 7829SOL    HW135120   2.614   4.216  12.440  0.6760  1.1164  0.5709
 7829SOL    HW235121   2.490   4.229  12.519 -1.4851 -1.6064  1.3096
 7830SOL     OW35122   1.820   4.119   7.054  0.2641 -0.1133  0.9787
 7830SOL    HW135123   1.765   4.178   7.106 -0.3201 -0.8468  1.1998
 7830SOL    HW235124   1.829   4.046   7.115  1.4044 -0.8080 -0.0233
 7831SOL     OW35125   3.025   1.831  10.212 -0.0153  0.2409  0.0688
 7831SOL    HW135126   3.066   1.871  10.289 -0.2312 -0.2347  0.4366
 7831SOL    HW235127   3.084   1.760  10.188  0.8431  0.7056  0.8119
 7832SOL     OW35128   0.714   4.394   8.311  0.3602  0.3726 -0.4476
 7832SOL    HW135129   0.778   4.370   8.244 -0.6222 -0.2573 -1.1553
 7832SOL    HW235130   0.744   4.354   8.393 -0.3627 -0.0940 -0.4154
 7833SOL     OW35131   2.095   3.082   6.667 -0.3708 -0.0446  0.2464
 7833SOL    HW135132   2.078   3.176   6.663 -2.1648 -0.4739 -2.5128
 7833SOL    HW235133   2.008   3.048   6.691 -0.1656  1.3680  3.0359
 7834SOL     OW35134   1.159   3.048   4.430 -0.6837 -0.5323 -0.3514
 7834SOL    HW135135   1.087   3.075   4.487  1.2238  0.2914  1.6349
 7834SOL    HW235136   1.112   2.996   4.365  0.0725  1.7973 -2.7911
 7835SOL     OW35137   4.135   1.492   2.114 -0.0877 -0.3729  0.7073
 7835SOL    HW135138   4.188   1.571   2.128  0.0678 -0.2255 -0.6434
 7835SOL    HW235139   4.196   1.429   2.076  1.3443  1.5716 -0.2725
 7836SOL     OW35140   0.734   2.504   9.222 -0.1883 -0.5004 -0.4596
 7836SOL    HW135141   0.698   2.515   9.135  1.3870 -0.7035 -1.1488
 7836SOL    HW235142   0.721   2.592   9.257 -0.7720 -0.4680 -0.7785
 7837SOL     OW35143   3.156   0.026  11.872 -0.5111 -0.5135 -0.2342
 7837SOL    HW135144   3.130   4.684  11.829 -0.6672 -1.4477  1.6265
 7837SOL    HW235145   3.070   0.067  11.864 -0.9648 -1.7332 -1.6371
 7838SOL     OW35146   1.302   0.439   3.641 -0.1799  0.1755 -0.7140
 7838SOL    HW135147   1.308   0.491   3.722  1.8010 -1.3504  0.1232
 7838SOL    HW235148   1.304   0.350   3.676 -0.2568  0.5234  0.1864
 7839SOL     OW35149   4.004   2.243   2.826 -0.4714  0.3874 -0.2016
 7839SOL    HW135150   3.912   2.218   2.816 -0.2214 -1.4511  2.1822
 7839SOL    HW235151   4.042   2.223   2.740  0.5345 -1.6243  0.7331
 7840SOL     OW35152   4.433   2.054   5.736  0.3917  0.1505 -0.3057
 7840SOL    HW135153   4.427   2.123   5.670 -0.6035 -1.8389 -2.2947
 7840SOL    HW235154   4.508   2.076   5.791  0.0103  2.1334 -0.5790
 7841SOL     OW35155   0.502   3.643   2.792  0.0293 -0.1357 -0.2828
 7841SOL    HW135156   0.445   3.617   2.719 -0.1252  1.6069 -0.7679
 7841SOL    HW235157   0.579   3.683   2.752 -0.6171  2.0999  0.7348
 7842SOL     OW35158   1.527   1.149   7.042  0.0158 -0.3244 -0.1630
 7842SOL    HW135159   1.488   1.077   6.992 -1.0716 -0.9042  1.4954
 7842SOL    HW235160   1.534   1.100   7.124  0.3626 -0.9926 -0.5888
 7843SOL     OW35161   3.744   2.416   2.034 -0.1264 -0.3144 -0.1543
 7843SOL    HW135162   3.708   2.497   1.998  2.4460  0.7345 -0.3142
 7843SOL    HW235163   3.782   2.440   2.118  0.1530 -4.0113  0.8042
 7844SOL     OW35164   2.587   4.239   4.930 -0.5081 -0.1550 -0.4425
 7844SOL    HW135165   2.519   4.275   4.987 -1.4651 -1.8524 -0.5124
 7844SOL    HW235166   2.612   4.167   4.989  1.6483  1.1281  0.2136
 7845SOL     OW35167   1.011   3.569  17.661 -0.2083  0.0176  0.6664
 7845SOL    HW135168   1.061   3.643  17.694  1.6617 -0.7020 -0.5738
 7845SOL    HW235169   1.080   3.521  17.615 -0.0225  0.4883  0.4610
 7846SOL     OW35170   0.918   3.860  17.607 -0.1450 -0.1694 -0.2216
 7846SOL    HW135171   0.829   3.861  17.641 -0.9723  0.3206 -2.3648
 7846SOL    HW235172   0.956   3.912  17.678 -0.5037 -0.7942  0.4159
 7847SOL     OW35173   1.296   1.058   5.307  0.9604 -0.1866 -0.1614
 7847SOL    HW135174   1.382   1.094   5.286 -0.5299  2.2752 -1.9568
 7847SOL    HW235175   1.294   0.993   5.236  0.5113 -0.5894  0.2173
 7848SOL     OW35176   1.140   3.591   7.489  0.3888 -0.5926  0.6798
 7848SOL    HW135177   1.065   3.587   7.549 -0.7505 -0.1708 -0.7257
 7848SOL    HW235178   1.210   3.603   7.553  0.6496  3.0807 -0.3307
 7849SOL     OW35179   1.452   0.455   8.805 -0.1123 -0.1613  0.9581
 7849SOL    HW135180   1.357   0.452   8.812 -0.5618  2.0864 -4.3373
 7849SOL    HW235181   1.481   0.406   8.882  1.9961  1.6426  1.2992
 7850SOL     OW35182   2.664   0.209   8.803 -0.0808 -0.3191  0.0398
 7850SOL    HW135183   2.717   0.195   8.881  1.6986  1.5882 -0.8562
 7850SOL    HW235184   2.638   0.119   8.779  1.4616 -0.7063 -0.1613
 7851SOL     OW35185   2.631   4.310  10.090 -0.0862 -0.2057 -0.4909
 7851SOL    HW135186   2.722   4.337  10.105 -0.0675  0.5196 -1.9369
 7851SOL    HW235187   2.615   4.331   9.998  1.6628  0.1125 -0.7236
 7852SOL     OW35188   0.535   0.802   6.158 -0.1260  0.3069  0.1160
 7852SOL    HW135189   0.602   0.740   6.185 -1.3563 -0.3749  1.6552
 7852SOL    HW235190   0.467   0.739   6.134 -1.9170  1.7050  1.4590
 7853SOL     OW35191   3.042   4.196   3.086 -0.1860 -0.2638  0.2340
 7853SOL    HW135192   2.981   4.266   3.109  1.6391  0.8558  1.6405
 7853SOL    HW235193   2.992   4.116   3.101  0.1314 -0.5584 -0.2890
 7854SOL     OW35194   1.522   3.893   2.839  0.0843  0.0848 -0.1075
 7854SOL    HW135195   1.471   3.929   2.912  0.4753  0.1488  0.1333
 7854SOL    HW235196   1.527   3.801   2.866  0.7068  0.4805  1.1511
 7855SOL     OW35197   4.454   2.224   2.330  0.0515 -0.4840 -0.4992
 7855SOL    HW135198   4.417   2.297   2.281  0.8086  0.2656  0.0481
 7855SOL    HW235199   4.476   2.163   2.259  1.4614  0.4754 -0.8800
 7856SOL     OW35200   0.834   0.268   7.053 -0.4450  0.0194 -0.2104
 7856SOL    HW135201   0.851   0.278   7.147 -0.2276 -0.9331 -0.1475
 7856SOL    HW235202   0.799   0.179   7.050 -0.3164 -0.0929  1.3350
 7857SOL     OW35203   3.210   1.907   2.859  0.9111 -0.0464  0.0523
 7857SOL    HW135204   3.150   1.946   2.923  0.8860 -1.2735  0.7648
 7857SOL    HW235205   3.248   1.834   2.908  0.2898 -0.1630  0.3525
 7858SOL     OW35206   2.712   0.452   2.733 -0.3806 -0.3219  0.5710
 7858SOL    HW135207   2.646   0.393   2.770  0.2453 -1.1366  0.4009
 7858SOL    HW235208   2.778   0.385   2.711  2.6318  2.3641  1.3883
 7859SOL     OW35209   2.328   3.600  12.286  0.7438 -0.0518  0.1154
 7859SOL    HW135210   2.310   3.541  12.359  0.5634 -0.6043 -0.3733
 7859SOL    HW235211   2.275   3.572  12.211  1.3406  0.0127 -0.3322
 7860SOL     OW35212   2.096   0.040   3.266 -0.6547 -0.4816  0.3330
 7860SOL    HW135213   2.067   4.720   3.199 -0.9063 -0.1524  0.1469
 7860SOL    HW235214   2.016   0.056   3.316 -0.6029  0.1781  0.2096
 7861SOL     OW35215   1.674   4.534   9.667  0.1247  0.5195 -0.1061
 7861SOL    HW135216   1.758   4.490   9.654  0.0248  0.3768 -0.2717
 7861SOL    HW235217   1.654   4.549   9.574  1.8951  0.3770 -0.5149
 7862SOL     OW35218   0.455   4.109  17.413 -0.5240 -0.2208  0.0136
 7862SOL    HW135219   0.546   4.132  17.396 -0.2876 -1.0595  0.1657
 7862SOL    HW235220   0.417   4.196  17.423  0.7090  0.3633 -0.3857
 7863SOL     OW35221   1.789   0.750   1.317  0.2984 -0.1318 -0.1049
 7863SOL    HW135222   1.720   0.692   1.347 -1.6740  2.4384  0.3442
 7863SOL    HW235223   1.746   0.810   1.257  0.2815  1.6016  1.6380
 7864SOL     OW35224   0.905   2.966   0.613 -0.2205  0.5141 -0.1341
 7864SOL    HW135225   0.849   3.038   0.641  1.5799  2.1497 -0.7509
 7864SOL    HW235226   0.993   3.003   0.618 -0.7949  1.7150  0.9914
 7865SOL     OW35227   3.728   3.949   7.572 -0.7780 -0.1137  0.3732
 7865SOL    HW135228   3.711   3.941   7.666  1.0876 -0.1014  0.7129
 7865SOL    HW235229   3.728   3.857   7.545 -0.5400 -0.2407  0.7896
 7866SOL     OW35230   2.114   1.212   8.673 -0.0320 -0.5264  0.4032
 7866SOL    HW135231   2.158   1.204   8.758 -1.9191  0.9426  1.5169
 7866SOL    HW235232   2.028   1.246   8.696 -0.4870 -0.4170 -1.4251
 7867SOL     OW35233   0.804   3.067  15.404 -0.0737  0.1079 -0.1493
 7867SOL    HW135234   0.755   2.987  15.422 -0.4479  0.5048  0.5971
 7867SOL    HW235235   0.854   3.082  15.484 -1.1899  1.9383  0.1937
 7868SOL     OW35236   3.228   3.008   5.958  0.0163  0.2650 -0.2176
 7868SOL    HW135237   3.190   2.939   6.011  1.0502  0.7395  1.1198
 7868SOL    HW235238   3.311   2.967   5.937  1.3260  1.8430  1.8762
 7869SOL     OW35239   3.006   1.784   8.438 -0.5745  0.3484  0.3655
 7869SOL    HW135240   3.006   1.865   8.386  0.3137  0.3963  0.4389
 7869SOL    HW235241   3.093   1.790   8.479  0.5130 -1.1015 -1.7158
 7870SOL     OW35242   2.947   1.350   5.641 -0.7555  0.2225  0.0670
 7870SOL    HW135243   2.929   1.426   5.584  1.0199  1.9163  1.7802
 7870SOL    HW235244   2.978   1.286   5.578 -0.6084  2.8875 -2.5977
 7871SOL     OW35245   1.547   3.605   6.240 -0.4257 -0.0662 -0.1366
 7871SOL    HW135246   1.499   3.618   6.158 -2.1222  4.7517  1.6224
 7871SOL    HW235247   1.599   3.533   6.205  1.5187  2.1161 -1.7526
 7872SOL     OW35248   4.671   1.975   3.508 -0.0508 -0.1501 -0.1358
 7872SOL    HW135249   4.660   2.021   3.425  0.4904  0.9597  0.4013
 7872SOL    HW235250   4.661   1.884   3.480 -0.9152 -0.2167  0.4001
 7873SOL     OW35251   0.861   1.385  17.522  0.4739  0.5280 -0.0446
 7873SOL    HW135252   0.873   1.407  17.614  0.5673 -1.3459  0.3810
 7873SOL    HW235253   0.791   1.320  17.525 -0.1319  1.1704 -0.1980
 7874SOL     OW35254   1.408   4.410  14.161 -0.1718  0.1394 -0.1443
 7874SOL    HW135255   1.470   4.427  14.090  0.3420  2.6046  0.8943
 7874SOL    HW235256   1.337   4.466  14.130 -0.3088  0.6109  0.9853
 7875SOL     OW35257   3.372   0.468  17.681 -0.5096 -0.6366  0.0781
 7875SOL    HW135258   3.449   0.455  17.626 -0.6618  0.8489 -0.5060
 7875SOL    HW235259   3.351   0.562  17.676 -2.4961 -1.0206  1.4147
 7876SOL     OW35260   3.722   3.241   5.738 -0.2238  0.2619 -0.1827
 7876SOL    HW135261   3.768   3.163   5.710 -2.5181 -2.4588  3.6367
 7876SOL    HW235262   3.772   3.281   5.810  2.2592 -1.1620 -1.1177
 7877SOL     OW35263   2.487   2.700   8.184 -0.8435  0.3452 -0.1035
 7877SOL    HW135264   2.395   2.688   8.159 -0.3842 -1.7274 -0.7742
 7877SOL    HW235265   2.490   2.784   8.230  1.7289  0.3666 -0.3337
 7878SOL     OW35266   1.193   1.967  15.003  0.9951  0.1444  0.4943
 7878SOL    HW135267   1.233   1.881  14.990 -1.6526 -0.7127 -1.9939
 7878SOL    HW235268   1.264   2.027  14.978 -0.6641  1.2063 -1.6887
 7879SOL     OW35269   1.582   1.792   3.437 -0.1116 -0.0059  0.4731
 7879SOL    HW135270   1.562   1.698   3.444  1.0083 -0.2175  0.9376
 7879SOL    HW235271   1.677   1.785   3.448 -0.2719 -5.1708 -1.3007
 7880SOL     OW35272   3.892   4.734   2.158  0.4959  0.2006 -0.3243
 7880SOL    HW135273   3.851   0.072   2.121 -0.2583 -0.1847 -0.2969
 7880SOL    HW235274   3.878   4.664   2.094  0.0052 -0.4400  0.4729
 7881SOL     OW35275   1.602   2.910   4.306  0.5797 -0.4429 -0.1855
 7881SOL    HW135276   1.527   2.866   4.344  0.5835 -0.1226  0.1898
 7881SOL    HW235277   1.567   2.996   4.283 -0.2515 -0.3780  1.3659
 7882SOL     OW35278   0.789   3.498   7.948  0.2023 -0.8257  0.0102
 7882SOL    HW135279   0.791   3.415   7.901 -1.6962 -0.5462 -0.5260
 7882SOL    HW235280   0.716   3.551   7.916  0.0846 -1.3016 -0.5094
 7883SOL     OW35281   2.399   1.631   1.492 -0.3836  0.0457  0.4108
 7883SOL    HW135282   2.352   1.605   1.571  1.5690 -0.1477  1.5076
 7883SOL    HW235283   2.482   1.584   1.497 -1.0073 -1.3718 -2.4380
 7884SOL     OW35284   0.136   0.445   6.415 -0.0903 -0.0488  0.2616
 7884SOL    HW135285   0.217   0.442   6.467  1.9363 -3.3717 -3.0968
 7884SOL    HW235286   0.084   0.390   6.473 -0.3179 -1.3330 -1.1669
 7885SOL     OW35287   4.501   0.414   2.238 -0.1708 -0.0490 -0.2183
 7885SOL    HW135288   4.454   0.480   2.290 -0.8486 -1.7080  1.2652
 7885SOL    HW235289   4.519   0.341   2.297  2.2770  0.3195 -0.4963
 7886SOL     OW35290   0.983   0.843  17.196 -0.5161  0.0674 -0.2107
 7886SOL    HW135291   0.888   0.859  17.189 -0.4547  0.2415 -0.6697
 7886SOL    HW235292   1.012   0.896  17.122 -0.3023  0.6816  0.3236
 7887SOL     OW35293   0.220   3.118  11.013 -0.4491  0.4148 -0.2708
 7887SOL    HW135294   0.232   3.152  11.102 -3.4770 -0.6165  0.5158
 7887SOL    HW235295   0.312   3.108  10.986 -0.5795  0.1623 -0.6178
 7888SOL     OW35296   0.736   0.499   6.912 -0.5135  0.0185  0.5012
 7888SOL    HW135297   0.765   0.420   6.957 -1.1193 -0.0795  0.7275
 7888SOL    HW235298   0.748   0.551   6.992  1.1695 -2.7104  2.0374
 7889SOL     OW35299   1.940   0.847   8.707  0.4398 -0.1393 -0.3183
 7889SOL    HW135300   1.880   0.870   8.778 -1.1929 -1.5325 -1.2337
 7889SOL    HW235301   1.923   0.754   8.693 -0.4204 -0.3748  2.4144
 7890SOL     OW35302   1.667   3.786   9.531 -0.4226 -0.3258  0.1129
 7890SOL    HW135303   1.612   3.708   9.539  0.3674 -0.9661 -0.6538
 7890SOL    HW235304   1.692   3.803   9.622  2.1585 -2.5113 -0.1833
 7891SOL     OW35305   1.281   3.741   2.898  0.1885 -0.0384 -0.3860
 7891SOL    HW135306   1.328   3.823   2.916 -0.1589  0.1804 -0.4725
 7891SOL    HW235307   1.202   3.773   2.942  0.8811 -1.3262  1.7708
 7892SOL     OW35308   2.280   4.584   5.893 -0.1722 -0.1041 -0.8732
 7892SOL    HW135309   2.279   4.541   5.979  0.3741  1.0525 -0.2967
 7892SOL    HW235310   2.362   4.631   5.908 -0.0401 -0.3115 -0.9503
 7893SOL     OW35311   0.895   3.887   4.807 -0.0590 -0.2096  0.0028
 7893SOL    HW135312   0.867   3.959   4.864 -1.4777 -1.9759  1.5028
 7893SOL    HW235313   0.858   3.924   4.727 -0.1156 -0.3657 -0.0428
 7894SOL     OW35314   1.886   4.473   6.242 -0.4094  0.4536  0.2250
 7894SOL    HW135315   1.874   4.379   6.235 -2.2384  0.8103 -1.3399
 7894SOL    HW235316   1.968   4.476   6.291 -0.4396  0.4261  0.2779
 7895SOL     OW35317   1.061   1.224   5.853 -0.3120  0.3820  0.1579
 7895SOL    HW135318   1.136   1.165   5.850  1.5518  2.6969  0.8849
 7895SOL    HW235319   1.020   1.197   5.771  1.8549 -2.4233  0.0123
 7896SOL     OW35320   0.020   4.226  16.842  0.2881  0.1810 -0.4022
 7896SOL    HW135321   4.679   4.259  16.804 -0.1205  1.9596  1.9896
 7896SOL    HW235322   0.086   4.267  16.786  0.6931  1.2927  0.8671
 7897SOL     OW35323   0.717   1.835   9.011 -0.3843  0.4018 -0.5408
 7897SOL    HW135324   0.651   1.883   8.960 -2.3161 -1.1354  0.5449
 7897SOL    HW235325   0.678   1.752   9.037  0.6499 -0.0034 -0.3229
 7898SOL     OW35326   4.537   4.486   1.198  0.4046 -0.0648 -0.0182
 7898SOL    HW135327   4.572   4.493   1.109  0.1248 -0.7132 -0.1760
 7898SOL    HW235328   4.463   4.433   1.170 -0.3028  0.4012  0.9836
 7899SOL     OW35329   4.733   0.183   3.556 -0.5778  0.2416 -0.3362
 7899SOL    HW135330   0.003   0.095   3.594  1.4071  0.5266 -0.2107
 7899SOL    HW235331   0.074   0.229   3.576  0.3009 -0.5811 -1.9999
 7900SOL     OW35332   0.233   4.109   0.804  0.3035  0.5563 -0.3389
 7900SOL    HW135333   0.320   4.085   0.837 -0.3098  0.7971  1.4180
 7900SOL    HW235334   0.227   4.042   0.736  1.0773  2.2607 -2.1075
 7901SOL     OW35335   1.203   4.365   8.583  0.0316  0.0655 -0.0503
 7901SOL    HW135336   1.209   4.410   8.499 -1.4487  1.2253  0.4702
 7901SOL    HW235337   1.288   4.327   8.605 -0.5927  0.3065  2.7512
 7902SOL     OW35338   3.003   2.605   4.835 -0.1502  0.1422  0.2108
 7902SOL    HW135339   3.051   2.562   4.905  1.3028 -0.7101 -1.2843
 7902SOL    HW235340   2.913   2.585   4.859 -0.7579  2.7075  0.0486
 7903SOL     OW35341   4.346   1.302   1.961  0.0841 -0.0772 -0.3092
 7903SOL    HW135342   4.417   1.299   2.025 -0.6749  0.4056  0.5376
 7903SOL    HW235343   4.410   1.293   1.890  1.1442 -0.5024  0.6936
 7904SOL     OW35344   3.501   2.488   7.300  0.4750 -0.1045 -0.0397
 7904SOL    HW135345   3.486   2.500   7.206  1.3825  1.0875 -0.0447
 7904SOL    HW235346   3.417   2.520   7.332  1.0119  0.1894  1.0625
 7905SOL     OW35347   4.483   3.960   4.547 -0.0816 -0.1721 -0.3908
 7905SOL    HW135348   4.483   3.925   4.458  2.5132 -0.1917 -0.3871
 7905SOL    HW235349   4.402   3.930   4.588 -0.5357  2.8282  0.9381
 7906SOL     OW35350   0.397   3.287   7.803  0.0988 -0.0318  0.5254
 7906SOL    HW135351   0.383   3.297   7.709 -0.5283 -0.1115  0.6159
 7906SOL    HW235352   0.448   3.206   7.810 -0.1746 -0.0308  2.7067
 7907SOL     OW35353   3.553   3.027  10.619 -0.2480 -0.3266 -0.1339
 7907SOL    HW135354   3.612   3.096  10.649 -0.0167 -0.1893 -0.8949
 7907SOL    HW235355   3.570   2.966  10.691 -0.5995 -2.5743 -1.9512
 7908SOL     OW35356   0.644   0.358   8.650  0.9770  0.6426 -0.5567
 7908SOL    HW135357   0.608   0.286   8.599  1.0703 -1.1280  1.9137
 7908SOL    HW235358   0.570   0.419   8.651  1.7863  1.6435 -1.2502
 7909SOL     OW35359   0.447   1.842   3.317  0.1782 -0.0802  0.3283
 7909SOL    HW135360   0.469   1.770   3.376 -0.6673 -0.8690 -0.3293
 7909SOL    HW235361   0.441   1.917   3.376  0.1552  1.2416 -1.3625
 7910SOL     OW35362   3.426   4.298   5.649 -0.4109 -0.4320  0.4775
 7910SOL    HW135363   3.420   4.203   5.641  5.0975 -0.7378 -0.2223
 7910SOL    HW235364   3.492   4.317   5.582 -2.6782  0.0745 -1.5990
 7911SOL     OW35365   2.810   2.874   4.506 -0.0921 -0.3522  0.3580
 7911SOL    HW135366   2.779   2.784   4.511  1.8516 -0.9311  1.6546
 7911SOL    HW235367   2.883   2.866   4.567 -0.7242  0.3222  1.2055
 7912SOL     OW35368   3.084   2.989   3.129 -0.0990  0.0305  0.1765
 7912SOL    HW135369   3.009   3.008   3.072  0.3281 -0.7665 -0.6506
 7912SOL    HW235370   3.159   3.037   3.094  0.7077 -1.3725  0.0015
 7913SOL     OW35371   4.580   0.757   6.760 -0.3655 -0.0235  0.0262
 7913SOL    HW135372   4.658   0.731   6.712 -0.3385  0.5951 -0.2639
 7913SOL    HW235373   4.534   0.672   6.757  4.3809 -2.6759  2.5195
 7914SOL     OW35374   3.789   4.524   5.822  0.1672  0.5011 -0.0584
 7914SOL    HW135375   3.708   4.507   5.773 -1.5293  1.2671  2.4391
 7914SOL    HW235376   3.838   4.446   5.797  1.5284  1.0059  1.0590
 7915SOL     OW35377   3.074   4.582  11.496  0.0840  0.4478 -0.6560
 7915SOL    HW135378   2.997   4.579  11.440  1.4712  1.4748 -2.6016
 7915SOL    HW235379   3.142   4.582  11.429 -0.8820  0.1400 -1.6245
 7916SOL     OW35380   3.575   0.627   5.379  0.3379 -0.0731  0.4612
 7916SOL    HW135381   3.658   0.674   5.372  0.9315 -0.6737  3.5316
 7916SOL    HW235382   3.505   0.674   5.335  1.2265  0.8123 -0.0125
 7917SOL     OW35383   4.016   4.666   5.820  0.2546  1.4656  0.1362
 7917SOL    HW135384   3.928   4.629   5.808  0.6652  0.1750  1.1291
 7917SOL    HW235385   4.049   4.622   5.742 -2.3393  4.0495 -2.4386
 7918SOL     OW35386   3.972   1.420   4.342 -0.0409 -0.3789 -0.3882
 7918SOL    HW135387   4.052   1.434   4.393 -0.5584 -0.7029  0.4964
 7918SOL    HW235388   3.991   1.436   4.249  1.4070 -2.6462 -0.4928
 7919SOL     OW35389   4.172   4.182   8.650 -0.3818 -0.4849  0.2654
 7919SOL    HW135390   4.101   4.233   8.611 -1.4456 -2.5000 -0.4568
 7919SOL    HW235391   4.242   4.176   8.584  0.2894  2.3324  0.7439
 7920SOL     OW35392   1.568   3.557   8.041 -0.0898 -0.1681  0.1993
 7920SOL    HW135393   1.496   3.498   8.018 -0.4064  1.0151 -1.7930
 7920SOL    HW235394   1.579   3.529   8.132 -1.6456  0.5208  0.5986
 7921SOL     OW35395   4.651   1.063   9.053  0.4463 -0.3376  0.1270
 7921SOL    HW135396   4.658   1.153   9.084  0.9863 -0.1129 -0.6426
 7921SOL    HW235397   4.712   1.019   9.113  1.4947  1.8781  0.6834
 7922SOL     OW35398   2.941   0.305   7.367  0.5018 -0.4863  0.1158
 7922SOL    HW135399   2.933   0.395   7.336  0.9976 -0.9310 -1.3024
 7922SOL    HW235400   2.851   0.284   7.389  0.6236  0.6516  1.6833
 7923SOL     OW35401   2.524   2.297  14.139 -0.4031  0.0706  0.0746
 7923SOL    HW135402   2.602   2.247  14.161 -1.1038 -1.0203  0.1133
 7923SOL    HW235403   2.525   2.293  14.043 -1.6403 -0.1990  0.0692
 7924SOL     OW35404   4.322   0.296   2.043  0.4513  0.9155  0.1414
 7924SOL    HW135405   4.375   0.328   2.115  2.1233 -1.1849 -0.1602
 7924SOL    HW235406   4.240   0.342   2.058 -1.0370 -1.2467 -1.3134
 7925SOL     OW35407   0.867   0.598  11.412  0.3422 -0.5440 -0.4721
 7925SOL    HW135408   0.847   0.538  11.339 -0.5725 -1.2260  0.3257
 7925SOL    HW235409   0.956   0.563  11.419 -0.5942 -2.8601  0.0274
 7926SOL     OW35410   3.615   1.813  14.025  0.4731 -0.8811 -0.3069
 7926SOL    HW135411   3.577   1.846  14.106  1.9841  0.3925 -0.1198
 7926SOL    HW235412   3.554   1.849  13.961  0.6033  0.0521  0.0968
 7927SOL     OW35413   2.505   3.659   1.452 -0.1053 -0.5566 -0.1930
 7927SOL    HW135414   2.467   3.663   1.540  0.7143 -1.1795  0.1891
 7927SOL    HW235415   2.485   3.747   1.421  0.9331  0.3959  1.8134
 7928SOL     OW35416   2.633   1.219   2.989 -0.2970 -0.6278  0.3655
 7928SOL    HW135417   2.710   1.267   2.958 -1.5740  0.7295 -0.7298
 7928SOL    HW235418   2.589   1.209   2.905 -0.3036  0.0103  0.2948
 7929SOL     OW35419   2.704   2.671   1.698 -0.0352  0.2288 -0.5129
 7929SOL    HW135420   2.769   2.645   1.633 -1.9449 -2.4733 -1.3551
 7929SOL    HW235421   2.741   2.638   1.780 -3.2823 -1.7106  0.1713
 7930SOL     OW35422   1.442   3.559   5.675 -0.4369 -0.0493  0.5178
 7930SOL    HW135423   1.493   3.509   5.610 -0.2924 -0.5775  1.0377
 7930SOL    HW235424   1.421   3.638   5.625 -0.3491 -0.5563 -0.3261
 7931SOL     OW35425   4.381   1.028  12.006  0.1267 -0.4692  0.2775
 7931SOL    HW135426   4.319   1.000  11.939  0.9432  4.5127 -2.5832
 7931SOL    HW235427   4.462   1.039  11.957 -1.2449  1.0791 -1.6553
 7932SOL     OW35428   0.176   3.492   2.382 -0.1849  0.1468 -0.3210
 7932SOL    HW135429   0.251   3.530   2.427  0.3412  0.9096 -1.8301
 7932SOL    HW235430   0.115   3.567   2.384 -0.7523 -0.3201  0.0879
 7933SOL     OW35431   3.168   3.965   7.486  0.3762  0.0527  0.5691
 7933SOL    HW135432   3.239   3.900   7.490  0.5891  0.3274  1.2898
 7933SOL    HW235433   3.198   4.033   7.546  0.5755 -0.8079  1.4594
 7934SOL     OW35434   3.148   4.107   2.515 -0.0640 -0.3930 -0.4634
 7934SOL    HW135435   3.125   4.139   2.602 -2.3200 -0.5804 -1.0088
 7934SOL    HW235436   3.171   4.017   2.541 -0.5922 -0.6408 -0.8626
 7935SOL     OW35437   0.374   3.275   4.248 -0.0429  0.2308  0.1423
 7935SOL    HW135438   0.383   3.322   4.330 -2.1499  0.7097  0.0961
 7935SOL    HW235439   0.462   3.281   4.212  0.0198 -0.6051  0.1388
 7936SOL     OW35440   4.381   3.051  11.502 -0.0743  0.5971  0.8624
 7936SOL    HW135441   4.363   3.100  11.421 -2.2358 -0.3241  0.7765
 7936SOL    HW235442   4.476   3.048  11.512  0.0565  2.3412  0.2236
 7937SOL     OW35443   1.757   3.298  11.553 -0.4866  0.5278 -0.0323
 7937SOL    HW135444   1.788   3.237  11.621 -1.1246  0.6102  0.3332
 7937SOL    HW235445   1.711   3.363  11.605 -1.9461 -1.0539  0.6629
 7938SOL     OW35446   4.077   2.191   5.858  0.4684  0.1660  0.1977
 7938SOL    HW135447   4.102   2.241   5.780 -2.6590  1.4332 -0.0184
 7938SOL    HW235448   4.056   2.266   5.913  2.3706  1.2325 -0.5410
 7939SOL     OW35449   4.209   1.011   3.672  0.2234 -0.1537 -0.2126
 7939SOL    HW135450   4.245   0.930   3.709  0.3987 -0.9368 -2.0854
 7939SOL    HW235451   4.289   1.062   3.661  0.4869 -0.1813  1.4657
 7940SOL     OW35452   3.379   1.595  13.857  0.9336  0.2348 -0.3802
 7940SOL    HW135453   3.299   1.625  13.814  0.4522 -0.6964 -0.1314
 7940SOL    HW235454   3.389   1.655  13.931 -0.9999  0.6346 -0.4466
 7941SOL     OW35455   4.303   1.194   6.151 -0.3213  0.3895  0.0351
 7941SOL    HW135456   4.335   1.105   6.162 -1.4260 -0.0260 -0.1614
 7941SOL    HW235457   4.217   1.175   6.115 -2.0006  2.4673  3.0037
 7942SOL     OW35458   3.057   4.171  15.753  0.0848  0.0233 -0.3725
 7942SOL    HW135459   3.045   4.093  15.699  2.4854 -0.2335 -0.4993
 7942SOL    HW235460   2.998   4.161  15.827 -0.2967  1.7808 -0.4353
 7943SOL     OW35461   4.220   2.188  17.329 -0.4123  0.5062  0.5483
 7943SOL    HW135462   4.288   2.194  17.396 -1.6163  0.6685  1.7644
 7943SOL    HW235463   4.206   2.279  17.303  0.9571 -0.4110 -3.4124
 7944SOL     OW35464   3.174   3.725   2.806  0.3272  0.0590  0.4658
 7944SOL    HW135465   3.243   3.681   2.855 -0.2039 -1.2673 -0.0009
 7944SOL    HW235466   3.108   3.720   2.875  2.9403 -0.8510  2.8690
 7945SOL     OW35467   3.878   3.273  13.788 -0.1078 -0.4205 -0.7246
 7945SOL    HW135468   3.884   3.208  13.718 -0.9159 -2.7040  1.3167
 7945SOL    HW235469   3.784   3.261  13.806 -0.0580  0.8282  0.3799
 7946SOL     OW35470   3.215   4.643   3.319 -0.1831 -0.3887 -0.3021
 7946SOL    HW135471   3.204   4.549   3.304 -1.8581 -0.5432  1.9802
 7946SOL    HW235472   3.276   4.676   3.254  1.7471  0.1395  1.7895
 7947SOL     OW35473   1.632   2.095   8.962  0.5492 -0.1598 -0.0129
 7947SOL    HW135474   1.559   2.137   8.916  1.1099  0.1888 -0.5914
 7947SOL    HW235475   1.681   2.056   8.889 -0.3977  0.9884 -1.2583
 7948SOL     OW35476   3.882   2.158   3.969  0.1593 -0.1473  0.4586
 7948SOL    HW135477   3.840   2.179   4.052 -0.9795 -1.7047  0.2927
 7948SOL    HW235478   3.963   2.114   3.993 -0.3542  0.6247  3.5586
 7949SOL     OW35479   0.722   0.171  13.181 -0.0592  0.5197 -0.6241
 7949SOL    HW135480   0.817   0.182  13.178 -0.0167  0.3488  0.2137
 7949SOL    HW235481   0.702   0.193  13.090 -1.1895 -0.7757 -0.6912
 7950SOL     OW35482   0.467   3.888   3.387 -0.1655  0.0751  0.4230
 7950SOL    HW135483   0.473   3.976   3.422 -0.2272  1.3369 -2.7057
 7950SOL    HW235484   0.557   3.862   3.407 -1.4044 -3.2881  1.7380
 7951SOL     OW35485   1.041   2.865   9.592 -0.5683  0.3762 -0.1895
 7951SOL    HW135486   1.010   2.953   9.614 -1.3788 -0.8384  3.6770
 7951SOL    HW235487   1.099   2.856   9.668 -1.4260 -1.7981  0.2203
 7952SOL     OW35488   0.331   1.823   3.088 -0.0925 -0.8868 -0.6767
 7952SOL    HW135489   0.308   1.730   3.090 -0.2012 -0.8879 -2.0855
 7952SOL    HW235490   0.363   1.835   3.177 -1.0545 -2.5761 -0.1003
 7953SOL     OW35491   1.951   3.766  14.436  0.3831  0.2130 -0.1859
 7953SOL    HW135492   1.929   3.851  14.399  0.0679  0.5599  0.7901
 7953SOL    HW235493   1.893   3.711  14.384  0.9861  1.6404 -2.3609
 7954SOL     OW35494   4.630   0.680   5.041 -0.1035  0.0898  0.2066
 7954SOL    HW135495   4.638   0.628   4.962 -1.0900  0.8336 -0.3914
 7954SOL    HW235496   4.697   0.638   5.095 -0.8417  1.2947  2.0834
 7955SOL     OW35497   2.643   1.382   1.095  0.2661  0.2872  0.0004
 7955SOL    HW135498   2.641   1.431   1.013 -1.0803  0.1849 -0.0198
 7955SOL    HW235499   2.737   1.388   1.115 -0.2173  3.4320  1.3347
 7956SOL     OW35500   2.611   3.717   1.902  0.0947 -0.1473  0.1746
 7956SOL    HW135501   2.668   3.793   1.891 -1.2136  0.7686 -0.2776
 7956SOL    HW235502   2.566   3.747   1.981  0.9074  0.6551  0.3334
 7957SOL     OW35503   4.380   2.284   6.254  0.2544 -0.3565 -0.5433
 7957SOL    HW135504   4.317   2.293   6.325  1.2249  1.0408  0.1398
 7957SOL    HW235505   4.326   2.238   6.190 -0.1535 -0.6326  0.0020
 7958SOL     OW35506   0.578   4.624   8.886  0.3794  0.7244 -0.0053
 7958SOL    HW135507   0.604   4.684   8.816 -0.0207  2.8716  1.6987
 7958SOL    HW235508   0.662   4.578   8.889  0.5057  0.9278 -0.3460
 7959SOL     OW35509   4.518   3.920   5.250  0.2637 -0.5869  0.1001
 7959SOL    HW135510   4.476   3.870   5.180  1.3913 -1.1486 -0.1675
 7959SOL    HW235511   4.542   3.999   5.203  1.2321 -0.3963  0.9103
 7960SOL     OW35512   3.980   1.160   5.455  0.2857 -0.0597 -0.4072
 7960SOL    HW135513   3.990   1.252   5.479 -0.5750 -0.0269 -0.1623
 7960SOL    HW235514   4.008   1.119   5.536  0.6501 -0.1219 -0.5680
 7961SOL     OW35515   0.493   3.685  17.469 -0.2354 -0.2990 -0.2934
 7961SOL    HW135516   0.451   3.636  17.398 -1.9140 -0.1849  0.6083
 7961SOL    HW235517   0.561   3.733  17.422  1.0666 -0.3292  1.5514
 7962SOL     OW35518   0.355   2.558   8.291  0.1800 -0.0971  1.1684
 7962SOL    HW135519   0.339   2.631   8.350  0.5518  0.7609  0.2110
 7962SOL    HW235520   0.266   2.525   8.275  0.0243  1.0741 -0.4007
 7963SOL     OW35521   4.488   1.379   7.218  0.1131  0.4426 -0.2576
 7963SOL    HW135522   4.563   1.324   7.242 -0.5675 -0.2598  0.2800
 7963SOL    HW235523   4.494   1.374   7.123  2.1860  1.9334 -0.1799
 7964SOL     OW35524   2.105   2.247   4.840 -0.2169  0.0901 -0.4005
 7964SOL    HW135525   2.161   2.324   4.855 -1.3815  1.1308 -1.4314
 7964SOL    HW235526   2.015   2.277   4.853 -0.2900  0.7631 -2.3834
 7965SOL     OW35527   0.970   1.553   6.679  0.3906  0.3317 -0.3290
 7965SOL    HW135528   0.966   1.639   6.722  2.2299 -0.6756  1.8577
 7965SOL    HW235529   0.943   1.579   6.590 -0.4432  1.2632  0.1850
 7966SOL     OW35530   1.317   0.117   9.956 -0.4582 -0.0865 -0.2588
 7966SOL    HW135531   1.236   0.106   9.905 -0.4286 -2.0953  0.1503
 7966SOL    HW235532   1.331   0.207   9.927 -1.7215  0.3214  0.3730
 7967SOL     OW35533   1.216   3.134   7.304 -0.0475  0.1030  0.1008
 7967SOL    HW135534   1.294   3.184   7.329  0.1097 -0.0682 -0.0482
 7967SOL    HW235535   1.152   3.205   7.298  2.2869  1.8778 -3.6174
 7968SOL     OW35536   4.526   4.666   7.428  0.1186  0.3195  0.3653
 7968SOL    HW135537   4.542   4.707   7.343  1.3650  1.8647  1.3475
 7968SOL    HW235538   4.614   4.661   7.466  0.1341  0.6454  0.3677
 7969SOL     OW35539   3.627   1.504   0.035 -0.1336  0.7986 -0.1486
 7969SOL    HW135540   3.584   1.558  17.725 -0.9480 -0.6772 -0.8066
 7969SOL    HW235541   3.719   1.525   0.019  0.2211 -0.8071 -0.2256
 7970SOL     OW35542   3.782   3.052   8.481  0.1761  0.0094 -0.4135
 7970SOL    HW135543   3.738   2.991   8.540  0.4989  0.7604  0.5919
 7970SOL    HW235544   3.722   3.126   8.490  1.3917  0.9500 -0.0700
 7971SOL     OW35545   2.467   3.009  11.458  0.0081 -0.5451 -0.0405
 7971SOL    HW135546   2.470   2.986  11.551  1.9873 -2.0025 -0.4498
 7971SOL    HW235547   2.446   3.102  11.453 -2.4580 -1.0046  1.7824
 7972SOL     OW35548   0.790   0.185   3.097 -0.1536  0.2763  0.1566
 7972SOL    HW135549   0.700   0.156   3.106  0.1881 -0.3136  1.7076
 7972SOL    HW235550   0.766   0.274   3.071  1.2235  0.6319  0.0635
 7973SOL     OW35551   4.252   1.437   8.676  0.1788 -0.9636 -0.1532
 7973SOL    HW135552   4.300   1.458   8.596  0.7196  0.1477  0.4780
 7973SOL    HW235553   4.187   1.507   8.679  0.5907 -0.6350  1.2225
 7974SOL     OW35554   3.417   1.545  14.507  0.2980  0.9104  0.3102
 7974SOL    HW135555   3.475   1.618  14.525  1.5746  0.5374 -2.3366
 7974SOL    HW235556   3.437   1.547  14.414 -1.6578 -0.6601 -0.1445
 7975SOL     OW35557   3.107   3.406   4.645  0.0891 -0.3266  0.0689
 7975SOL    HW135558   3.181   3.345   4.646  0.2011 -0.2007 -0.8717
 7975SOL    HW235559   3.146   3.475   4.593 -0.2417  0.7790  1.2938
 7976SOL     OW35560   3.415   0.238   1.744  0.4319  0.2373 -0.1222
 7976SOL    HW135561   3.333   0.265   1.702  0.4119  0.3357 -0.0192
 7976SOL    HW235562   3.383   0.207   1.828  3.0517  1.0479  1.1570
 7977SOL     OW35563   3.675   0.578   6.880  0.2958  0.4044 -0.5400
 7977SOL    HW135564   3.599   0.566   6.938 -0.8575 -1.3469 -2.4185
 7977SOL    HW235565   3.749   0.591   6.939  0.8456 -0.3300 -1.0788
 7978SOL     OW35566   2.820   2.451   2.431  0.1418  0.3048  0.0384
 7978SOL    HW135567   2.787   2.361   2.432  0.2661  0.2489 -0.6426
 7978SOL    HW235568   2.741   2.494   2.399 -0.0498  0.9057  1.3157
 7979SOL     OW35569   4.082   3.506   2.352 -0.1331  0.3699  0.1132
 7979SOL    HW135570   4.170   3.496   2.316 -0.2396  2.1661 -0.6897
 7979SOL    HW235571   4.046   3.419   2.365  0.3306  0.1095 -0.3295
 7980SOL     OW35572   0.630   3.714   4.596 -0.2429  0.0775 -0.2852
 7980SOL    HW135573   0.536   3.699   4.609 -0.2278  1.6842  1.6183
 7980SOL    HW235574   0.680   3.646   4.639  0.9658  1.3741  0.3582
 7981SOL     OW35575   1.937   1.240   3.840 -0.3000  0.1622 -0.5259
 7981SOL    HW135576   1.860   1.182   3.832 -0.8710  0.9052 -0.4241
 7981SOL    HW235577   2.002   1.201   3.782 -2.1572  0.1212 -2.5682
 7982SOL     OW35578   4.287   2.124   2.102 -0.3576  0.0429  0.1038
 7982SOL    HW135579   4.271   2.041   2.057 -0.9727  0.9553 -1.3434
 7982SOL    HW235580   4.279   2.193   2.037 -0.2079  0.0466  0.0892
 7983SOL     OW35581   3.341   4.023  14.992  0.2057  0.1092  0.1598
 7983SOL    HW135582   3.362   4.113  14.967 -0.7238  0.0858 -0.7102
 7983SOL    HW235583   3.399   3.976  14.932  0.3167 -0.5144  0.7561
 7984SOL     OW35584   2.508   1.175   7.117  0.3002 -0.1310  0.0563
 7984SOL    HW135585   2.434   1.121   7.091  0.0128  0.8580 -1.2131
 7984SOL    HW235586   2.534   1.141   7.203  0.4770 -0.2157 -0.0308
 7985SOL     OW35587   1.598   4.551   7.795  0.1055  0.7005 -0.1550
 7985SOL    HW135588   1.662   4.517   7.857 -0.7210 -0.6555 -0.0556
 7985SOL    HW235589   1.542   4.603   7.853 -0.5526  0.3208 -0.4508
 7986SOL     OW35590   3.634   1.177   3.482  0.2618  0.4135  0.0056
 7986SOL    HW135591   3.627   1.136   3.396 -0.0857 -1.7858  1.1020
 7986SOL    HW235592   3.696   1.119   3.524 -1.3153 -1.9902 -0.9849
 7987SOL     OW35593   0.041   2.639   2.946  0.0665  0.4049  0.0298
 7987SOL    HW135594   0.080   2.709   2.894 -0.6331  1.1793  0.5491
 7987SOL    HW235595   0.003   2.691   3.017  1.2017 -0.4120  1.2197
 7988SOL     OW35596   4.048   3.572   4.757 -0.1668 -0.8525 -0.9503
 7988SOL    HW135597   4.065   3.511   4.685  0.0673 -1.0198 -0.7505
 7988SOL    HW235598   4.074   3.649   4.706  1.0784 -0.9555 -0.4686
 7989SOL     OW35599   0.782   0.089   9.121  0.0546 -0.4602 -0.4230
 7989SOL    HW135600   0.736   0.032   9.182  0.0749 -0.3116 -0.2696
 7989SOL    HW235601   0.711   0.127   9.068 -0.9730 -2.3614 -0.4073
 7990SOL     OW35602   3.816   1.923  14.323  0.9446 -0.3326 -0.5182
 7990SOL    HW135603   3.890   1.972  14.360 -1.3361  1.1868  2.0693
 7990SOL    HW235604   3.861   1.854  14.275  1.4581 -0.2401 -0.1709
 7991SOL     OW35605   3.390   0.010   8.938 -0.4036 -1.1194  0.8242
 7991SOL    HW135606   3.375   4.721   8.848  0.2063  1.6460 -0.1710
 7991SOL    HW235607   3.483   4.730   8.946 -0.5439 -1.3045  2.0915
 7992SOL     OW35608   1.343   3.006  15.728 -0.6728  0.3330 -0.9706
 7992SOL    HW135609   1.420   2.986  15.781 -0.5696  1.0554 -0.8366
 7992SOL    HW235610   1.326   2.927  15.677 -2.1756 -0.4576  0.7859
 7993SOL     OW35611   1.022   3.371   0.732 -0.4445 -0.1588 -0.7278
 7993SOL    HW135612   0.958   3.301   0.724  1.1273 -1.9939  2.6808
 7993SOL    HW235613   1.093   3.352   0.671  0.1277 -0.5011  0.0395
 7994SOL     OW35614   0.856   4.035   2.230  0.0841 -0.0707  0.2327
 7994SOL    HW135615   0.848   4.100   2.301  2.9480 -1.1572  1.5373
 7994SOL    HW235616   0.810   3.960   2.268  3.5318 -2.4346 -0.3083
 7995SOL     OW35617   3.635   4.289   6.477 -0.1605 -0.5215 -0.1959
 7995SOL    HW135618   3.644   4.198   6.450  0.0232 -0.9291  1.1925
 7995SOL    HW235619   3.586   4.331   6.407  0.2390  0.4517  0.1143
 7996SOL     OW35620   4.129   0.871   9.326  0.0702  0.2257 -0.2027
 7996SOL    HW135621   4.080   0.788   9.323 -0.4608  0.4136  2.4285
 7996SOL    HW235622   4.132   0.884   9.232  0.6788  0.5199 -0.1421
 7997SOL     OW35623   0.098   3.155   6.194 -0.3663 -0.0008  0.6786
 7997SOL    HW135624   0.012   3.121   6.169  0.0681 -1.0534  0.6198
 7997SOL    HW235625   0.151   3.118   6.124 -1.4439  0.2087 -0.2498
 7998SOL     OW35626   3.553   0.205   3.015 -0.4143  0.1435  0.0651
 7998SOL    HW135627   3.621   0.229   3.078 -0.8901 -0.8790  0.9841
 7998SOL    HW235628   3.541   0.292   2.977 -2.0717 -1.4130 -2.9486
 7999SOL     OW35629   1.176   1.360  12.020  0.7986 -0.0546  0.7101
 7999SOL    HW135630   1.137   1.341  11.934  0.3291  2.8969  0.2863
 7999SOL    HW235631   1.255   1.308  12.006  1.6156  1.2200  0.6397
 8000SOL     OW35632   3.415   2.723   8.603  0.4036 -0.2947 -0.0023
 8000SOL    HW135633   3.458   2.650   8.558 -0.8882 -1.0392 -0.0405
 8000SOL    HW235634   3.329   2.682   8.607  0.8878 -1.1903  1.0315
 8001SOL     OW35635   0.112   1.897   7.502 -0.1117  0.1764 -0.6801
 8001SOL    HW135636   0.065   1.975   7.473 -0.4619 -0.6047 -2.2283
 8001SOL    HW235637   0.075   1.889   7.590 -0.9401 -1.2544 -1.1672
 8002SOL     OW35638   0.165   3.407  13.492 -0.3069  0.3370 -0.3588
 8002SOL    HW135639   0.243   3.403  13.438  0.8861 -0.9749  1.4750
 8002SOL    HW235640   0.125   3.489  13.462  0.9651  0.8341 -0.7076
 8003SOL     OW35641   3.456   1.560  14.210 -0.0218 -0.1586  0.0782
 8003SOL    HW135642   3.412   1.632  14.165  0.8841  0.4912  0.2452
 8003SOL    HW235643   3.514   1.533  14.139  1.1771  0.2483  0.9109
 8004SOL     OW35644   4.194   1.418  16.949 -0.1106  0.1077  0.2638
 8004SOL    HW135645   4.282   1.455  16.946 -0.3256  0.5454 -0.7588
 8004SOL    HW235646   4.156   1.432  17.035  0.2021  0.2533  0.3771
 8005SOL     OW35647   3.711   2.546  15.496  0.1468  0.6467 -0.1893
 8005SOL    HW135648   3.764   2.555  15.417 -1.6348 -1.4716 -1.6279
 8005SOL    HW235649   3.687   2.454  15.487  0.1176  0.5708  0.6623
 8006SOL     OW35650   0.377   0.520   3.439 -0.7121 -0.0671  0.5362
 8006SOL    HW135651   0.409   0.554   3.523 -0.0646  1.4751 -0.3380
 8006SOL    HW235652   0.319   0.585   3.400 -2.0878 -2.3795 -1.2395
 8007SOL     OW35653   0.108   3.007   6.901 -0.1828  0.0794 -0.5099
 8007SOL    HW135654   0.183   3.010   6.960  0.6094 -0.5157 -1.4813
 8007SOL    HW235655   0.055   2.936   6.937  1.3042 -0.8839 -0.2068
 8008SOL     OW35656   1.916   3.272   2.092 -0.4121 -0.2610 -0.4522
 8008SOL    HW135657   1.941   3.263   2.001  1.2765 -1.6278  0.1556
 8008SOL    HW235658   1.997   3.314   2.122  0.5270  0.1814 -3.6374
 8009SOL     OW35659   0.997   0.109   3.263  0.4348  0.5943 -0.2990
 8009SOL    HW135660   1.027   0.025   3.227  1.0747  0.2745  0.9579
 8009SOL    HW235661   0.931   0.128   3.197 -0.6285 -2.7014 -0.1762
 8010SOL     OW35662   0.874   3.859  10.801  0.2607 -0.3385 -0.3277
 8010SOL    HW135663   0.854   3.862  10.708  0.2995 -0.4673 -0.3401
 8010SOL    HW235664   0.825   3.937  10.826  0.2026 -1.0115  1.7178
 8011SOL     OW35665   2.038   1.933  14.803 -0.0927 -0.0976 -0.1806
 8011SOL    HW135666   2.072   2.023  14.805  1.4266 -0.7058  1.5712
 8011SOL    HW235667   2.105   1.884  14.755  1.2054  0.6438  0.8383
 8012SOL     OW35668   2.507   3.210  10.811 -0.3493  0.2041  0.2706
 8012SOL    HW135669   2.492   3.268  10.736 -0.7577 -0.6536 -0.2996
 8012SOL    HW235670   2.567   3.258  10.869  2.6958 -2.0514 -1.0499
 8013SOL     OW35671   3.087   4.524   8.305  0.6310  0.3157  0.1994
 8013SOL    HW135672   3.016   4.469   8.273  1.2722 -0.2821 -0.1846
 8013SOL    HW235673   3.063   4.608   8.265 -0.5799  0.9183  2.1467
 8014SOL     OW35674   2.699   0.623  15.165 -0.0633 -0.0081  0.6539
 8014SOL    HW135675   2.633   0.680  15.126 -2.7816 -4.1987 -0.9203
 8014SOL    HW235676   2.682   0.638  15.258 -0.8113  0.7662  0.3885
 8015SOL     OW35677   1.835   0.599  12.547  0.0286  0.7736  0.4377
 8015SOL    HW135678   1.771   0.582  12.616  1.6604  1.4399  2.1337
 8015SOL    HW235679   1.827   0.692  12.530 -1.2589  0.6778  0.5749
 8016SOL     OW35680   0.040   4.622   7.557  0.1501 -0.5550  0.2987
 8016SOL    HW135681   0.030   4.559   7.629  0.6409 -1.2393 -0.2293
 8016SOL    HW235682   0.108   4.576   7.508  1.2679 -0.8020  2.1123
 8017SOL     OW35683   4.514   2.045  17.584 -0.3614  0.2784  0.5962
 8017SOL    HW135684   4.470   2.119  17.540  2.2791  1.3830 -0.1878
 8017SOL    HW235685   4.495   2.065  17.675  1.2065  1.0639  0.7467
 8018SOL     OW35686   0.653   2.132   3.115  0.3879  0.0108 -0.3611
 8018SOL    HW135687   0.653   2.158   3.023  0.5115 -0.7749 -0.5812
 8018SOL    HW235688   0.561   2.107   3.116  0.8286 -1.6228 -0.7971
 8019SOL     OW35689   4.017   4.467   8.498  0.2249  0.2181 -0.2025
 8019SOL    HW135690   3.949   4.486   8.434 -0.0594 -2.3630 -0.6854
 8019SOL    HW235691   3.971   4.493   8.578  0.0018  3.8425 -1.5174
 8020SOL     OW35692   3.219   0.065   5.867  0.5335 -0.0601 -0.2592
 8020SOL    HW135693   3.219   4.721   5.913  2.4733 -0.1129 -0.3609
 8020SOL    HW235694   3.155   0.114   5.918  0.6325 -0.5810  0.3643
 8021SOL     OW35695   2.710   4.038   9.416  0.4423 -0.0112 -0.2009
 8021SOL    HW135696   2.635   3.985   9.443 -0.2460  2.2491  2.2325
 8021SOL    HW235697   2.722   4.104   9.484 -1.1027  1.1878 -1.1011
 8022SOL     OW35698   2.097   3.202   4.674  0.3707 -0.2060 -0.0434
 8022SOL    HW135699   2.124   3.170   4.588  1.1773  1.2863 -0.3296
 8022SOL    HW235700   2.184   3.198   4.714 -0.6029 -0.5632  2.0376
 8023SOL     OW35701   1.142   4.533  17.198 -0.1814 -0.0194 -0.2354
 8023SOL    HW135702   1.163   4.469  17.130 -2.3087 -0.9857 -0.0017
 8023SOL    HW235703   1.118   4.610  17.147 -0.5269  0.9364  1.3568
 8024SOL     OW35704   1.716   4.588  12.358 -0.6919 -0.6538 -0.0166
 8024SOL    HW135705   1.625   4.594  12.385  0.2441  0.3844  2.8219
 8024SOL    HW235706   1.759   4.638  12.427 -0.4296 -0.4677 -0.3167
 8025SOL     OW35707   0.529   1.101   2.068  0.0241  0.0792  0.2404
 8025SOL    HW135708   0.595   1.128   2.131  0.7459 -1.4062  0.1444
 8025SOL    HW235709   0.595   1.061   2.010 -1.1125 -1.4584  0.0050
 8026SOL     OW35710   3.069   0.921  13.907  0.5612  0.2383  0.4308
 8026SOL    HW135711   3.081   0.844  13.850 -2.6954  0.2566 -0.2987
 8026SOL    HW235712   3.161   0.939  13.923  1.1287 -1.5066 -0.7966
 8027SOL     OW35713   1.108   0.318  11.546 -0.1249  0.1264 -0.0749
 8027SOL    HW135714   1.124   0.412  11.539  1.3098  0.0294  1.7648
 8027SOL    HW235715   1.186   0.290  11.595 -1.3662 -0.9147  1.2990
 8028SOL     OW35716   4.191   1.115   1.452  0.0627  0.1805 -0.8019
 8028SOL    HW135717   4.133   1.051   1.412  0.8296 -0.6167 -0.6533
 8028SOL    HW235718   4.266   1.058   1.434 -0.2416 -0.2895 -0.5858
 8029SOL     OW35719   2.531   3.353   3.122 -0.3311 -0.3597 -0.4023
 8029SOL    HW135720   2.614   3.395   3.145  0.6900 -0.6857 -3.5103
 8029SOL    HW235721   2.556   3.272   3.076  0.4997 -1.1840  1.4784
 8030SOL     OW35722   0.075   0.392  17.398 -0.6975  0.2638  0.4686
 8030SOL    HW135723   0.147   0.336  17.426 -0.9348 -0.7700 -0.9718
 8030SOL    HW235724   0.122   0.475  17.394  1.0391 -0.6736  1.4966
 8031SOL     OW35725   4.687   0.380   1.451  0.0329  0.1074  0.2090
 8031SOL    HW135726   4.612   0.321   1.440  0.6185 -0.6310  0.2027
 8031SOL    HW235727   4.715   0.376   1.359  1.7398  1.7294  0.6549
 8032SOL     OW35728   4.714   0.770   2.805 -0.3029  0.5666 -0.1060
 8032SOL    HW135729   4.679   0.812   2.727 -0.1699  0.9612  0.0499
 8032SOL    HW235730   0.067   0.778   2.787 -0.2461  0.8137  0.3092
 8033SOL     OW35731   3.776   3.323   4.055 -0.2328 -0.3502  0.2538
 8033SOL    HW135732   3.690   3.298   4.020  0.6138 -0.7579 -1.5320
 8033SOL    HW235733   3.767   3.261   4.127  2.4560 -2.7550 -1.5025
 8034SOL     OW35734   0.288   0.651   1.451 -0.0807 -0.8157 -0.2489
 8034SOL    HW135735   0.272   0.736   1.412 -1.0165 -0.1942  1.4935
 8034SOL    HW235736   0.372   0.623   1.413  1.4362  1.5008  1.3857
 8035SOL     OW35737   1.803   1.802   5.183  0.1266 -0.5653  0.2910
 8035SOL    HW135738   1.743   1.752   5.238 -2.0268  1.0509 -0.5781
 8035SOL    HW235739   1.841   1.856   5.252 -0.7235 -0.8231  0.9573
 8036SOL     OW35740   1.495   2.198   7.419  0.4024  1.0560  0.1264
 8036SOL    HW135741   1.413   2.186   7.369 -0.4441  0.9871  1.5304
 8036SOL    HW235742   1.536   2.119   7.382 -0.4707  1.2006 -1.1597
 8037SOL     OW35743   3.298   0.614   8.030  0.2834 -0.2790 -0.2805
 8037SOL    HW135744   3.298   0.576   7.942 -2.2904  0.5148 -0.6279
 8037SOL    HW235745   3.394   0.620   8.029  0.2335  0.1747 -2.6684
 8038SOL     OW35746   3.049   2.543   7.134 -0.0156 -0.2116  0.1063
 8038SOL    HW135747   3.074   2.494   7.212 -1.1812 -0.9004  0.0572
 8038SOL    HW235748   3.116   2.520   7.070 -0.7949 -1.5059 -0.2599
 8039SOL     OW35749   1.984   3.903   2.783 -0.1790 -0.0990  0.4865
 8039SOL    HW135750   1.981   3.846   2.860  1.1836 -1.9490 -0.8392
 8039SOL    HW235751   1.904   3.872   2.741 -0.0330 -0.3418  0.3873
 8040SOL     OW35752   2.060   0.793   5.450  0.6319  0.8280  0.0975
 8040SOL    HW135753   2.080   0.852   5.377  0.9444  2.4468  1.4963
 8040SOL    HW235754   2.002   0.838   5.511 -0.2792  0.2741 -0.3704
 8041SOL     OW35755   3.232   0.982  13.599 -0.0232  0.2846  0.1162
 8041SOL    HW135756   3.182   1.013  13.522 -0.6519 -1.8758 -0.3408
 8041SOL    HW235757   3.170   0.914  13.626  0.2927 -0.5335 -1.2237
 8042SOL     OW35758   0.813   2.681   1.739 -0.1777  0.4649 -0.2942
 8042SOL    HW135759   0.736   2.629   1.717  0.2303 -0.6984  1.0516
 8042SOL    HW235760   0.883   2.625   1.705  0.0772  1.4836 -1.4617
 8043SOL     OW35761   4.672   3.724   2.068 -0.8395  0.4952 -0.8275
 8043SOL    HW135762   4.716   3.717   2.152  0.1783 -2.4105 -1.5902
 8043SOL    HW235763   4.628   3.808   2.080  2.2279  1.8381  0.8845
 8044SOL     OW35764   4.325   4.480   6.664  0.2316  0.1251  0.0557
 8044SOL    HW135765   4.301   4.390   6.642  1.2774  0.1788 -1.3082
 8044SOL    HW235766   4.263   4.531   6.613  0.9648 -1.1410 -2.0828
 8045SOL     OW35767   3.683   2.879   3.067  0.0465 -0.5202 -0.1587
 8045SOL    HW135768   3.713   2.956   3.018  1.9297 -1.3240 -0.2513
 8045SOL    HW235769   3.761   2.837   3.103  1.2381  1.2315 -0.6823
 8046SOL     OW35770   0.819   0.431   3.449 -0.3736  0.4007  0.1885
 8046SOL    HW135771   0.907   0.417   3.415  0.2989  4.6564  0.1578
 8046SOL    HW235772   0.792   0.346   3.485  0.1526 -0.0403 -0.4518
 8047SOL     OW35773   1.806   4.636   3.864 -0.3487 -0.1240  0.3844
 8047SOL    HW135774   1.840   4.683   3.788 -1.4457 -0.3681 -0.2582
 8047SOL    HW235775   1.853   4.553   3.871  1.7991  1.1821  1.6411
 8048SOL     OW35776   1.423   2.144  12.645 -0.1274  0.2814 -0.5180
 8048SOL    HW135777   1.328   2.159  12.643 -0.5503 -2.4367 -0.1304
 8048SOL    HW235778   1.429   2.067  12.701  1.9348  0.6268 -0.2560
 8049SOL     OW35779   3.953   4.125  13.119 -0.1576 -0.5683 -0.1269
 8049SOL    HW135780   3.900   4.204  13.118 -1.2786 -1.3079  1.0611
 8049SOL    HW235781   3.924   4.081  13.039 -1.4910 -0.9171  0.5463
 8050SOL     OW35782   2.286   3.541   8.761  0.2968  0.7236 -0.4139
 8050SOL    HW135783   2.279   3.611   8.825  0.4149  3.2911 -3.2089
 8050SOL    HW235784   2.348   3.487   8.810  0.9458 -0.1598 -2.2110
 8051SOL     OW35785   3.611   2.758   1.526  0.3138 -0.4630  0.4575
 8051SOL    HW135786   3.632   2.707   1.448  2.0763  1.9709 -0.6516
 8051SOL    HW235787   3.694   2.786   1.565  1.7306 -1.5673 -1.7469
 8052SOL     OW35788   4.258   2.380   7.492  0.2647  0.2173 -0.1713
 8052SOL    HW135789   4.166   2.404   7.485 -0.2255 -1.8130 -0.6561
 8052SOL    HW235790   4.244   2.285   7.496 -0.7621  0.4531  1.6503
 8053SOL     OW35791   4.211   1.326   4.740  0.7074  0.8549 -0.0879
 8053SOL    HW135792   4.198   1.391   4.671 -0.7815  0.8436  0.1829
 8053SOL    HW235793   4.238   1.382   4.814 -1.3601  2.4395 -0.5321
 8054SOL     OW35794   2.937   4.092  13.810 -0.4998 -0.1268  0.5471
 8054SOL    HW135795   3.006   4.156  13.791 -1.6235  0.0274 -3.0691
 8054SOL    HW235796   2.950   4.024  13.744  0.2634 -1.0945  1.7080
 8055SOL     OW35797   1.553   0.695  16.967  0.0602 -0.3652  0.3331
 8055SOL    HW135798   1.553   0.687  16.872  1.2925 -0.0189  0.3015
 8055SOL    HW235799   1.592   0.613  16.997  0.6397 -0.1084  0.2725
 8056SOL     OW35800   2.695   4.368   1.037 -0.2101  0.4121  0.0006
 8056SOL    HW135801   2.680   4.463   1.042  0.8368  0.5765 -0.0169
 8056SOL    HW235802   2.758   4.356   1.109  0.1523 -1.4674 -0.6431
 8057SOL     OW35803   4.002   2.239   3.089  0.2327 -0.0252  0.0813
 8057SOL    HW135804   4.010   2.328   3.121  1.5587  0.3847 -1.4045
 8057SOL    HW235805   3.990   2.260   2.996  0.1897 -0.7221 -0.0712
 8058SOL     OW35806   0.861   4.522   7.033  0.0155 -0.4479  0.1379
 8058SOL    HW135807   0.849   4.467   7.110  0.2510  1.7620  1.7409
 8058SOL    HW235808   0.810   4.477   6.965  0.0443 -0.8618  0.3892
 8059SOL     OW35809   2.331   0.866   2.954  0.1107  0.1770  0.1594
 8059SOL    HW135810   2.277   0.942   2.974  0.0959  0.6825 -1.7931
 8059SOL    HW235811   2.374   0.843   3.037 -0.5258  1.0975  0.7474
 8060SOL     OW35812   3.919   1.270   7.247  0.0114  0.2126  0.1953
 8060SOL    HW135813   3.960   1.246   7.330 -0.5912  2.4950  1.1680
 8060SOL    HW235814   3.994   1.292   7.192 -0.0332  0.9849  0.4421
 8061SOL     OW35815   1.970   4.637   1.923 -0.1451 -0.1209 -0.1390
 8061SOL    HW135816   1.999   4.714   1.972 -2.0268  0.8359 -0.5266
 8061SOL    HW235817   1.883   4.652   1.885 -0.5653  0.4007  1.0425
 8062SOL     OW35818   3.827   2.493  16.748  0.1726  0.2238  0.2220
 8062SOL    HW135819   3.870   2.433  16.809  0.0934  0.2546  0.3076
 8062SOL    HW235820   3.896   2.557  16.728  0.4685 -0.4225 -0.7831
 8063SOL     OW35821   1.784   1.025   1.239 -0.1784 -0.5455  0.1450
 8063SOL    HW135822   1.878   1.030   1.224 -0.2730  2.9071  0.5845
 8063SOL    HW235823   1.769   1.111   1.280  1.1498  0.1221 -0.7430
 8064SOL     OW35824   0.448   3.299   8.094 -0.4514  0.5563  0.4110
 8064SOL    HW135825   0.396   3.288   8.014  0.7183  0.2760 -0.3112
 8064SOL    HW235826   0.504   3.221   8.095  1.7967  2.1522 -1.2854
 8065SOL     OW35827   4.259   1.589   4.615  0.3878  0.7142  0.1790
 8065SOL    HW135828   4.283   1.625   4.529 -0.8018  0.0832 -0.4217
 8065SOL    HW235829   4.307   1.645   4.676 -0.5261  1.7949 -0.0703
 8066SOL     OW35830   2.753   3.323   1.239 -0.5978  0.2036 -0.7333
 8066SOL    HW135831   2.754   3.351   1.331  1.5449  0.1763 -0.7589
 8066SOL    HW235832   2.703   3.243   1.257 -1.3822  0.8106 -0.2063
 8067SOL     OW35833   3.643   1.460   2.045 -0.6331 -0.2124  0.5152
 8067SOL    HW135834   3.721   1.409   2.069  0.0177  0.3557 -0.3652
 8067SOL    HW235835   3.612   1.437   1.957 -0.5276  2.5171 -0.2527
 8068SOL     OW35836   4.440   0.403  11.678  0.2015  0.2555  0.4150
 8068SOL    HW135837   4.455   0.487  11.721  1.2288 -0.1897  0.9113
 8068SOL    HW235838   4.527   0.365  11.690  0.8942  1.3655 -1.1659
 8069SOL     OW35839   3.882   2.893  11.830 -0.1853  0.7722 -0.7490
 8069SOL    HW135840   3.835   2.819  11.790  0.0337  0.6092 -0.7051
 8069SOL    HW235841   3.837   2.951  11.768 -1.4369  1.1555  0.5181
 8070SOL     OW35842   4.614   4.153   8.565 -0.3795  0.3321 -0.0997
 8070SOL    HW135843   4.700   4.113   8.583  0.0111 -0.0583 -2.7364
 8070SOL    HW235844   4.644   4.231   8.519 -1.3375  1.2616  0.8798
 8071SOL     OW35845   3.900   0.451   8.344 -0.5457  0.1116  0.1636
 8071SOL    HW135846   3.824   0.394   8.341  1.0665 -2.0218 -0.0561
 8071SOL    HW235847   3.960   0.417   8.278 -0.6219  0.0583  0.1228
 8072SOL     OW35848   1.677   4.512  16.486 -0.1252  0.2795  0.3120
 8072SOL    HW135849   1.704   4.426  16.519  0.8179  0.3760 -0.2075
 8072SOL    HW235850   1.765   4.547  16.474  0.9155 -2.5009 -0.2451
 8073SOL     OW35851   3.946   3.554   5.826 -0.6362  0.0971 -0.1152
 8073SOL    HW135852   3.852   3.574   5.823 -0.4004  1.4776  1.7450
 8073SOL    HW235853   3.935   3.467   5.862 -1.8945 -0.9595 -3.0192
 8074SOL     OW35854   3.941   4.148   7.665  0.4756 -0.1670  0.2644
 8074SOL    HW135855   3.906   4.068   7.626  0.5238  0.0830 -0.2874
 8074SOL    HW235856   4.004   4.162   7.594 -0.1519  0.0175 -0.2516
 8075SOL     OW35857   1.139   3.173  15.745  0.1744  0.0036  0.0512
 8075SOL    HW135858   1.165   3.217  15.826  1.0273 -1.2232  0.4571
 8075SOL    HW235859   1.226   3.136  15.731 -0.6933 -2.5955  1.6154
 8076SOL     OW35860   3.942   2.597  11.971  0.5562  0.1493  0.2837
 8076SOL    HW135861   3.981   2.595  11.884 -1.6471 -1.2463 -0.6652
 8076SOL    HW235862   4.002   2.549  12.028 -0.6942 -0.8755  0.7561
 8077SOL     OW35863   2.031   4.533   4.960  0.4716 -0.4117  0.2189
 8077SOL    HW135864   2.000   4.453   4.917  0.3168  1.0995 -2.4527
 8077SOL    HW235865   1.963   4.534   5.028  0.0585 -0.8581 -0.1894
 8078SOL     OW35866   3.459   1.829   3.834  0.2331  0.5056  0.4110
 8078SOL    HW135867   3.535   1.808   3.779  1.4719  1.7394  1.6531
 8078SOL    HW235868   3.386   1.785   3.791  0.6791  1.3896 -1.2701
 8079SOL     OW35869   0.353   4.652   9.068 -0.4987  0.0995 -0.6513
 8079SOL    HW135870   0.426   4.664   9.007 -1.3571  3.4968 -1.0029
 8079SOL    HW235871   0.382   4.581   9.127 -1.1360  0.6532  0.3325
 8080SOL     OW35872   0.005   4.284   6.338 -0.0104 -0.0827 -0.1506
 8080SOL    HW135873   4.717   4.193   6.332  0.6567 -0.2151 -1.2215
 8080SOL    HW235874   4.688   4.325   6.404  2.0106  1.2228  0.7857
 8081SOL     OW35875   4.152   2.427   2.497  0.6527  0.0475  0.0097
 8081SOL    HW135876   4.147   2.355   2.434  3.0203 -0.0167 -0.1117
 8081SOL    HW235877   4.178   2.502   2.444  0.5121  1.9674  2.6903
 8082SOL     OW35878   0.271   1.061   9.969  0.4165  0.2518 -0.3134
 8082SOL    HW135879   0.312   1.142   9.938  0.6229  0.4165  0.3787
 8082SOL    HW235880   0.180   1.082   9.991  0.5699  1.1761 -0.5635
 8083SOL     OW35881   1.705   1.585   6.662  0.0380 -0.0125  0.2507
 8083SOL    HW135882   1.666   1.671   6.681 -0.0865 -0.1177  0.4788
 8083SOL    HW235883   1.674   1.526   6.731  0.2908 -0.3338  0.0813
 8084SOL     OW35884   1.458   1.793  12.559  0.1873 -0.0989 -0.0833
 8084SOL    HW135885   1.492   1.829  12.478 -1.7862  1.2624 -0.3057
 8084SOL    HW235886   1.524   1.732  12.590  1.9108  1.7208 -0.1594
 8085SOL     OW35887   3.980   0.428   7.996  0.1736  0.3966 -0.0352
 8085SOL    HW135888   4.045   0.476   8.047  0.3763 -0.8827  0.8890
 8085SOL    HW235889   4.030   0.384   7.927 -0.7433 -0.7655  0.0591
 8086SOL     OW35890   4.369   1.149   5.226 -0.3993  0.1761 -0.0098
 8086SOL    HW135891   4.340   1.088   5.293  0.7195  0.0968  0.4134
 8086SOL    HW235892   4.315   1.128   5.150 -1.4443  0.0023  0.7976
 8087SOL     OW35893   4.690   0.935   4.412 -0.5598  0.1106  0.1700
 8087SOL    HW135894   0.016   0.995   4.378  0.3880 -1.4114 -0.6320
 8087SOL    HW235895   4.720   0.913   4.500  0.8970  1.1402 -0.0688
 8088SOL     OW35896   0.824   1.542  17.233 -0.0935  0.0576 -0.1087
 8088SOL    HW135897   0.749   1.600  17.219 -0.7068 -0.6738  0.1477
 8088SOL    HW235898   0.891   1.601  17.268  0.6800 -0.4974 -0.6517
 8089SOL     OW35899   2.892   0.895   6.231  0.0294  0.0267  0.0866
 8089SOL    HW135900   2.976   0.936   6.209  0.9216 -1.5990  0.5039
 8089SOL    HW235901   2.864   0.852   6.150  0.5818 -0.2300  0.0351
 8090SOL     OW35902   4.234   4.074   6.368  0.0280 -0.1011 -0.2109
 8090SOL    HW135903   4.291   4.011   6.324 -1.2352 -0.1641 -1.7719
 8090SOL    HW235904   4.166   4.007   6.377 -1.3074  1.4662  1.5749
 8091SOL     OW35905   4.060   3.209   1.621 -0.1291 -0.0444  0.1926
 8091SOL    HW135906   3.966   3.215   1.634  0.0241 -0.9216  1.6347
 8091SOL    HW235907   4.077   3.303   1.614 -1.3066  0.2277  1.1601
 8092SOL     OW35908   3.220   0.004  13.925  0.0019 -0.0969 -0.8280
 8092SOL    HW135909   3.225   0.083  13.872  2.5118  0.0994 -0.3034
 8092SOL    HW235910   3.228   4.668  13.867  1.7142  0.6057 -1.5048
 8093SOL     OW35911   0.639   4.078   2.421 -0.2631  0.4224 -0.7511
 8093SOL    HW135912   0.680   3.995   2.445 -0.4639  0.9174  1.3063
 8093SOL    HW235913   0.548   4.051   2.430  0.2555 -1.6149 -1.7554
 8094SOL     OW35914   3.980   3.589   6.555  0.2059 -0.4727 -0.6913
 8094SOL    HW135915   4.068   3.609   6.589  0.4638  0.7071 -2.0463
 8094SOL    HW235916   3.934   3.580   6.638 -0.4834 -1.0637 -1.1455
 8095SOL     OW35917   4.113   0.754  16.775 -0.2325 -0.1468  0.2434
 8095SOL    HW135918   4.079   0.834  16.814 -2.4755  0.0352 -2.0510
 8095SOL    HW235919   4.063   0.776  16.696 -1.8890  1.1295  1.6560
 8096SOL     OW35920   2.353   0.725   5.465 -0.6249  0.1015 -0.3176
 8096SOL    HW135921   2.392   0.812   5.461  1.8524 -1.0257 -0.2902
 8096SOL    HW235922   2.260   0.749   5.459 -0.3206  1.1530 -0.7021
 8097SOL     OW35923   4.406   4.209   7.290  0.5650  0.2999 -0.2356
 8097SOL    HW135924   4.404   4.118   7.320 -0.3839  1.2131  2.4477
 8097SOL    HW235925   4.483   4.238   7.339  0.0020  0.6572  0.4285
 8098SOL     OW35926   0.379   1.804   6.720 -0.0811  0.0740 -0.1117
 8098SOL    HW135927   0.469   1.807   6.689 -0.0547 -0.3821 -0.0826
 8098SOL    HW235928   0.362   1.894   6.747  0.4577 -1.0726  4.0339
 8099SOL     OW35929   3.486   4.251   2.034 -0.8308  0.2353  0.2501
 8099SOL    HW135930   3.431   4.249   2.112  3.3090 -1.9139  3.0848
 8099SOL    HW235931   3.500   4.346   2.028 -0.1590  0.2504  2.1858
 8100SOL     OW35932   2.323   4.558   9.192  0.1980  0.2333  0.2719
 8100SOL    HW135933   2.359   4.641   9.161 -0.3943  0.7384  0.9482
 8100SOL    HW235934   2.378   4.499   9.139  1.0874 -0.5088  2.0028
 8101SOL     OW35935   2.751   0.821   9.178  0.0276 -0.1147 -0.1907
 8101SOL    HW135936   2.784   0.899   9.134  0.9630 -2.7145 -4.1588
 8101SOL    HW235937   2.669   0.854   9.214  0.3604 -0.3570  0.8001
 8102SOL     OW35938   4.491   1.185   3.054 -0.3024 -0.0113 -0.2862
 8102SOL    HW135939   4.510   1.136   2.974 -0.8593 -0.5435 -0.0905
 8102SOL    HW235940   4.561   1.250   3.051 -0.8201  0.6480  1.5917
 8103SOL     OW35941   1.704   0.858   4.423 -0.2477  0.0382  0.0834
 8103SOL    HW135942   1.614   0.880   4.444  0.0625  0.4475  1.0258
 8103SOL    HW235943   1.695   0.772   4.383 -0.3140  0.8562 -1.6420
 8104SOL     OW35944   4.305   1.276   7.392 -0.3466  0.1472  0.5306
 8104SOL    HW135945   4.249   1.206   7.423 -0.0456 -0.0964  0.5289
 8104SOL    HW235946   4.352   1.246   7.314 -1.1470  0.3089 -0.0103
 8105SOL     OW35947   3.464   1.774   1.260  1.0205 -0.5572  0.1998
 8105SOL    HW135948   3.397   1.761   1.193  0.7486  0.0028  0.3629
 8105SOL    HW235949   3.394   1.800   1.320 -0.7507  0.7365 -2.4101
 8106SOL     OW35950   1.164   3.398  17.497  0.0677  0.3406  0.3388
 8106SOL    HW135951   1.158   3.331  17.565  1.7465  1.5749  1.6966
 8106SOL    HW235952   1.246   3.377  17.451  0.1844  3.8703 -1.1060
 8107SOL     OW35953   0.781   4.073  10.000 -0.3084  0.1841  0.9129
 8107SOL    HW135954   0.760   4.158  10.038 -1.6735 -0.4831  1.6531
 8107SOL    HW235955   0.768   4.091   9.907  0.3973 -0.0710  0.7639
 8108SOL     OW35956   3.177   4.539  14.135 -0.8483  0.3190  0.2253
 8108SOL    HW135957   3.138   4.625  14.147  1.9732  1.6658 -0.3430
 8108SOL    HW235958   3.262   4.565  14.171 -0.5305  0.5517 -0.7039
 8109SOL     OW35959   2.811   3.913   4.962 -0.0827 -0.5226 -0.6662
 8109SOL    HW135960   2.753   3.945   5.030  2.8147  0.1926  1.4745
 8109SOL    HW235961   2.826   4.001   4.927 -0.5501 -1.0142 -2.1022
 8110SOL     OW35962   2.747   0.017   6.770 -0.2314  0.4622  0.1443
 8110SOL    HW135963   2.819   4.711   6.812 -0.9783 -0.3722  0.5287
 8110SOL    HW235964   2.693   4.690   6.727 -1.6608  2.0335 -0.5641
 8111SOL     OW35965   2.438   3.842   9.833 -0.1721  0.5321  0.4608
 8111SOL    HW135966   2.370   3.851   9.900  0.0272 -2.3829  1.0572
 8111SOL    HW235967   2.518   3.863   9.881 -0.8427  1.3717  1.2119
 8112SOL     OW35968   3.708   2.119   1.759 -0.4699 -0.0205  0.0330
 8112SOL    HW135969   3.777   2.057   1.785 -2.8091 -1.3037  3.2561
 8112SOL    HW235970   3.660   2.050   1.713  1.6250  0.6236 -3.1128
 8113SOL     OW35971   2.848   1.387   8.104 -0.4188 -0.0911  0.6079
 8113SOL    HW135972   2.894   1.326   8.162  0.0081  0.7402  1.1331
 8113SOL    HW235973   2.915   1.451   8.080  0.4833 -0.8866  0.9938
 8114SOL     OW35974   0.947   0.679  14.661  1.1959 -0.7378 -0.1432
 8114SOL    HW135975   0.866   0.643  14.624  0.9210 -0.9442  0.6463
 8114SOL    HW235976   0.966   0.744  14.594  0.5427 -1.2636 -0.8460
 8115SOL     OW35977   4.564   3.822   7.014  0.1769  0.0873  0.5807
 8115SOL    HW135978   4.482   3.868   7.028 -0.6231 -0.8082 -1.0677
 8115SOL    HW235979   4.605   3.880   6.949  0.5425 -1.3495 -0.4846
 8116SOL     OW35980   0.087   0.754   4.818  0.0043 -0.5201 -0.2817
 8116SOL    HW135981   0.119   0.798   4.896 -1.4842 -0.3892  0.2418
 8116SOL    HW235982   0.116   0.665   4.841  0.6750  0.1731  1.4991
 8117SOL     OW35983   1.461   3.795  12.900  0.1349 -0.0805  0.2763
 8117SOL    HW135984   1.374   3.755  12.908  0.8853 -1.7752 -0.0787
 8117SOL    HW235985   1.470   3.793  12.804 -2.9033 -0.3368 -0.0144
 8118SOL     OW35986   3.382   3.346   4.582  0.9567 -0.8406  0.1872
 8118SOL    HW135987   3.392   3.331   4.676  2.1027  0.7933  0.3244
 8118SOL    HW235988   3.464   3.317   4.542  0.7984  0.6073 -1.1531
 8119SOL     OW35989   3.524   1.331   2.338  0.4395  0.0257 -0.1690
 8119SOL    HW135990   3.597   1.368   2.287 -0.3466  2.4755  0.5351
 8119SOL    HW235991   3.460   1.352   2.270 -2.4383 -0.9214  2.2729
 8120SOL     OW35992   0.320   1.664  10.495  0.1742 -0.5573  0.0933
 8120SOL    HW135993   0.369   1.707  10.425  0.2796 -1.0784 -0.1548
 8120SOL    HW235994   0.304   1.729  10.563  0.4096 -3.3457  2.8301
 8121SOL     OW35995   1.691   3.973   6.085  0.5491  0.3357  0.1958
 8121SOL    HW135996   1.611   3.942   6.043 -0.2116  0.8289  1.2858
 8121SOL    HW235997   1.673   3.998   6.176 -1.1518 -1.2426  0.2852
 8122SOL     OW35998   3.999   0.996   1.282  0.4675 -0.0334  0.1234
 8122SOL    HW135999   3.928   0.932   1.278  1.2336 -0.7389 -2.1581
 8122SOL    HW236000   4.038   0.997   1.195  0.8088  1.0357  0.2838
 8123SOL     OW36001   2.540   1.223  15.164 -0.3337 -0.4716 -0.0289
 8123SOL    HW136002   2.470   1.161  15.143 -1.3292  0.0855  1.6121
 8123SOL    HW236003   2.536   1.201  15.257 -0.8773 -0.6538 -0.0939
 8124SOL     OW36004   4.122   1.800  11.556  0.0858 -0.1591  0.4454
 8124SOL    HW136005   4.042   1.792  11.504  0.6811  2.0479 -0.8000
 8124SOL    HW236006   4.097   1.769  11.643  1.1628  1.4584  1.3376
 8125SOL     OW36007   0.535   4.538  11.641  0.0540 -0.0922 -0.2166
 8125SOL    HW136008   0.539   4.456  11.689  3.9310 -0.2366 -0.7750
 8125SOL    HW236009   0.629   4.556  11.645  0.1796 -0.6664 -0.6118
 8126SOL     OW36010   0.229   4.338   6.890  0.1837 -0.5158 -0.3219
 8126SOL    HW136011   0.206   4.245   6.885 -3.1449  0.2773  0.5368
 8126SOL    HW236012   0.279   4.346   6.809  1.6255 -0.8458  0.5197
 8127SOL     OW36013   4.007   1.282   8.089  0.0778  0.2991  0.2789
 8127SOL    HW136014   3.939   1.347   8.076  0.7800  1.2413  1.3670
 8127SOL    HW236015   4.085   1.338   8.087  0.8003 -0.7708 -2.2558
 8128SOL     OW36016   4.107   3.516   6.986  0.3391  0.1044  0.2752
 8128SOL    HW136017   4.013   3.503   6.973  0.8435 -0.9176 -2.3600
 8128SOL    HW236018   4.129   3.606   6.959 -1.8924  1.1765  1.9864
 8129SOL     OW36019   1.724   4.390   7.174 -0.2316  0.0281  0.6486
 8129SOL    HW136020   1.768   4.473   7.192 -0.3347  0.2533 -0.1197
 8129SOL    HW236021   1.734   4.355   7.262  0.0330  1.3249  1.1299
 8130SOL     OW36022   3.047   1.577   6.185 -0.3750 -0.5185 -0.4991
 8130SOL    HW136023   3.008   1.586   6.272 -1.7238 -1.3800 -1.0102
 8130SOL    HW236024   3.009   1.491   6.167 -1.1673 -0.2786  0.0399
 8131SOL     OW36025   1.653   1.051   6.416 -0.3149  0.3392  0.1057
 8131SOL    HW136026   1.671   1.128   6.362 -2.1107  0.2317 -0.6202
 8131SOL    HW236027   1.562   1.069   6.440 -0.3632 -2.1917  1.8122
 8132SOL     OW36028   1.750   0.242   9.279  0.3977 -0.1891  0.0382
 8132SOL    HW136029   1.815   0.254   9.209 -0.5189  2.1913 -0.4064
 8132SOL    HW236030   1.801   0.267   9.356  1.2441  0.7107 -0.8056
 8133SOL     OW36031   1.852   2.988   9.616 -0.0136 -1.0021 -0.3280
 8133SOL    HW136032   1.900   2.972   9.697 -4.0634 -1.2015  2.0864
 8133SOL    HW236033   1.869   2.906   9.570 -2.4458 -1.5947 -0.1686
 8134SOL     OW36034   3.852   4.328   1.840 -0.0452  0.0123  0.8414
 8134SOL    HW136035   3.795   4.265   1.886 -1.0612 -1.5364 -2.5566
 8134SOL    HW236036   3.910   4.269   1.792 -2.1811 -2.1496  0.9005
 8135SOL     OW36037   2.976   4.404   1.394  0.2301  0.7584  0.1092
 8135SOL    HW136038   3.025   4.323   1.379 -2.1377 -0.7007  0.3767
 8135SOL    HW236039   2.930   4.390   1.311  3.4988 -0.0247 -1.5933
 8136SOL     OW36040   1.640   3.187   7.679  0.4433 -0.5697  0.0804
 8136SOL    HW136041   1.573   3.210   7.743  0.7682 -3.3222  1.4380
 8136SOL    HW236042   1.631   3.095   7.705  1.0931 -0.3539  1.0606
 8137SOL     OW36043   4.367   3.378  17.352  0.2257 -0.0567 -0.4899
 8137SOL    HW136044   4.386   3.423  17.270  2.6460  0.6536  0.4549
 8137SOL    HW236045   4.274   3.401  17.365  0.4309 -0.8570  2.3795
 8138SOL     OW36046   1.751   3.739   2.726 -0.1103  0.2741  0.6292
 8138SOL    HW136047   1.788   3.665   2.774 -1.0171 -0.8657 -0.4606
 8138SOL    HW236048   1.677   3.748   2.786 -0.4385 -1.4963  0.4862
 8139SOL     OW36049   3.677   1.944   0.996 -0.1973  0.9189 -0.0292
 8139SOL    HW136050   3.669   2.027   1.044  0.1158  0.8565  0.1276
 8139SOL    HW236051   3.722   1.896   1.065  0.9657  0.6276 -0.9933
 8140SOL     OW36052   2.110   2.259   2.805 -0.2949 -0.5195 -0.4491
 8140SOL    HW136053   2.027   2.277   2.761 -1.5217 -0.8124  1.7894
 8140SOL    HW236054   2.166   2.284   2.732  1.7796 -1.6607  0.7448
 8141SOL     OW36055   0.398   4.411   3.487  0.3109 -0.0476  0.2124
 8141SOL    HW136056   0.458   4.400   3.413  0.0386 -2.1957  0.3102
 8141SOL    HW236057   0.358   4.496   3.470  0.9636  0.3542  0.7272
 8142SOL     OW36058   3.974   1.547   8.303 -0.4680 -0.2331 -0.6411
 8142SOL    HW136059   3.883   1.567   8.285 -0.5436  0.0055  0.0084
 8142SOL    HW236060   3.965   1.552   8.398  0.1532  0.2673 -0.6102
 8143SOL     OW36061   0.373   0.760   7.134 -0.2182  0.1163  0.5830
 8143SOL    HW136062   0.300   0.721   7.085  0.0331 -1.3895  1.4204
 8143SOL    HW236063   0.448   0.727   7.085 -0.3195 -0.5788  0.8871
 8144SOL     OW36064   1.665   3.889  14.995 -0.4022 -0.3450 -0.1811
 8144SOL    HW136065   1.666   3.839  14.914 -1.0919 -0.8555  0.1262
 8144SOL    HW236066   1.731   3.836  15.040  0.0422 -0.6795 -1.2253
 8145SOL     OW36067   2.048   0.439   2.013 -0.2300  0.1303 -0.0613
 8145SOL    HW136068   2.113   0.387   2.060 -1.7843 -0.7971  1.0082
 8145SOL    HW236069   2.087   0.454   1.926  0.6065  0.5941  0.3874
 8146SOL     OW36070   4.661   3.733  16.789  0.1112 -0.0610 -0.5887
 8146SOL    HW136071   4.651   3.643  16.759  0.2828 -0.0360 -0.7214
 8146SOL    HW236072   4.647   3.792  16.715 -0.7511 -0.0757 -0.4327
 8147SOL     OW36073   0.690   3.311   8.561 -0.0148  0.1271 -0.3055
 8147SOL    HW136074   0.695   3.260   8.642  0.6648  0.4024 -0.1705
 8147SOL    HW236075   0.733   3.391   8.591  1.1473 -0.2927 -0.8276
 8148SOL     OW36076   2.290   2.376  15.718  0.0342  0.1238 -0.1232
 8148SOL    HW136077   2.334   2.370  15.634 -1.8322  1.9122 -1.2252
 8148SOL    HW236078   2.297   2.284  15.744  0.2201 -0.9155 -3.9651
 8149SOL     OW36079   2.316   2.596   9.293 -0.6438  0.2049 -0.3516
 8149SOL    HW136080   2.221   2.610   9.285 -0.3961  0.8511 -2.0071
 8149SOL    HW236081   2.316   2.574   9.386  2.4113  0.6584 -0.2562
 8150SOL     OW36082   1.388   3.328   9.153 -0.3743 -0.1837  0.3105
 8150SOL    HW136083   1.338   3.356   9.076  0.2535 -0.1533 -0.0848
 8150SOL    HW236084   1.375   3.393   9.223 -2.1911 -1.1439  0.8626
 8151SOL     OW36085   0.797   4.551  17.119  0.3072  0.0362 -0.1795
 8151SOL    HW136086   0.821   4.567  17.028  1.4818  1.3366  0.3537
 8151SOL    HW236087   0.714   4.599  17.126  1.7118  2.7525 -2.4391
 8152SOL     OW36088   1.184   3.051   7.033  0.1028  0.5819  0.2870
 8152SOL    HW136089   1.123   3.117   7.001  2.4560  2.5150 -0.2035
 8152SOL    HW236090   1.188   3.063   7.127 -0.8283  0.7836  0.2963
 8153SOL     OW36091   2.163   2.269  11.335  0.3595 -0.5714  0.5850
 8153SOL    HW136092   2.218   2.289  11.410 -0.9244 -0.2867  1.4469
 8153SOL    HW236093   2.143   2.357  11.304  0.8458 -1.7751 -3.2187
 8154SOL     OW36094   3.535   0.359  12.017  0.0270  0.1145  0.2810
 8154SOL    HW136095   3.608   0.300  11.994  0.3581  1.0656 -1.1138
 8154SOL    HW236096   3.461   0.299  12.021 -0.1290  0.3088  0.3023
 8155SOL     OW36097   0.525   2.673   8.728 -0.0399  0.2562  0.2399
 8155SOL    HW136098   0.509   2.765   8.705  2.5875  0.9905  1.3092
 8155SOL    HW236099   0.609   2.659   8.684 -0.9122  1.6541 -1.8868
 8156SOL     OW36100   3.881   3.649  16.650 -0.3563  0.0906 -1.0506
 8156SOL    HW136101   3.799   3.699  16.653 -1.3161 -1.4076 -1.8273
 8156SOL    HW236102   3.936   3.715  16.690 -0.3699  1.6831 -3.6278
 8157SOL     OW36103   1.391   2.203  16.980 -0.1221  0.1491 -0.1619
 8157SOL    HW136104   1.340   2.122  16.978 -1.3587  0.8656  2.5152
 8157SOL    HW236105   1.473   2.165  17.011 -0.3649  0.0464  0.3524
 8158SOL     OW36106   1.766   4.737   8.080 -0.9378  0.2758 -0.5813
 8158SOL    HW136107   1.808   0.014   8.164  0.0407  0.9152 -1.1980
 8158SOL    HW236108   1.815   4.659   8.055  2.0307  2.2370 -0.8404
 8159SOL     OW36109   0.329   1.471   8.002  0.2282 -0.1445 -0.1232
 8159SOL    HW136110   0.287   1.392   8.036  0.8059  0.1329  1.2616
 8159SOL    HW236111   0.382   1.494   8.079 -0.1041  1.3302 -0.3427
 8160SOL     OW36112   1.619   3.058   9.039  0.0676 -0.3553  0.5324
 8160SOL    HW136113   1.552   2.990   9.044  0.0773 -0.3605  0.5834
 8160SOL    HW236114   1.597   3.108   9.117 -0.2895  1.3189 -0.6274
 8161SOL     OW36115   1.134   1.333   4.211 -0.1243 -0.0624  0.4394
 8161SOL    HW136116   1.118   1.345   4.305 -1.0934  2.6361 -0.0610
 8161SOL    HW236117   1.099   1.415   4.175 -0.5829 -1.0139 -1.2672
 8162SOL     OW36118   3.132   3.243   6.079 -0.4485  0.0591  0.2395
 8162SOL    HW136119   3.065   3.272   6.017 -0.1247  0.6310  0.1556
 8162SOL    HW236120   3.174   3.173   6.030 -0.1356  1.1075 -1.0014
 8163SOL     OW36121   2.604   3.964  17.703 -0.4092  0.4566 -0.7657
 8163SOL    HW136122   2.550   3.885  17.692  1.1605 -0.4936 -1.6121
 8163SOL    HW236123   2.576   3.987   0.033  3.1494  0.3750  0.3602
 8164SOL     OW36124   2.962   2.852   6.859 -0.0355  0.3028  0.1953
 8164SOL    HW136125   3.024   2.911   6.816  0.6562  0.8042  1.8658
 8164SOL    HW236126   2.899   2.920   6.882 -2.6446 -2.1710  0.3807
 8165SOL     OW36127   0.027   0.927   8.701 -0.2953  0.2652  0.3915
 8165SOL    HW136128   0.051   1.011   8.741  1.5601  0.0908 -0.3320
 8165SOL    HW236129   0.113   0.885   8.703 -0.6117 -0.3985  0.0006
 8166SOL     OW36130   2.395   0.567   1.092 -0.4891 -0.1635  0.5108
 8166SOL    HW136131   2.423   0.652   1.125 -1.4261  0.4885 -0.3423
 8166SOL    HW236132   2.341   0.543   1.167 -1.1379 -0.3269  0.0016
 8167SOL     OW36133   0.396   2.249   9.299 -0.2082  0.0853 -0.4359
 8167SOL    HW136134   0.380   2.325   9.243  1.0592  0.5576 -0.1489
 8167SOL    HW236135   0.486   2.227   9.275 -0.6663 -0.9640 -1.2086
 8168SOL     OW36136   0.151   1.433  11.831  0.3467  0.4211 -0.0342
 8168SOL    HW136137   0.138   1.450  11.738  0.4660 -1.6655 -0.4330
 8168SOL    HW236138   0.142   1.518  11.876  1.5370  1.0913 -1.0623
 8169SOL     OW36139   2.730   3.295   3.475  0.0216  0.0464 -0.1712
 8169SOL    HW136140   2.729   3.199   3.477 -0.1734  0.0403 -0.8283
 8169SOL    HW236141   2.640   3.317   3.500  1.5521  1.7420  3.9186
 8170SOL     OW36142   4.138   1.060  17.377  0.4863  0.0480 -0.2926
 8170SOL    HW136143   4.100   1.147  17.374  2.0530  0.7419  0.2378
 8170SOL    HW236144   4.216   1.081  17.429  0.3856  0.0914 -0.1602
 8171SOL     OW36145   3.956   2.439  14.755 -0.4215  0.2101 -0.2721
 8171SOL    HW136146   3.944   2.450  14.661  0.4032  0.6142 -0.3314
 8171SOL    HW236147   4.029   2.377  14.758 -1.0461 -0.6362 -2.0444
 8172SOL     OW36148   3.960   3.672  10.375  0.0464 -0.2549 -0.4372
 8172SOL    HW136149   3.879   3.706  10.413  0.5158 -0.5318  0.8072
 8172SOL    HW236150   4.015   3.652  10.450 -1.9554 -0.8155  0.8765
 8173SOL     OW36151   1.415   3.647   4.181 -0.4768 -0.4197 -0.3463
 8173SOL    HW136152   1.415   3.719   4.245 -0.0330  0.1562 -0.9995
 8173SOL    HW236153   1.508   3.643   4.158 -0.2723 -1.7941  0.7572
 8174SOL     OW36154   3.556   1.795   7.465  0.1420  0.0999  0.2594
 8174SOL    HW136155   3.499   1.871   7.481  0.2109  0.5297 -1.6135
 8174SOL    HW236156   3.492   1.723   7.464 -0.3685  0.5741 -0.5812
 8175SOL     OW36157   1.631   1.667  13.434  0.1921  0.1456  0.5281
 8175SOL    HW136158   1.706   1.659  13.375  0.4714 -1.0839  1.0520
 8175SOL    HW236159   1.564   1.681  13.367 -0.8856  2.0686  2.0445
 8176SOL     OW36160   2.847   3.340   3.942 -0.4980  0.1805  0.3115
 8176SOL    HW136161   2.781   3.362   4.008 -1.1392 -0.2658 -0.1801
 8176SOL    HW236162   2.925   3.329   3.997 -1.3604  2.9371  2.1166
 8177SOL     OW36163   2.619   4.394   7.176  0.0469 -0.1939  0.1909
 8177SOL    HW136164   2.537   4.344   7.175  1.7935 -3.0227 -0.4053
 8177SOL    HW236165   2.671   4.341   7.236  0.3844 -0.5936 -0.4589
 8178SOL     OW36166   2.930   4.419  14.141 -0.2326  0.1027 -0.2421
 8178SOL    HW136167   2.895   4.500  14.104 -0.3087  0.3575  0.3940
 8178SOL    HW236168   3.017   4.455  14.158  0.7713 -1.8410 -1.2422
 8179SOL     OW36169   4.316   1.912   5.180 -0.0981  0.4149  0.0103
 8179SOL    HW136170   4.303   1.968   5.257 -0.4218  1.1595 -0.5843
 8179SOL    HW236171   4.230   1.906   5.139  1.1440 -1.3607 -2.2693
 8180SOL     OW36172   0.397   2.796   4.376  0.3495  0.1745 -0.1918
 8180SOL    HW136173   0.427   2.723   4.429  0.3581  0.4411  0.1687
 8180SOL    HW236174   0.404   2.866   4.441 -0.2909  0.1922 -0.1357
 8181SOL     OW36175   3.359   2.722   3.706  0.7298  0.3635  0.0966
 8181SOL    HW136176   3.295   2.662   3.669 -0.2381  2.0666 -0.9813
 8181SOL    HW236177   3.300   2.780   3.754  0.1688 -0.2142  0.1158
 8182SOL     OW36178   3.771   1.085  17.414  0.0454 -0.2287  0.5860
 8182SOL    HW136179   3.682   1.103  17.443 -0.7980  0.2243 -2.2219
 8182SOL    HW236180   3.762   1.110  17.322 -1.5974  0.3884  0.9154
 8183SOL     OW36181   1.567   3.367   5.495 -0.3942 -0.2050 -0.2313
 8183SOL    HW136182   1.598   3.352   5.406 -0.4315 -0.7593 -0.1509
 8183SOL    HW236183   1.585   3.277   5.522 -0.6628 -0.0718  0.3900
 8184SOL     OW36184   0.072   1.629   3.295 -0.1890  0.4327 -0.1694
 8184SOL    HW136185   0.133   1.689   3.337  0.5044  1.2160 -2.2697
 8184SOL    HW236186   0.004   1.623   3.361  1.5284 -1.0861  1.4567
 8185SOL     OW36187   2.191   4.726  15.785  0.0788  0.5951  0.8061
 8185SOL    HW136188   2.127   4.693  15.722 -2.4855  0.7986  3.3576
 8185SOL    HW236189   2.249   4.650  15.781 -2.9182 -1.7504  2.1943
 8186SOL     OW36190   4.178   4.703   1.476  0.0694  0.4311 -0.4656
 8186SOL    HW136191   4.273   4.700   1.487  0.1087 -1.9271 -1.4984
 8186SOL    HW236192   4.171   4.735   1.386  0.3830  0.9812 -0.2893
 8187SOL     OW36193   1.150   0.322   9.535  0.0627  0.0429 -0.1838
 8187SOL    HW136194   1.149   0.395   9.597  1.5136 -1.6413  1.8357
 8187SOL    HW236195   1.244   0.321   9.514 -0.5683 -0.3842 -2.9915
 8188SOL     OW36196   2.969   2.179   4.266 -0.1850  0.0588  0.4115
 8188SOL    HW136197   3.060   2.158   4.287  0.1769 -1.0199 -2.2124
 8188SOL    HW236198   2.965   2.269   4.300  0.3156  0.3534 -0.2903
 8189SOL     OW36199   1.409   1.155  16.440  0.0350 -0.1547  0.2089
 8189SOL    HW136200   1.351   1.082  16.462  2.0919 -1.8332  0.0265
 8189SOL    HW236201   1.364   1.206  16.373  2.3120  0.8606 -0.5573
 8190SOL     OW36202   0.416   3.195   2.549 -0.3540 -0.3327  0.0466
 8190SOL    HW136203   0.334   3.208   2.595  0.8111  1.5733  1.5719
 8190SOL    HW236204   0.398   3.212   2.457  1.0288  3.2166  0.4571
 8191SOL     OW36205   0.096   2.214   4.135 -0.4734  0.2568 -0.6946
 8191SOL    HW136206   0.181   2.255   4.154 -0.4294 -0.0067 -0.3329
 8191SOL    HW236207   0.087   2.227   4.041  2.1386  0.3889 -0.9365
 8192SOL     OW36208   2.239   3.231  16.385  0.0498 -0.1423 -0.6337
 8192SOL    HW136209   2.323   3.264  16.352 -0.4679  1.5162 -0.3374
 8192SOL    HW236210   2.197   3.196  16.306  1.1957 -2.4878 -0.1928
 8193SOL     OW36211   0.926   2.889   1.887  0.1399 -0.3059  0.5087
 8193SOL    HW136212   1.014   2.869   1.919  0.6419  1.0119 -0.0708
 8193SOL    HW236213   0.902   2.804   1.850 -2.3906  0.6442 -0.0347
 8194SOL     OW36214   3.373   1.489   4.618  0.1161 -0.0877 -0.0454
 8194SOL    HW136215   3.407   1.517   4.533 -0.4038  1.9546  0.4219
 8194SOL    HW236216   3.343   1.401   4.597 -0.5403  0.1647 -0.1728
 8195SOL     OW36217   0.502   0.346  11.342 -0.3052 -0.0390  0.3915
 8195SOL    HW136218   0.506   0.435  11.308  2.0933  1.2393  4.0981
 8195SOL    HW236219   0.501   0.303  11.256  1.7602 -1.8474  1.2625
 8196SOL     OW36220   3.972   0.541  12.462 -0.0562  0.1817 -0.3562
 8196SOL    HW136221   4.067   0.547  12.470 -0.1178 -1.4835  1.5319
 8196SOL    HW236222   3.968   0.446  12.452 -0.4968  0.1718 -0.0611
 8197SOL     OW36223   2.167   3.213   1.196  0.0968  0.1907 -0.0548
 8197SOL    HW136224   2.174   3.187   1.288  2.1878 -4.3789 -1.5413
 8197SOL    HW236225   2.134   3.132   1.159  0.9748 -0.9411  1.6116
 8198SOL     OW36226   4.584   4.036   2.081 -0.5051 -0.4427  0.1173
 8198SOL    HW136227   4.560   4.063   2.169  0.5284 -1.5325  0.7328
 8198SOL    HW236228   4.678   4.031   2.099 -0.1780 -2.2105 -2.0317
 8199SOL     OW36229   0.720   1.315  15.129 -1.0378  0.2160 -0.2874
 8199SOL    HW136230   0.805   1.350  15.156 -1.0521  0.1606 -0.1724
 8199SOL    HW236231   0.669   1.396  15.140 -0.7950  0.3445 -0.1055
 8200SOL     OW36232   1.039   0.084   5.534 -0.3258 -0.8356 -0.3708
 8200SOL    HW136233   1.006   0.110   5.620  0.1408 -0.7769 -0.2130
 8200SOL    HW236234   1.046   4.730   5.549  2.9959 -0.7599 -1.4477
 8201SOL     OW36235   3.083   3.893   4.410  0.6075 -0.0463  0.0773
 8201SOL    HW136236   3.132   3.924   4.486  0.3820 -2.5135  1.2496
 8201SOL    HW236237   3.003   3.946   4.409 -0.4791 -1.6447  0.8974
 8202SOL     OW36238   1.836   3.419   2.419  0.1629 -0.1130  0.4236
 8202SOL    HW136239   1.778   3.368   2.363  1.0058 -2.0805  1.3570
 8202SOL    HW236240   1.835   3.509   2.384  0.8944 -0.7364 -1.1977
 8203SOL     OW36241   3.394   3.228   6.249 -0.4771 -0.4504  0.5090
 8203SOL    HW136242   3.323   3.164   6.247 -0.8534 -0.0611  1.3826
 8203SOL    HW236243   3.473   3.179   6.270  0.9508  1.7084  0.1772
 8204SOL     OW36244   2.683   3.247   6.076 -0.6084  0.6050  0.1442
 8204SOL    HW136245   2.700   3.162   6.036  0.4988 -0.3598  2.6625
 8204SOL    HW236246   2.589   3.252   6.061 -0.9966 -1.9097  1.8639
 8205SOL     OW36247   0.017   1.218   8.468  0.6513  0.0007 -0.4689
 8205SOL    HW136248   4.664   1.207   8.489  0.2512  1.6107 -1.3908
 8205SOL    HW236249   0.050   1.128   8.456 -0.0804 -0.1323 -1.5379
 8206SOL     OW36250   0.890   1.000   7.979 -0.0444  0.4353 -0.1960
 8206SOL    HW136251   0.903   1.052   7.899 -1.2491  0.5009 -0.3467
 8206SOL    HW236252   0.905   0.910   7.950 -0.0415 -0.0584  1.3355
 8207SOL     OW36253   1.549   2.761  17.318 -0.0419 -0.2651  0.4389
 8207SOL    HW136254   1.501   2.776  17.236 -1.2808  0.7455  1.3564
 8207SOL    HW236255   1.536   2.847  17.358  0.9787  1.2640 -2.4865
 8208SOL     OW36256   2.119   3.420   7.716  0.1407 -0.8581 -0.0525
 8208SOL    HW136257   2.077   3.349   7.668  0.8507 -0.0047 -1.9152
 8208SOL    HW236258   2.073   3.498   7.687  2.1496  0.7167  1.0056
 8209SOL     OW36259   4.303   4.617   5.227  0.1954 -0.7014  0.1845
 8209SOL    HW136260   4.248   4.581   5.158  0.9894 -0.4896 -0.5595
 8209SOL    HW236261   4.346   4.542   5.269 -0.6587 -2.0499 -1.3482
 8210SOL     OW36262   4.207   2.709  10.840  0.7716  0.0310  0.0172
 8210SOL    HW136263   4.225   2.796  10.875  0.4987 -1.0177  2.7431
 8210SOL    HW236264   4.113   2.713  10.821  0.9126 -0.4882 -0.8127
 8211SOL     OW36265   0.983   2.259   9.252 -0.3215 -0.4867  0.1624
 8211SOL    HW136266   1.057   2.226   9.201  1.7197  1.7345  1.6974
 8211SOL    HW236267   0.975   2.350   9.223  0.1955  0.3181  2.5237
 8212SOL     OW36268   3.139   0.410  16.210 -0.8332 -0.1265  0.1261
 8212SOL    HW136269   3.059   0.379  16.167 -1.0431 -0.1540  0.5375
 8212SOL    HW236270   3.182   0.466  16.146 -0.0752 -1.7086 -0.7619
 8213SOL     OW36271   2.643   2.053   3.545  0.0441 -0.4003 -0.2957
 8213SOL    HW136272   2.645   2.097   3.460 -2.0677  0.9155  0.3398
 8213SOL    HW236273   2.736   2.030   3.551  0.2360  0.1703 -1.0318
 8214SOL     OW36274   3.275   1.183   5.970  0.3112 -0.5691 -0.1770
 8214SOL    HW136275   3.254   1.204   6.061 -2.1336  2.0098 -1.3334
 8214SOL    HW236276   3.192   1.187   5.922  0.0527 -0.2834  0.2916
 8215SOL     OW36277   0.231   3.924   9.593 -0.0235 -0.0870 -0.4432
 8215SOL    HW136278   0.173   4.001   9.595 -2.9726 -2.2897 -1.0847
 8215SOL    HW236279   0.192   3.877   9.519  0.4907 -3.8443  1.7205
 8216SOL     OW36280   3.354   3.953  15.993 -0.0175  0.3151 -0.3410
 8216SOL    HW136281   3.259   3.945  15.984  0.1113  0.6474 -1.9854
 8216SOL    HW236282   3.352   4.037  16.040 -1.4147  0.2555 -0.3014
 8217SOL     OW36283   3.334   0.774   0.647  0.2824 -0.4316  0.5991
 8217SOL    HW136284   3.317   0.794   0.555 -0.1695  0.7740  0.9466
 8217SOL    HW236285   3.287   0.840   0.699 -1.0087 -0.2169 -0.8296
 8218SOL     OW36286   1.854   1.618  11.521  0.2517 -0.0463 -0.1954
 8218SOL    HW136287   1.924   1.662  11.472 -1.2533  0.9033 -1.4880
 8218SOL    HW236288   1.829   1.551  11.459 -0.4183  0.0488 -0.0264
 8219SOL     OW36289   3.963   2.100  17.356 -0.8783 -0.5133 -0.9567
 8219SOL    HW136290   3.939   2.101  17.263  0.5250 -0.5624 -1.3074
 8219SOL    HW236291   4.056   2.121  17.352 -0.8825 -0.0117  1.7008
 8220SOL     OW36292   3.927   0.468   3.327 -0.2493 -0.1450  0.4064
 8220SOL    HW136293   3.999   0.489   3.387 -0.6128  1.3153  0.3368
 8220SOL    HW236294   3.966   0.502   3.246  0.8904  2.6868  2.1574
 8221SOL     OW36295   0.317   0.734   6.551  0.0038 -0.3381  0.6809
 8221SOL    HW136296   0.318   0.646   6.513  2.3397 -1.3583  3.0142
 8221SOL    HW236297   0.380   0.785   6.500 -1.0788  2.3966  2.0469
 8222SOL     OW36298   2.110   3.742   1.287 -0.3897  0.4361 -0.1349
 8222SOL    HW136299   2.037   3.771   1.232  0.5398  1.0178 -1.0656
 8222SOL    HW236300   2.078   3.653   1.299 -0.7840  0.6300  0.2561
 8223SOL     OW36301   1.476   1.791   4.165  0.0820  0.0754  0.3809
 8223SOL    HW136302   1.438   1.753   4.245  0.7183 -1.6286 -0.1286
 8223SOL    HW236303   1.562   1.749   4.158 -1.5020 -3.1026  0.0179
 8224SOL     OW36304   1.901   3.854   7.511 -0.5712  0.0421  0.4283
 8224SOL    HW136305   1.837   3.889   7.449  1.2048  1.7335 -0.4903
 8224SOL    HW236306   1.983   3.876   7.466 -0.6619 -0.0884  0.1974
 8225SOL     OW36307   0.009   1.248   2.446  0.3595  0.1530  0.0979
 8225SOL    HW136308   4.660   1.219   2.464  0.7967 -0.6192  1.0527
 8225SOL    HW236309   0.011   1.343   2.460 -1.7336  0.1300  0.5799
 8226SOL     OW36310   4.227   1.188   8.723 -0.3606 -0.1370  0.6161
 8226SOL    HW136311   4.242   1.278   8.693 -2.6769 -0.2668 -0.9362
 8226SOL    HW236312   4.306   1.149   8.686 -1.7803 -2.4650  0.0325
 8227SOL     OW36313   3.599   1.351   6.944 -0.5867 -0.6366  0.6526
 8227SOL    HW136314   3.616   1.341   7.038  1.7749 -1.4365  0.1472
 8227SOL    HW236315   3.564   1.440   6.939 -0.8028 -0.8518 -1.7648
 8228SOL     OW36316   3.641   2.618   6.080 -0.4680 -0.0918  0.1437
 8228SOL    HW136317   3.626   2.527   6.107  0.2022 -0.7180 -1.5890
 8228SOL    HW236318   3.720   2.642   6.128 -0.9820 -1.2528  1.5840
 8229SOL     OW36319   0.700   0.351  15.976  0.5008 -0.3116  0.0563
 8229SOL    HW136320   0.738   0.266  15.997 -0.3468 -0.9990 -1.1865
 8229SOL    HW236321   0.744   0.404  16.042  1.3276  0.4221 -1.0839
 8230SOL     OW36322   1.645   1.507  14.398  0.8031 -0.4123  0.4588
 8230SOL    HW136323   1.711   1.551  14.452  0.2309  0.9464  0.0502
 8230SOL    HW236324   1.588   1.583  14.382 -1.6050 -2.3556 -0.1514
 8231SOL     OW36325   4.260   0.847  13.067 -0.3303  0.0474  0.4704
 8231SOL    HW136326   4.254   0.758  13.102 -0.0218  0.4749  1.6277
 8231SOL    HW236327   4.268   0.904  13.144 -0.0578 -2.1722  2.0932
 8232SOL     OW36328   3.320   4.276   5.183 -0.3683 -0.3520 -0.1979
 8232SOL    HW136329   3.229   4.296   5.160  0.0940  0.3261 -1.4909
 8232SOL    HW236330   3.358   4.357   5.215  1.6465 -1.6434  0.6453
 8233SOL     OW36331   3.884   4.192   5.541  0.0551 -0.1872 -0.0657
 8233SOL    HW136332   3.937   4.113   5.530 -0.3513 -0.9218  3.1452
 8233SOL    HW236333   3.825   4.175   5.468 -1.3385  1.3804  0.6991
 8234SOL     OW36334   2.893   4.384  10.554 -0.3896 -0.6178  0.1487
 8234SOL    HW136335   2.984   4.390  10.581 -0.2729 -0.5699 -0.2605
 8234SOL    HW236336   2.904   4.386  10.459 -2.0447 -2.4026 -0.0792
 8235SOL     OW36337   2.045   2.246  16.574  0.3938 -0.4283 -0.1803
 8235SOL    HW136338   2.132   2.235  16.612 -0.7551  0.7003  2.7412
 8235SOL    HW236339   2.002   2.316  16.623  1.2138 -0.5914  0.7716
 8236SOL     OW36340   2.357   3.996   7.263  0.0571  0.0983 -0.1475
 8236SOL    HW136341   2.371   4.074   7.317  1.9299 -0.6799  0.4924
 8236SOL    HW236342   2.437   3.984   7.212 -0.1675 -1.9662 -0.0062
 8237SOL     OW36343   1.584   1.352   0.714  0.5338 -0.1418 -0.3174
 8237SOL    HW136344   1.529   1.275   0.724  0.5369 -0.0408  0.4846
 8237SOL    HW236345   1.626   1.333   0.631  1.4854  1.2818 -0.1787
 8238SOL     OW36346   0.484   3.035   3.288 -0.2593 -1.0908 -0.1156
 8238SOL    HW136347   0.478   3.093   3.364 -1.3293 -0.9956 -0.2796
 8238SOL    HW236348   0.406   3.076   3.251  0.9328  1.0442 -0.3092
 8239SOL     OW36349   4.505   1.092   2.756 -0.9680  0.6091 -0.1149
 8239SOL    HW136350   4.419   1.049   2.752 -1.3679  1.5445 -1.5851
 8239SOL    HW236351   4.546   1.016   2.715 -1.0889  0.0670  0.7676
 8240SOL     OW36352   2.407   2.699   2.856 -0.1700  0.3312  0.4666
 8240SOL    HW136353   2.400   2.604   2.868  3.0174  0.0138 -0.0205
 8240SOL    HW236354   2.323   2.731   2.887 -1.3363 -0.2630 -2.0315
 8241SOL     OW36355   4.141   0.534   1.805  0.0698  0.1160  0.4856
 8241SOL    HW136356   4.085   0.456   1.805  0.2757 -0.0353 -2.2702
 8241SOL    HW236357   4.154   0.534   1.900  4.5061  1.7985 -0.1384
 8242SOL     OW36358   1.971   2.092  11.742 -0.4374 -0.0681  0.2580
 8242SOL    HW136359   1.932   2.150  11.677  0.8145 -2.0006 -2.2059
 8242SOL    HW236360   2.057   2.081  11.703 -0.4432 -1.1301  0.5494
 8243SOL     OW36361   3.071   2.833   0.089  0.1527 -0.3371  0.0307
 8243SOL    HW136362   3.068   2.888   0.010 -1.0518 -2.1323 -1.1707
 8243SOL    HW236363   2.977   2.837   0.109  0.1636  1.4489 -0.2770
 8244SOL     OW36364   3.231   0.960   1.183  0.3181  0.3420 -0.0866
 8244SOL    HW136365   3.247   1.029   1.248  0.3523  0.7850 -0.5567
 8244SOL    HW236366   3.220   0.876   1.227  2.2601 -0.2028 -0.6392
 8245SOL     OW36367   3.913   4.373   5.120  0.0965 -0.2423  0.1265
 8245SOL    HW136368   3.999   4.409   5.141 -0.7065 -0.3192  3.6516
 8245SOL    HW236369   3.937   4.284   5.096 -1.0714 -0.5756  0.1801
 8246SOL     OW36370   3.017   0.274   4.888 -0.2913  0.2349 -0.6226
 8246SOL    HW136371   2.973   0.266   4.972  1.9583 -2.0291  0.3466
 8246SOL    HW236372   3.101   0.319   4.900  0.4182 -0.6390 -2.2378
 8247SOL     OW36373   0.153   0.172   3.984 -0.1426  0.4127  0.2727
 8247SOL    HW136374   0.093   0.134   4.048  0.3397 -1.5794 -0.4758
 8247SOL    HW236375   0.094   0.239   3.947 -0.8465 -0.7203 -0.6483
 8248SOL     OW36376   1.038   1.445   6.179 -0.3203  0.1743 -0.4349
 8248SOL    HW136377   0.989   1.366   6.153 -3.1805  1.0155  2.3923
 8248SOL    HW236378   1.009   1.472   6.266 -0.9541 -2.6290  0.2266
 8249SOL     OW36379   0.403   2.666   4.139 -0.3567 -0.2575  0.1847
 8249SOL    HW136380   0.385   2.729   4.208 -2.3266 -0.0479 -0.5214
 8249SOL    HW236381   0.499   2.670   4.134 -0.3007 -0.0553  1.6111
 8250SOL     OW36382   1.860   1.204   5.404  0.4957 -0.7102  0.3938
 8250SOL    HW136383   1.845   1.190   5.311 -0.1116  0.2401  0.3487
 8250SOL    HW236384   1.771   1.186   5.433  0.2756 -0.2445  0.0128
 8251SOL     OW36385   3.707   3.921   9.726 -0.0786 -0.4822 -0.6583
 8251SOL    HW136386   3.752   3.837   9.727  1.3813  0.2852 -0.9871
 8251SOL    HW236387   3.735   3.949   9.639  0.3184  1.2125  0.0010
 8252SOL     OW36388   4.131   3.647   2.783  0.5526 -0.0727  0.3838
 8252SOL    HW136389   4.063   3.593   2.823  0.2587 -0.1210 -0.1814
 8252SOL    HW236390   4.173   3.584   2.725 -0.3977 -1.4558  1.1924
 8253SOL     OW36391   3.182   4.371   2.926  0.8033 -0.4857 -0.1281
 8253SOL    HW136392   3.118   4.431   2.886 -0.1624 -0.9664  0.6977
 8253SOL    HW236393   3.129   4.317   2.984  0.1675  0.8319  0.5332
 8254SOL     OW36394   4.277   2.560   1.817 -0.3079  0.3325  0.5827
 8254SOL    HW136395   4.282   2.656   1.814  0.2315  0.3660  2.1290
 8254SOL    HW236396   4.200   2.532   1.769  1.1479 -1.7225 -0.5332
 8255SOL     OW36397   4.257   3.985   9.141  0.6582  0.0425 -0.1533
 8255SOL    HW136398   4.218   3.914   9.090 -1.5965  0.9302  0.3392
 8255SOL    HW236399   4.333   4.001   9.086  0.4752 -0.6418 -0.6000
 8256SOL     OW36400   1.494   3.138   6.538 -0.1499  0.3828 -0.1913
 8256SOL    HW136401   1.539   3.122   6.455 -0.4807  1.0709 -0.5065
 8256SOL    HW236402   1.574   3.149   6.589 -1.7235  0.3498  2.3071
 8257SOL     OW36403   2.376   2.091   0.773 -0.6312  0.4375  0.2330
 8257SOL    HW136404   2.326   2.170   0.755 -0.8535  0.7263  2.1121
 8257SOL    HW236405   2.316   2.052   0.836  0.4951 -3.2415 -1.0002
 8258SOL     OW36406   4.727   2.544   4.467 -0.1748 -0.0500  0.0650
 8258SOL    HW136407   0.052   2.525   4.399  1.4141 -1.9117  2.1398
 8258SOL    HW236408   4.672   2.467   4.450 -0.0402  0.5069 -2.9761
 8259SOL     OW36409   3.435   1.671   0.450 -0.3613 -0.4241  0.4184
 8259SOL    HW136410   3.529   1.686   0.456 -0.3727  0.4745 -1.6910
 8259SOL    HW236411   3.414   1.747   0.396 -2.0827  0.2046  1.9754
 8260SOL     OW36412   0.292   3.726   8.934 -0.2029 -0.3485 -0.0933
 8260SOL    HW136413   0.317   3.636   8.956  0.2634  0.5124  2.9848
 8260SOL    HW236414   0.260   3.709   8.846 -1.0496 -0.4008  0.2190
 8261SOL     OW36415   3.861   0.840   2.515 -0.2029  0.0474  0.2559
 8261SOL    HW136416   3.785   0.896   2.530 -0.0373  0.9758 -2.3586
 8261SOL    HW236417   3.925   0.907   2.534  1.0125 -1.1115  0.2765
 8262SOL     OW36418   1.049   1.884   7.315  0.3101 -0.1422  0.0925
 8262SOL    HW136419   1.103   1.855   7.388  0.6372 -2.0788 -0.9273
 8262SOL    HW236420   0.969   1.843   7.347 -1.6131  3.8446  0.4777
 8263SOL     OW36421   4.383   0.030   3.434 -0.1544 -0.2433 -0.8466
 8263SOL    HW136422   4.365   0.014   3.527 -1.1219  1.7420 -0.6897
 8263SOL    HW236423   4.309   0.087   3.410  0.2571  0.9093  0.6138
 8264SOL     OW36424   4.461   2.874   7.492  0.0618 -0.8329 -0.0857
 8264SOL    HW136425   4.423   2.908   7.412 -1.6573  0.3781  1.2362
 8264SOL    HW236426   4.511   2.804   7.451  1.7340  0.1822  0.2417
 8265SOL     OW36427   2.522   4.294  11.708 -1.1075  0.0601  0.2026
 8265SOL    HW136428   2.531   4.275  11.801 -0.1548 -0.6890 -0.0417
 8265SOL    HW236429   2.445   4.246  11.676 -1.5877  1.5300 -0.8215
 8266SOL     OW36430   4.613   0.731   0.482 -0.6896  0.0550  0.1038
 8266SOL    HW136431   4.649   0.730   0.393  0.6338 -0.3135  0.6373
 8266SOL    HW236432   4.559   0.653   0.474  1.3743 -1.2763 -0.9127
 8267SOL     OW36433   3.367   1.679   9.619 -0.1550  0.2998 -0.4057
 8267SOL    HW136434   3.334   1.639   9.700 -4.4756  1.7872 -1.4430
 8267SOL    HW236435   3.446   1.630   9.594  0.8793  0.6644  2.1446
 8268SOL     OW36436   3.093   1.023   5.612 -0.3462 -0.1911  0.2890
 8268SOL    HW136437   3.149   1.099   5.625 -2.7068  1.6077  0.1681
 8268SOL    HW236438   3.111   0.988   5.699  0.4723 -1.3265 -0.3398
 8269SOL     OW36439   0.440   0.456   2.934  0.4054 -0.1405 -0.1228
 8269SOL    HW136440   0.455   0.545   2.903  1.1206 -0.0760  0.3936
 8269SOL    HW236441   0.476   0.409   2.858  1.6475  1.3836 -0.4664
 8270SOL     OW36442   0.209   4.604   8.418  0.4123  0.0522 -0.7115
 8270SOL    HW136443   0.176   4.591   8.507  0.8279 -3.3050 -1.0423
 8270SOL    HW236444   0.223   4.511   8.399 -3.6926 -0.5893 -0.6608
 8271SOL     OW36445   4.508   3.449   3.371 -0.4654  0.1190 -0.4384
 8271SOL    HW136446   4.482   3.413   3.286  2.6290  1.0775 -1.8006
 8271SOL    HW236447   4.588   3.488   3.336  0.3346 -3.0531 -2.2189
 8272SOL     OW36448   0.158   1.853   4.161 -0.3002  0.3360 -0.3472
 8272SOL    HW136449   0.067   1.825   4.170  0.2779 -0.7910  2.0166
 8272SOL    HW236450   0.159   1.919   4.230 -0.6958  0.5573 -0.5529
 8273SOL     OW36451   3.149   2.708   2.243  0.5878  0.0799  0.8893
 8273SOL    HW136452   3.130   2.678   2.332 -1.9097 -2.2537 -0.4449
 8273SOL    HW236453   3.174   2.622   2.210  1.3704 -0.5217  3.0648
 8274SOL     OW36454   3.002   2.085  12.307  0.6753  0.1918  0.0244
 8274SOL    HW136455   3.012   2.180  12.307 -0.8267  0.3469  0.6020
 8274SOL    HW236456   2.991   2.052  12.218 -0.1579  2.9298 -0.8784
 8275SOL     OW36457   0.175   3.885   7.466 -0.5103 -0.0256 -0.4508
 8275SOL    HW136458   0.165   3.789   7.461  1.3935 -0.1789 -1.4190
 8275SOL    HW236459   0.190   3.883   7.561  0.0821 -1.0069 -0.5593
 8276SOL     OW36460   3.387   2.618   8.303  0.2555  0.2219  0.0810
 8276SOL    HW136461   3.333   2.694   8.323  1.4267  1.5069 -1.5810
 8276SOL    HW236462   3.356   2.554   8.367 -0.7961  1.1900  0.5310
 8277SOL     OW36463   4.228   0.982   2.757 -0.0770  0.2728  0.3498
 8277SOL    HW136464   4.224   0.891   2.729  0.3243  0.5484 -0.6222
 8277SOL    HW236465   4.154   1.015   2.705 -0.6199  0.9755  1.5795
 8278SOL     OW36466   2.195   0.332   9.208 -0.2888  0.6143  0.2324
 8278SOL    HW136467   2.273   0.353   9.258 -0.2978  0.8694  0.1378
 8278SOL    HW236468   2.233   0.292   9.130  0.6193  0.9194  0.5184
 8279SOL     OW36469   3.303   4.151   3.412  0.4509  0.1826  0.3098
 8279SOL    HW136470   3.259   4.083   3.463  0.5483 -1.4629 -1.8331
 8279SOL    HW236471   3.349   4.102   3.345  1.2406  1.8766 -0.3980
 8280SOL     OW36472   1.072   0.664  14.899 -0.9025  0.3082 -0.4253
 8280SOL    HW136473   1.062   0.749  14.941  0.7826  0.0605  0.4991
 8280SOL    HW236474   1.006   0.665  14.830 -2.5449 -3.0074  1.1178
 8281SOL     OW36475   0.364   4.034  13.027  0.2339 -0.0997  0.1247
 8281SOL    HW136476   0.405   4.100  13.083 -0.6049 -1.2823  2.1268
 8281SOL    HW236477   0.314   4.083  12.962 -2.9497  0.5435  3.0351
 8282SOL     OW36478   0.737   1.610   4.414 -0.6257 -0.0627 -0.0096
 8282SOL    HW136479   0.710   1.552   4.344  1.1329  0.8846 -1.4761
 8282SOL    HW236480   0.662   1.597   4.471 -1.3327 -0.4010 -1.0266
 8283SOL     OW36481   4.225   0.404   8.495  0.1931 -0.1558  0.1937
 8283SOL    HW136482   4.137   0.398   8.458  0.7389 -1.6198 -0.8787
 8283SOL    HW236483   4.273   0.335   8.449 -0.8273 -0.1598 -0.8545
 8284SOL     OW36484   4.586   2.506   5.595 -0.1503 -0.2705 -0.4010
 8284SOL    HW136485   4.572   2.429   5.650  2.4201 -0.6248 -0.2492
 8284SOL    HW236486   4.659   2.551   5.636 -2.8464  3.4564  0.3430
 8285SOL     OW36487   0.174   1.183  15.255 -0.3696 -0.6347 -0.2936
 8285SOL    HW136488   0.140   1.198  15.167  0.6026  1.3545 -0.3217
 8285SOL    HW236489   0.157   1.089  15.265  1.3168 -1.1434 -2.3449
 8286SOL     OW36490   3.966   4.298   3.984  0.5649  0.4690  0.1355
 8286SOL    HW136491   3.916   4.358   3.929 -1.0373 -1.9582 -1.0614
 8286SOL    HW236492   4.038   4.354   4.011  1.0680 -1.5684  2.9503
 8287SOL     OW36493   4.053   2.474  15.033 -0.4796  0.5640  0.0511
 8287SOL    HW136494   4.007   2.492  14.952 -0.9690  0.7987  0.3789
 8287SOL    HW236495   3.980   2.444  15.088  0.5138 -2.1589 -0.1469
 8288SOL     OW36496   1.279   3.503   6.241  0.0233 -0.2140 -0.3866
 8288SOL    HW136497   1.260   3.421   6.288 -3.4638 -1.0351 -3.1795
 8288SOL    HW236498   1.286   3.563   6.315  1.0591 -0.2975 -0.4256
 8289SOL     OW36499   3.828   3.411   4.439 -0.0506  0.2640 -0.5483
 8289SOL    HW136500   3.752   3.365   4.475 -0.1937  0.2980 -0.8063
 8289SOL    HW236501   3.781   3.481   4.394 -0.7761  1.1808  1.6818
 8290SOL     OW36502   4.049   1.857   8.342 -0.3957  0.2010  0.4176
 8290SOL    HW136503   4.050   1.774   8.294  0.6561 -0.6788  1.9716
 8290SOL    HW236504   4.094   1.841   8.425  0.8659  0.6127 -0.1921
 8291SOL     OW36505   3.561   0.398   9.507  0.2958  0.1266  0.2904
 8291SOL    HW136506   3.467   0.388   9.492 -0.2628  3.2363  1.6986
 8291SOL    HW236507   3.597   0.311   9.525  1.1016  0.3101 -0.4345
 8292SOL     OW36508   4.487   4.683   5.967  0.1961 -0.2488 -0.4441
 8292SOL    HW136509   4.406   4.633   5.965  0.3179 -0.4525 -0.2336
 8292SOL    HW236510   4.550   4.612   5.960  0.8559 -0.0564  3.5105
 8293SOL     OW36511   4.645   3.909   0.555 -0.4739 -0.9060 -0.8486
 8293SOL    HW136512   4.602   3.832   0.591 -1.0771 -1.0604 -1.8817
 8293SOL    HW236513   4.738   3.901   0.577 -0.1750  2.9784 -0.6464
 8294SOL     OW36514   3.241   3.055  10.200  0.4280 -0.8606 -0.3112
 8294SOL    HW136515   3.201   2.969  10.214 -1.1207 -0.7601 -4.1705
 8294SOL    HW236516   3.291   3.059  10.282  0.3404  1.8261 -0.3768
 8295SOL     OW36517   2.614   3.822  15.264  0.1388  0.2134  0.1045
 8295SOL    HW136518   2.530   3.845  15.226  1.1555 -0.6529 -2.6879
 8295SOL    HW236519   2.604   3.883  15.337  1.1846  1.2186 -0.5809
 8296SOL     OW36520   0.949   2.897  14.694  0.2204  0.4592  0.2810
 8296SOL    HW136521   0.915   2.808  14.690  0.9247  0.0355  3.5598
 8296SOL    HW236522   1.016   2.899  14.626 -0.2932  0.9447 -0.2163
 8297SOL     OW36523   4.525   0.008   9.625 -0.1043  0.0583  0.2279
 8297SOL    HW136524   4.543   4.657   9.604 -1.9640 -0.5297  1.1330
 8297SOL    HW236525   4.584   0.019   9.700 -0.6301 -1.8640  0.9250
 8298SOL     OW36526   4.621   0.551   7.665  0.0668  0.1153 -0.0912
 8298SOL    HW136527   4.711   0.533   7.638 -0.3833  1.2452 -2.3880
 8298SOL    HW236528   4.587   0.609   7.597 -1.7347 -0.3020  0.4735
 8299SOL     OW36529   0.679   4.626   3.388 -0.3940 -0.1722  0.1275
 8299SOL    HW136530   0.772   4.602   3.385 -0.7239 -1.5167  0.3574
 8299SOL    HW236531   0.645   4.542   3.356 -1.1051 -0.9488  2.9253
 8300SOL     OW36532   1.473   4.560   6.115  0.5888 -0.2374  0.1317
 8300SOL    HW136533   1.504   4.471   6.128 -0.8125 -1.0016 -1.8895
 8300SOL    HW236534   1.523   4.603   6.184 -0.2680 -0.0576  0.6425
 8301SOL     OW36535   3.955   1.279   6.365  0.7444 -0.7461 -0.0104
 8301SOL    HW136536   3.966   1.253   6.273  0.4359 -0.0376 -0.2498
 8301SOL    HW236537   4.046   1.266   6.392  0.8569 -0.7155 -0.3754
 8302SOL     OW36538   4.189   0.090   6.661  0.6437 -0.1144  0.7481
 8302SOL    HW136539   4.187   0.186   6.661  1.2173 -0.0896  2.1907
 8302SOL    HW236540   4.133   0.078   6.585  2.0771 -1.8315 -0.0320
 8303SOL     OW36541   0.277   3.930   3.015 -0.2233 -0.0716  0.0328
 8303SOL    HW136542   0.218   3.861   2.984 -4.8804  3.7277  0.3897
 8303SOL    HW236543   0.359   3.912   2.969 -1.1101 -0.9262 -1.2390
 8304SOL     OW36544   2.247   1.086   7.099 -0.0772 -0.4248  0.2445
 8304SOL    HW136545   2.172   1.036   7.066 -0.6404  0.9037 -0.4652
 8304SOL    HW236546   2.244   1.066   7.193  0.1285 -0.1245  0.3110
 8305SOL     OW36547   0.066   0.530   8.422 -0.1788 -0.0311  0.6785
 8305SOL    HW136548   4.737   0.530   8.356  0.4051  0.6842  0.0620
 8305SOL    HW236549   0.005   0.515   8.494 -2.0314 -2.3212 -1.3642
 8306SOL     OW36550   3.915   4.254   1.146 -0.2391 -0.0074  0.1221
 8306SOL    HW136551   3.850   4.320   1.172 -0.1482  0.1162  0.0393
 8306SOL    HW236552   3.992   4.309   1.134 -0.0485 -0.6914 -1.8160
 8307SOL     OW36553   4.618   2.971   3.343  0.0226 -0.0910 -0.5235
 8307SOL    HW136554   4.671   2.892   3.350  0.8265  0.4515 -0.5119
 8307SOL    HW236555   4.660   3.048   3.382  0.1643 -0.0174 -0.8178
 8308SOL     OW36556   2.906   3.072   3.909 -0.4843 -0.2101  0.2469
 8308SOL    HW136557   2.884   3.165   3.901  0.9455  0.3076  2.5027
 8308SOL    HW236558   2.831   3.036   3.957  0.3363 -1.3094  0.7035
 8309SOL     OW36559   2.216   2.268   4.565 -0.4337  0.1688 -0.1222
 8309SOL    HW136560   2.240   2.280   4.657  1.4280  0.6760 -0.6893
 8309SOL    HW236561   2.185   2.358   4.554  1.4687  0.7135 -0.9256
 8310SOL     OW36562   4.583   0.675  13.178  0.1440 -0.0657 -0.4500
 8310SOL    HW136563   4.675   0.694  13.191 -0.0071  0.1297  0.3145
 8310SOL    HW236564   4.568   0.739  13.109 -0.3296 -1.2462 -1.4477
 8311SOL     OW36565   2.296   1.481   9.656 -0.0847 -0.3978  0.1902
 8311SOL    HW136566   2.303   1.467   9.751 -0.8541  1.1180  0.4760
 8311SOL    HW236567   2.386   1.474   9.625 -0.1438 -2.1404  0.3960
 8312SOL     OW36568   0.097   1.154   7.481  0.3180 -0.2132  0.4025
 8312SOL    HW136569   0.043   1.233   7.490  2.0087  1.0120 -0.1968
 8312SOL    HW236570   0.170   1.192   7.432  0.5085 -2.8171 -1.3041
 8313SOL     OW36571   1.740   4.615   8.438 -0.2838 -0.1768 -0.1602
 8313SOL    HW136572   1.832   4.591   8.433  0.3875  2.2614  0.8904
 8313SOL    HW236573   1.703   4.534   8.474 -0.0163 -0.3387 -0.2505
 8314SOL     OW36574   1.103   0.873   5.961  0.3639 -0.0141  0.2445
 8314SOL    HW136575   1.085   0.903   5.872 -0.1053 -1.3748 -0.1180
 8314SOL    HW236576   1.180   0.926   5.980  0.5070 -0.5963  1.3074
 8315SOL     OW36577   3.149   2.391   6.223 -0.1882  0.0466  0.1948
 8315SOL    HW136578   3.055   2.408   6.216 -0.6781 -2.3952  0.9800
 8315SOL    HW236579   3.160   2.440   6.304  1.7073 -0.4304  0.2148
 8316SOL     OW36580   3.115   0.431   1.702  0.3190 -0.1909 -0.3787
 8316SOL    HW136581   3.050   0.390   1.645 -0.3745  0.4010 -0.0132
 8316SOL    HW236582   3.080   0.409   1.789  0.9906  2.8125  0.6354
 8317SOL     OW36583   0.974   3.632   1.176 -0.4402 -0.7399  0.0677
 8317SOL    HW136584   1.045   3.580   1.140 -0.2321 -1.3083  1.2802
 8317SOL    HW236585   1.001   3.722   1.162 -2.8353  0.0768  0.5897
 8318SOL     OW36586   2.023   1.593   2.232  0.1237  0.0287  0.1078
 8318SOL    HW136587   2.049   1.509   2.193 -1.3164 -0.4454  0.1650
 8318SOL    HW236588   1.983   1.633   2.155  2.2777  0.9791 -0.4964
 8319SOL     OW36589   4.667   1.000   5.292  0.4530  0.8294 -0.1411
 8319SOL    HW136590   4.661   1.094   5.278 -1.6707  0.8621  0.9930
 8319SOL    HW236591   4.716   0.993   5.374  1.2069  0.5769 -0.6101
 8320SOL     OW36592   3.748   1.612   2.442 -0.0996 -0.0110  0.4730
 8320SOL    HW136593   3.795   1.556   2.380  0.4296  1.0086 -0.0408
 8320SOL    HW236594   3.755   1.692   2.390  1.7298  0.9120  2.1163
 8321SOL     OW36595   0.834   2.031  12.423  0.4019  0.3302  0.0485
 8321SOL    HW136596   0.872   2.110  12.461  0.6585  1.0775 -1.7204
 8321SOL    HW236597   0.802   1.987  12.501 -0.7233  2.2978  0.7089
 8322SOL     OW36598   4.311   3.536   8.659 -0.4129 -0.1641 -0.1410
 8322SOL    HW136599   4.328   3.462   8.601  1.0810  0.5075 -0.5722
 8322SOL    HW236600   4.401   3.567   8.671 -1.0002  1.5456 -0.2003
 8323SOL     OW36601   0.057   4.462   7.241  0.0765 -0.0577  0.2160
 8323SOL    HW136602   0.047   4.476   7.147 -0.1768 -1.5656  0.0238
 8323SOL    HW236603   0.127   4.527   7.249 -0.4741  0.6048 -0.3197
 8324SOL     OW36604   0.257   3.555   6.222 -0.2300 -0.0953  0.2032
 8324SOL    HW136605   0.327   3.489   6.216  0.5800  0.6723  1.2455
 8324SOL    HW236606   0.290   3.634   6.265  1.0364 -0.2558 -0.4695
 8325SOL     OW36607   2.799   2.710   3.033 -0.4528 -0.1717  1.0728
 8325SOL    HW136608   2.861   2.718   3.106 -0.3982  1.3932  0.8587
 8325SOL    HW236609   2.708   2.720   3.063 -0.0788 -0.9616  2.4664
 8326SOL     OW36610   1.112   2.247   4.964  0.0462 -0.4257 -0.1140
 8326SOL    HW136611   1.099   2.336   4.932  2.4840 -0.4744 -1.2727
 8326SOL    HW236612   1.202   2.226   4.941  0.9368  1.7871  1.2878
 8327SOL     OW36613   4.611   2.704   8.901 -0.0390  0.3750  0.4572
 8327SOL    HW136614   4.604   2.610   8.919  0.9703 -0.2165 -2.2572
 8327SOL    HW236615   4.558   2.735   8.974 -1.1345  0.2767 -0.3041
 8328SOL     OW36616   1.297   3.529   2.719  0.1847  0.9372  0.4795
 8328SOL    HW136617   1.270   3.601   2.776 -0.5218  0.0950  1.2021
 8328SOL    HW236618   1.281   3.450   2.770 -3.9735  0.1007 -2.1129
 8329SOL     OW36619   4.563   0.712   4.292  0.1557  0.2552 -0.4717
 8329SOL    HW136620   4.507   0.675   4.360  1.3868 -0.3146  0.2385
 8329SOL    HW236621   4.606   0.786   4.335 -1.0852  2.5434 -3.1601
 8330SOL     OW36622   3.799   1.282   1.121 -0.0080 -0.3669  0.0413
 8330SOL    HW136623   3.857   1.272   1.046  0.5367 -0.7479  0.5089
 8330SOL    HW236624   3.725   1.310   1.068 -0.4145  0.9544  1.3046
 8331SOL     OW36625   4.372   0.405  16.627 -0.4947  0.3921 -0.6988
 8331SOL    HW136626   4.401   0.485  16.582  0.1975  1.8059  2.3074
 8331SOL    HW236627   4.279   0.419  16.609 -0.7336  0.5426  0.7007
 8332SOL     OW36628   1.579   2.335   4.919 -0.5079  0.2518 -0.1852
 8332SOL    HW136629   1.539   2.404   4.972 -0.1823  0.7906 -0.6402
 8332SOL    HW236630   1.564   2.358   4.828  0.5422 -1.0436 -0.6990
 8333SOL     OW36631   2.808   1.241  15.138 -0.4456 -0.1119 -0.4386
 8333SOL    HW136632   2.713   1.241  15.142 -0.5156 -0.1356 -2.2506
 8333SOL    HW236633   2.820   1.329  15.101  0.0008 -0.0928 -0.2568
 8334SOL     OW36634   0.470   3.878  15.531 -0.3801 -0.6789 -0.0317
 8334SOL    HW136635   0.480   3.968  15.501  0.0246 -0.8448 -0.3804
 8334SOL    HW236636   0.481   3.890  15.626 -2.8324 -2.8165  0.5089
 8335SOL     OW36637   3.326   3.674   7.101 -0.4215 -0.3810  0.1481
 8335SOL    HW136638   3.333   3.626   7.184  2.8288  1.4216  0.9236
 8335SOL    HW236639   3.384   3.748   7.119  0.3821 -0.9454 -0.1382
 8336SOL     OW36640   3.473   4.314   4.033 -0.0983 -0.0135 -0.3579
 8336SOL    HW136641   3.509   4.370   3.964 -0.4800  2.0380  1.1062
 8336SOL    HW236642   3.434   4.376   4.095 -1.1577  0.2865 -1.3406
 8337SOL     OW36643   1.052   2.404  16.901  0.6289 -0.0548  0.3210
 8337SOL    HW136644   1.128   2.455  16.871  1.2904 -1.8030 -0.9661
 8337SOL    HW236645   1.026   2.374  16.813 -1.0451 -1.3875  1.2787
 8338SOL     OW36646   2.507   0.298   9.016  0.4369  0.4082 -0.3872
 8338SOL    HW136647   2.539   0.290   8.926  1.4854 -0.3587  0.0645
 8338SOL    HW236648   2.583   0.280   9.071  1.6774  0.7795 -1.9536
 8339SOL     OW36649   0.525   1.142   7.738  0.2243  0.4171 -0.4554
 8339SOL    HW136650   0.437   1.108   7.721  0.0772  1.4510 -1.7297
 8339SOL    HW236651   0.547   1.089   7.815  0.7513  0.3350 -0.6625
 8340SOL     OW36652   2.613   0.335   7.782  0.3229 -0.1721  0.0102
 8340SOL    HW136653   2.577   0.392   7.715 -0.6609 -0.1794  0.5310
 8340SOL    HW236654   2.703   0.332   7.749  0.1841 -2.8624 -0.1289
 8341SOL     OW36655   3.570   1.020   8.656  0.3914  0.1640  0.3751
 8341SOL    HW136656   3.607   0.991   8.573  0.3834  0.7499  0.1657
 8341SOL    HW236657   3.534   0.938   8.691 -0.7923  0.8841  0.8666
 8342SOL     OW36658   1.299   3.133   0.347  0.1587 -0.7250  0.5424
 8342SOL    HW136659   1.226   3.113   0.289  0.4632  0.3146 -0.2029
 8342SOL    HW236660   1.328   3.043   0.363 -3.2797 -1.8369  0.5104
 8343SOL     OW36661   1.560   1.999   3.052 -0.3143  0.6078  0.1648
 8343SOL    HW136662   1.516   1.954   2.980  2.4988 -1.3521 -0.3116
 8343SOL    HW236663   1.597   2.075   3.007 -0.3696  0.7889  0.4236
 8344SOL     OW36664   3.048   1.750   7.039 -0.6113 -0.1996 -0.7895
 8344SOL    HW136665   2.982   1.783   6.979 -0.3995  0.1711 -0.8179
 8344SOL    HW236666   3.091   1.689   6.980 -0.2896  0.2156 -0.9851
 8345SOL     OW36667   1.446   1.408   1.627  0.3133  0.2306 -0.2881
 8345SOL    HW136668   1.442   1.330   1.571  0.4869 -1.8217  2.5519
 8345SOL    HW236669   1.359   1.446   1.615  0.8725  1.4365 -0.4764
 8346SOL     OW36670   3.956   0.386   3.732  0.3842 -0.0312 -0.4113
 8346SOL    HW136671   3.973   0.344   3.648 -1.2444 -2.3460  0.3887
 8346SOL    HW236672   3.895   0.324   3.772  0.0943  0.7932  0.4250
 8347SOL     OW36673   2.173   1.402   7.201 -0.4255 -0.4928 -0.3073
 8347SOL    HW136674   2.262   1.438   7.197 -0.1781 -1.2662 -1.7315
 8347SOL    HW236675   2.167   1.377   7.293 -1.0814 -0.7223 -0.4153
 8348SOL     OW36676   2.268   1.399   6.677  0.3287 -0.0941  0.0252
 8348SOL    HW136677   2.249   1.395   6.771  0.5447  0.4137  0.0946
 8348SOL    HW236678   2.357   1.364   6.673  0.3412  0.0386 -0.7961
 8349SOL     OW36679   0.011   2.567   4.146  0.5193 -0.0470 -0.1160
 8349SOL    HW136680   0.082   2.503   4.146  1.7525  1.3253 -0.3401
 8349SOL    HW236681   4.675   2.513   4.122  0.6346 -0.3265  0.1569
 8350SOL     OW36682   2.560   2.670  10.136  0.0156  0.1524  0.3419
 8350SOL    HW136683   2.618   2.746  10.130 -1.0427  0.8429 -0.9037
 8350SOL    HW236684   2.553   2.654  10.042  2.0815  0.9087  0.0748
 8351SOL     OW36685   0.215   3.526   4.038 -0.1837 -0.8568  0.2594
 8351SOL    HW136686   0.225   3.529   4.134  0.1939  0.5510  0.1867
 8351SOL    HW236687   0.186   3.616   4.023  0.6630 -1.1946 -3.3861
 8352SOL     OW36688   3.022   2.277   3.800  0.1358  0.2048 -0.0662
 8352SOL    HW136689   3.099   2.256   3.853  1.0972 -0.7072 -1.8081
 8352SOL    HW236690   2.999   2.194   3.759 -1.0018  0.6767 -0.3753
 8353SOL     OW36691   0.052   1.149   2.121 -0.2402  0.2940 -1.0337
 8353SOL    HW136692   0.020   1.059   2.114  1.3631 -0.4076  0.6009
 8353SOL    HW236693   0.115   1.153   2.193 -1.0532  0.3870 -0.3165
 8354SOL     OW36694   0.460   1.297  16.311 -0.1056  0.0463 -0.5639
 8354SOL    HW136695   0.554   1.285  16.299  0.1075  1.9285 -0.7678
 8354SOL    HW236696   0.437   1.323  16.222  1.2379 -1.5660 -1.3733
 8355SOL     OW36697   2.438   4.316  12.770 -0.2644 -0.2793 -0.3986
 8355SOL    HW136698   2.534   4.315  12.766 -0.2584 -2.1541  0.1186
 8355SOL    HW236699   2.407   4.317  12.680  1.8188  0.0373 -1.1102
 8356SOL     OW36700   1.472   2.375  10.942  0.1082  0.1314 -0.0413
 8356SOL    HW136701   1.546   2.430  10.917  0.0809 -1.2409 -3.0524
 8356SOL    HW236702   1.521   2.323  11.007 -0.4865  1.2915  1.3286
 8357SOL     OW36703   2.114   1.135   4.289  0.2429  0.2529 -0.2695
 8357SOL    HW136704   2.150   1.047   4.301  0.5006  0.3123 -0.5693
 8357SOL    HW236705   2.019   1.127   4.291  0.2840 -0.1318 -0.0288
 8358SOL     OW36706   0.690   2.272   0.870  0.2041 -0.6215 -0.4778
 8358SOL    HW136707   0.606   2.271   0.917  0.7317  0.9985  0.4893
 8358SOL    HW236708   0.724   2.183   0.877  1.3251 -0.2932 -1.8552
 8359SOL     OW36709   2.060   3.424   3.802  0.3052 -0.1019  0.1738
 8359SOL    HW136710   2.061   3.329   3.809  1.3965 -0.0701  0.4493
 8359SOL    HW236711   1.996   3.434   3.731 -0.9071 -1.2369  1.1181
 8360SOL     OW36712   2.391   1.370   8.298 -0.5197  0.4446  0.0984
 8360SOL    HW136713   2.433   1.405   8.219  0.3089  0.9634  0.7633
 8360SOL    HW236714   2.383   1.281   8.264  2.5882  0.8240 -1.6214
 8361SOL     OW36715   3.049   3.809  15.959  0.3858  0.4022 -0.5011
 8361SOL    HW136716   2.996   3.872  15.911 -0.3780 -0.6490 -1.0296
 8361SOL    HW236717   3.010   3.819  16.046  0.2183  0.1222 -0.5438
 8362SOL     OW36718   3.601   2.712   8.186 -0.1592  0.2653 -0.0092
 8362SOL    HW136719   3.653   2.631   8.188  1.0221  1.0124 -0.7142
 8362SOL    HW236720   3.531   2.681   8.245  0.8901 -0.9673  0.5775
 8363SOL     OW36721   0.280   1.238   2.670  0.5403  0.1305 -0.4193
 8363SOL    HW136722   0.362   1.197   2.698  0.4405  0.2961  0.1121
 8363SOL    HW236723   0.251   1.291   2.745 -1.1538 -1.1970 -0.1317
 8364SOL     OW36724   2.714   4.465   8.997 -0.6642 -0.1612  0.4682
 8364SOL    HW136725   2.765   4.390   9.028 -1.0580 -0.5568  0.1688
 8364SOL    HW236726   2.736   4.528   9.065  0.1589 -1.6492  1.5912
 8365SOL     OW36727   2.162   2.782   3.187  0.5332  0.2349  0.4785
 8365SOL    HW136728   2.235   2.820   3.236  0.7675 -0.3416  0.5730
 8365SOL    HW236729   2.122   2.725   3.252  0.3897  0.1603  0.3248
 8366SOL     OW36730   2.668   3.766   9.039 -0.8892 -0.0396  0.0746
 8366SOL    HW136731   2.659   3.860   9.055  1.7923 -0.0099  1.3688
 8366SOL    HW236732   2.650   3.767   8.945  0.6953 -0.2150 -0.2234
 8367SOL     OW36733   0.584   0.309  15.698 -0.3275 -0.5646  0.1273
 8367SOL    HW136734   0.635   0.381  15.661  2.6035 -2.6001  0.2153
 8367SOL    HW236735   0.590   0.345  15.786 -0.6063 -0.6377  0.1772
 8368SOL     OW36736   4.452   0.053   0.871 -0.0799 -0.2268  0.0854
 8368SOL    HW136737   4.475   0.018   0.785  1.5209  0.8918  0.0601
 8368SOL    HW236738   4.484   0.142   0.858 -1.9620  0.5404  0.6864
 8369SOL     OW36739   0.780   1.234   4.500  0.2484 -0.3759 -0.5151
 8369SOL    HW136740   0.802   1.293   4.427 -0.5458 -0.1360 -0.5548
 8369SOL    HW236741   0.688   1.255   4.511  0.9779  1.0488  2.7934
 8370SOL     OW36742   3.584   3.627   9.795 -0.0985  0.2882 -0.3765
 8370SOL    HW136743   3.608   3.629   9.888 -1.6008  2.0458 -0.0261
 8370SOL    HW236744   3.665   3.586   9.766  0.6346  0.6223  1.2140
 8371SOL     OW36745   0.106   4.136   4.584 -0.2603 -0.1345 -0.3981
 8371SOL    HW136746   0.036   4.193   4.552 -1.5854 -1.0198  0.9498
 8371SOL    HW236747   0.125   4.178   4.668  0.0988  1.1641 -1.1285
 8372SOL     OW36748   1.999   3.349   5.002 -0.2519  0.3395  0.5667
 8372SOL    HW136749   1.963   3.280   4.946 -0.5771  1.8096 -1.0309
 8372SOL    HW236750   1.924   3.408   5.011  0.6475  1.4887  0.4761
 8373SOL     OW36751   0.261   1.500   4.670  0.3588 -0.0410  0.1943
 8373SOL    HW136752   0.188   1.546   4.711  1.3501  0.8915  0.8946
 8373SOL    HW236753   0.273   1.417   4.717  1.2626  1.6362  2.8695
 8374SOL     OW36754   3.881   1.304  14.479  0.0897 -0.5474  0.3447
 8374SOL    HW136755   3.895   1.210  14.478  2.0510 -0.2558  2.9365
 8374SOL    HW236756   3.824   1.317  14.403  0.2858 -0.6406  0.1818
 8375SOL     OW36757   4.425   1.062   0.258  0.3155  0.1465 -0.8024
 8375SOL    HW136758   4.335   1.032   0.267  1.8375 -4.0688  0.8228
 8375SOL    HW236759   4.402   1.082   0.168  1.4982  1.9578 -0.7005
 8376SOL     OW36760   2.519   3.974  16.108 -0.3149  0.0648 -0.0549
 8376SOL    HW136761   2.425   3.988  16.121 -0.3358  0.3215 -0.5082
 8376SOL    HW236762   2.516   3.887  16.149  1.3791 -1.5970 -3.4791
 8377SOL     OW36763   4.170   0.360   8.220 -0.1067  0.0501  0.0707
 8377SOL    HW136764   4.221   0.429   8.177  0.4916 -0.9821 -0.8652
 8377SOL    HW236765   4.157   0.303   8.144 -0.8981  0.3922 -0.0531
 8378SOL     OW36766   1.722   4.488   6.531 -0.3263  0.3513 -0.1390
 8378SOL    HW136767   1.773   4.417   6.491 -0.4146 -0.2658  0.8380
 8378SOL    HW236768   1.666   4.442   6.593 -0.4748  1.9080  0.8974
 8379SOL     OW36769   3.829   3.998   2.144 -0.2247 -0.1624 -0.2793
 8379SOL    HW136770   3.773   3.921   2.142  0.1230 -0.5214  4.1677
 8379SOL    HW236771   3.900   3.962   2.196  0.2115  1.5785  0.3402
 8380SOL     OW36772   4.534   3.821   6.349  0.2530 -0.2812 -0.0473
 8380SOL    HW136773   4.598   3.750   6.356  2.1096  1.3691 -0.2385
 8380SOL    HW236774   4.482   3.794   6.273 -0.7440  1.6451 -0.0502
 8381SOL     OW36775   0.757   3.626   8.847  0.4680  0.0221 -0.4553
 8381SOL    HW136776   0.686   3.671   8.800  0.7348  2.5096  1.5008
 8381SOL    HW236777   0.813   3.609   8.772  0.0965  1.0509 -0.9708
 8382SOL     OW36778   0.446   3.723   7.364  0.4264 -0.0406  0.0921
 8382SOL    HW136779   0.490   3.674   7.295  1.3176  0.2379  0.4603
 8382SOL    HW236780   0.367   3.672   7.380 -0.3500  1.0594 -0.1564
 8383SOL     OW36781   3.060   2.131   8.086 -0.1079 -0.0755  0.6043
 8383SOL    HW136782   3.042   2.100   7.997 -0.5094  0.8444  0.3698
 8383SOL    HW236783   3.000   2.206   8.090 -0.0661 -0.0448  0.6471
 8384SOL     OW36784   2.442   2.323   6.646  0.9092 -0.6019 -0.0972
 8384SOL    HW136785   2.534   2.350   6.640  0.0848  2.5923  1.6798
 8384SOL    HW236786   2.422   2.320   6.740 -0.6284 -1.3004 -0.4455
 8385SOL     OW36787   3.110   4.291  11.550 -0.3468  0.2809  0.3538
 8385SOL    HW136788   3.114   4.384  11.526  0.2461  1.1112  3.5394
 8385SOL    HW236789   3.135   4.247  11.469 -0.0290  1.4891 -0.2009
 8386SOL     OW36790   1.067   2.668   4.653  0.2821 -0.3836  0.7174
 8386SOL    HW136791   1.024   2.592   4.615 -1.1338  1.3380 -1.1158
 8386SOL    HW236792   0.990   2.725   4.655  0.8899  0.5012 -1.1744
 8387SOL     OW36793   1.456   2.644   5.944 -0.1627 -0.4604  0.3320
 8387SOL    HW136794   1.370   2.651   5.985 -1.6952  1.0101 -3.1041
 8387SOL    HW236795   1.438   2.569   5.887  1.3846 -0.7525  0.2201
 8388SOL     OW36796   0.457   1.435  12.779  0.8373  0.5459  0.3110
 8388SOL    HW136797   0.507   1.461  12.701 -0.4609  4.7053  0.8725
 8388SOL    HW236798   0.504   1.475  12.852  0.1179 -0.6068  1.4000
 8389SOL     OW36799   3.274   3.474   5.268 -0.4595 -0.0664 -0.2201
 8389SOL    HW136800   3.257   3.417   5.343  0.2529 -1.3330 -1.0173
 8389SOL    HW236801   3.348   3.528   5.295  0.5459  0.0119 -3.2082
 8390SOL     OW36802   4.084   2.868   2.026 -0.1390  0.1599  0.7481
 8390SOL    HW136803   3.997   2.856   1.986  1.3446 -2.3286 -1.7185
 8390SOL    HW236804   4.059   2.918   2.104 -1.5581 -1.0233  1.0577
 8391SOL     OW36805   1.361   1.220   6.617 -0.2891  0.2609 -0.4735
 8391SOL    HW136806   1.405   1.159   6.676 -0.4389  0.4031 -0.2137
 8391SOL    HW236807   1.272   1.184   6.610 -1.2945  2.7261 -0.2950
 8392SOL     OW36808   3.555   1.386   1.804  0.4135  0.1338  0.2974
 8392SOL    HW136809   3.625   1.328   1.777  0.8369  0.4132  0.7758
 8392SOL    HW236810   3.567   1.460   1.744 -0.1204  1.0279  1.2831
 8393SOL     OW36811   2.088   4.098   8.487  0.6613 -0.1372  0.6831
 8393SOL    HW136812   2.151   4.170   8.490 -0.2070  0.6510 -0.1876
 8393SOL    HW236813   2.014   4.147   8.523  0.0005 -0.8377  0.2718
 8394SOL     OW36814   1.980   3.659   9.636  0.1217 -0.3050 -0.2254
 8394SOL    HW136815   1.954   3.750   9.623 -0.3944 -1.0048 -3.8585
 8394SOL    HW236816   1.988   3.646   9.731 -0.6431 -0.4859 -0.1879
 8395SOL     OW36817   3.781   0.083  11.070  0.4193 -0.3531 -0.5030
 8395SOL    HW136818   3.859   0.052  11.115  1.0572 -0.8544 -1.9822
 8395SOL    HW236819   3.783   0.021  10.997 -0.3233 -1.1554  0.1527
 8396SOL     OW36820   4.234   2.928   4.314 -0.0951  0.9325  0.7639
 8396SOL    HW136821   4.325   2.958   4.321  0.2380  0.5995 -1.9180
 8396SOL    HW236822   4.241   2.833   4.322 -2.3830  0.5421 -1.9598
 8397SOL     OW36823   0.492   4.255   1.912 -0.3041 -0.0080  0.1892
 8397SOL    HW136824   0.409   4.220   1.880 -1.2416  0.2915  2.3286
 8397SOL    HW236825   0.488   4.346   1.885 -1.4209  0.4963  2.0615
 8398SOL     OW36826   1.741   1.684   6.175  0.2557 -0.2564 -0.1336
 8398SOL    HW136827   1.675   1.660   6.240  1.4806 -2.3642  0.3226
 8398SOL    HW236828   1.698   1.764   6.147  0.7237 -0.1800 -0.6381
 8399SOL     OW36829   3.508   3.576   4.862 -0.3679  0.4174 -0.9340
 8399SOL    HW136830   3.429   3.625   4.838  0.3659  1.7362 -0.6289
 8399SOL    HW236831   3.464   3.491   4.872  1.4120 -0.7825 -3.2238
 8400SOL     OW36832   2.144   1.474  11.798 -0.1672 -0.1320 -0.4438
 8400SOL    HW136833   2.194   1.412  11.745  0.5984  1.2214 -1.3064
 8400SOL    HW236834   2.167   1.551  11.745  0.9673  0.8789  1.5138
 8401SOL     OW36835   2.528   2.203   5.651  0.3084 -0.3316 -0.7121
 8401SOL    HW136836   2.501   2.279   5.703  0.3035 -0.6886 -0.1926
 8401SOL    HW236837   2.498   2.132   5.707 -1.2360 -0.9416 -2.2959
 8402SOL     OW36838   4.302   3.651   1.664 -0.1466 -0.8976 -0.3650
 8402SOL    HW136839   4.371   3.666   1.600 -1.5591 -0.6360 -1.8445
 8402SOL    HW236840   4.357   3.655   1.741 -0.3115  0.8178 -0.3242
 8403SOL     OW36841   0.177   1.922   2.866 -0.1546 -0.5387 -0.2451
 8403SOL    HW136842   0.115   1.982   2.907  0.3217 -0.4828  0.3818
 8403SOL    HW236843   0.235   1.901   2.939 -1.2405  2.5052  1.4459
 8404SOL     OW36844   1.135   1.584   2.358 -0.4223  0.4569 -0.0145
 8404SOL    HW136845   1.171   1.593   2.446  0.7388  1.1935 -0.5566
 8404SOL    HW236846   1.201   1.613   2.294  0.8120 -1.4286  0.3810
 8405SOL     OW36847   2.225   3.910  15.618 -0.6287  0.0297 -0.6894
 8405SOL    HW136848   2.310   3.949  15.639 -0.4775 -0.0998 -1.0573
 8405SOL    HW236849   2.197   3.964  15.544 -0.2487  2.0869  0.6752
 8406SOL     OW36850   1.863   1.204   0.070  0.0660 -0.2384  0.3616
 8406SOL    HW136851   1.948   1.201   0.114  0.9831  0.2887 -1.3481
 8406SOL    HW236852   1.829   1.290   0.095  1.0816  0.7811 -1.7324
 8407SOL     OW36853   2.009   2.344   7.439 -0.1106 -0.0123  0.1411
 8407SOL    HW136854   2.027   2.425   7.390 -2.1174  0.1688 -0.3019
 8407SOL    HW236855   2.084   2.291   7.411  0.2999 -0.3730  1.9253
 8408SOL     OW36856   3.045   1.123  15.087 -0.3887 -0.4094 -0.5473
 8408SOL    HW136857   3.089   1.186  15.029  0.0846 -1.9454 -1.8471
 8408SOL    HW236858   2.953   1.146  15.100 -0.0018  1.5841 -1.3666
 8409SOL     OW36859   0.051   0.304  13.776 -0.4475  0.3689  0.8297
 8409SOL    HW136860   0.110   0.235  13.805 -0.2245 -0.2354 -1.0851
 8409SOL    HW236861   0.124   0.364  13.761  0.6518 -1.2379 -0.1254
 8410SOL     OW36862   3.136   1.094   8.754 -0.5730 -0.5491 -0.1283
 8410SOL    HW136863   3.160   1.180   8.788 -2.5088  0.0183 -0.2088
 8410SOL    HW236864   3.127   1.055   8.841  0.1998  0.2951  0.3403
 8411SOL     OW36865   0.754   0.252   4.423  0.6373 -0.1523 -0.3354
 8411SOL    HW136866   0.790   0.281   4.507 -0.6780  0.2835  0.0794
 8411SOL    HW236867   0.829   0.271   4.367  1.1849 -0.2321  0.3670
 8412SOL     OW36868   2.434   2.190   2.768 -0.0782 -0.1390  0.2929
 8412SOL    HW136869   2.432   2.260   2.833  3.2903  0.9866 -0.7989
 8412SOL    HW236870   2.402   2.242   2.694  0.3041 -2.3392 -1.4118
 8413SOL     OW36871   0.289   4.739   7.608 -0.4759 -0.6913  0.5823
 8413SOL    HW136872   0.265   4.701   7.692  0.5770 -0.9516  0.7593
 8413SOL    HW236873   0.268   4.659   7.560 -1.5852 -0.8785  1.3903
 8414SOL     OW36874   1.821   1.630   5.923 -0.3381  0.1240 -0.5730
 8414SOL    HW136875   1.789   1.630   6.013  1.1207  1.3997 -0.0731
 8414SOL    HW236876   1.904   1.677   5.925 -0.3045  0.0280  0.1320
 8415SOL     OW36877   4.599   3.716   3.582 -0.1656  0.1789  0.1187
 8415SOL    HW136878   4.537   3.644   3.588  2.2629 -1.9713 -1.0181
 8415SOL    HW236879   4.558   3.774   3.646 -1.1386  0.6641 -0.9386
 8416SOL     OW36880   3.093   4.443   5.080 -0.1527 -0.0986  0.2826
 8416SOL    HW136881   3.123   4.532   5.099  4.0099 -1.7553  1.6570
 8416SOL    HW236882   3.039   4.424   5.156 -0.1120  0.2341  0.3923
 8417SOL     OW36883   0.239   2.492   5.247  0.3971  0.5405  0.0585
 8417SOL    HW136884   0.326   2.480   5.209  0.2346  1.3886 -0.5628
 8417SOL    HW236885   0.239   2.582   5.279  1.0624  1.1110 -1.5262
 8418SOL     OW36886   2.259   2.683  15.397 -0.2304  0.0656 -0.1740
 8418SOL    HW136887   2.326   2.628  15.437  1.3414  2.2594  0.2145
 8418SOL    HW236888   2.181   2.627  15.392 -0.0947 -0.1872  0.6168
 8419SOL     OW36889   0.673   3.845  17.339  0.4694  0.3851  0.5040
 8419SOL    HW136890   0.767   3.828  17.343  0.4141 -0.2592 -0.8863
 8419SOL    HW236891   0.668   3.893  17.257 -1.1709  0.3786  0.5998
 8420SOL     OW36892   3.765   2.319  17.101  0.6189  0.5515  0.3518
 8420SOL    HW136893   3.844   2.353  17.059 -0.1151  1.1103 -0.5845
 8420SOL    HW236894   3.714   2.293  17.024 -0.5865  0.3352  1.2292
 8421SOL     OW36895   0.982   0.992  15.483 -0.9655 -0.1722 -0.7878
 8421SOL    HW136896   0.999   0.898  15.490  1.4562  0.2332 -1.2317
 8421SOL    HW236897   0.977   1.014  15.576  0.2908 -0.4027 -0.6620
 8422SOL     OW36898   0.753   2.383  12.008 -0.8493 -0.3396  0.0263
 8422SOL    HW136899   0.811   2.447  11.965 -0.4672  1.0896  2.7023
 8422SOL    HW236900   0.813   2.309  12.013  0.8579  1.0885  0.9480
 8423SOL     OW36901   4.372   3.969   7.093  0.2119 -0.6318  0.0404
 8423SOL    HW136902   4.278   3.976   7.075  0.4402 -1.3093 -1.4430
 8423SOL    HW236903   4.390   3.968   7.187 -2.5907  0.7556  0.5985
 8424SOL     OW36904   1.407   1.772   1.855  0.5036  0.0086 -0.6157
 8424SOL    HW136905   1.443   1.688   1.883 -1.2858 -0.5065  0.1145
 8424SOL    HW236906   1.466   1.778   1.780  1.1357  2.7995  0.0911
 8425SOL     OW36907   4.291   1.453   3.364  0.1262  0.1112 -0.1825
 8425SOL    HW136908   4.204   1.429   3.335  0.3858  0.7048 -1.4543
 8425SOL    HW236909   4.274   1.483   3.453 -0.5333 -0.7620 -0.0186
 8426SOL     OW36910   2.778   0.518   1.267 -0.4333  0.4708  0.0137
 8426SOL    HW136911   2.832   0.480   1.335 -3.7190 -0.6105  2.0244
 8426SOL    HW236912   2.735   0.585   1.321 -1.3910 -0.2829  0.1813
 8427SOL     OW36913   0.723   1.867   7.929  0.1624 -0.8515 -0.5097
 8427SOL    HW136914   0.669   1.837   7.855 -0.6001 -0.4838 -0.1023
 8427SOL    HW236915   0.780   1.793   7.948  1.3558  0.1594 -0.1845
 8428SOL     OW36916   0.980   2.481  14.783 -0.4105  0.0292  0.1519
 8428SOL    HW136917   0.930   2.561  14.798  1.8544  1.4040  0.3514
 8428SOL    HW236918   0.943   2.466  14.696 -1.1730 -0.0409  0.4854
 8429SOL     OW36919   4.149   1.045   7.966 -0.3012 -0.1614 -0.4919
 8429SOL    HW136920   4.126   1.106   8.036  1.2614 -0.6275  0.4391
 8429SOL    HW236921   4.078   0.982   7.975  0.4269 -1.3006 -2.7441
 8430SOL     OW36922   2.694   0.928   0.226  0.0938  0.3700  0.2761
 8430SOL    HW136923   2.725   0.851   0.274  0.6193 -1.3315 -2.7724
 8430SOL    HW236924   2.599   0.923   0.233  0.1852 -2.0232 -0.0853
 8431SOL     OW36925   4.713   3.279   8.870 -0.0419 -0.7990  0.4284
 8431SOL    HW136926   4.681   3.188   8.866 -1.5624 -0.2061 -0.6289
 8431SOL    HW236927   4.634   3.332   8.856 -0.1006 -0.5341  1.7046
 8432SOL     OW36928   1.164   1.426   4.677  0.3076  0.3177 -0.7683
 8432SOL    HW136929   1.242   1.422   4.733 -0.3489  1.8661  0.2715
 8432SOL    HW236930   1.099   1.397   4.741  1.3647 -3.0193 -1.2222
 8433SOL     OW36931   0.808   0.633   4.836 -0.3074  0.0427  0.1061
 8433SOL    HW136932   0.815   0.549   4.882 -1.1231 -1.0072 -1.6820
 8433SOL    HW236933   0.813   0.701   4.903 -1.4493  0.2347 -0.0000
 8434SOL     OW36934   0.732   1.156  16.985  0.6651  0.2675  0.1736
 8434SOL    HW136935   0.798   1.093  16.956 -0.9306 -0.1200 -2.6431
 8434SOL    HW236936   0.673   1.138  16.912  0.8458  0.8435 -0.1149
 8435SOL     OW36937   4.308   3.176  11.075  0.3203  0.3624  0.6584
 8435SOL    HW136938   4.327   3.243  11.009  2.7196 -1.5155 -0.5781
 8435SOL    HW236939   4.289   3.229  11.152  1.7696 -0.1518  1.3815
 8436SOL     OW36940   4.617   0.072  13.584 -0.3150  0.2483 -0.5934
 8436SOL    HW136941   4.708   0.089  13.562 -0.5492 -0.1440 -1.8219
 8436SOL    HW236942   4.619   4.718  13.567 -1.0355 -0.1923  1.6057
 8437SOL     OW36943   4.672   3.906   4.779 -0.3386 -0.8064  0.1720
 8437SOL    HW136944   4.658   3.952   4.696 -1.3371 -0.0404  0.7732
 8437SOL    HW236945   4.583   3.874   4.792  0.5965 -2.4901  2.4302
 8438SOL     OW36946   0.568   4.206   2.886 -0.5855 -0.5920 -0.2231
 8438SOL    HW136947   0.483   4.220   2.843  0.3206  1.2203 -1.4242
 8438SOL    HW236948   0.605   4.144   2.824 -3.6176 -0.5009 -2.1481
 8439SOL     OW36949   1.173   4.080   7.750  0.0257  0.2499  0.2046
 8439SOL    HW136950   1.266   4.080   7.769 -0.0669  1.5873  0.5833
 8439SOL    HW236951   1.181   4.063   7.656 -0.4741  1.2962 -0.0257
 8440SOL     OW36952   3.174   4.456   8.558 -0.1587  0.2779  0.1325
 8440SOL    HW136953   3.150   4.484   8.470 -1.3657  1.0923  0.7141
 8440SOL    HW236954   3.082   4.456   8.584 -0.3033  1.7852 -0.3378
 8441SOL     OW36955   4.650   2.441  12.641  0.0963  0.1327 -0.2596
 8441SOL    HW136956   4.728   2.431  12.695  1.1682  1.5977 -1.5563
 8441SOL    HW236957   4.654   2.364  12.584  1.4878 -1.6954  2.2942
 8442SOL     OW36958   3.226   2.802   3.966 -0.4043 -0.1382  0.4311
 8442SOL    HW136959   3.208   2.896   3.967 -0.7522 -0.1926 -2.6141
 8442SOL    HW236960   3.150   2.776   3.914 -0.5802 -3.0721  2.1604
 8443SOL     OW36961   3.196   2.762   7.335 -0.0678 -0.4138 -0.1589
 8443SOL    HW136962   3.115   2.754   7.385 -0.5162  1.9485 -0.5042
 8443SOL    HW236963   3.250   2.737   7.410  0.0959  0.9700  0.2038
 8444SOL     OW36964   1.033   4.691   5.265 -0.0845  0.1153  0.3747
 8444SOL    HW136965   0.991   0.037   5.255  0.1106  0.0108 -1.4057
 8444SOL    HW236966   0.969   4.633   5.306  0.4103 -1.3126 -0.8957
 8445SOL     OW36967   3.144   1.442  16.040  0.5262  0.9251 -0.1864
 8445SOL    HW136968   3.183   1.408  16.121  0.3920 -1.0040 -0.9361
 8445SOL    HW236969   3.210   1.408  15.979 -0.4535  0.6057 -1.0583
 8446SOL     OW36970   3.459   2.923   5.602  0.0923 -0.0385  0.4931
 8446SOL    HW136971   3.497   3.006   5.630  0.8467 -0.1330 -0.2356
 8446SOL    HW236972   3.406   2.956   5.529  0.2175 -3.0936 -0.9828
 8447SOL     OW36973   2.375   3.645   7.918 -0.3547  0.2089 -0.1977
 8447SOL    HW136974   2.426   3.704   7.862 -1.5751  0.7922 -0.7222
 8447SOL    HW236975   2.433   3.642   7.994  2.1596 -0.7537 -2.1842
 8448SOL     OW36976   3.595   4.346   5.456 -0.3062 -0.5177  0.5245
 8448SOL    HW136977   3.662   4.279   5.437 -0.9574 -0.2407 -2.6299
 8448SOL    HW236978   3.628   4.422   5.409  1.6534 -1.6158  0.1158
 8449SOL     OW36979   2.401   1.830  12.393  0.0659  0.6973  0.0485
 8449SOL    HW136980   2.344   1.860  12.322 -2.0686 -0.1496  1.4242
 8449SOL    HW236981   2.473   1.787  12.347 -2.0089  1.2908 -3.7228
 8450SOL     OW36982   0.564   2.221   1.361 -0.1301  0.6011  0.2570
 8450SOL    HW136983   0.595   2.138   1.324 -1.6248  0.7336 -1.2733
 8450SOL    HW236984   0.541   2.262   1.278  1.0604 -0.2295 -0.4914
 8451SOL     OW36985   3.142   3.015   8.709 -0.1651 -0.2551 -0.0452
 8451SOL    HW136986   3.110   3.088   8.762  0.8116 -0.7014  1.1624
 8451SOL    HW236987   3.237   3.028   8.710  0.1795 -2.6805 -1.4025
 8452SOL     OW36988   3.946   2.569   0.957 -0.0333  0.1300 -0.0392
 8452SOL    HW136989   3.855   2.586   0.932 -0.4406  1.1962  2.1096
 8452SOL    HW236990   3.940   2.608   1.045  1.5363 -0.7049  0.4326
 8453SOL     OW36991   4.523   3.137   2.549 -0.2174  0.6274 -0.4729
 8453SOL    HW136992   4.602   3.157   2.498  0.7270  1.2700  1.2104
 8453SOL    HW236993   4.516   3.042   2.541  1.6598  0.4431 -0.0382
 8454SOL     OW36994   0.112   0.060   5.448 -0.0077  0.1164  0.0987
 8454SOL    HW136995   0.051   0.129   5.423 -1.0976 -0.2255  1.8368
 8454SOL    HW236996   0.054   0.021   5.513 -0.3210  0.1011 -0.1900
 8455SOL     OW36997   2.457   4.390   9.031 -0.0565 -0.1455 -0.1758
 8455SOL    HW136998   2.544   4.419   9.005  0.3343  0.6794  2.1023
 8455SOL    HW236999   2.474   4.301   9.061 -1.5244 -0.8057 -1.2621
 8456SOL     OW37000   3.846   2.218   9.193 -0.4011 -0.2383 -0.5800
 8456SOL    HW137001   3.930   2.175   9.178  0.2903  1.4918 -1.6198
 8456SOL    HW237002   3.789   2.176   9.128 -1.0893  1.1520 -0.8654
 8457SOL     OW37003   4.318   2.389   3.861 -0.5478  0.0117 -0.0535
 8457SOL    HW137004   4.300   2.483   3.850  0.2808 -0.0424 -1.7786
 8457SOL    HW237005   4.402   2.397   3.906 -0.9309  0.2593  0.6340
 8458SOL     OW37006   0.597   2.714   8.279  0.1001 -0.0705 -0.4812
 8458SOL    HW137007   0.533   2.706   8.350  1.5721  1.8349  1.0524
 8458SOL    HW237008   0.661   2.781   8.303 -0.6069  0.2624  0.4749
 8459SOL     OW37009   1.918   1.006   8.472 -0.0794  0.1991  0.3075
 8459SOL    HW137010   2.000   1.039   8.508  0.1328 -0.7897  0.7202
 8459SOL    HW237011   1.899   0.946   8.544 -0.5842 -1.5127 -1.2434
 8460SOL     OW37012   3.509   2.213   8.999 -0.3392  0.0152 -0.6688
 8460SOL    HW137013   3.461   2.294   9.014  1.2299  0.9679 -0.8290
 8460SOL    HW237014   3.477   2.154   9.067 -0.9175  0.6302 -0.3989
 8461SOL     OW37015   2.624   4.420   5.998 -0.0119  0.5105  0.2192
 8461SOL    HW137016   2.635   4.411   6.092  1.7056  1.9825  0.1588
 8461SOL    HW237017   2.536   4.459   6.000 -0.5146 -0.6244  0.3585
 8462SOL     OW37018   1.976   4.019   2.353 -0.0417 -0.7490 -0.0568
 8462SOL    HW137019   1.918   3.962   2.405 -1.6651 -1.3650 -2.5394
 8462SOL    HW237020   1.921   4.045   2.280  0.1514  0.8876  0.3901
 8463SOL     OW37021   1.467   0.742   6.767  0.5975  0.4216 -0.2500
 8463SOL    HW137022   1.406   0.682   6.809  1.1949 -0.7332 -1.0361
 8463SOL    HW237023   1.550   0.695   6.776 -0.3372 -1.2330 -0.3592
 8464SOL     OW37024   2.418   1.914   1.778  0.2830 -0.0244  0.5858
 8464SOL    HW137025   2.468   1.952   1.705 -0.1131  0.6089  0.6467
 8464SOL    HW237026   2.327   1.941   1.764  0.4256  0.2990  0.2977
 8465SOL     OW37027   1.159   2.374   8.301 -0.4432  0.2140 -0.5253
 8465SOL    HW137028   1.211   2.434   8.249  2.4070 -0.1655  1.8951
 8465SOL    HW237029   1.104   2.336   8.232  0.5771 -1.5471 -0.3588
 8466SOL     OW37030   0.735   3.796   2.297  0.3091  0.7191  0.1589
 8466SOL    HW137031   0.734   3.768   2.388 -1.0541 -0.1369 -0.1238
 8466SOL    HW237032   0.648   3.767   2.271  1.2425 -1.6312 -0.3297
 8467SOL     OW37033   3.427   4.125  10.502 -0.2443 -0.2000  0.5348
 8467SOL    HW137034   3.418   4.217  10.529  0.3414  0.2932 -0.9263
 8467SOL    HW237035   3.503   4.128  10.444 -0.6346 -0.7821 -0.0157
 8468SOL     OW37036   3.860   3.088  16.702 -0.1517  0.8212  0.1128
 8468SOL    HW137037   3.944   3.097  16.748 -1.9885  1.4097  3.3709
 8468SOL    HW237038   3.828   2.999  16.716  0.6093  0.6922  1.0821
 8469SOL     OW37039   0.656   0.655   2.609 -0.7984  0.3062  0.0751
 8469SOL    HW137040   0.699   0.587   2.661 -1.4580 -0.1648  0.0073
 8469SOL    HW237041   0.569   0.615   2.596 -1.2452  0.8421  1.4740
 8470SOL     OW37042   2.588   3.179   8.459  0.4691  0.5437 -0.2598
 8470SOL    HW137043   2.540   3.135   8.390 -1.9098 -1.6742  2.7911
 8470SOL    HW237044   2.677   3.142   8.463 -0.3250 -1.0929  2.2532
 8471SOL     OW37045   1.000   1.840   2.898  0.2981  0.5795  0.4119
 8471SOL    HW137046   0.927   1.823   2.957 -0.0526 -2.1847 -0.8248
 8471SOL    HW237047   1.064   1.841   2.968 -0.6431 -1.6427  1.2923
 8472SOL     OW37048   0.999   0.120   4.817  0.0232  0.1777  0.2345
 8472SOL    HW137049   0.923   0.112   4.759 -2.0900  0.9309  2.9005
 8472SOL    HW237050   0.984   0.210   4.848  0.4283  0.8489 -1.5015
 8473SOL     OW37051   1.731   1.239   8.147  0.0242 -0.0351  0.6109
 8473SOL    HW137052   1.819   1.207   8.166  0.3134  1.0167  1.0170
 8473SOL    HW237053   1.693   1.165   8.100 -0.4209  1.3270 -1.1725
 8474SOL     OW37054   3.194   1.318  16.826 -0.4502 -0.5919 -0.1879
 8474SOL    HW137055   3.238   1.401  16.846 -0.3877 -0.7360  0.2506
 8474SOL    HW237056   3.102   1.347  16.826  0.8790  3.6521  1.8486
 8475SOL     OW37057   0.829   1.558   5.158 -0.0623 -0.4580 -0.1295
 8475SOL    HW137058   0.765   1.593   5.220 -0.0733 -0.5587 -0.0851
 8475SOL    HW237059   0.816   1.619   5.085 -0.9636  0.7511  1.0480
 8476SOL     OW37060   1.312   3.987   0.975  0.0581  0.1648  0.2024
 8476SOL    HW137061   1.267   3.920   0.923 -0.5211  0.2445  0.5978
 8476SOL    HW237062   1.267   4.063   0.936 -1.5335  0.8253  3.3030
 8477SOL     OW37063   2.253   3.815   4.649  0.1308  0.5464 -0.3104
 8477SOL    HW137064   2.316   3.774   4.707  0.6786  1.5307 -0.2095
 8477SOL    HW237065   2.297   3.897   4.628 -1.3457  1.2600 -0.6594
 8478SOL     OW37066   2.144   2.029   1.785  0.3125 -0.1589 -0.0180
 8478SOL    HW137067   2.166   2.117   1.815  0.7621 -1.0249  2.2080
 8478SOL    HW237068   2.082   2.000   1.853 -1.2692 -2.4634 -2.4681
 8479SOL     OW37069   4.258   2.984  10.887 -0.9476 -0.2692  0.3509
 8479SOL    HW137070   4.254   3.042  10.964  0.5500 -0.3271  0.4719
 8479SOL    HW237071   4.304   3.045  10.828 -0.0778 -0.8668  0.4106
 8480SOL     OW37072   3.110   3.427   2.728 -0.0103 -0.4079  0.4360
 8480SOL    HW137073   3.025   3.432   2.684  0.0727  2.6376  0.5922
 8480SOL    HW237074   3.086   3.413   2.820  0.8284  0.6224  0.8160
 8481SOL     OW37075   3.266   1.448   2.216 -0.4654  0.4400 -0.0583
 8481SOL    HW137076   3.202   1.497   2.165  1.4524  1.5152 -1.4332
 8481SOL    HW237077   3.324   1.517   2.248  1.9109 -0.4237 -2.4641
 8482SOL     OW37078   2.309   0.905   4.364 -0.2036 -0.1198  0.9316
 8482SOL    HW137079   2.378   0.863   4.414  0.1080 -0.2052  0.4218
 8482SOL    HW237080   2.370   0.969   4.328 -1.9636  1.1694  0.1874
 8483SOL     OW37081   1.070   1.398  16.713  0.5053  0.0190 -0.1272
 8483SOL    HW137082   1.071   1.428  16.804 -0.2209  1.5938 -0.6487
 8483SOL    HW237083   1.040   1.309  16.732  0.2233  0.0492 -0.4400
 8484SOL     OW37084   1.157   4.682  12.987 -0.1065  0.1265  0.4194
 8484SOL    HW137085   1.176   4.626  12.912  0.5784  1.1856 -0.2057
 8484SOL    HW237086   1.218   4.647  13.051  0.5722 -0.9093 -0.7915
 8485SOL     OW37087   0.003   4.716   4.915 -0.0302  0.3037  0.4615
 8485SOL    HW137088   0.083   4.676   4.880 -0.7578  0.2248 -1.1222
 8485SOL    HW237089   4.683   4.702   4.841  0.9935 -1.2462 -0.0928
 8486SOL     OW37090   2.561   0.755   4.408  0.5803 -0.1703  0.0209
 8486SOL    HW137091   2.642   0.704   4.411 -0.5268 -1.8719  1.0403
 8486SOL    HW237092   2.554   0.771   4.314 -2.1756 -0.2278  0.2254
 8487SOL     OW37093   3.125   1.363  10.856 -0.0336  0.2491 -0.7340
 8487SOL    HW137094   3.102   1.285  10.908 -0.7108  0.6441 -0.4447
 8487SOL    HW237095   3.167   1.408  10.930 -0.7084 -0.4255  0.0634
 8488SOL     OW37096   0.912   4.202   4.484 -0.4711  0.4433 -0.4138
 8488SOL    HW137097   0.882   4.180   4.396 -1.4178 -0.8182  0.2190
 8488SOL    HW237098   0.835   4.182   4.539  0.0168 -1.3046 -0.3629
 8489SOL     OW37099   2.531   2.759   4.583 -0.7027 -0.1867  0.6989
 8489SOL    HW137100   2.604   2.698   4.596 -0.2795 -0.1002 -1.2539
 8489SOL    HW237101   2.494   2.752   4.671 -0.3336 -0.6237  0.8218
 8490SOL     OW37102   2.602   4.020  15.444  0.1893  0.1600 -0.5918
 8490SOL    HW137103   2.679   4.077  15.446  0.4716 -0.2010 -1.2317
 8490SOL    HW237104   2.586   4.002  15.537  1.2602  2.1757 -0.0065
 8491SOL     OW37105   0.745   3.958   3.507 -0.1048  0.3358 -0.2729
 8491SOL    HW137106   0.703   3.880   3.543 -0.6950 -0.6652 -3.1373
 8491SOL    HW237107   0.681   4.029   3.508 -1.4085 -0.8479  0.9699
 8492SOL     OW37108   1.312   3.210  10.080 -0.0604 -0.2602  0.3171
 8492SOL    HW137109   1.314   3.116  10.064 -2.8492 -0.6401  2.2409
 8492SOL    HW237110   1.223   3.229  10.111 -0.0151 -0.1916  0.4062
 8493SOL     OW37111   4.392   2.737   9.368 -0.6682  0.2363 -0.1350
 8493SOL    HW137112   4.434   2.663   9.412  1.2632  2.2062  1.3282
 8493SOL    HW237113   4.342   2.762   9.446  2.8962  0.9238  1.9365
 8494SOL     OW37114   2.550   0.525   3.849  0.4046  0.1082  0.2290
 8494SOL    HW137115   2.481   0.509   3.913 -0.3546 -0.5596 -0.7631
 8494SOL    HW237116   2.582   0.609   3.882  2.2538 -1.2974  2.0057
 8495SOL     OW37117   4.296   0.316  14.534 -0.0019 -0.0871 -0.0067
 8495SOL    HW137118   4.216   0.272  14.505  0.5751 -0.2866 -1.2953
 8495SOL    HW237119   4.267   0.406  14.546  0.2729 -0.2691  2.0788
 8496SOL     OW37120   4.504   1.702  13.024  0.0546 -0.5134  0.6587
 8496SOL    HW137121   4.590   1.724  12.988 -0.4280 -0.0408 -0.1972
 8496SOL    HW237122   4.444   1.726  12.953 -1.3234  0.0806  2.0311
 8497SOL     OW37123   2.111   3.175   4.386  0.6947 -0.0377 -0.4835
 8497SOL    HW137124   2.017   3.188   4.379  0.7506  0.9324  0.5922
 8497SOL    HW237125   2.122   3.090   4.342  0.4313  0.2554 -1.1194
 8498SOL     OW37126   4.615   1.173  10.627 -0.6050 -1.0180  0.0396
 8498SOL    HW137127   4.627   1.257  10.583 -2.1700  0.0477  1.6281
 8498SOL    HW237128   4.551   1.125  10.576 -0.0396  1.0976 -2.6472
 8499SOL     OW37129   2.919   4.112   7.673  0.1615 -0.5807 -0.2217
 8499SOL    HW137130   3.014   4.124   7.668  0.2501 -0.6227  1.4787
 8499SOL    HW237131   2.883   4.189   7.716  1.0030 -0.5026  0.3471
 8500SOL     OW37132   2.628   1.925   6.966  0.3033  1.0372  0.3798
 8500SOL    HW137133   2.566   1.891   7.031 -1.1530  3.6129  0.3582
 8500SOL    HW237134   2.562   1.950   6.901  1.1316  0.0298 -0.8315
 8501SOL     OW37135   1.398   0.039   9.036 -0.4465  0.0131 -0.3269
 8501SOL    HW137136   1.358   0.017   9.120  2.5578  0.7112  1.2848
 8501SOL    HW237137   1.348   4.724   8.976 -1.9429  0.5842  0.3880
 8502SOL     OW37138   0.675   2.124   5.621  0.7715 -0.2505  0.5071
 8502SOL    HW137139   0.710   2.127   5.532 -1.4532 -0.3241 -0.3731
 8502SOL    HW237140   0.610   2.194   5.627 -0.2253 -0.9714 -2.1053
 8503SOL     OW37141   2.413   1.992  17.033  0.1594  0.6762 -0.2787
 8503SOL    HW137142   2.407   2.065  16.971  0.1888  0.6324 -0.3320
 8503SOL    HW237143   2.490   2.025  17.080  0.1277 -1.4439  1.2199
 8504SOL     OW37144   2.048   1.327   4.814  0.2252  0.3868 -0.3034
 8504SOL    HW137145   2.088   1.269   4.750  1.0266  0.6448 -0.0307
 8504SOL    HW237146   2.093   1.410   4.798 -0.8538  0.9777 -0.3205
 8505SOL     OW37147   3.985   3.870  16.757  0.7395  0.5887  0.0232
 8505SOL    HW137148   3.986   3.907  16.845 -0.9031  1.6989 -0.4303
 8505SOL    HW237149   3.918   3.923  16.714 -0.3551  1.7213  3.1496
 8506SOL     OW37150   0.658   2.722   6.961  0.2202 -0.1979 -0.4196
 8506SOL    HW137151   0.565   2.745   6.952  0.2288 -0.4898 -1.3235
 8506SOL    HW237152   0.703   2.798   6.996 -1.1481 -0.6941  2.4801
 8507SOL     OW37153   1.408   2.827   6.430  0.7599  0.5066 -0.6762
 8507SOL    HW137154   1.329   2.848   6.479  1.4017 -0.8283  0.9368
 8507SOL    HW237155   1.410   2.901   6.369  0.0351  1.4785  0.4850
 8508SOL     OW37156   2.102   3.599   0.407 -0.2951 -0.2680 -0.1871
 8508SOL    HW137157   2.047   3.547   0.350  0.7405 -1.0995 -0.4283
 8508SOL    HW237158   2.189   3.560   0.398 -0.5190 -0.9864  0.8750
 8509SOL     OW37159   0.984   1.837   3.357 -0.2035 -0.2029  0.1804
 8509SOL    HW137160   1.003   1.743   3.367  0.0034 -0.3598 -1.6739
 8509SOL    HW237161   1.041   1.862   3.284 -1.2998  1.2476 -0.1772
 8510SOL     OW37162   0.015   0.837   5.506 -0.1789  0.0313  0.4024
 8510SOL    HW137163   0.041   0.761   5.454  1.1591  0.5412  0.3135
 8510SOL    HW237164   4.670   0.812   5.542  1.2206 -1.5917  2.5276
 8511SOL     OW37165   1.120   3.417   4.672  0.9874  0.2378 -0.3918
 8511SOL    HW137166   1.057   3.489   4.663  0.1565 -0.4942 -0.4629
 8511SOL    HW237167   1.084   3.363   4.742  2.8056  0.3893  0.6597
 8512SOL     OW37168   1.926   4.420   5.396 -0.4826 -0.0814  0.1264
 8512SOL    HW137169   1.896   4.335   5.365  0.1560  0.0868 -0.9187
 8512SOL    HW237170   1.989   4.384   5.458  0.1277 -0.9316 -1.0109
 8513SOL     OW37171   4.184   0.252   6.083  0.2743 -0.1770 -0.0173
 8513SOL    HW137172   4.120   0.264   6.153 -0.8556 -0.4625 -1.0028
 8513SOL    HW237173   4.134   0.276   6.005 -0.4858 -1.6603  0.0025
 8514SOL     OW37174   4.601   2.765   4.290  1.2147  0.1516 -0.1644
 8514SOL    HW137175   4.681   2.814   4.274  1.8069 -1.1338 -1.1206
 8514SOL    HW237176   4.645   2.689   4.328  2.2419  0.5617 -0.5512
 8515SOL     OW37177   1.932   4.393   5.976  0.3607 -0.1554 -0.4616
 8515SOL    HW137178   1.922   4.419   6.068 -2.4073 -0.5924 -0.6197
 8515SOL    HW237179   1.841   4.378   5.950  0.2495  0.0806 -0.2119
 8516SOL     OW37180   0.989   0.863   5.669  0.2191 -0.3348  0.2614
 8516SOL    HW137181   1.053   0.869   5.598  0.5436 -1.1625  0.4801
 8516SOL    HW237182   1.009   0.773   5.693  1.7819 -0.7171 -2.4504
 8517SOL     OW37183   2.173   2.671  13.155 -0.5741 -0.4479  0.0950
 8517SOL    HW137184   2.194   2.578  13.165  1.3306  0.1021  1.1257
 8517SOL    HW237185   2.254   2.710  13.186 -0.2092 -2.2498  1.4675
 8518SOL     OW37186   0.378   1.099  11.981  0.1462  0.0003 -0.1057
 8518SOL    HW137187   0.463   1.117  12.021 -0.6648  1.3199  1.0389
 8518SOL    HW237188   0.375   1.004  11.971 -4.2689  0.3131 -1.7229
 8519SOL     OW37189   3.958   3.744   1.115  0.1747 -0.0290 -0.0930
 8519SOL    HW137190   3.960   3.684   1.190 -1.3471  0.8546  0.6457
 8519SOL    HW237191   3.976   3.830   1.153  1.4547 -0.6744  0.7604
 8520SOL     OW37192   0.955   0.199   8.923 -0.3004 -0.2917  0.9243
 8520SOL    HW137193   0.919   0.161   9.004  0.7551  0.5055  1.7568
 8520SOL    HW237194   0.922   0.139   8.855 -0.1205 -1.5876  1.9699
 8521SOL     OW37195   3.204   3.793   8.798  0.0154  0.7846 -0.2457
 8521SOL    HW137196   3.290   3.762   8.771  1.0237  1.2683  2.3489
 8521SOL    HW237197   3.225   3.812   8.890  0.9984  2.4035 -0.7921
 8522SOL     OW37198   0.251   2.625  17.392  0.2185  0.0374 -0.1098
 8522SOL    HW137199   0.231   2.560  17.459 -5.7020 -2.2006 -3.9995
 8522SOL    HW237200   0.195   2.700  17.411  1.5301  1.1972 -0.8496
 8523SOL     OW37201   1.250   4.614   6.981  0.0946 -0.2506  0.5771
 8523SOL    HW137202   1.205   4.646   7.060  1.5627  1.7102  0.5937
 8523SOL    HW237203   1.341   4.615   7.011  0.0616 -1.2421  0.7080
 8524SOL     OW37204   0.073   3.897   5.060 -0.1048  0.2594  0.1819
 8524SOL    HW137205   0.015   3.891   4.984 -1.9426 -0.1400  1.6162
 8524SOL    HW237206   0.058   3.986   5.093 -1.5163  1.0578 -2.5576
 8525SOL     OW37207   2.579   4.072   7.685  0.1056 -0.4932  0.1175
 8525SOL    HW137208   2.622   4.140   7.736 -1.8655  0.8434 -0.0124
 8525SOL    HW237209   2.513   4.110   7.626  0.5069  1.2650  0.8115
 8526SOL     OW37210   1.767   3.028   4.496  0.1804 -0.2930 -0.3774
 8526SOL    HW137211   1.761   3.106   4.442 -2.8130 -0.7404 -0.7074
 8526SOL    HW237212   1.710   2.971   4.445  0.8840 -0.9829 -0.3867
 8527SOL     OW37213   3.433   1.635   2.397 -0.2369 -0.2197  0.4519
 8527SOL    HW137214   3.475   1.695   2.458 -3.1006 -0.4967  2.7306
 8527SOL    HW237215   3.506   1.645   2.336  1.5498 -1.9604  2.2745
 8528SOL     OW37216   3.210   2.162  12.538 -0.2182  0.3107  0.7644
 8528SOL    HW137217   3.163   2.245  12.539 -0.6949  0.0331  1.1492
 8528SOL    HW237218   3.143   2.098  12.514  0.3274  0.3054 -0.7276
 8529SOL     OW37219   2.643   3.743   6.098  0.5794  0.5367 -1.1835
 8529SOL    HW137220   2.594   3.772   6.021 -0.9305  0.3525 -0.3067
 8529SOL    HW237221   2.588   3.774   6.170  0.8517  1.8967 -1.5590
 8530SOL     OW37222   1.227   2.082   7.366  0.1459 -0.2528  0.1825
 8530SOL    HW137223   1.224   2.093   7.461 -2.2462 -1.9114  0.3033
 8530SOL    HW237224   1.156   2.020   7.351  0.2710 -0.5278  0.7190
 8531SOL     OW37225   2.450   4.213   8.514 -0.1065 -0.3138  0.0790
 8531SOL    HW137226   2.545   4.224   8.521  0.1915 -1.9729 -1.1325
 8531SOL    HW237227   2.441   4.121   8.542 -0.2248 -0.6159 -0.9354
 8532SOL     OW37228   0.326   1.436  13.876  0.3140 -0.4111 -0.5401
 8532SOL    HW137229   0.330   1.468  13.966  0.8635  0.9250 -1.0376
 8532SOL    HW237230   0.290   1.511  13.829 -1.7189 -1.5282 -0.7533
 8533SOL     OW37231   0.740   2.107   6.450 -0.2260 -0.6264 -0.0543
 8533SOL    HW137232   0.653   2.125   6.486  0.4631  2.3811  0.1184
 8533SOL    HW237233   0.737   2.018   6.414 -1.5744 -0.2225 -0.9450
 8534SOL     OW37234   2.573   2.340   3.861  0.1625 -0.1875 -0.0372
 8534SOL    HW137235   2.544   2.248   3.855  0.6409 -0.3047 -0.5077
 8534SOL    HW237236   2.625   2.332   3.941  0.5535 -0.1929 -0.2907
 8535SOL     OW37237   3.949   2.256   5.269 -0.2804  0.1647 -0.5080
 8535SOL    HW137238   3.992   2.339   5.245  0.2786 -0.0940 -0.4108
 8535SOL    HW237239   3.862   2.277   5.236 -0.1604 -0.2955 -1.1073
 8536SOL     OW37240   1.235   2.283  14.315  0.4783  0.3264 -0.7040
 8536SOL    HW137241   1.196   2.285  14.403  2.8426 -1.2501  0.3628
 8536SOL    HW237242   1.306   2.347  14.319  1.1676 -0.6015  2.1260
 8537SOL     OW37243   0.916   1.321   8.988  0.2154 -0.4270  0.1157
 8537SOL    HW137244   0.847   1.259   8.966 -0.2638  0.0909  0.1697
 8537SOL    HW237245   0.967   1.276   9.054 -0.1485 -2.6914 -1.1615
 8538SOL     OW37246   0.151   1.418   2.906  0.1201  0.3230 -0.8767
 8538SOL    HW137247   0.074   1.387   2.954  0.0251  1.7525 -0.0865
 8538SOL    HW237248   0.100   1.465   2.840 -0.9874  0.1638 -0.1332
 8539SOL     OW37249   3.958   3.009   2.222  0.0251  0.4146 -0.0409
 8539SOL    HW137250   3.975   3.008   2.316 -0.4113 -1.5905  0.0264
 8539SOL    HW237251   3.864   2.995   2.219 -0.2661  1.9768  1.6875
 8540SOL     OW37252   1.665   2.521   1.796 -0.1154 -0.5840  0.0156
 8540SOL    HW137253   1.630   2.453   1.852  1.4588 -0.6311  0.9555
 8540SOL    HW237254   1.759   2.500   1.795 -0.1942 -0.9952  1.8219
 8541SOL     OW37255   3.602   3.988   9.388  0.3948 -0.6258 -0.0338
 8541SOL    HW137256   3.512   4.020   9.381  0.7149  0.0048 -1.3696
 8541SOL    HW237257   3.590   3.894   9.402 -1.0385 -0.3141  0.7313
 8542SOL     OW37258   4.542   4.069  12.866 -0.2062  0.0230  0.4997
 8542SOL    HW137259   4.550   4.133  12.937  1.8318 -0.5402  0.7973
 8542SOL    HW237260   4.477   4.108  12.808  1.1936  0.7546 -0.5801
 8543SOL     OW37261   1.151   4.178  13.031  0.6135 -0.0070  0.0668
 8543SOL    HW137262   1.208   4.252  13.013 -1.3116  1.5388  0.2963
 8543SOL    HW237263   1.145   4.142  12.943  0.6243 -0.1902  0.1413
 8544SOL     OW37264   0.574   1.542   2.475  0.0192 -0.6173  0.0556
 8544SOL    HW137265   0.582   1.484   2.399 -0.0907 -0.6064  0.0354
 8544SOL    HW237266   0.480   1.551   2.489  0.1659 -0.1599  0.7297
 8545SOL     OW37267   1.890   2.875   7.850  0.0758 -0.0606 -0.3352
 8545SOL    HW137268   1.896   2.886   7.755  0.7103  0.8390 -0.1850
 8545SOL    HW237269   1.937   2.953   7.877 -0.1294 -0.1845  0.3791
 8546SOL     OW37270   1.233   1.817  15.334  0.3979  0.2682  0.6338
 8546SOL    HW137271   1.221   1.905  15.300  0.0527  0.3719  1.0243
 8546SOL    HW237272   1.326   1.807  15.357  0.2112  1.9457  2.0770
 8547SOL     OW37273   0.074   4.687   3.655  0.0611  0.1561  0.2030
 8547SOL    HW137274   0.086   4.614   3.594  0.6115 -0.1420  0.6683
 8547SOL    HW237275   0.155   4.690   3.705  0.7196 -0.4282 -0.8321
 8548SOL     OW37276   2.295   0.962   1.906  0.8718 -0.1659 -0.4181
 8548SOL    HW137277   2.327   0.998   1.823 -0.3532  0.6574 -0.5418
 8548SOL    HW237278   2.252   0.882   1.876  2.2901 -0.8426 -0.6130
 8549SOL     OW37279   3.195   2.786   4.409  0.5432  0.1118 -0.0446
 8549SOL    HW137280   3.205   2.760   4.500 -1.4622 -1.5240 -0.2761
 8549SOL    HW237281   3.196   2.694   4.381  1.9024  0.0158  0.3609
 8550SOL     OW37282   2.998   3.609   8.870  0.1138 -0.0054 -0.3712
 8550SOL    HW137283   3.084   3.608   8.913 -0.6653 -0.5345  1.1904
 8550SOL    HW237284   2.998   3.698   8.836 -2.7805  1.0714  2.4718
 8551SOL     OW37285   2.505   4.149  16.678 -0.6584  0.1538 -0.2803
 8551SOL    HW137286   2.427   4.202  16.692 -2.3409 -2.1996 -0.6935
 8551SOL    HW237287   2.503   4.137  16.583  2.2424  1.8562 -0.5387
 8552SOL     OW37288   3.748   0.186   3.781  0.4295  0.1217  0.0272
 8552SOL    HW137289   3.699   0.149   3.854 -0.8453  1.0578 -0.3600
 8552SOL    HW237290   3.725   0.133   3.705 -1.7201  0.8667  0.1694
 8553SOL     OW37291   2.925   0.175   9.424  0.3985  0.3861  0.2683
 8553SOL    HW137292   2.932   0.081   9.439  1.2517  0.2407 -1.0565
 8553SOL    HW237293   2.833   0.193   9.445  1.5681  3.1819  3.0412
 8554SOL     OW37294   0.058   3.673   7.133 -0.7251  0.6714 -0.0906
 8554SOL    HW137295   4.706   3.700   7.132 -0.0070  3.0826 -1.8742
 8554SOL    HW237296   0.104   3.751   7.164  0.0098  0.1984 -0.0136
 8555SOL     OW37297   4.721   1.205  10.027  0.7028  0.2297 -0.1489
 8555SOL    HW137298   4.700   1.263  10.099  0.6987  1.4065 -1.1057
 8555SOL    HW237299   4.637   1.163  10.008  1.2681 -1.3975  0.8890
 8556SOL     OW37300   3.502   3.286   3.620  0.1115 -0.3180  0.0121
 8556SOL    HW137301   3.597   3.289   3.606  0.1199 -1.2735 -0.1248
 8556SOL    HW237302   3.483   3.365   3.670  2.3259  0.2275 -0.0189
 8557SOL     OW37303   3.623   3.113   6.315 -0.0183  0.0359 -0.1593
 8557SOL    HW137304   3.645   3.019   6.311  1.5023  0.3694  0.2801
 8557SOL    HW237305   3.695   3.145   6.369  1.3227  0.2982 -2.0879
 8558SOL     OW37306   3.605   2.481   2.742  0.0001  0.4261  0.1614
 8558SOL    HW137307   3.659   2.542   2.691 -0.2857 -1.4129 -2.3514
 8558SOL    HW237308   3.571   2.542   2.807  0.3298  0.1755  0.5704
 8559SOL     OW37309   1.506   2.861   5.195  0.4408 -0.2841 -0.2187
 8559SOL    HW137310   1.483   2.801   5.124  0.6392  0.3598 -0.8286
 8559SOL    HW237311   1.580   2.818   5.237 -0.1648 -1.1292 -0.0103
 8560SOL     OW37312   2.826   0.781   6.002 -0.4076 -0.1320 -0.2227
 8560SOL    HW137313   2.843   0.709   5.942 -2.2765  1.3771 -2.5319
 8560SOL    HW237314   2.782   0.850   5.952 -2.1459 -2.0139 -1.2591
 8561SOL     OW37315   3.254   0.239   1.975  0.1280 -0.5887 -0.4860
 8561SOL    HW137316   3.179   0.199   1.932 -0.2351 -0.7053  0.2621
 8561SOL    HW237317   3.216   0.254   2.062  2.1669  0.5638  0.2055
 8562SOL     OW37318   4.097   0.237   1.620 -0.4631  0.1794  0.0796
 8562SOL    HW137319   4.167   0.298   1.597 -0.2333  0.7912  2.3141
 8562SOL    HW237320   4.128   0.164   1.567 -0.6819  1.3481 -1.6611
 8563SOL     OW37321   1.240   1.564   9.545  0.7031 -0.2724 -0.4094
 8563SOL    HW137322   1.221   1.590   9.455  0.4317 -2.2299 -0.9141
 8563SOL    HW237323   1.336   1.564   9.543  0.7062  2.4519  0.1522
 8564SOL     OW37324   0.362   3.010   4.159  0.4301  0.5001 -0.2419
 8564SOL    HW137325   0.367   3.026   4.064 -0.9361 -2.3479 -0.7847
 8564SOL    HW237326   0.357   3.099   4.195  0.8480  0.2692  0.3822
 8565SOL     OW37327   1.404   1.875  10.151 -0.1974  0.0600 -0.1052
 8565SOL    HW137328   1.312   1.857  10.168  0.5932 -0.8873  3.2144
 8565SOL    HW237329   1.394   1.970  10.154 -1.0234 -0.0303 -0.0275
 8566SOL     OW37330   4.227   2.596   4.646 -0.1223  0.1857 -0.1942
 8566SOL    HW137331   4.260   2.529   4.705  0.0343  0.2208 -0.2410
 8566SOL    HW237332   4.218   2.669   4.707 -1.0058 -1.3559  1.5047
 8567SOL     OW37333   1.756   0.727   4.041 -0.0027  0.4324  0.3436
 8567SOL    HW137334   1.685   0.707   4.101 -0.0123  2.3572  0.9795
 8567SOL    HW237335   1.707   0.743   3.961 -1.8184 -1.4496  1.0990
 8568SOL     OW37336   3.453   2.833  16.147 -0.2502  0.2882  0.9666
 8568SOL    HW137337   3.519   2.820  16.079 -3.1808 -1.0245 -1.6385
 8568SOL    HW237338   3.488   2.918  16.174 -0.8256  0.5766  0.7921
 8569SOL     OW37339   4.146   3.425  15.718 -0.0829  0.1482 -0.2516
 8569SOL    HW137340   4.089   3.402  15.644 -2.9902  0.9147  1.7507
 8569SOL    HW237341   4.116   3.511  15.747  0.3120  0.1102  0.2620
 8570SOL     OW37342   0.266   0.579   8.811 -0.4159  0.0760 -0.2044
 8570SOL    HW137343   0.184   0.609   8.850  0.1486  0.2187  0.8674
 8570SOL    HW237344   0.336   0.624   8.857 -0.3808  1.4378 -1.5829
 8571SOL     OW37345   1.066   2.252   1.244  0.7742 -0.0440  0.2182
 8571SOL    HW137346   1.031   2.200   1.316 -0.9991  0.4201 -0.3218
 8571SOL    HW237347   0.987   2.286   1.203 -0.1842 -0.8483  1.3716
 8572SOL     OW37348   4.180   1.837  14.692  0.1420  0.3609  0.1098
 8572SOL    HW137349   4.256   1.896  14.688 -0.3078  0.9946  0.7516
 8572SOL    HW237350   4.118   1.910  14.698 -2.3598 -1.6974 -1.3218
 8573SOL     OW37351   0.580   3.889   3.060  0.4359  0.3905  0.2191
 8573SOL    HW137352   0.516   3.819   3.075  0.7581 -0.1109 -0.8095
 8573SOL    HW237353   0.537   3.964   3.103 -1.0474 -0.2790 -0.0808
 8574SOL     OW37354   3.931   3.217   9.438  0.2108 -0.1289 -0.3614
 8574SOL    HW137355   3.841   3.193   9.462 -0.3178  3.5062  1.2491
 8574SOL    HW237356   3.915   3.224   9.344 -2.9197  0.6910  0.2639
 8575SOL     OW37357   0.115   1.416   5.037  0.9533 -0.3135 -0.7128
 8575SOL    HW137358   0.124   1.371   5.122 -0.1272  0.2815 -0.2745
 8575SOL    HW237359   0.183   1.482   5.045  0.5061  0.1888 -1.0808
 8576SOL     OW37360   3.952   0.855  17.475 -0.0003 -0.1669  0.1960
 8576SOL    HW137361   3.881   0.919  17.463 -1.9651 -2.2567  0.7594
 8576SOL    HW237362   4.018   0.913  17.437  0.6444 -0.0493  1.4806
 8577SOL     OW37363   2.963   1.638  16.039 -0.9529  0.7521  0.0198
 8577SOL    HW137364   3.014   1.676  15.968  0.2447  0.0098  0.4867
 8577SOL    HW237365   3.011   1.556  16.048 -0.9044  0.5330 -2.1230
 8578SOL     OW37366   1.911   1.031   2.290  0.0506  0.5494 -0.1970
 8578SOL    HW137367   1.993   0.990   2.262  0.7474  0.7076  1.5945
 8578SOL    HW237368   1.845   0.971   2.256 -0.4154  1.2378 -0.5130
 8579SOL     OW37369   2.360   0.082   2.062 -0.3538  0.5430  0.0251
 8579SOL    HW137370   2.326   0.124   1.983  0.4192 -1.6495 -1.4973
 8579SOL    HW237371   2.375   4.732   2.031 -1.0360  0.2009  0.7143
 8580SOL     OW37372   3.127   1.239   6.195  0.7689  0.5751  0.1063
 8580SOL    HW137373   3.153   1.262   6.284 -0.0360  0.5565  0.3442
 8580SOL    HW237374   3.037   1.271   6.185  0.4856 -0.3125 -0.1195
 8581SOL     OW37375   2.731   0.073   3.358  0.4157 -0.2855  0.4018
 8581SOL    HW137376   2.646   0.114   3.371  0.8181  0.7501 -0.3088
 8581SOL    HW237377   2.731   0.033   3.445 -0.4962 -4.1182 -1.3559
 8582SOL     OW37378   0.214   1.303  12.066 -0.4341  0.4573  0.5410
 8582SOL    HW137379   0.256   1.220  12.044 -1.5154  0.4503 -1.5515
 8582SOL    HW237380   0.211   1.343  11.979  0.8670  1.2829  0.8858
 8583SOL     OW37381   3.955   0.422  11.405  0.2670  0.6419 -0.3045
 8583SOL    HW137382   3.898   0.346  11.412  0.3748  0.9099  3.5822
 8583SOL    HW237383   4.036   0.377  11.381 -0.9280 -2.1381  0.9434
 8584SOL     OW37384   0.919   4.696   7.660 -0.0827  0.1124 -0.0737
 8584SOL    HW137385   0.978   0.028   7.682 -0.6240  0.4724  0.1818
 8584SOL    HW237386   0.834   4.734   7.638  1.1374  0.4317 -4.1311
 8585SOL     OW37387   1.976   3.561   2.097 -0.0823  0.8239  0.0557
 8585SOL    HW137388   2.068   3.578   2.077 -0.3045  0.6333 -1.1368
 8585SOL    HW237389   1.953   3.517   2.015 -0.9010  1.3870 -0.0219
 8586SOL     OW37390   1.337   4.066   2.649  0.0865  0.2297 -0.7759
 8586SOL    HW137391   1.319   4.147   2.602  1.0820  0.6300 -0.4791
 8586SOL    HW237392   1.433   4.062   2.650  0.1899  2.8523 -0.9793
 8587SOL     OW37393   3.598   2.848   7.067 -0.0895 -0.3892 -0.8638
 8587SOL    HW137394   3.507   2.852   7.036 -0.9265 -0.1837  1.6421
 8587SOL    HW237395   3.589   2.880   7.156  2.0546 -1.3509 -0.2958
 8588SOL     OW37396   3.972   1.087   2.076  0.1897  0.3082 -0.6470
 8588SOL    HW137397   4.041   1.071   2.140 -0.5203  0.1268  0.0729
 8588SOL    HW237398   4.011   1.061   1.992  0.2710  1.9153 -1.1015
 8589SOL     OW37399   1.225   2.492   3.658  0.4098 -0.1676 -0.2599
 8589SOL    HW137400   1.200   2.400   3.649 -0.8117  0.2365 -1.0625
 8589SOL    HW237401   1.312   2.488   3.618  1.2054  1.9145  1.2941
 8590SOL     OW37402   0.527   4.394   6.157  0.1696 -0.4622  0.1294
 8590SOL    HW137403   0.441   4.436   6.166  0.1257  0.0491 -2.5116
 8590SOL    HW237404   0.508   4.309   6.196  0.0322 -0.4287  0.1360
 8591SOL     OW37405   3.454   3.017  15.316 -0.5717  0.1667  0.4814
 8591SOL    HW137406   3.495   2.936  15.345  0.9948  0.5364 -0.6570
 8591SOL    HW237407   3.529   3.074  15.297 -1.9503  2.2075  1.0900
 8592SOL     OW37408   4.184   0.021  12.357 -0.1827 -0.3850 -0.0052
 8592SOL    HW137409   4.094   0.052  12.343 -0.3323 -0.8596 -0.0827
 8592SOL    HW237410   4.186   0.036  12.451  0.1396  3.6436 -0.6583
 8593SOL     OW37411   2.056   1.981  13.133 -0.1014  0.2046  0.0990
 8593SOL    HW137412   2.094   1.940  13.055  1.0213  1.8207 -0.1980
 8593SOL    HW237413   1.968   2.003  13.103 -0.9625  0.7178  3.0065
 8594SOL     OW37414   2.470   0.021  13.120 -0.0213 -0.1702 -0.4145
 8594SOL    HW137415   2.543   0.079  13.141  0.8807 -2.6303  3.3695
 8594SOL    HW237416   2.435   0.016  13.209  2.1490  1.9086  0.5395
 8595SOL     OW37417   0.091   1.808   2.093  0.0111  0.2263  0.2992
 8595SOL    HW137418   0.126   1.785   2.178 -0.1800 -0.1011  0.2869
 8595SOL    HW237419   0.170   1.779   2.047 -0.3915  1.4989 -1.1998
 8596SOL     OW37420   2.955   1.019   8.546 -0.3750  0.2872  0.3758
 8596SOL    HW137421   2.890   0.962   8.588  0.2738 -0.4968  0.3308
 8596SOL    HW237422   3.011   1.045   8.619 -0.1629 -0.7463  0.5940
 8597SOL     OW37423   4.466   0.920  10.188  0.4524  0.2615 -0.5326
 8597SOL    HW137424   4.477   0.833  10.225  0.4868  0.8882  0.9169
 8597SOL    HW237425   4.480   0.889  10.099  1.6284  0.7392 -0.5133
 8598SOL     OW37426   1.731   2.860   7.382  0.2227 -0.2922 -0.4895
 8598SOL    HW137427   1.700   2.782   7.335 -0.7468 -0.8436  1.0737
 8598SOL    HW237428   1.729   2.923   7.310 -0.4778  2.1767  1.6906
 8599SOL     OW37429   0.759   2.997  15.694 -0.4095 -0.0638  0.2416
 8599SOL    HW137430   0.682   3.025  15.743 -1.0177 -1.1061 -0.1226
 8599SOL    HW237431   0.820   3.069  15.703  2.0996 -2.1903  0.3324
 8600SOL     OW37432   2.419   2.990  13.469 -0.1575 -0.1553 -0.8465
 8600SOL    HW137433   2.503   3.028  13.442 -1.5916  1.0732 -3.6190
 8600SOL    HW237434   2.409   3.024  13.558  1.9026  1.6964 -1.3232
 8601SOL     OW37435   0.573   4.413   9.487 -0.6387 -0.2292  0.1504
 8601SOL    HW137436   0.565   4.318   9.502 -0.2099 -0.2978 -0.0691
 8601SOL    HW237437   0.553   4.447   9.574 -0.0457 -0.5128  0.4023
 8602SOL     OW37438   0.020   0.403   2.277  0.3392  0.2384  0.0403
 8602SOL    HW137439   4.669   0.412   2.249  0.9335 -0.9596 -2.3056
 8602SOL    HW237440   0.061   0.369   2.198 -0.4673 -0.6165 -0.0028
 8603SOL     OW37441   3.618   4.003   4.347  0.7495 -0.1898  0.0776
 8603SOL    HW137442   3.667   3.936   4.300 -1.4514 -0.6467 -1.5653
 8603SOL    HW237443   3.529   3.967   4.347 -0.2086  2.1434 -1.4087
 8604SOL     OW37444   3.600   2.936   6.639 -0.1172  0.3614  0.0957
 8604SOL    HW137445   3.683   2.945   6.593  0.1562  0.4347  0.6059
 8604SOL    HW237446   3.607   2.998   6.712  1.4791  0.8143 -0.4614
 8605SOL     OW37447   4.191   2.290  14.845  0.4368  0.2418 -0.0692
 8605SOL    HW137448   4.167   2.357  14.910  2.9292  2.5136 -1.4481
 8605SOL    HW237449   4.256   2.240  14.895 -1.5945 -1.2301  1.1079
 8606SOL     OW37450   4.440   1.279   4.509 -0.2637 -0.1315  0.2139
 8606SOL    HW137451   4.535   1.287   4.521  0.3328 -0.9864 -3.9926
 8606SOL    HW237452   4.412   1.228   4.585 -0.7395  0.6877  0.5843
 8607SOL     OW37453   1.485   3.047   3.977 -0.5553  0.0943  0.1348
 8607SOL    HW137454   1.551   2.980   3.997  0.5959  1.6088  1.4198
 8607SOL    HW237455   1.519   3.097   3.902  0.0800  0.6185  0.7651
 8608SOL     OW37456   0.521   3.704   5.345 -0.3151 -0.3765  0.5859
 8608SOL    HW137457   0.459   3.774   5.328 -1.5098 -2.2927 -2.9565
 8608SOL    HW237458   0.473   3.641   5.292  0.7797 -0.1626 -0.6809
 8609SOL     OW37459   0.621   3.887   6.240  0.3075  0.1712 -0.0967
 8609SOL    HW137460   0.637   3.947   6.168  2.9062  2.3172  2.2702
 8609SOL    HW237461   0.650   3.942   6.313  0.5760  0.5582 -0.4887
 8610SOL     OW37462   0.205   1.828   6.529  0.3735 -0.0050  0.4060
 8610SOL    HW137463   0.250   1.770   6.590  0.1015 -1.2347 -0.5501
 8610SOL    HW237464   0.166   1.889   6.591  1.3541  1.5964 -0.5515
 8611SOL     OW37465   1.726   0.013   6.902 -0.3250  0.8048 -0.1501
 8611SOL    HW137466   1.697   0.040   6.814  2.7719  0.3138 -1.3199
 8611SOL    HW237467   1.681   4.670   6.915  1.8468 -0.9210 -3.6170
 8612SOL     OW37468   0.874   3.650   3.067  0.2007 -0.4948  0.0075
 8612SOL    HW137469   0.920   3.693   2.995 -0.0644 -1.7589 -0.9126
 8612SOL    HW237470   0.851   3.728   3.119 -0.0874 -1.8052  1.8284
 8613SOL     OW37471   2.095   0.955   5.213  0.0343 -0.2140  0.2186
 8613SOL    HW137472   2.095   1.050   5.227  0.6961  0.0288 -1.4125
 8613SOL    HW237473   2.113   0.947   5.120 -0.7430 -0.1376  0.0627
 8614SOL     OW37474   3.051   2.410  12.751 -0.4141 -0.4605 -0.3124
 8614SOL    HW137475   3.052   2.397  12.656  2.4311  2.1924 -0.6514
 8614SOL    HW237476   3.145   2.401  12.770 -0.2136 -0.7020 -1.3733
 8615SOL     OW37477   3.550   3.122   0.647 -0.5509 -0.1929  0.4569
 8615SOL    HW137478   3.505   3.078   0.575 -1.4588 -1.6889  1.9405
 8615SOL    HW237479   3.564   3.211   0.616 -1.6951 -0.9156 -2.0755
 8616SOL     OW37480   1.323   1.649  13.074 -0.0932  0.2116  0.5763
 8616SOL    HW137481   1.330   1.595  12.995 -0.6820 -0.5720  1.0558
 8616SOL    HW237482   1.274   1.724  13.041  0.5023  0.5017  0.3572
 8617SOL     OW37483   1.726   1.724   2.863 -0.0484 -0.1004  0.8978
 8617SOL    HW137484   1.708   1.736   2.956 -1.5823  1.7871  0.3515
 8617SOL    HW237485   1.635   1.702   2.840  0.4297  0.8995 -2.0142
 8618SOL     OW37486   0.997   1.798   0.250 -0.7406 -0.0253  0.1313
 8618SOL    HW137487   0.947   1.878   0.269  1.0109  1.0365  0.2587
 8618SOL    HW237488   1.002   1.800   0.155  1.3892  1.3243  0.2765
 8619SOL     OW37489   3.099   1.369   4.943  0.1158  0.1545  0.4383
 8619SOL    HW137490   3.138   1.433   5.003  1.6146  1.3076 -1.7220
 8619SOL    HW237491   3.063   1.422   4.871 -0.3972 -0.7776  0.0153
 8620SOL     OW37492   0.012   4.078   9.551  0.2030  0.1204  0.2406
 8620SOL    HW137493   4.691   4.033   9.494 -0.1330  2.1424 -0.9698
 8620SOL    HW237494   4.696   4.151   9.577  0.6543  0.0841  1.3420
 8621SOL     OW37495   2.171   2.596   0.365  0.2939  0.2659 -0.2679
 8621SOL    HW137496   2.152   2.516   0.316 -0.3067 -0.3434  0.9472
 8621SOL    HW237497   2.218   2.646   0.299  0.5535 -1.1359 -1.1610
 8622SOL     OW37498   0.646   0.021   7.703 -0.1774  0.1676  0.0267
 8622SOL    HW137499   0.566   0.069   7.685 -1.0303 -1.8601 -1.6295
 8622SOL    HW237500   0.713   0.089   7.697  0.8162 -0.9947 -1.9923
 8623SOL     OW37501   4.119   0.421   8.770  0.2703 -0.4025 -0.2278
 8623SOL    HW137502   4.167   0.456   8.695 -2.0975  0.9666 -1.1093
 8623SOL    HW237503   4.182   0.354   8.798  1.9602  1.0247 -0.6220
 8624SOL     OW37504   2.531   4.220   5.858  1.0225 -0.2087 -0.5035
 8624SOL    HW137505   2.563   4.156   5.922 -0.4529 -0.4555 -0.0205
 8624SOL    HW237506   2.559   4.303   5.895  0.3730 -1.0057  1.7439
 8625SOL     OW37507   1.236   0.805   0.716 -0.3420 -0.0829  0.1878
 8625SOL    HW137508   1.237   0.883   0.771 -0.0070 -0.2714  0.4472
 8625SOL    HW237509   1.161   0.760   0.755 -0.1561 -0.7586 -0.2259
 8626SOL     OW37510   2.985   2.892   3.521 -0.5845  0.1292 -0.2904
 8626SOL    HW137511   2.961   2.823   3.583 -2.6834  1.5734  0.4935
 8626SOL    HW237512   3.065   2.918   3.567 -0.1286 -2.1435  0.1877
 8627SOL     OW37513   2.965   1.278   6.474 -0.0531 -0.2801  0.5643
 8627SOL    HW137514   2.958   1.190   6.512  0.2022 -0.1456  0.9242
 8627SOL    HW237515   2.876   1.310   6.489  0.5105  0.7286  1.7366
 8628SOL     OW37516   3.643   2.361   6.754 -0.4077  0.4155  0.0299
 8628SOL    HW137517   3.583   2.429   6.725 -0.8019 -0.9363 -2.2712
 8628SOL    HW237518   3.722   2.410   6.729 -1.4944  1.8609 -0.5265
 8629SOL     OW37519   2.671   4.362   5.535  0.0215 -0.6375  0.4667
 8629SOL    HW137520   2.644   4.270   5.536  1.5989 -1.1032  0.6799
 8629SOL    HW237521   2.720   4.361   5.617  1.1076 -0.4479 -0.1868
 8630SOL     OW37522   2.635   0.044   2.707  0.0246  0.6536  0.6751
 8630SOL    HW137523   2.671   0.101   2.639  0.9128  1.5079  1.8708
 8630SOL    HW237524   2.712   4.732   2.730 -0.6421 -0.1173  1.1226
 8631SOL     OW37525   3.529   3.229   7.186 -0.1031 -0.3608  0.1786
 8631SOL    HW137526   3.541   3.151   7.240  3.5742  0.9494  1.1929
 8631SOL    HW237527   3.444   3.212   7.144 -0.2396  0.0168  0.3027
 8632SOL     OW37528   1.642   2.579   6.139 -0.5061 -0.2151 -0.1246
 8632SOL    HW137529   1.572   2.618   6.087 -0.6065 -1.2923 -0.8008
 8632SOL    HW237530   1.604   2.491   6.148 -0.1849 -0.2926  0.4785
 8633SOL     OW37531   0.957   4.482   6.552  0.2909  0.4359  0.4650
 8633SOL    HW137532   0.958   4.543   6.626 -1.2265  1.8153 -0.6566
 8633SOL    HW237533   0.987   4.540   6.482  1.0085  0.5357  0.8546
 8634SOL     OW37534   4.347   1.725  14.019  0.1017 -0.4718 -0.5189
 8634SOL    HW137535   4.359   1.747  13.927  0.9217 -1.1160 -0.5573
 8634SOL    HW237536   4.326   1.631  14.020 -0.1745 -0.4004  0.1264
 8635SOL     OW37537   1.887   3.220   7.562 -0.1257 -0.4064 -0.5734
 8635SOL    HW137538   1.825   3.147   7.566  0.3524 -0.8263 -0.8413
 8635SOL    HW237539   1.948   3.179   7.501 -1.1313 -1.7155 -0.6859
 8636SOL     OW37540   2.882   3.346   8.105  0.2650 -0.1249  0.0089
 8636SOL    HW137541   2.920   3.257   8.103 -1.8410 -1.0167  0.1934
 8636SOL    HW237542   2.818   3.336   8.034 -1.3199  0.6923  1.3460
 8637SOL     OW37543   1.746   1.332   9.538  0.5260  0.6605 -0.0652
 8637SOL    HW137544   1.658   1.343   9.502 -0.3119 -0.8271  1.5104
 8637SOL    HW237545   1.804   1.366   9.471  0.6116  0.6970  0.0264
 8638SOL     OW37546   2.945   3.740   1.855 -0.2980 -0.0697  0.3847
 8638SOL    HW137547   2.978   3.651   1.868 -1.3234 -0.1850  2.2569
 8638SOL    HW237548   3.026   3.791   1.853 -1.1694  1.3936  2.0031
 8639SOL     OW37549   1.619   4.335  14.379  0.2682 -0.1405 -0.5444
 8639SOL    HW137550   1.576   4.308  14.299 -0.1461 -1.9628  0.2955
 8639SOL    HW237551   1.604   4.430  14.381  2.4006  0.2001 -0.6787
 8640SOL     OW37552   2.566   3.194  15.623 -0.6377 -0.0792 -0.3823
 8640SOL    HW137553   2.655   3.162  15.605 -0.7278 -0.5185 -0.0278
 8640SOL    HW237554   2.516   3.168  15.546  1.5304 -0.2805 -1.7481
 8641SOL     OW37555   0.322   1.594  14.914 -0.0434  0.0988 -0.2255
 8641SOL    HW137556   0.239   1.615  14.957 -0.8667  0.4522 -1.9933
 8641SOL    HW237557   0.361   1.681  14.913 -0.1418  0.1617  1.6376
 8642SOL     OW37558   4.106   1.886  13.905  0.4275  0.1040 -0.1181
 8642SOL    HW137559   4.040   1.822  13.932 -0.3283 -0.2644 -2.8475
 8642SOL    HW237560   4.139   1.864  13.818  1.0711 -0.2780  0.2245
 8643SOL     OW37561   4.694   4.523   6.160  0.1160 -0.8407  0.7193
 8643SOL    HW137562   4.611   4.556   6.194  0.3287 -1.9557  2.3329
 8643SOL    HW237563   4.698   4.439   6.205  2.0577 -1.5724 -0.8317
 8644SOL     OW37564   4.075   0.376   2.652 -0.3338 -0.0772  0.2620
 8644SOL    HW137565   4.069   0.396   2.745  1.5767 -2.7613  0.9646
 8644SOL    HW237566   4.011   0.439   2.618  1.8248  2.6959  1.3584
 8645SOL     OW37567   3.461   3.259   8.999 -0.3069  0.0876 -0.1336
 8645SOL    HW137568   3.413   3.323   8.946 -0.5513 -0.7472 -0.8971
 8645SOL    HW237569   3.420   3.264   9.086 -0.7901 -0.9764 -0.3092
 8646SOL     OW37570   4.513   4.561  11.736 -0.5075 -0.5477  0.3902
 8646SOL    HW137571   4.584   4.577  11.798 -0.2956  2.6013 -0.6691
 8646SOL    HW237572   4.564   4.515  11.670 -1.5006 -0.7252 -0.2504
 8647SOL     OW37573   3.893   0.691   9.021  0.5801 -0.2609 -0.3064
 8647SOL    HW137574   3.838   0.662   9.094  2.9025 -2.0913  0.6881
 8647SOL    HW237575   3.976   0.704   9.065 -1.0552  1.4767  2.2314
 8648SOL     OW37576   1.585   3.869   3.827 -0.5538  0.1753 -0.4487
 8648SOL    HW137577   1.626   3.936   3.882 -0.8724  1.4685 -1.7731
 8648SOL    HW237578   1.509   3.845   3.879  1.3771 -1.9610  1.3380
 8649SOL     OW37579   3.257   4.668   4.443 -0.2395 -0.0388 -0.2393
 8649SOL    HW137580   3.342   4.629   4.463 -0.4899 -0.0773  0.7563
 8649SOL    HW237581   3.274   0.020   4.422 -1.0258  0.2785  0.5129
 8650SOL     OW37582   1.144   3.991  12.806 -0.3442  0.6405 -0.3563
 8650SOL    HW137583   1.189   4.026  12.729  1.3739 -0.6345  0.0735
 8650SOL    HW237584   1.123   3.905  12.771  1.7097 -0.0052 -0.0256
 8651SOL     OW37585   2.049   1.325   3.264  0.2312  0.1491  0.1542
 8651SOL    HW137586   2.136   1.351   3.295 -0.2057  0.4880  1.1079
 8651SOL    HW237587   2.022   1.279   3.344  2.4937  0.2774  0.9974
 8652SOL     OW37588   4.721   1.893   1.671  0.5124 -0.3181  0.1582
 8652SOL    HW137589   0.076   1.890   1.673  0.5372  0.9358  0.7576
 8652SOL    HW237590   4.687   1.832   1.736 -0.4770  0.3172  0.2406
 8653SOL     OW37591   4.668   2.092   8.530 -0.6622  0.1349  0.5398
 8653SOL    HW137592   4.642   2.075   8.621 -2.5812 -0.0543 -0.0507
 8653SOL    HW237593   4.625   2.176   8.512 -0.3407  0.5392  1.6598
 8654SOL     OW37594   3.781   0.604   1.466  0.4291 -0.7145  0.0775
 8654SOL    HW137595   3.853   0.639   1.518 -0.2281  0.0349  0.4911
 8654SOL    HW237596   3.815   0.520   1.437  2.6019 -0.2181  1.2042
 8655SOL     OW37597   3.719   0.244   4.138 -0.2989  0.0164  0.0809
 8655SOL    HW137598   3.812   0.220   4.137 -0.8361 -2.1634  1.8706
 8655SOL    HW237599   3.673   0.174   4.093  0.8247  0.8749 -2.3642
 8656SOL     OW37600   3.277   1.329   7.494  0.8040 -0.4262  0.0641
 8656SOL    HW137601   3.333   1.253   7.507  0.8653 -0.0694  1.8537
 8656SOL    HW237602   3.259   1.339   7.400 -1.8261  0.9550  0.7146
 8657SOL     OW37603   0.442   4.142   5.238  0.0998 -0.0935  0.3425
 8657SOL    HW137604   0.494   4.223   5.231 -0.6091  0.2648 -0.6928
 8657SOL    HW237605   0.353   4.173   5.254 -0.8008 -0.7225 -3.4388
 8658SOL     OW37606   4.295   2.656   4.360  0.1013  0.0517 -0.0013
 8658SOL    HW137607   4.271   2.612   4.279  1.8814 -2.7385  0.9923
 8658SOL    HW237608   4.244   2.624   4.434  1.6796  2.1933  1.9964
 8659SOL     OW37609   1.397   2.470   7.893  0.3057  0.3274 -0.4501
 8659SOL    HW137610   1.334   2.401   7.916 -1.4839  2.2056  0.3397
 8659SOL    HW237611   1.474   2.418   7.871 -1.7230 -2.1213 -1.9243
 8660SOL     OW37612   4.402   2.890   2.851  0.2802  0.3604  0.2025
 8660SOL    HW137613   4.388   2.825   2.920 -0.7145 -0.0227 -0.3625
 8660SOL    HW237614   4.466   2.948   2.893 -1.6315  1.5715  1.4391
 8661SOL     OW37615   4.536   2.423   6.877  0.1244 -0.1237  0.0771
 8661SOL    HW137616   4.507   2.433   6.786  2.7852 -0.6637 -0.8374
 8661SOL    HW237617   4.545   2.328   6.874  0.2968 -0.1373  1.0764
 8662SOL     OW37618   1.017   2.738   8.635  0.4214  0.0063 -0.6231
 8662SOL    HW137619   0.967   2.790   8.572  0.9637  0.9737 -0.2627
 8662SOL    HW237620   1.030   2.801   8.706 -0.9065 -0.2576 -0.1556
 8663SOL     OW37621   2.936   4.511  15.901 -0.5614  0.0965 -0.6899
 8663SOL    HW137622   2.915   4.576  15.834  2.6368  0.6919 -1.1251
 8663SOL    HW237623   2.892   4.430  15.875 -0.6133  0.3836 -1.4972
 8664SOL     OW37624   3.867   0.094  16.468  0.9319 -0.0972 -0.4531
 8664SOL    HW137625   3.818   0.041  16.531  0.2702 -0.4004 -1.2220
 8664SOL    HW237626   3.875   0.033  16.396 -0.1667 -0.6117 -0.1403
 8665SOL     OW37627   3.302   0.881   1.840  0.1538 -0.1591  0.5433
 8665SOL    HW137628   3.228   0.940   1.855  0.9919  0.6792  1.4082
 8665SOL    HW237629   3.360   0.943   1.795 -1.5911  0.9837 -0.1327
 8666SOL     OW37630   3.782   2.943   5.066  0.3536  0.0983 -0.3579
 8666SOL    HW137631   3.715   2.955   5.133 -0.4871 -2.3810 -0.7378
 8666SOL    HW237632   3.832   3.024   5.066  2.9239 -1.4819  2.7055
 8667SOL     OW37633   2.623   2.033   8.392  0.3619 -0.2236  0.8042
 8667SOL    HW137634   2.707   2.040   8.345  0.1438 -0.4571  0.3817
 8667SOL    HW237635   2.649   1.971   8.459  0.2894 -1.9918 -0.8098
 8668SOL     OW37636   4.446   4.082   7.691  0.0795  0.8689  0.4625
 8668SOL    HW137637   4.393   4.003   7.702  1.7420  0.0499  2.6166
 8668SOL    HW237638   4.399   4.152   7.737 -1.3482 -0.6922  1.3469
 8669SOL     OW37639   1.022   4.241   6.685  0.2317  0.5268  0.0540
 8669SOL    HW137640   1.028   4.278   6.773  0.6925  0.4720  0.0437
 8669SOL    HW237641   0.979   4.316   6.644  0.3072  1.5053  1.7835
 8670SOL     OW37642   3.788   3.631   7.646 -0.6071  0.1707  0.0548
 8670SOL    HW137643   3.838   3.606   7.724  0.6228 -1.0207 -1.1022
 8670SOL    HW237644   3.826   3.565   7.588 -1.4732  1.7708 -2.2932
 8671SOL     OW37645   3.343   3.254  16.362 -0.3251 -0.1305  0.0154
 8671SOL    HW137646   3.341   3.328  16.422  2.1181 -0.0167 -0.0578
 8671SOL    HW237647   3.273   3.197  16.396  0.8096 -0.2754  2.1043
 8672SOL     OW37648   4.337   2.407   7.768  0.2983  0.8759  0.5983
 8672SOL    HW137649   4.419   2.358   7.766 -0.4194 -0.3058 -0.4810
 8672SOL    HW237650   4.302   2.401   7.679 -0.9449 -1.8962  1.2476
 8673SOL     OW37651   1.425   2.990   5.423 -0.0002 -0.0314 -0.2243
 8673SOL    HW137652   1.448   2.933   5.350 -1.5922  0.2098 -0.9146
 8673SOL    HW237653   1.331   2.999   5.406 -0.2872 -2.4223  0.1050
 8674SOL     OW37654   4.562   3.832   5.597  0.3386 -0.6802  0.1186
 8674SOL    HW137655   4.593   3.894   5.663 -1.2237 -0.8963  1.0734
 8674SOL    HW237656   4.588   3.750   5.640  0.6190  0.2038  1.6421
 8675SOL     OW37657   3.723   3.750  10.537 -0.8518  0.1732  0.0594
 8675SOL    HW137658   3.666   3.796  10.598 -1.8372  0.5547 -1.1542
 8675SOL    HW237659   3.768   3.700  10.606 -1.2079 -0.3316 -0.0751
 8676SOL     OW37660   2.805   1.588   4.238 -0.0354  0.0520  0.2659
 8676SOL    HW137661   2.837   1.652   4.174  1.3275 -2.6307 -1.7766
 8676SOL    HW237662   2.848   1.512   4.198 -0.9268 -0.7480  0.8099
 8677SOL     OW37663   1.139   4.425   9.395 -0.1922  0.1857 -0.1418
 8677SOL    HW137664   1.138   4.516   9.423 -1.8833  0.8930 -2.4855
 8677SOL    HW237665   1.184   4.426   9.311 -2.1625 -0.1032 -1.1961
 8678SOL     OW37666   4.552   4.451   8.707 -0.1735 -1.0043  0.2396
 8678SOL    HW137667   4.615   4.510   8.667 -1.1591  0.6550  1.1259
 8678SOL    HW237668   4.480   4.460   8.644 -1.0611  1.2444  1.5831
 8679SOL     OW37669   3.234   4.220   4.740  0.2705 -0.0014 -0.0818
 8679SOL    HW137670   3.310   4.257   4.785 -1.2190  0.6163  1.9578
 8679SOL    HW237671   3.161   4.272   4.774 -0.9592 -2.3129  0.8186
 8680SOL     OW37672   1.140   1.931   3.137  0.1851  0.0300  0.4206
 8680SOL    HW137673   1.214   1.896   3.186  0.7418  1.9831  1.0095
 8680SOL    HW237674   1.164   2.023   3.121 -0.3628  0.2172  0.6927
 8681SOL     OW37675   0.491   4.145   9.530 -0.1040 -0.0068 -0.4122
 8681SOL    HW137676   0.415   4.145   9.472 -0.2961 -0.9633 -0.1700
 8681SOL    HW237677   0.528   4.058   9.514  1.4545  0.9598 -2.0465
 8682SOL     OW37678   2.790   0.541  11.762  0.1728  0.0265  0.5420
 8682SOL    HW137679   2.725   0.472  11.775  0.5339 -0.1294  1.4885
 8682SOL    HW237680   2.860   0.477  11.773 -1.7489 -1.4465  4.1269
 8683SOL     OW37681   3.923   4.648   1.274  0.1263 -0.6616 -0.6116
 8683SOL    HW137682   3.883   4.619   1.356 -1.1383  2.1483 -0.2523
 8683SOL    HW237683   3.886   4.736   1.272  0.1125 -0.6637 -0.4335
 8684SOL     OW37684   0.627   2.754   6.395 -0.0561 -0.2039 -0.0021
 8684SOL    HW137685   0.590   2.818   6.456 -0.4127  0.5142 -0.9669
 8684SOL    HW237686   0.635   2.803   6.312 -0.5385 -0.2952 -0.1009
 8685SOL     OW37687   0.403   3.440  13.407 -0.1132 -0.1383  0.1628
 8685SOL    HW137688   0.405   3.535  13.398  0.5436 -0.1211  0.5079
 8685SOL    HW237689   0.452   3.422  13.327 -2.3430 -0.0931 -1.1989
 8686SOL     OW37690   2.062   2.288   2.460 -0.2484  0.4824  0.3346
 8686SOL    HW137691   2.066   2.336   2.378 -1.1205 -0.8520 -0.5036
 8686SOL    HW237692   2.024   2.205   2.429  0.0967  0.8617 -1.0890
 8687SOL     OW37693   1.714   2.782   8.646  0.0986 -0.2141 -0.1522
 8687SOL    HW137694   1.635   2.783   8.590  0.6661  0.6680 -0.9274
 8687SOL    HW237695   1.703   2.869   8.683  0.3736 -0.0302 -0.5046
 8688SOL     OW37696   1.752   1.415  11.371 -0.0066  0.5062  0.5378
 8688SOL    HW137697   1.766   1.346  11.306 -2.9872  1.0284 -0.6172
 8688SOL    HW237698   1.664   1.403  11.405 -0.4308 -0.3645 -0.8526
 8689SOL     OW37699   3.334   1.153   5.669  0.6421 -0.3059 -0.4494
 8689SOL    HW137700   3.392   1.143   5.744  0.8443  1.6384 -0.3463
 8689SOL    HW237701   3.382   1.225   5.627 -0.7981  1.4493  0.9371
 8690SOL     OW37702   1.328   1.405   2.843  0.4340 -0.0965 -0.2099
 8690SOL    HW137703   1.242   1.426   2.806  1.3123  2.3568 -0.8786
 8690SOL    HW237704   1.350   1.327   2.793 -0.1853  0.8873 -2.0191
 8691SOL     OW37705   2.614   1.112   7.392 -0.1281  0.4053 -0.3853
 8691SOL    HW137706   2.674   1.104   7.466  0.7846  2.5542 -0.9306
 8691SOL    HW237707   2.559   1.033   7.397  0.4456  0.1848  2.5947
 8692SOL     OW37708   3.735   3.309  15.778 -0.0316 -0.0391 -0.1223
 8692SOL    HW137709   3.826   3.292  15.802 -0.5243 -1.3241  0.8611
 8692SOL    HW237710   3.738   3.293  15.684  0.7247 -1.6734  0.1652
 8693SOL     OW37711   4.083   0.646   6.981  0.0725 -0.5892  0.1376
 8693SOL    HW137712   4.128   0.702   7.045 -1.7404  1.2278 -0.1742
 8693SOL    HW237713   4.029   0.593   7.040 -0.1073  0.9887  1.3841
 8694SOL     OW37714   1.932   2.939   6.345 -0.2609 -0.0497 -0.0148
 8694SOL    HW137715   1.970   2.985   6.270  0.2832 -2.0018 -0.9382
 8694SOL    HW237716   2.015   2.916   6.387  0.6714 -1.2155 -2.5200
 8695SOL     OW37717   0.728   0.150  11.301 -0.0007 -0.1028  0.1503
 8695SOL    HW137718   0.675   0.174  11.225  1.2393 -2.2787 -1.3818
 8695SOL    HW237719   0.678   0.079  11.343 -1.1956  1.4839  1.4123
 8696SOL     OW37720   4.585   2.450   2.528  0.0816 -0.2451  0.2688
 8696SOL    HW137721   4.591   2.382   2.462 -0.2741 -0.3441  0.3343
 8696SOL    HW237722   4.497   2.439   2.566 -0.1600 -1.4277 -0.6517
 8697SOL     OW37723   4.489   1.144   4.795 -0.1425  0.3948  0.2822
 8697SOL    HW137724   4.499   1.084   4.868 -2.4233 -0.4385 -0.0888
 8697SOL    HW237725   4.569   1.197   4.799  1.4704 -2.1606  1.2456
 8698SOL     OW37726   3.685   2.949   4.560  0.3419 -0.7428 -0.2692
 8698SOL    HW137727   3.780   2.944   4.554  0.4145  0.9884 -0.5391
 8698SOL    HW237728   3.666   3.020   4.498 -1.5263 -1.6323 -0.6950
 8699SOL     OW37729   0.109   1.694   5.726  0.2501  0.5760 -0.3462
 8699SOL    HW137730   0.123   1.789   5.722 -0.4006  0.7263  0.8752
 8699SOL    HW237731   0.198   1.669   5.752 -0.4237 -1.6651 -0.2600
 8700SOL     OW37732   2.094   0.351   5.204  0.6487 -0.1907  0.2185
 8700SOL    HW137733   2.006   0.329   5.171 -0.3775  1.8963  1.5984
 8700SOL    HW237734   2.132   0.409   5.138 -1.4079 -1.1543 -1.8479
 8701SOL     OW37735   0.390   0.754   5.345  0.2214  0.0716  0.6198
 8701SOL    HW137736   0.482   0.754   5.372 -0.0549  2.3079  1.5326
 8701SOL    HW237737   0.375   0.848   5.351 -0.9313 -0.1355  0.9712
 8702SOL     OW37738   2.592   3.689  15.880  0.5705  0.1524 -0.4261
 8702SOL    HW137739   2.529   3.617  15.888  0.5550  0.0823 -1.1838
 8702SOL    HW237740   2.568   3.736  15.959 -2.1800  0.5911 -1.5063
 8703SOL     OW37741   3.540   3.794   5.888 -0.4424  0.1555  0.2074
 8703SOL    HW137742   3.492   3.844   5.822 -1.5035 -0.8803  0.2128
 8703SOL    HW237743   3.473   3.753   5.943  0.4017 -2.2968 -0.5749
 8704SOL     OW37744   1.384   0.827   6.182 -0.2500  0.5059  0.0733
 8704SOL    HW137745   1.473   0.849   6.209 -0.7101 -0.7519  2.5519
 8704SOL    HW237746   1.390   0.732   6.173  2.9595  0.5894  1.1205
 8705SOL     OW37747   1.538   2.086   9.202 -0.0522  0.3409  0.4731
 8705SOL    HW137748   1.480   2.161   9.208 -2.3206 -1.3893  0.2419
 8705SOL    HW237749   1.568   2.092   9.112 -3.4472  0.8110 -0.6165
 8706SOL     OW37750   3.872   1.028  14.408  0.0930  0.4570 -0.7735
 8706SOL    HW137751   3.876   0.972  14.485  0.8760 -0.0672 -1.1896
 8706SOL    HW237752   3.958   1.007  14.371  0.6410  0.9017  0.2377
 8707SOL     OW37753   0.384   2.623   3.869  0.3038  0.0454 -0.0237
 8707SOL    HW137754   0.469   2.647   3.832 -0.0589  0.1797 -0.7727
 8707SOL    HW237755   0.406   2.603   3.960  0.2102 -2.3071 -0.5200
 8708SOL     OW37756   4.434   1.881   7.780  0.0457  0.4259 -0.3910
 8708SOL    HW137757   4.411   1.808   7.837 -1.2561  0.8249 -0.3977
 8708SOL    HW237758   4.450   1.947   7.847  1.7791  0.3922 -0.7781
 8709SOL     OW37759   0.338   4.443  12.205  0.0065  0.1368  0.1583
 8709SOL    HW137760   0.258   4.477  12.246  0.4986  1.5461 -0.0492
 8709SOL    HW237761   0.372   4.387  12.275  2.1839  0.0943 -0.9546
 8710SOL     OW37762   3.474   2.706   7.811 -0.0559 -0.1280  0.1787
 8710SOL    HW137763   3.479   2.658   7.893 -0.7399 -1.9480 -0.8336
 8710SOL    HW237764   3.549   2.666   7.766  1.2460  0.1710  2.0981
 8711SOL     OW37765   0.880   0.767   5.073 -0.1262  0.6099  0.3824
 8711SOL    HW137766   0.837   0.727   5.149  1.3188 -2.6744 -0.5487
 8711SOL    HW237767   0.957   0.710   5.068 -0.6822 -0.2591  1.5359
 8712SOL     OW37768   4.679   4.064   5.404  0.7154 -1.1160 -0.1697
 8712SOL    HW137769   4.611   4.006   5.371  1.2529 -2.6027  1.3548
 8712SOL    HW237770   4.726   4.098   5.327  0.3181 -0.2241 -0.0223
 8713SOL     OW37771   0.812   1.827  16.950 -0.1300 -0.0078 -0.4506
 8713SOL    HW137772   0.749   1.841  16.879  0.2192  3.7535 -0.0068
 8713SOL    HW237773   0.750   1.809  17.021 -1.0435  0.3383 -1.1678
 8714SOL     OW37774   0.744   2.288  13.113 -0.1423  0.3971  0.0005
 8714SOL    HW137775   0.719   2.288  13.206  0.8610  0.2413  0.2684
 8714SOL    HW237776   0.802   2.363  13.098 -1.0687  0.7366 -1.7894
 8715SOL     OW37777   3.739   2.756   2.171 -1.2022  0.1951  0.0702
 8715SOL    HW137778   3.770   2.674   2.211  0.5089  1.6327  1.6901
 8715SOL    HW237779   3.652   2.723   2.150 -0.9233  1.0018 -2.3505
 8716SOL     OW37780   2.048   4.460  16.710  0.1200 -0.0744  0.7630
 8716SOL    HW137781   2.006   4.512  16.779  1.0775  0.8741  0.6199
 8716SOL    HW237782   2.025   4.498  16.625 -0.9403 -2.3371  0.0484
 8717SOL     OW37783   4.529   1.740  14.625 -0.4620 -0.5307  0.3490
 8717SOL    HW137784   4.568   1.773  14.544 -1.4792 -2.6207 -1.0130
 8717SOL    HW237785   4.461   1.684  14.586 -0.5848  1.0090 -1.6736
 8718SOL     OW37786   1.308   4.205  15.815 -0.5980  0.4243  0.2610
 8718SOL    HW137787   1.301   4.283  15.760 -0.9217  0.1094 -0.1359
 8718SOL    HW237788   1.214   4.208  15.831 -0.5449  0.4421  0.5742
 8719SOL     OW37789   0.014   3.128  16.514 -0.3429  0.2740 -0.2939
 8719SOL    HW137790   4.701   3.140  16.435 -1.1725  0.8650  0.3523
 8719SOL    HW237791   0.050   3.214  16.535 -1.2152  0.2558  1.2693
 8720SOL     OW37792   2.246   4.224   3.399 -0.0536 -0.3500 -1.0259
 8720SOL    HW137793   2.162   4.180   3.415 -1.6094  2.3900 -1.7151
 8720SOL    HW237794   2.216   4.308   3.434  1.1485 -0.2224 -0.3092
 8721SOL     OW37795   1.466   3.912   6.841 -0.0869 -0.1328  0.4242
 8721SOL    HW137796   1.451   3.923   6.935  0.7649  0.7498  0.4572
 8721SOL    HW237797   1.377   3.885   6.818  0.0573  1.0971 -1.6121
 8722SOL     OW37798   2.134   0.806   6.142 -0.7186  0.5712  0.5197
 8722SOL    HW137799   2.045   0.780   6.120 -0.6286 -0.9747  2.0516
 8722SOL    HW237800   2.171   0.789   6.055 -3.9340 -3.1710 -0.1097
 8723SOL     OW37801   0.776   1.408   1.810 -0.9202  0.5159 -0.8471
 8723SOL    HW137802   0.831   1.441   1.738  1.4417 -0.1989  0.6441
 8723SOL    HW237803   0.838   1.388   1.880 -1.6699 -0.1879 -0.3877
 8724SOL     OW37804   3.114   3.480   3.456 -0.0249  0.2321  0.2582
 8724SOL    HW137805   3.034   3.464   3.506 -0.9490  1.5928 -0.7756
 8724SOL    HW237806   3.164   3.402   3.481 -0.3198 -0.3735 -0.9954
 8725SOL     OW37807   3.167   1.504   5.226 -0.2802  0.0464  0.1376
 8725SOL    HW137808   3.262   1.503   5.241  0.0856 -1.2657 -2.2108
 8725SOL    HW237809   3.154   1.598   5.215  2.0238  0.3880  0.2169
 8726SOL     OW37810   2.847   3.220   3.232  0.6805  0.1340 -0.1392
 8726SOL    HW137811   2.810   3.269   3.305  1.4949 -2.5089  2.0600
 8726SOL    HW237812   2.929   3.213   3.281  0.2743  1.5738  0.7470
 8727SOL     OW37813   0.540   1.208  14.920 -0.4300  0.4679  0.2393
 8727SOL    HW137814   0.573   1.118  14.918 -0.4922  0.3878  2.5806
 8727SOL    HW237815   0.587   1.256  14.988 -0.9779  0.3704  0.6853
 8728SOL     OW37816   2.329   3.482   4.615  0.1003 -0.3451  0.0194
 8728SOL    HW137817   2.269   3.535   4.666  1.9248  1.4518  0.2691
 8728SOL    HW237818   2.332   3.398   4.662  1.0001 -1.6749 -2.3621
 8729SOL     OW37819   3.839   1.939  11.009  0.1500 -0.1605 -0.4663
 8729SOL    HW137820   3.784   1.861  11.020  1.1376 -0.8164 -0.1614
 8729SOL    HW237821   3.906   1.918  11.075  0.4600 -2.1226 -1.3903
 8730SOL     OW37822   0.379   4.073   6.480 -0.5298 -0.7751 -0.0275
 8730SOL    HW137823   0.338   4.157   6.461 -0.0603 -0.6662 -0.5485
 8730SOL    HW237824   0.414   4.050   6.394  1.5241  0.8685  0.3775
 8731SOL     OW37825   3.829   4.248   9.730  0.2334  0.2020 -0.5557
 8731SOL    HW137826   3.754   4.283   9.682  0.4501  0.2834 -0.8295
 8731SOL    HW237827   3.851   4.167   9.685  0.5015 -0.0916  0.1075
 8732SOL     OW37828   0.983   4.649   9.432 -0.2022  0.3144 -0.3173
 8732SOL    HW137829   0.949   4.590   9.365 -1.4834 -0.1072  0.6942
 8732SOL    HW237830   0.999   4.729   9.382 -1.4681  1.5655  1.2685
 8733SOL     OW37831   0.857   4.537   8.894 -0.0809  0.5178  0.6540
 8733SOL    HW137832   0.915   4.554   8.820 -0.8391 -0.7487 -0.2333
 8733SOL    HW237833   0.816   4.454   8.868 -0.9892  0.7794  1.2402
 8734SOL     OW37834   0.185   4.180   9.013 -0.0242 -0.0978  0.1189
 8734SOL    HW137835   0.192   4.122   9.088  1.9333  1.1611  0.9188
 8734SOL    HW237836   0.278   4.202   9.003 -0.2710  1.7766  1.8009
 8735SOL     OW37837   2.630   2.892   0.876  0.1721  0.1957 -0.1116
 8735SOL    HW137838   2.722   2.866   0.867  0.5941  1.0732  1.6707
 8735SOL    HW237839   2.643   2.976   0.921  0.9069 -0.9011  1.7468
 8736SOL     OW37840   2.078   1.972   5.753  0.1610 -0.0092  0.0910
 8736SOL    HW137841   2.115   2.051   5.793  1.5728 -1.4413  1.6411
 8736SOL    HW237842   2.095   1.902   5.816  0.4651  1.0133  1.1463
 8737SOL     OW37843   2.391   3.896  16.567  0.1300 -0.1770  0.0275
 8737SOL    HW137844   2.314   3.915  16.513 -0.0737  0.6666  0.6123
 8737SOL    HW237845   2.450   3.955  16.519  0.0603 -1.4898 -1.6982
 8738SOL     OW37846   1.195   4.163  17.142 -0.1574  0.0160 -0.1692
 8738SOL    HW137847   1.213   4.132  17.054  1.0659  1.8926 -0.5832
 8738SOL    HW237848   1.100   4.153  17.148  0.0388 -0.2136  2.8334
 8739SOL     OW37849   0.273   1.661   2.466  0.1609 -0.4630  0.5961
 8739SOL    HW137850   0.273   1.713   2.386  2.2111  0.5085  1.2175
 8739SOL    HW237851   0.261   1.723   2.537  0.4330  0.5797 -0.2793
 8740SOL     OW37852   0.256   1.195   3.198 -0.2805  0.0631 -0.2245
 8740SOL    HW137853   0.303   1.276   3.176  1.8348 -1.7770 -2.4225
 8740SOL    HW237854   0.258   1.153   3.112  0.9033 -2.1664  0.9136
 8741SOL     OW37855   4.247   3.651   5.383  0.5313  0.0129 -0.1319
 8741SOL    HW137856   4.328   3.702   5.384 -0.3356  1.3684  0.2178
 8741SOL    HW237857   4.236   3.629   5.290  0.1268  3.0872 -0.7888
 8742SOL     OW37858   0.878   3.773   0.799  0.1906  0.6041 -0.1634
 8742SOL    HW137859   0.863   3.821   0.718 -1.9952  1.3955  0.6948
 8742SOL    HW237860   0.867   3.682   0.771 -1.0644  0.7609 -0.2165
 8743SOL     OW37861   1.175   1.116   4.043  0.1535  0.2081  0.6150
 8743SOL    HW137862   1.127   1.176   4.100 -0.2021  2.2541 -1.8117
 8743SOL    HW237863   1.203   1.175   3.973 -1.6274 -0.0209 -0.2980
 8744SOL     OW37864   2.866   3.717   5.239 -0.4885  0.3385  1.0171
 8744SOL    HW137865   2.917   3.745   5.315  0.4174  0.9717  0.1767
 8744SOL    HW237866   2.929   3.729   5.168 -0.2337 -1.8933  0.8746
 8745SOL     OW37867   0.044   1.967  17.387 -0.2033 -0.2852 -0.6044
 8745SOL    HW137868   4.730   2.035  17.347  0.2448  1.0318  1.0021
 8745SOL    HW237869   0.126   2.012  17.409 -0.3643 -0.0114 -0.5619
 8746SOL     OW37870   0.193   0.570  12.003  0.4102  0.7157 -0.0777
 8746SOL    HW137871   0.199   0.595  12.096  0.4110  0.6800 -0.0681
 8746SOL    HW237872   0.281   0.538  11.981 -0.7733 -0.8578 -2.4916
 8747SOL     OW37873   2.778   2.308  12.174  0.0204  0.6912 -0.3922
 8747SOL    HW137874   2.866   2.327  12.205  0.0139 -0.4106  0.3010
 8747SOL    HW237875   2.770   2.224  12.220 -2.4458  1.2220  0.1576
 8748SOL     OW37876   0.949   0.896  16.588  0.1652 -0.1266 -0.0712
 8748SOL    HW137877   0.900   0.918  16.509  2.6121 -1.2025 -1.8782
 8748SOL    HW237878   0.901   0.935  16.661 -1.7839  1.7331 -2.3358
 8749SOL     OW37879   0.039   2.931   7.267 -0.3401  0.3907  0.1265
 8749SOL    HW137880   0.007   2.994   7.332 -0.3190 -0.7132  1.2093
 8749SOL    HW237881   0.046   2.990   7.192  0.0802  1.0007  0.6567
 8750SOL     OW37882   0.904   1.723   8.805 -0.3432  0.4790 -0.6017
 8750SOL    HW137883   0.967   1.795   8.802 -0.8959  0.9457 -1.0342
 8750SOL    HW237884   0.834   1.765   8.855 -0.6323 -0.2688 -0.3900
 8751SOL     OW37885   0.850   0.811   6.052 -0.4309  0.0583 -0.7382
 8751SOL    HW137886   0.849   0.890   6.107 -3.2549 -0.7287  0.3601
 8751SOL    HW237887   0.939   0.815   6.018 -0.2496 -0.4902 -0.3249
 8752SOL     OW37888   3.535   0.156  14.388 -0.3183  0.7861  0.2985
 8752SOL    HW137889   3.587   0.236  14.397 -1.8470  1.8453 -0.3193
 8752SOL    HW237890   3.449   0.198  14.385 -0.0816  1.2987  0.7743
 8753SOL     OW37891   1.874   4.603  15.205  0.3786 -0.4181 -1.0164
 8753SOL    HW137892   1.865   4.535  15.272  2.5408 -0.3091 -0.6140
 8753SOL    HW237893   1.936   4.566  15.142 -0.2740  2.1853 -3.1793
 8754SOL     OW37894   3.390   0.383   7.061 -0.6450  0.4836  0.3257
 8754SOL    HW137895   3.308   0.363   7.106 -0.5793  1.7507  1.0074
 8754SOL    HW237896   3.382   0.473   7.027  0.1080  0.9634  1.4437
 8755SOL     OW37897   0.426   4.388   5.545  0.5073 -0.3620 -0.4892
 8755SOL    HW137898   0.489   4.318   5.530  3.2064  1.9200  0.2053
 8755SOL    HW237899   0.478   4.469   5.539  1.6947 -1.0521  0.5387
 8756SOL     OW37900   3.656   0.382   4.841  0.3350 -0.7050  0.3741
 8756SOL    HW137901   3.673   0.458   4.785 -1.9194  0.1792  0.8969
 8756SOL    HW237902   3.595   0.422   4.902  0.0469 -2.1923  1.0672
 8757SOL     OW37903   3.099   0.185   7.555  0.4194 -0.0726  0.5420
 8757SOL    HW137904   3.041   0.225   7.491  1.5328  1.9392  0.7886
 8757SOL    HW237905   3.100   0.095   7.521  0.0759 -0.4149  1.4368
 8758SOL     OW37906   4.535   1.104   1.560  0.1857  0.5239 -0.2132
 8758SOL    HW137907   4.532   1.094   1.464 -1.1852 -0.6234 -0.0617
 8758SOL    HW237908   4.495   1.021   1.587  1.0306  0.0525 -0.4127
 8759SOL     OW37909   3.975   1.469  14.029 -0.0584 -0.4948  0.6321
 8759SOL    HW137910   3.923   1.405  13.981  0.4473  0.5304 -1.3061
 8759SOL    HW237911   4.065   1.464  13.996 -0.3067  1.2608 -0.3693
 8760SOL     OW37912   3.382   1.436   0.123  0.5964 -0.3386  0.3662
 8760SOL    HW137913   3.470   1.450   0.089  0.3107  0.6145  0.0109
 8760SOL    HW237914   3.323   1.484   0.066  0.5004 -0.5905  0.2534
 8761SOL     OW37915   3.279   4.553  13.704 -0.3721 -1.0823  0.0141
 8761SOL    HW137916   3.262   4.523  13.615 -2.0898 -1.0567  0.3235
 8761SOL    HW237917   3.373   4.568  13.703 -0.4476 -0.4081  1.7316
 8762SOL     OW37918   3.196   4.375   3.299 -0.0107 -0.6859 -0.0624
 8762SOL    HW137919   3.125   4.339   3.246 -0.9731  2.6885 -1.0744
 8762SOL    HW237920   3.237   4.296   3.335 -0.3921 -0.8053  0.1030
 8763SOL     OW37921   0.392   3.197   8.398  0.2388 -0.2790  0.0482
 8763SOL    HW137922   0.478   3.154   8.401 -0.5616 -1.8084  1.2737
 8763SOL    HW237923   0.352   3.166   8.317  1.4860 -0.2735 -0.5731
 8764SOL     OW37924   1.049   4.642   8.178  0.5274 -0.4674 -0.9140
 8764SOL    HW137925   1.084   4.618   8.093 -0.6680  2.0934 -2.1256
 8764SOL    HW237926   0.956   4.633   8.158  0.4820  1.0012 -1.3931
 8765SOL     OW37927   2.458   3.071   0.123  0.2302 -0.2315 -0.2472
 8765SOL    HW137928   2.387   3.007   0.121 -0.5514  0.5405  2.2493
 8765SOL    HW237929   2.457   3.081   0.028  2.1216 -0.2974 -0.2937
 8766SOL     OW37930   0.009   1.162   7.169  0.7184  0.0332 -0.0172
 8766SOL    HW137931   0.029   1.073   7.197  2.1827 -0.0074 -1.2294
 8766SOL    HW237932   0.087   1.166   7.114 -1.0499 -1.3934 -2.5927
 8767SOL     OW37933   1.435   0.133   2.613 -0.3939 -0.0666  0.0100
 8767SOL    HW137934   1.446   0.085   2.695 -0.0642 -0.3810 -0.2163
 8767SOL    HW237935   1.459   0.221   2.641  1.6143 -0.0035 -1.9004
 8768SOL     OW37936   4.452   3.179   7.803  0.4880 -0.3434 -0.2765
 8768SOL    HW137937   4.360   3.204   7.797 -0.1584 -2.8144 -0.7396
 8768SOL    HW237938   4.442   3.097   7.853  0.2874 -0.7089 -0.9156
 8769SOL     OW37939   1.640   1.122   8.849 -0.6109  0.0845  0.4477
 8769SOL    HW137940   1.616   1.082   8.766  2.4754 -1.6430  0.3827
 8769SOL    HW237941   1.585   1.199   8.863 -0.4056  0.0451  1.4603
 8770SOL     OW37942   3.161   3.859   9.166 -0.2148  0.1121 -0.6898
 8770SOL    HW137943   3.154   3.767   9.192 -0.2211  0.6283  1.1281
 8770SOL    HW237944   3.066   3.867   9.156 -0.0151  1.8650 -1.2350
 8771SOL     OW37945   3.393   3.839   3.985 -0.4355 -0.0332 -0.1808
 8771SOL    HW137946   3.424   3.750   3.970  1.6683  0.7190 -0.3508
 8771SOL    HW237947   3.457   3.890   3.935  1.8518 -2.4469  0.3129
 8772SOL     OW37948   3.659   1.401  14.337  0.7151  0.5752  0.2138
 8772SOL    HW137949   3.610   1.429  14.260  1.4349 -0.6437 -0.6746
 8772SOL    HW237950   3.622   1.451  14.410 -0.4643 -1.7827  1.2332
 8773SOL     OW37951   3.072   0.738  12.707 -0.5465  0.3948  0.2560
 8773SOL    HW137952   3.016   0.731  12.629 -1.4267 -1.9766  1.0910
 8773SOL    HW237953   3.161   0.752  12.675  0.3466 -1.2431  2.0102
 8774SOL     OW37954   4.496   0.372   8.075 -0.0134  0.4870  0.1436
 8774SOL    HW137955   4.497   0.298   8.136 -1.5692 -0.9933 -1.6097
 8774SOL    HW237956   4.423   0.347   8.018 -0.2996 -0.5280  0.9385
 8775SOL     OW37957   1.153   3.028   9.167 -0.1807 -0.1306  0.1001
 8775SOL    HW137958   1.142   2.941   9.207 -0.3779 -1.1362 -2.1601
 8775SOL    HW237959   1.123   3.092   9.232  1.0464 -1.4486  1.9700
 8776SOL     OW37960   0.196   2.430   8.110  0.1862  0.0161  0.1243
 8776SOL    HW137961   0.276   2.455   8.064 -0.8039  0.8786 -1.1367
 8776SOL    HW237962   0.131   2.457   8.045 -0.7714  1.1716  1.5523
 8777SOL     OW37963   2.056   4.266   6.905 -0.2140 -0.2749  0.2406
 8777SOL    HW137964   1.965   4.278   6.934 -0.1812 -2.3869  1.2360
 8777SOL    HW237965   2.083   4.189   6.955 -0.5764  1.0020  2.4054
 8778SOL     OW37966   2.041   2.669   4.844  0.6534  0.0557 -0.2266
 8778SOL    HW137967   2.065   2.760   4.828  0.5154 -0.0345 -0.9445
 8778SOL    HW237968   1.973   2.661   4.778 -0.9247 -0.5503  1.4726
 8779SOL     OW37969   1.514   3.023   6.980  0.0454 -0.2280  0.6901
 8779SOL    HW137970   1.563   2.942   6.990 -1.7711 -1.4306 -0.2394
 8779SOL    HW237971   1.424   2.995   6.995 -0.2340  1.0397  1.4323
 8780SOL     OW37972   3.069   3.221  16.654  0.4072 -0.4888  0.2814
 8780SOL    HW137973   3.061   3.144  16.597 -1.8172  0.5262 -0.7843
 8780SOL    HW237974   3.016   3.190  16.727 -0.8978 -0.3799 -0.6234
 8781SOL     OW37975   3.188   0.969   6.228 -0.4311  0.2337 -0.2785
 8781SOL    HW137976   3.275   0.968   6.188  0.3458 -0.6487  1.4272
 8781SOL    HW237977   3.158   1.060   6.221 -0.2171  0.4252  1.4375
 8782SOL     OW37978   1.497   2.279   7.037  0.3865 -0.6010 -0.0713
 8782SOL    HW137979   1.411   2.286   7.078  1.3734  0.9530  1.7367
 8782SOL    HW237980   1.558   2.304   7.106 -1.6700 -0.4760  1.7163
 8783SOL     OW37981   3.348   3.208   8.354  0.3704 -0.0223 -0.7150
 8783SOL    HW137982   3.368   3.232   8.263 -0.2393  0.1695 -0.7992
 8783SOL    HW237983   3.411   3.255   8.408  1.1140  0.7870 -2.3008
 8784SOL     OW37984   0.387   2.343  14.192 -0.6007  0.1400 -0.1908
 8784SOL    HW137985   0.316   2.292  14.151 -1.4751  1.2305 -0.0241
 8784SOL    HW237986   0.349   2.430  14.194 -0.3725  0.1772  1.6835
 8785SOL     OW37987   2.225   0.670   9.522 -0.3747  0.1469 -0.1724
 8785SOL    HW137988   2.155   0.687   9.585 -1.0973 -0.5196 -0.7879
 8785SOL    HW237989   2.208   0.580   9.496  1.4097  0.0892 -1.1060
 8786SOL     OW37990   4.267   4.693   7.424  0.0324 -0.2411  0.2875
 8786SOL    HW137991   4.362   4.684   7.428  0.1497  0.0182 -2.1505
 8786SOL    HW237992   4.264   4.712   7.330 -1.2899  2.7195  0.8972
 8787SOL     OW37993   0.466   1.469   2.197  0.0334 -1.1705 -0.1642
 8787SOL    HW137994   0.440   1.437   2.110  1.1982  1.0727 -1.3529
 8787SOL    HW237995   0.432   1.407   2.261  0.3131 -1.3189 -0.1587
 8788SOL     OW37996   2.274   1.965   2.410 -0.2216 -0.1043  0.4087
 8788SOL    HW137997   2.187   1.925   2.402 -0.6317  0.9828 -0.5793
 8788SOL    HW237998   2.291   1.945   2.502 -0.9740  1.7437  0.9663
 8789SOL     OW37999   4.646   3.205  16.282  0.1851  0.5712 -0.1723
 8789SOL    HW138000   4.625   3.298  16.293 -0.0041  0.6874 -1.6227
 8789SOL    HW238001   4.573   3.170  16.231  2.1997 -1.8369 -1.3855
 8790SOL     OW38002   1.373   2.228   9.599 -0.4459  0.0402 -0.3448
 8790SOL    HW138003   1.361   2.142   9.638  0.7903 -0.2994 -0.7174
 8790SOL    HW238004   1.466   2.241   9.619 -0.8716  2.8406 -0.1400
 8791SOL     OW38005   0.587   3.328   4.876 -0.1760 -0.2099 -0.4922
 8791SOL    HW138006   0.524   3.265   4.912  1.4607 -1.1719  0.6609
 8791SOL    HW238007   0.605   3.390   4.946 -1.4714 -0.3283 -0.0517
 8792SOL     OW38008   1.918   1.414   4.536 -0.6988 -0.5489 -0.4317
 8792SOL    HW138009   1.844   1.466   4.505 -0.2135 -0.4730 -1.4472
 8792SOL    HW238010   1.882   1.344   4.592  0.3690 -1.3333 -0.7208
 8793SOL     OW38011   3.060   3.113   2.284 -0.1318  0.3506 -0.0979
 8793SOL    HW138012   3.108   3.129   2.365 -2.3019 -0.8050  1.4150
 8793SOL    HW238013   3.024   3.200   2.266  0.3659  0.3261 -1.2049
 8794SOL     OW38014   3.358   3.444  12.451 -0.4424 -0.5600 -0.4778
 8794SOL    HW138015   3.426   3.512  12.453 -1.0986  0.0949 -0.3146
 8794SOL    HW238016   3.409   3.378  12.497 -1.7462 -0.0419  1.7066
 8795SOL     OW38017   3.386   0.597   4.029 -0.1329 -0.6628 -0.4889
 8795SOL    HW138018   3.378   0.624   3.937  0.0235 -1.0522 -0.6158
 8795SOL    HW238019   3.464   0.650   4.047  0.0861 -0.3193 -2.4161
 8796SOL     OW38020   1.035   0.220   6.823  0.6781 -0.1921 -0.1294
 8796SOL    HW138021   1.094   0.152   6.858 -0.3167 -0.7925  0.3973
 8796SOL    HW238022   0.978   0.238   6.898 -0.3211  0.0935 -0.9692
 8797SOL     OW38023   2.707   1.781   1.614  0.2614 -1.0709 -0.6050
 8797SOL    HW138024   2.671   1.869   1.611  3.5463  0.3584  2.9116
 8797SOL    HW238025   2.776   1.795   1.678 -1.0752 -1.0807  0.8517
 8798SOL     OW38026   1.759   4.614   3.296  0.0099 -0.3614 -0.0463
 8798SOL    HW138027   1.826   4.546   3.297  0.4830  0.0966 -0.9359
 8798SOL    HW238028   1.693   4.577   3.238  0.6436 -1.5153 -0.0271
 8799SOL     OW38029   1.588   2.076   6.889 -0.1159  0.2635 -0.1330
 8799SOL    HW138030   1.533   2.146   6.926 -0.0490  0.4229 -0.3356
 8799SOL    HW238031   1.676   2.109   6.908 -1.0179  1.2093  2.4583
 8800SOL     OW38032   3.695   1.844  17.552 -0.6227 -0.4803  0.2956
 8800SOL    HW138033   3.666   1.848  17.461  0.6864 -0.6824 -0.1252
 8800SOL    HW238034   3.613   1.869  17.596 -0.3017 -1.1737  1.2941
 8801SOL     OW38035   3.962   3.991   1.225 -0.0929  0.1454 -0.0402
 8801SOL    HW138036   3.935   4.081   1.240 -1.5677 -0.8366  3.1863
 8801SOL    HW238037   3.918   3.942   1.295  0.5266  0.3220  0.4720
 8802SOL     OW38038   1.257   4.205  14.245  0.2574 -0.1014  0.3972
 8802SOL    HW138039   1.314   4.275  14.212  0.5731 -1.2697 -1.5255
 8802SOL    HW238040   1.174   4.252  14.246  1.1815  1.5616 -0.7057
 8803SOL     OW38041   0.773   0.245   4.018 -0.3358  0.2202  0.6497
 8803SOL    HW138042   0.713   0.175   4.046 -0.0969 -0.0177  0.5642
 8803SOL    HW238043   0.835   0.243   4.090 -1.5402 -0.4106  1.6722
 8804SOL     OW38044   3.750   1.864  10.664  0.0451  0.0858  0.3662
 8804SOL    HW138045   3.828   1.918  10.677  1.3522 -1.4846 -0.9826
 8804SOL    HW238046   3.714   1.871  10.753 -0.4503  0.3830  0.1429
 8805SOL     OW38047   0.193   2.131   8.457 -0.5920  0.2997  0.0848
 8805SOL    HW138048   0.230   2.202   8.511  0.5088 -1.1519  1.2489
 8805SOL    HW238049   0.115   2.105   8.506 -0.7824 -1.1991 -1.0419
 8806SOL     OW38050   3.369   2.115   2.015 -0.6121 -0.1097 -0.0676
 8806SOL    HW138051   3.384   2.189   2.073 -0.4311  1.1052 -1.6705
 8806SOL    HW238052   3.390   2.043   2.074 -0.1765  1.3637  1.5737
 8807SOL     OW38053   4.264   3.454  15.198 -0.2429  0.3149  0.9688
 8807SOL    HW138054   4.265   3.542  15.160 -3.8640 -1.0803 -2.3357
 8807SOL    HW238055   4.180   3.415  15.173  0.8287 -0.5613 -1.2301
 8808SOL     OW38056   4.479   0.105   5.245 -0.2051  0.2809  0.0364
 8808SOL    HW138057   4.490   0.159   5.167 -0.8185  0.8524  0.3514
 8808SOL    HW238058   4.405   0.051   5.218  0.9888 -1.3720  0.0650
 8809SOL     OW38059   3.987   2.468  14.493  0.1347 -0.4986 -0.2287
 8809SOL    HW138060   4.080   2.455  14.474  0.6951  2.2198  0.6298
 8809SOL    HW238061   3.967   2.533  14.425 -0.4006 -0.1732  0.2514
 8810SOL     OW38062   1.276   0.747   3.330  0.3680  0.6580  0.6788
 8810SOL    HW138063   1.368   0.772   3.337  0.3838  1.2466 -1.9358
 8810SOL    HW238064   1.228   0.829   3.321 -1.0463 -0.3502 -0.8422
 8811SOL     OW38065   3.039   1.755   0.381  0.4834 -0.2023  0.6030
 8811SOL    HW138066   3.041   1.659   0.387 -0.2777 -0.2792 -0.3849
 8811SOL    HW238067   3.008   1.784   0.467  0.2979 -0.5739  0.6640
 8812SOL     OW38068   4.619   3.341   7.596 -0.3620  0.5221  0.1088
 8812SOL    HW138069   4.626   3.426   7.639 -2.8695  0.1028  1.3363
 8812SOL    HW238070   4.539   3.307   7.635 -0.1466  0.2342  0.3031
 8813SOL     OW38071   2.458   3.258   3.768 -0.2899  0.6378 -0.0052
 8813SOL    HW138072   2.418   3.246   3.855  1.7817 -5.1641  0.1950
 8813SOL    HW238073   2.543   3.216   3.778  0.1587  1.5703  0.0088
 8814SOL     OW38074   1.810   3.862   2.473 -0.4637  0.0285 -0.0699
 8814SOL    HW138075   1.831   3.793   2.410 -0.8920  0.7849 -1.0420
 8814SOL    HW238076   1.773   3.812   2.546  1.2180  0.0977  0.8308
 8815SOL     OW38077   3.400   0.814   6.743 -0.0750  0.1872 -0.1722
 8815SOL    HW138078   3.340   0.886   6.720  3.2644  2.8761 -0.4450
 8815SOL    HW238079   3.445   0.853   6.818  1.3518 -1.2614 -0.2878
 8816SOL     OW38080   1.452   4.669   4.903  0.4112  0.6359 -0.0669
 8816SOL    HW138081   1.525   4.651   4.843  0.2943  1.1841 -0.3777
 8816SOL    HW238082   1.430   4.589   4.950  0.5172  1.1050  0.7714
 8817SOL     OW38083   3.620   0.759   4.093  0.1617  0.0024 -0.5564
 8817SOL    HW138084   3.694   0.790   4.042 -1.8649  2.0463 -2.2880
 8817SOL    HW238085   3.586   0.844   4.123  1.5014  1.0309 -1.9603
 8818SOL     OW38086   4.227   2.123  13.612  0.5194 -0.3494  1.1736
 8818SOL    HW138087   4.298   2.064  13.587 -1.1589 -2.0180  0.3713
 8818SOL    HW238088   4.183   2.149  13.531 -1.9429 -1.0063  2.3267
 8819SOL     OW38089   1.642   0.433   4.006  0.0270 -0.2908 -0.2568
 8819SOL    HW138090   1.628   0.484   3.927  1.1032  0.7157  0.2100
 8819SOL    HW238091   1.555   0.413   4.042 -0.3773  1.2939 -0.3705
 8820SOL     OW38092   4.339   3.165   8.713 -0.1178 -0.2232  0.1111
 8820SOL    HW138093   4.244   3.169   8.714 -0.1864 -1.8311 -0.1442
 8820SOL    HW238094   4.362   3.245   8.761 -0.4174 -1.2013  1.8844
 8821SOL     OW38095   2.192   3.128   5.776  0.1277  0.2940 -0.2776
 8821SOL    HW138096   2.226   3.216   5.792  0.4908 -0.0919  1.0545
 8821SOL    HW238097   2.100   3.151   5.767  0.2762  0.3355 -1.6992
 8822SOL     OW38098   1.292   2.785   7.230 -0.1090 -0.2060  0.0043
 8822SOL    HW138099   1.356   2.819   7.292  2.2805 -0.3896 -2.3546
 8822SOL    HW238100   1.219   2.770   7.290  0.6813 -0.5734  0.8691
 8823SOL     OW38101   1.957   2.998   3.201 -0.5634  0.1296 -0.0813
 8823SOL    HW138102   2.031   2.937   3.202  0.9408  1.9322  0.6228
 8823SOL    HW238103   1.959   3.018   3.108 -0.7113 -0.1212 -0.1381
 8824SOL     OW38104   1.714   3.595  16.987  0.1714 -0.1929  0.0194
 8824SOL    HW138105   1.712   3.689  17.006  0.3873 -1.1305  4.5768
 8824SOL    HW238106   1.698   3.586  16.893  0.0247 -2.0692  0.2242
 8825SOL     OW38107   2.952   4.157   6.651  0.0764 -0.3794 -0.2447
 8825SOL    HW138108   2.894   4.161   6.727  1.7468  2.7270  0.9019
 8825SOL    HW238109   3.026   4.183   6.707 -0.6193 -1.2002  1.0708
 8826SOL     OW38110   1.686   2.842   4.039  0.2662  0.2205 -0.4021
 8826SOL    HW138111   1.669   2.748   4.041  2.2277 -0.1864 -3.0049
 8826SOL    HW238112   1.675   2.853   4.134 -0.9784  1.7226 -0.7309
 8827SOL     OW38113   4.420   0.269   4.271 -0.6414  0.1705 -0.4634
 8827SOL    HW138114   4.508   0.275   4.307 -1.1162  1.3422  0.5131
 8827SOL    HW238115   4.434   0.300   4.182 -2.3046 -3.1457 -1.8722
 8828SOL     OW38116   0.664   3.464   5.130  0.9526 -0.1766  0.1587
 8828SOL    HW138117   0.572   3.480   5.153  0.9627 -0.0623  0.1193
 8828SOL    HW238118   0.696   3.543   5.172  1.9577 -1.1030  1.1561
 8829SOL     OW38119   1.473   3.325   8.434 -0.1966  0.2592  0.3645
 8829SOL    HW138120   1.502   3.371   8.356 -0.8036  2.9016  1.7090
 8829SOL    HW238121   1.388   3.294   8.403 -0.6486  3.0758 -1.2068
 8830SOL     OW38122   2.002   0.608   3.095 -0.0400  0.3288 -0.1012
 8830SOL    HW138123   1.923   0.646   3.055 -0.4131 -0.1145  0.2195
 8830SOL    HW238124   2.020   0.534   3.037 -2.8597 -1.6140  1.4857
 8831SOL     OW38125   2.865   3.027   4.298 -0.4351  0.1998  0.2886
 8831SOL    HW138126   2.852   2.966   4.370 -2.6972 -0.1309 -0.3873
 8831SOL    HW238127   2.831   3.114   4.316  0.1741  0.6309 -0.6735
 8832SOL     OW38128   0.458   0.511   2.488  0.7708 -0.2084  0.4525
 8832SOL    HW138129   0.377   0.459   2.486  1.6311 -1.5154 -0.7484
 8832SOL    HW238130   0.449   0.561   2.407  0.5699 -3.1009 -1.3427
 8833SOL     OW38131   0.149   1.253   1.838  0.2688 -0.0793  0.2207
 8833SOL    HW138132   0.121   1.186   1.776  1.0402  1.1793 -1.5033
 8833SOL    HW238133   0.151   1.208   1.923 -0.6647 -0.2402  0.1506
 8834SOL     OW38134   2.440   1.154   8.980 -0.3946  0.3485 -0.6757
 8834SOL    HW138135   2.381   1.220   8.943 -1.8383 -0.1376  0.7642
 8834SOL    HW238136   2.400   1.133   9.064 -1.2640  2.2589 -0.6060
 8835SOL     OW38137   2.616   1.934   2.910  0.4660 -0.1522 -0.1471
 8835SOL    HW138138   2.540   1.895   2.954 -0.0870  0.9127 -0.1797
 8835SOL    HW238139   2.605   2.025   2.938 -0.6358  0.3373 -2.1697
 8836SOL     OW38140   1.369   1.633   7.372 -0.1316 -0.1377  0.3832
 8836SOL    HW138141   1.392   1.692   7.301 -0.2026 -1.8457 -1.0635
 8836SOL    HW238142   1.310   1.686   7.426 -0.0212 -1.2929  1.6495
 8837SOL     OW38143   0.498   1.032   1.226  0.0131  0.0294 -0.1557
 8837SOL    HW138144   0.543   1.066   1.304 -0.3983  1.7683 -0.6848
 8837SOL    HW238145   0.462   0.954   1.269  0.9506 -0.1015  0.4073
 8838SOL     OW38146   2.003   3.776   8.823  0.4476 -0.2496  0.3116
 8838SOL    HW138147   1.916   3.789   8.785  0.6091 -1.1393 -0.3788
 8838SOL    HW238148   1.976   3.755   8.913 -0.2970  0.7196  0.3162
 8839SOL     OW38149   0.113   4.738  10.915 -0.7234  0.1745 -0.2545
 8839SOL    HW138150   0.089   0.086  10.885  0.4882  0.4318 -0.4552
 8839SOL    HW238151   0.117   4.700  10.827  1.7293  0.3447 -0.2018
 8840SOL     OW38152   1.389   1.532  12.812 -0.2979  0.7675 -0.2323
 8840SOL    HW138153   1.475   1.514  12.775 -1.3668  0.0069 -2.3698
 8840SOL    HW238154   1.345   1.563  12.733  0.1420 -0.3903 -0.9338
 8841SOL     OW38155   4.719   3.427   4.500  0.1114  0.3915  0.4717
 8841SOL    HW138156   4.669   3.347   4.515  0.6074 -0.3119 -1.6432
 8841SOL    HW238157   4.730   3.458   4.590  0.2688 -1.0197  0.9298
 8842SOL     OW38158   3.203   2.293  15.320 -0.4768 -0.0281  0.2917
 8842SOL    HW138159   3.135   2.336  15.268  0.5623  0.0500 -1.0155
 8842SOL    HW238160   3.216   2.209  15.274 -0.1703  0.5068 -0.6015
 8843SOL     OW38161   2.004   3.797   5.154 -0.5574 -0.3894  0.0612
 8843SOL    HW138162   2.007   3.770   5.062 -1.3669 -0.6319  0.1025
 8843SOL    HW238163   1.969   3.886   5.153  0.5307  0.0365  0.2866
 8844SOL     OW38164   1.499   1.530  16.504  0.7561  0.0513 -0.2614
 8844SOL    HW138165   1.576   1.474  16.490  0.7047 -0.2375  0.5791
 8844SOL    HW238166   1.441   1.485  16.565  0.7470  0.4908  0.0529
 8845SOL     OW38167   3.200   0.871   8.512  0.2276 -0.5234  0.0068
 8845SOL    HW138168   3.119   0.921   8.504 -0.2074 -1.0936  0.8430
 8845SOL    HW238169   3.183   0.804   8.445 -2.1871  0.9836 -0.8753
 8846SOL     OW38170   1.950   4.349   2.470 -0.0245  0.3311 -0.2044
 8846SOL    HW138171   1.992   4.266   2.493 -0.1037  0.4580  0.4041
 8846SOL    HW238172   2.020   4.413   2.480 -0.2896  0.5706  0.1034
 8847SOL     OW38173   2.061   2.827   8.108  0.4320  1.2125 -0.0993
 8847SOL    HW138174   2.067   2.744   8.061 -1.4002  0.4853  0.9591
 8847SOL    HW238175   2.061   2.806   8.201 -0.1051  1.8319  0.0389
 8848SOL     OW38176   3.447   4.214   2.582  0.6089  0.3590  0.5614
 8848SOL    HW138177   3.420   4.142   2.524 -0.5187  2.0145 -0.9842
 8848SOL    HW238178   3.414   4.179   2.665 -0.5648 -2.6306 -1.1422
 8849SOL     OW38179   0.385   1.436  14.677 -0.2502 -0.2746  0.1956
 8849SOL    HW138180   0.456   1.417  14.738 -0.5923  0.7727  0.9305
 8849SOL    HW238181   0.316   1.466  14.736 -2.6278  0.0056 -2.7447
 8850SOL     OW38182   0.559   0.848   3.083 -0.3351  0.5339 -0.2529
 8850SOL    HW138183   0.587   0.860   3.174  4.3678 -3.7739 -1.1126
 8850SOL    HW238184   0.533   0.939   3.070  1.8324  1.2530  0.3241
 8851SOL     OW38185   2.107   2.509   9.066 -0.0189  0.8340 -0.3832
 8851SOL    HW138186   2.130   2.436   9.123 -1.5388 -0.4574 -1.4210
 8851SOL    HW238187   2.057   2.561   9.129 -1.2585 -1.5819  0.6484
 8852SOL     OW38188   1.058   2.779   3.318  0.2621  0.3272  0.5067
 8852SOL    HW138189   1.043   2.697   3.271 -1.4621  1.4085 -0.8669
 8852SOL    HW238190   0.982   2.829   3.287 -0.8276  0.4564  3.4226
 8853SOL     OW38191   1.417   0.891   7.051  0.1878 -0.0998 -0.3378
 8853SOL    HW138192   1.396   0.848   7.134  0.8190  0.6264  0.1967
 8853SOL    HW238193   1.450   0.815   7.004 -0.1191 -0.9552  0.8397
 8854SOL     OW38194   1.455   0.244   4.617  0.0836  0.4053  0.1052
 8854SOL    HW138195   1.392   0.273   4.684  0.1093  0.9120 -0.0874
 8854SOL    HW238196   1.409   0.245   4.533 -0.9833  0.1368  0.6760
 8855SOL     OW38197   0.552   1.318   7.536  0.0375  0.6422 -0.3465
 8855SOL    HW138198   0.531   1.408   7.562 -2.7022 -0.9873  3.1523
 8855SOL    HW238199   0.539   1.275   7.621  0.5665 -1.6506 -1.4315
 8856SOL     OW38200   3.914   2.424   5.939 -0.1759 -0.3289 -0.3315
 8856SOL    HW138201   3.890   2.425   5.847 -0.7481 -0.7933 -0.1862
 8856SOL    HW238202   3.962   2.506   5.937  0.1774 -0.5139  0.2862
 8857SOL     OW38203   3.177   0.081  13.087  0.0045  0.1687 -0.2463
 8857SOL    HW138204   3.114   0.040  13.028  0.7552 -2.9087  1.0880
 8857SOL    HW238205   3.252   0.026  13.065 -1.4946 -1.8995 -0.2050
 8858SOL     OW38206   2.772   4.159   7.246 -0.0978 -0.1605 -0.2961
 8858SOL    HW138207   2.836   4.129   7.311  0.3453  1.6956  0.1029
 8858SOL    HW238208   2.826   4.176   7.169  0.8183  1.8444  0.8228
 8859SOL     OW38209   4.587   1.529   8.036 -0.7598 -0.5565 -0.1152
 8859SOL    HW138210   4.565   1.460   8.098 -0.9897 -1.0317 -0.7259
 8859SOL    HW238211   4.679   1.545   8.059 -0.9519 -1.2540  1.0722
 8860SOL     OW38212   2.846   1.585   7.524  0.1269  0.2607  0.7252
 8860SOL    HW138213   2.876   1.641   7.452  0.1891  0.4271  0.8824
 8860SOL    HW238214   2.867   1.500   7.484  0.0803  0.1299  0.9806
 8861SOL     OW38215   3.632   2.118   6.913  0.2440 -0.1136  0.2220
 8861SOL    HW138216   3.661   2.203   6.882 -0.5271  0.0940  0.0750
 8861SOL    HW238217   3.712   2.067   6.902  0.2555 -0.3126  1.1996
 8862SOL     OW38218   3.797   2.719   8.392 -0.3850 -0.5668 -0.0896
 8862SOL    HW138219   3.724   2.755   8.343  0.6581  0.7721 -0.6656
 8862SOL    HW238220   3.874   2.743   8.339 -0.8871 -1.0057 -1.0218
 8863SOL     OW38221   0.250   3.850  11.637  0.2197 -0.5735  0.1265
 8863SOL    HW138222   0.261   3.808  11.551  0.2837  2.9610 -1.5961
 8863SOL    HW238223   0.210   3.789  11.699 -1.0058 -3.3945 -3.4020
 8864SOL     OW38224   3.133   2.377   2.647  0.6793 -0.0055 -0.5144
 8864SOL    HW138225   3.133   2.407   2.738  0.2905 -1.1702 -0.1305
 8864SOL    HW238226   3.099   2.287   2.649 -1.3903  0.7550 -0.6702
 8865SOL     OW38227   2.398   0.521   7.951 -0.2081 -0.4073  0.4892
 8865SOL    HW138228   2.341   0.597   7.962  2.5888  1.6227  0.8689
 8865SOL    HW238229   2.342   0.453   7.988 -0.4220 -0.7545 -0.4729
 8866SOL     OW38230   0.577   3.553   9.684  0.4722  0.4540 -0.5255
 8866SOL    HW138231   0.530   3.612   9.744 -0.8963 -1.4077  0.2201
 8866SOL    HW238232   0.667   3.568   9.713 -0.2718  0.1170  1.9339
 8867SOL     OW38233   0.884   3.278   5.136 -0.4519 -0.2006 -0.1967
 8867SOL    HW138234   0.810   3.339   5.142  0.0174  0.1257  2.4367
 8867SOL    HW238235   0.959   3.331   5.162 -1.1527  0.5176  0.4101
 8868SOL     OW38236   0.063   2.118   9.525  0.0022  0.1551  0.4952
 8868SOL    HW138237   0.009   2.196   9.513  0.0355 -0.1609 -1.6074
 8868SOL    HW238238   0.013   2.037   9.511 -0.8719  0.5244  1.4733
 8869SOL     OW38239   2.059   3.644   6.416  0.4146 -0.0010 -0.6415
 8869SOL    HW138240   2.069   3.647   6.511  1.3817  2.1880 -0.8217
 8869SOL    HW238241   1.967   3.668   6.408  0.1152 -1.0463 -0.3382
 8870SOL     OW38242   3.456   4.365   7.770  0.1802 -0.1264  0.5220
 8870SOL    HW138243   3.536   4.356   7.719 -0.1147 -0.9894  0.2199
 8870SOL    HW238244   3.400   4.421   7.716  0.2140  1.2476  1.9088
 8871SOL     OW38245   0.837   1.362  12.547 -0.2277  0.3481  0.3597
 8871SOL    HW138246   0.855   1.269  12.563  1.7844  0.6156 -0.3564
 8871SOL    HW238247   0.804   1.374  12.458 -1.4353 -0.9110  0.6321
 8872SOL     OW38248   4.553   4.696   0.602 -0.3305  0.0746 -0.8023
 8872SOL    HW138249   4.519   0.027   0.547 -0.3185  1.1320  0.5545
 8872SOL    HW238250   4.533   4.623   0.544  0.8477 -1.1998  0.4217
 8873SOL     OW38251   1.490   3.592   8.618 -0.5640 -0.2564  0.1819
 8873SOL    HW138252   1.432   3.619   8.547 -0.3179  0.6572  0.3205
 8873SOL    HW238253   1.564   3.566   8.565 -0.6541  0.4023 -0.2632
 8874SOL     OW38254   0.516   3.985   7.327 -0.1750 -0.0441  0.3869
 8874SOL    HW138255   0.512   3.897   7.364 -1.6153  1.0840  2.8449
 8874SOL    HW238256   0.447   3.971   7.262 -0.1304 -1.2623  0.5984
 8875SOL     OW38257   3.810   3.570   1.441 -0.1392  0.0799  0.2550
 8875SOL    HW138258   3.824   3.518   1.362  1.2244 -0.7023  1.0144
 8875SOL    HW238259   3.897   3.566   1.482  0.6123  1.4388 -1.1554
 8876SOL     OW38260   1.010   3.767   2.264  0.4107  0.2189  0.9263
 8876SOL    HW138261   0.916   3.777   2.278  0.1903  0.6317 -0.8448
 8876SOL    HW238262   1.040   3.851   2.301 -0.7285  0.8018  0.5094
 8877SOL     OW38263   4.548   1.958  13.924 -0.3240 -0.4504  0.5372
 8877SOL    HW138264   4.498   1.895  13.872 -0.2084 -0.3948  0.3582
 8877SOL    HW238265   4.493   2.036  13.914  1.6594  1.0884  1.6875
 8878SOL     OW38266   1.854   4.027   5.071 -0.0056  0.1361  0.1539
 8878SOL    HW138267   1.768   4.064   5.048 -0.4269 -0.6718  0.4246
 8878SOL    HW238268   1.868   3.951   5.014 -0.8190 -0.2949  0.5274
 8879SOL     OW38269   3.893   2.802   7.205 -0.1491  0.2382 -0.0636
 8879SOL    HW138270   3.818   2.799   7.145 -1.5124  1.4415  1.5849
 8879SOL    HW238271   3.919   2.893   7.190  1.4720 -0.4111 -1.1114
 8880SOL     OW38272   4.232   3.373   7.512 -0.2403 -0.0276 -0.8202
 8880SOL    HW138273   4.235   3.434   7.439  2.2801 -0.0784 -0.7564
 8880SOL    HW238274   4.254   3.290   7.470  2.1897  0.6763 -0.9471
 8881SOL     OW38275   3.780   2.373   5.676  0.1790 -0.4004  0.3252
 8881SOL    HW138276   3.728   2.439   5.720  0.0972 -0.2004 -0.0665
 8881SOL    HW238277   3.728   2.296   5.697 -0.7280  0.5282  1.4734
 8882SOL     OW38278   2.573   2.596   2.396 -0.5999  0.0838 -0.2197
 8882SOL    HW138279   2.483   2.610   2.365 -1.2814 -1.1492  1.2131
 8882SOL    HW238280   2.576   2.666   2.462  1.6861  1.9772 -2.3542
 8883SOL     OW38281   4.127   4.010   8.040  0.4399  0.1645 -0.0842
 8883SOL    HW138282   4.046   4.046   8.075  0.4709  0.0221  0.1414
 8883SOL    HW238283   4.171   4.022   8.124  0.9232 -0.8130 -0.1837
 8884SOL     OW38284   3.267   2.814   1.729  0.1717  0.2910  0.1122
 8884SOL    HW138285   3.206   2.845   1.795  0.2625  1.7951 -0.5190
 8884SOL    HW238286   3.287   2.724   1.755  0.5644  0.6083  0.8929
 8885SOL     OW38287   1.601   4.674   2.086 -0.5354  0.4754 -0.0069
 8885SOL    HW138288   1.513   4.673   2.122  0.3745  1.1192  2.2387
 8885SOL    HW238289   1.583   4.609   2.018 -2.2709 -0.6633  1.5570
 8886SOL     OW38290   0.695   3.415   9.225 -0.3283  0.2180  0.2098
 8886SOL    HW138291   0.661   3.491   9.178 -0.9350 -1.3222 -1.8474
 8886SOL    HW238292   0.638   3.422   9.302 -0.1718  2.1625  0.1701
 8887SOL     OW38293   3.234   4.686   6.477  0.2521 -0.3734 -0.3095
 8887SOL    HW138294   3.165   4.642   6.427 -0.8162  1.9922 -0.8997
 8887SOL    HW238295   3.188   0.015   6.525  3.1360  1.7183 -0.5391
 8888SOL     OW38296   0.387   1.475   2.820  0.1558 -0.2804 -0.0791
 8888SOL    HW138297   0.302   1.472   2.865  0.7799 -0.1859  1.1027
 8888SOL    HW238298   0.363   1.525   2.742 -1.0985 -1.5600 -0.5331
 8889SOL     OW38299   3.506   0.453   7.677  0.1909  0.2630  0.1285
 8889SOL    HW138300   3.592   0.412   7.669  0.4306  0.8219 -0.1435
 8889SOL    HW238301   3.451   0.394   7.625  0.1038  0.2687  0.2152
 8890SOL     OW38302   1.290   0.861   8.055  0.1756  0.1037 -0.0332
 8890SOL    HW138303   1.308   0.942   8.007  1.5947 -0.5175 -0.5551
 8890SOL    HW238304   1.241   0.892   8.132  0.7001 -0.3213  0.4701
 8891SOL     OW38305   0.258   0.580   9.326  0.6842  0.1577 -0.4894
 8891SOL    HW138306   0.184   0.525   9.353  1.6075 -1.2442 -0.7614
 8891SOL    HW238307   0.322   0.549   9.391  0.8509  2.1889  0.3148
 8892SOL     OW38308   1.773   2.268   6.166 -0.2882 -0.5288  0.0877
 8892SOL    HW138309   1.769   2.336   6.233 -2.3345  1.5549 -2.1681
 8892SOL    HW238310   1.688   2.226   6.174 -0.7846  0.3813 -0.4241
 8893SOL     OW38311   4.110   2.472   8.008  0.2004  0.0959 -0.0944
 8893SOL    HW138312   4.092   2.566   8.013  0.6767  0.1931 -0.1370
 8893SOL    HW238313   4.094   2.458   7.915  1.9416  0.2753 -0.4327
 8894SOL     OW38314   4.709   4.079   4.103  0.5902 -0.3619 -0.2206
 8894SOL    HW138315   4.617   4.071   4.125  0.0646  2.2076 -1.5356
 8894SOL    HW238316   4.696   4.143   4.033  0.4328 -1.1735 -0.9333
 8895SOL     OW38317   0.070   0.526   1.678  0.4294  0.4151 -0.7498
 8895SOL    HW138318   0.112   0.443   1.698  2.1405  1.5089  0.2026
 8895SOL    HW238319   0.034   0.499   1.594  0.3893 -0.9713 -0.2800
 8896SOL     OW38320   2.536   0.755   8.496 -0.8457  0.1581 -0.4038
 8896SOL    HW138321   2.559   0.848   8.500  2.7679 -0.8397  1.2916
 8896SOL    HW238322   2.614   0.721   8.539  0.0922 -0.3174 -2.4945
 8897SOL     OW38323   4.115   2.133   2.612  0.4302 -0.2344 -0.3094
 8897SOL    HW138324   4.105   2.155   2.519  1.6445  0.3126 -0.3155
 8897SOL    HW238325   4.063   2.053   2.624 -0.9186  0.6226 -0.4494
 8898SOL     OW38326   1.978   4.545  16.474  0.1349  0.9236  0.3020
 8898SOL    HW138327   2.042   4.521  16.407 -1.1382 -3.4663  0.6638
 8898SOL    HW238328   2.013   4.633  16.486 -1.3572  1.2531  2.2672
 8899SOL     OW38329   3.161   0.930   5.845 -0.5640 -0.3208 -0.0742
 8899SOL    HW138330   3.164   0.838   5.873 -2.0578 -0.0973  0.8515
 8899SOL    HW238331   3.217   0.962   5.915 -0.5091 -0.4673 -0.0495
 8900SOL     OW38332   3.968   3.959   3.614 -0.1650 -0.1246  0.1879
 8900SOL    HW138333   3.923   4.004   3.685 -1.0356 -2.1299  0.9243
 8900SOL    HW238334   3.920   3.976   3.534  0.9799 -0.5675 -0.5966
 8901SOL     OW38335   0.209   1.512   6.540  0.2742  0.0254 -0.1173
 8901SOL    HW138336   0.271   1.560   6.485 -0.3993 -1.2886 -2.0300
 8901SOL    HW238337   0.274   1.447   6.570 -2.1106 -2.5079 -0.4592
 8902SOL     OW38338   2.553   3.821   2.842 -0.3167  0.3046  0.0186
 8902SOL    HW138339   2.473   3.770   2.830  0.3922 -0.7500 -0.3128
 8902SOL    HW238340   2.534   3.876   2.918 -0.9256  3.2737 -2.3212
 8903SOL     OW38341   3.784   1.442   3.456 -0.2902 -0.0293 -0.2308
 8903SOL    HW138342   3.756   1.431   3.365  0.0738 -0.1936 -0.3226
 8903SOL    HW238343   3.782   1.352   3.486  0.8811  0.4162  1.1887
 8904SOL     OW38344   0.683   0.462  11.594 -0.0554 -0.9395  0.1718
 8904SOL    HW138345   0.763   0.512  11.577  0.0521 -0.4981  1.9913
 8904SOL    HW238346   0.677   0.415  11.511 -3.0725 -1.5951  0.7435
 8905SOL     OW38347   4.661   0.320   6.535  0.2371 -0.0834 -0.4422
 8905SOL    HW138348   4.605   0.278   6.470  0.8595 -1.0028 -0.3815
 8905SOL    HW238349   4.662   0.246   6.595  1.2732  0.8278  0.6765
 8906SOL     OW38350   3.686   0.329   1.069 -0.3667  0.2685 -0.3923
 8906SOL    HW138351   3.739   0.283   1.003  2.0170  0.7336  1.2005
 8906SOL    HW238352   3.665   0.414   1.031 -0.8762 -0.1695 -1.1117
 8907SOL     OW38353   4.435   1.532   3.628  0.3729 -0.0830 -0.1963
 8907SOL    HW138354   4.467   1.472   3.561  0.0740 -1.9573  1.3366
 8907SOL    HW238355   4.421   1.475   3.704  0.5057  0.7872  0.4685
 8908SOL     OW38356   1.337   3.620   7.676 -0.0413  0.2946  0.5083
 8908SOL    HW138357   1.300   3.553   7.733  1.2324  0.2552  1.2713
 8908SOL    HW238358   1.428   3.602   7.697 -0.6152 -2.7031  0.3880
 8909SOL     OW38359   0.174   3.861   3.761 -0.5116  0.4526  0.4607
 8909SOL    HW138360   0.106   3.870   3.828 -0.2235 -0.8334  0.9109
 8909SOL    HW238361   0.244   3.909   3.805 -2.4388  3.0903  0.6621
 8910SOL     OW38362   1.879   0.297   9.506 -0.1601 -0.6225  0.0359
 8910SOL    HW138363   1.910   0.254   9.586 -0.4722 -1.2953 -0.2053
 8910SOL    HW238364   1.953   0.356   9.491  0.7704 -2.2321 -1.7910
 8911SOL     OW38365   2.298   0.542   2.899  0.0192  0.2367  0.3797
 8911SOL    HW138366   2.346   0.557   2.818  2.7146 -0.6237  1.8147
 8911SOL    HW238367   2.282   0.633   2.922 -1.1830  0.4518 -1.3406
 8912SOL     OW38368   0.018   0.583   7.949  0.1822  0.6436  0.3677
 8912SOL    HW138369   4.676   0.609   7.907  0.6518  4.0303  1.5026
 8912SOL    HW238370   0.044   0.505   7.901  0.9800  1.4924 -0.5772
 8913SOL     OW38371   1.769   0.387  13.397  0.4365  0.6133 -0.7801
 8913SOL    HW138372   1.726   0.455  13.450  0.7937 -1.0892  1.7157
 8913SOL    HW238373   1.771   0.435  13.314 -0.6886  2.4294  0.2302
 8914SOL     OW38374   4.245   4.226   6.615 -0.3469  0.5598  0.2917
 8914SOL    HW138375   4.240   4.181   6.530  1.3316  2.0316 -0.6038
 8914SOL    HW238376   4.162   4.189   6.644 -0.9095  0.0023 -1.9909
 8915SOL     OW38377   3.919   2.048   2.146  0.0720  0.9411  0.2605
 8915SOL    HW138378   3.897   1.955   2.153  0.6615  0.8462  0.8924
 8915SOL    HW238379   3.840   2.088   2.110 -0.9852 -0.4075  1.0471
 8916SOL     OW38380   3.736   1.874   8.915  0.2527  0.7569  0.0728
 8916SOL    HW138381   3.729   1.897   9.008 -1.4126 -2.7333  0.8067
 8916SOL    HW238382   3.763   1.960   8.884  1.7397  0.1170 -0.3887
 8917SOL     OW38383   3.304   3.766   5.496  0.1627 -0.0112  0.1642
 8917SOL    HW138384   3.357   3.713   5.437  1.5366  2.0808 -0.4806
 8917SOL    HW238385   3.365   3.839   5.502 -1.0453  1.0748 -1.0438
 8918SOL     OW38386   4.449   4.104   2.977 -0.7380  0.1738  0.6063
 8918SOL    HW138387   4.379   4.044   3.007  0.3499 -0.3281  2.1584
 8918SOL    HW238388   4.399   4.186   2.983  0.1178  0.7824 -0.8189
 8919SOL     OW38389   0.837   4.337   5.815  0.0065  0.0951 -0.8114
 8919SOL    HW138390   0.751   4.298   5.798 -0.3779  1.2955 -1.6189
 8919SOL    HW238391   0.894   4.279   5.765  0.2567  0.7028 -1.2299
 8920SOL     OW38392   3.445   4.472   2.700  0.5982  0.1536  0.2649
 8920SOL    HW138393   3.496   4.522   2.637  1.2612 -2.3143 -1.1934
 8920SOL    HW238394   3.412   4.402   2.643  0.4882  0.6229 -0.2505
 8921SOL     OW38395   2.564   0.787  17.518  0.0627  0.3009  0.5531
 8921SOL    HW138396   2.487   0.742  17.555  0.0561 -2.1978 -2.4992
 8921SOL    HW238397   2.593   0.720  17.456 -0.7341 -0.2848  0.7996
 8922SOL     OW38398   1.233   4.586  14.083 -0.1873 -1.0107  0.6261
 8922SOL    HW138399   1.226   4.636  14.001  2.6736 -0.9196  0.4232
 8922SOL    HW238400   1.187   4.647  14.141 -0.0216  1.1437 -1.4528
 8923SOL     OW38401   3.435   3.654   4.538  0.5624 -0.4123  0.0773
 8923SOL    HW138402   3.476   3.571   4.510  0.1088 -0.4560 -0.4722
 8923SOL    HW238403   3.364   3.661   4.475 -1.1130  2.2311  2.2968
 8924SOL     OW38404   0.433   3.268  14.660  0.1820  0.2159 -0.4937
 8924SOL    HW138405   0.433   3.298  14.751  1.9320 -0.2464 -0.3377
 8924SOL    HW238406   0.338   3.254  14.658  0.3851 -1.1973 -0.4555
 8925SOL     OW38407   0.986   3.793   9.246 -0.0954  0.7094  0.5053
 8925SOL    HW138408   0.935   3.833   9.177 -4.0852 -0.3755  2.8370
 8925SOL    HW238409   1.011   3.710   9.205 -0.6832  1.5485 -1.5130
 8926SOL     OW38410   3.695   3.890  15.589  0.1024 -0.0490 -0.0569
 8926SOL    HW138411   3.731   3.823  15.648  0.5390 -0.2966 -0.6135
 8926SOL    HW238412   3.695   3.835  15.510 -1.9273 -1.1666  0.7034
 8927SOL     OW38413   0.596   3.479   2.328  0.3490  0.4309  0.3605
 8927SOL    HW138414   0.690   3.459   2.334 -0.0566 -0.8043  2.4364
 8927SOL    HW238415   0.587   3.488   2.233 -0.5445  1.3501  0.5438
 8928SOL     OW38416   3.426   2.574   6.525  0.2883 -0.0592 -0.2973
 8928SOL    HW138417   3.516   2.569   6.493  0.2956 -0.8464 -0.1550
 8928SOL    HW238418   3.407   2.481   6.527  0.0559 -0.0101 -0.2155
 8929SOL     OW38419   0.952   0.981  16.176  0.2058  0.0664  0.5200
 8929SOL    HW138420   1.040   1.003  16.147 -0.3428  0.6997 -0.6899
 8929SOL    HW238421   0.940   1.048  16.243 -1.0310  2.0509 -1.6870
 8930SOL     OW38422   2.817   4.284   9.269 -0.0757  0.2435  0.4387
 8930SOL    HW138423   2.869   4.312   9.344  0.7213 -1.1267  0.3880
 8930SOL    HW238424   2.869   4.288   9.189 -0.7118 -0.3205 -0.0048
 8931SOL     OW38425   0.498   0.495   5.214 -0.4196  0.4760 -0.0071
 8931SOL    HW138426   0.447   0.447   5.280  2.2865 -1.0213  0.9962
 8931SOL    HW238427   0.469   0.586   5.222 -1.5741 -0.0167  1.3522
 8932SOL     OW38428   3.261   3.249   3.525  0.0829 -0.1961  0.0278
 8932SOL    HW138429   3.347   3.288   3.543 -0.7320  0.8595  1.6992
 8932SOL    HW238430   3.268   3.158   3.553 -0.0645 -0.3143 -0.3219
 8933SOL     OW38431   2.434   2.241   7.776 -0.0625 -0.1304  0.4827
 8933SOL    HW138432   2.450   2.261   7.684 -1.1599  0.2548  0.3702
 8933SOL    HW238433   2.343   2.269   7.785 -0.5500 -1.1764 -1.1771
 8934SOL     OW38434   2.802   3.858  12.053  0.0215  0.0187 -0.1111
 8934SOL    HW138435   2.729   3.897  12.003  0.8250  0.5637 -0.8549
 8934SOL    HW238436   2.753   3.798  12.108  0.6590  0.3730  0.8455
 8935SOL     OW38437   4.054   4.379   2.623 -0.1329 -0.2424  0.1306
 8935SOL    HW138438   3.964   4.374   2.655 -0.2106 -2.3335 -0.4302
 8935SOL    HW238439   4.096   4.445   2.679  3.7622 -1.8426 -0.8934
 8936SOL     OW38440   0.262   0.819   8.650 -0.0387 -0.1919  0.8116
 8936SOL    HW138441   0.250   0.774   8.566 -1.1543 -0.3162  1.0446
 8936SOL    HW238442   0.317   0.757   8.699  0.4786 -1.1725 -0.9780
 8937SOL     OW38443   3.692   0.265   7.675 -0.0592 -0.4312  0.2757
 8937SOL    HW138444   3.768   0.219   7.711  0.2943  0.1491  0.2774
 8937SOL    HW238445   3.723   0.290   7.588  0.2891 -3.0642 -0.3256
 8938SOL     OW38446   4.025   3.816   4.994  0.4235  0.5925 -0.2735
 8938SOL    HW138447   4.054   3.896   5.037  2.1203 -0.4035  0.4290
 8938SOL    HW238448   4.111   3.776   4.985 -0.3900 -1.0349 -0.8664
 8939SOL     OW38449   0.347   3.080   7.040  0.4499 -0.5354 -0.7730
 8939SOL    HW138450   0.365   3.127   6.959  0.0593 -1.8806 -1.6501
 8939SOL    HW238451   0.378   3.137   7.110 -0.4000  0.8514 -1.5341
 8940SOL     OW38452   3.988   0.677   1.608 -0.0183 -0.1196 -0.2195
 8940SOL    HW138453   4.042   0.756   1.610 -1.1564  0.6225  0.6012
 8940SOL    HW238454   4.032   0.621   1.672 -0.6723 -1.2218 -0.7355
 8941SOL     OW38455   3.924   3.586   7.872  0.2299 -0.3808  0.0122
 8941SOL    HW138456   3.888   3.642   7.940 -0.3324 -0.7770  0.0408
 8941SOL    HW238457   4.019   3.590   7.883  0.3367 -0.6330 -0.7838
 8942SOL     OW38458   0.276   2.261   7.188  0.4397 -0.1180 -0.5284
 8942SOL    HW138459   0.237   2.333   7.137  0.3101 -0.5689 -1.0609
 8942SOL    HW238460   0.355   2.247   7.136  0.9031  1.4097 -0.2260
 8943SOL     OW38461   3.462   4.196   7.984 -0.0085 -0.5052 -0.4765
 8943SOL    HW138462   3.388   4.153   7.941  0.0458 -0.8816 -0.2022
 8943SOL    HW238463   3.469   4.276   7.933  2.7244 -0.9652 -0.8607
 8944SOL     OW38464   1.229   0.149   8.649 -0.2384  0.1521  0.3663
 8944SOL    HW138465   1.273   0.159   8.564 -0.6145  0.5204  0.2191
 8944SOL    HW238466   1.263   0.227   8.693  0.3154  0.1352 -0.0271
 8945SOL     OW38467   1.428   3.782   9.271  0.2732 -0.8689 -0.8068
 8945SOL    HW138468   1.335   3.796   9.251  0.1690 -2.2934 -1.3342
 8945SOL    HW238469   1.447   3.867   9.310 -0.3801 -0.1231 -2.0982
 8946SOL     OW38470   2.695   2.955  16.384  0.3029 -0.4190 -0.1155
 8946SOL    HW138471   2.644   2.901  16.444  1.7078  0.7187  2.0853
 8946SOL    HW238472   2.646   3.037  16.390 -0.7221 -0.9690 -0.8161
 8947SOL     OW38473   2.725   0.412   4.998 -0.2962  0.8193 -0.4792
 8947SOL    HW138474   2.693   0.380   5.082  0.0187  0.8551 -0.3466
 8947SOL    HW238475   2.803   0.455   5.032  0.1026 -0.2093 -0.0848
 8948SOL     OW38476   4.578   2.583   0.402  0.3471  0.4208 -0.3936
 8948SOL    HW138477   4.566   2.557   0.494  3.7452 -1.0618 -0.3855
 8948SOL    HW238478   4.636   2.657   0.417 -0.1271  0.8786 -0.8168
 8949SOL     OW38479   4.340   4.729   3.689 -0.7400 -0.0469 -0.1837
 8949SOL    HW138480   4.290   0.029   3.761 -0.1428  2.9063 -1.4207
 8949SOL    HW238481   4.427   4.712   3.726 -0.8369 -1.0629 -0.4346
 8950SOL     OW38482   2.391   3.479   6.791  0.5515 -0.0366  0.1049
 8950SOL    HW138483   2.478   3.447   6.818 -0.0917 -1.3784  0.5861
 8950SOL    HW238484   2.342   3.472   6.873 -1.1717  2.6759 -0.6851
 8951SOL     OW38485   0.669   4.546   5.895  0.4350 -0.1771 -0.0381
 8951SOL    HW138486   0.728   4.476   5.869  2.2974  1.5175 -0.4172
 8951SOL    HW238487   0.588   4.502   5.919  0.5155  0.0849  0.6935
 8952SOL     OW38488   3.873   2.671   4.145  0.0468  0.2651  0.5412
 8952SOL    HW138489   3.829   2.747   4.106  1.0008  0.9231  0.7628
 8952SOL    HW238490   3.818   2.598   4.115 -1.4741  0.8434  1.8995
 8953SOL     OW38491   1.661   1.468   2.437  0.3733 -0.4575 -0.6773
 8953SOL    HW138492   1.698   1.380   2.437  1.6453  0.0648 -0.5991
 8953SOL    HW238493   1.727   1.517   2.388  0.8206 -0.9511 -0.5752
 8954SOL     OW38494   1.402   3.921   8.589 -0.1324  0.6425 -0.3839
 8954SOL    HW138495   1.357   3.856   8.643  2.2129  1.1724  2.1793
 8954SOL    HW238496   1.430   3.865   8.517  1.0256  1.0934 -0.2924
 8955SOL     OW38497   2.283   2.248  16.705 -0.7115 -0.2107  0.0790
 8955SOL    HW138498   2.285   2.232  16.799  0.7647 -3.8593 -0.5703
 8955SOL    HW238499   2.320   2.168  16.668 -2.6832 -0.6855 -0.8583
 8956SOL     OW38500   0.088   1.377  15.047 -0.5858  0.5008  0.0077
 8956SOL    HW138501   0.091   1.473  15.040  1.4888  0.1893 -3.2691
 8956SOL    HW238502   0.071   1.365  14.954  0.6227 -2.8493  0.2340
 8957SOL     OW38503   3.345   3.051   5.386 -0.1648 -0.5259  0.6173
 8957SOL    HW138504   3.270   3.036   5.444 -1.4914  0.5815 -0.8005
 8957SOL    HW238505   3.324   3.142   5.367  0.3471 -0.4542  0.4131
 8958SOL     OW38506   4.665   4.107   3.529  0.3877  0.4447 -0.1981
 8958SOL    HW138507   4.603   4.086   3.459 -1.5519  4.4669  0.3061
 8958SOL    HW238508   4.737   4.045   3.516 -0.8193 -0.8202 -0.8636
 8959SOL     OW38509   1.826   1.762   4.662  0.0987  0.1316 -0.1913
 8959SOL    HW138510   1.820   1.678   4.618 -0.3028  0.3113 -0.4749
 8959SOL    HW238511   1.864   1.739   4.747  0.1803 -0.5445 -0.4100
 8960SOL     OW38512   1.967   2.203   8.581 -0.7759 -0.6412 -0.3316
 8960SOL    HW138513   2.032   2.208   8.651  0.9363 -0.0414 -1.9350
 8960SOL    HW238514   1.939   2.295   8.581 -1.5256 -0.8728 -0.6805
 8961SOL     OW38515   0.250   3.787  12.981  0.4271 -0.0919 -0.3223
 8961SOL    HW138516   0.194   3.845  12.929  0.6352  1.2054  0.8947
 8961SOL    HW238517   0.300   3.857  13.024 -1.1311  1.1562 -0.5164
 8962SOL     OW38518   0.043   3.538   2.669 -0.0924  0.0907  0.2016
 8962SOL    HW138519   0.008   3.626   2.657 -1.0165 -0.0766  1.7237
 8962SOL    HW238520   0.026   3.522   2.761 -2.5747  0.0957 -0.2609
 8963SOL     OW38521   0.908   1.440   8.485  0.0610  0.0973 -0.1726
 8963SOL    HW138522   0.947   1.419   8.569  0.1305  0.5513 -0.0892
 8963SOL    HW238523   0.918   1.535   8.483  1.0600  0.0096  0.9551
 8964SOL     OW38524   3.801   3.291   8.104 -0.1205  0.5007 -0.1898
 8964SOL    HW138525   3.863   3.324   8.169 -1.0077 -1.2639  1.5794
 8964SOL    HW238526   3.814   3.202   8.137 -1.0149 -0.0713 -1.4008
 8965SOL     OW38527   0.619   3.886   9.539  0.3050 -0.0268  0.2446
 8965SOL    HW138528   0.709   3.856   9.530  0.6266  1.0192 -0.0611
 8965SOL    HW238529   0.586   3.839   9.616 -2.1042  1.5902  0.2016
 8966SOL     OW38530   4.284   3.078   6.510  0.0701  0.2689 -0.4156
 8966SOL    HW138531   4.344   3.138   6.466 -0.0803  1.6426  1.2128
 8966SOL    HW238532   4.231   3.130   6.572 -0.8996 -0.4059 -0.6846
 8967SOL     OW38533   0.994   3.079   8.281  0.2005 -0.1746 -0.4158
 8967SOL    HW138534   1.020   3.126   8.201  1.1297 -1.8642 -1.1024
 8967SOL    HW238535   1.077   3.042   8.310 -0.4530  1.0441  2.9612
 8968SOL     OW38536   4.587   0.870  12.674  0.2525  0.6268 -0.2298
 8968SOL    HW138537   4.527   0.911  12.612 -0.8966  2.0701  1.8447
 8968SOL    HW238538   4.541   0.893  12.755  0.4065  0.8568 -0.2064
 8969SOL     OW38539   3.198   1.719   4.561 -0.1783  0.2022  0.1303
 8969SOL    HW138540   3.185   1.697   4.469 -0.6915 -0.0349  0.2633
 8969SOL    HW238541   3.263   1.653   4.585  0.5208  1.3582  1.4362
 8970SOL     OW38542   1.783   4.400   6.859  0.6645 -0.0689 -0.0178
 8970SOL    HW138543   1.700   4.401   6.811  1.2432  0.3984 -1.0073
 8970SOL    HW238544   1.759   4.402   6.952 -1.0144  1.7214 -0.4955
 8971SOL     OW38545   2.883   1.976   8.262 -0.3447  0.0997 -0.6165
 8971SOL    HW138546   2.883   2.050   8.201  3.9454  1.0190  0.5537
 8971SOL    HW238547   2.841   1.907   8.210 -1.7697  0.6357 -0.1889
 8972SOL     OW38548   3.098   2.429   7.388 -0.4045 -0.1330 -0.6033
 8972SOL    HW138549   3.095   2.492   7.460  1.9397 -1.1903  0.3933
 8972SOL    HW238550   3.083   2.347   7.435  0.1398  1.7451  2.8410
 8973SOL     OW38551   1.986   4.519   8.759  0.0699 -0.1318 -0.1826
 8973SOL    HW138552   2.065   4.471   8.785 -0.4272 -0.4688  0.7036
 8973SOL    HW238553   1.991   4.520   8.663 -0.5902 -1.0568 -0.2302
 8974SOL     OW38554   4.432   2.891   7.763  0.3558  0.1868  0.0901
 8974SOL    HW138555   4.379   2.816   7.793 -0.3238  0.6908  0.1494
 8974SOL    HW238556   4.417   2.879   7.669 -0.4165 -1.4334  0.4152
 8975SOL     OW38557   1.982   0.538   5.548 -0.6381  0.3371 -0.0061
 8975SOL    HW138558   2.013   0.603   5.486 -1.7965  1.4779  0.6129
 8975SOL    HW238559   2.057   0.478   5.551 -0.6636  0.2175 -1.8583
 8976SOL     OW38560   1.052   3.890   7.421 -0.0145 -0.2117 -0.5699
 8976SOL    HW138561   1.032   3.801   7.453 -0.7256  0.2388  0.2360
 8976SOL    HW238562   0.973   3.912   7.372 -0.1425 -0.0415 -0.2861
 8977SOL     OW38563   4.219   4.191   2.310 -0.5678 -0.0738  0.0960
 8977SOL    HW138564   4.192   4.282   2.302 -0.0709 -0.0160 -0.9303
 8977SOL    HW238565   4.180   4.147   2.234  0.5624 -0.2821 -0.3703
 8978SOL     OW38566   1.527   0.194   3.820 -0.0156 -0.3380  0.0863
 8978SOL    HW138567   1.434   0.197   3.796  0.3302  0.8100 -1.1308
 8978SOL    HW238568   1.569   0.221   3.738  0.4575 -1.0030  0.1107
 8979SOL     OW38569   0.698   1.495   9.015  0.0367  0.7207 -0.6027
 8979SOL    HW138570   0.770   1.438   8.987 -0.2084  0.0571  0.1161
 8979SOL    HW238571   0.673   1.539   8.934 -1.0401  2.2175  0.5377
 8980SOL     OW38572   2.968   2.012  12.575  0.4494 -0.1881 -0.1980
 8980SOL    HW138573   2.962   1.992  12.482  3.0726  0.3667 -0.4931
 8980SOL    HW238574   2.963   2.108  12.576  1.1656 -0.1393 -1.2023
 8981SOL     OW38575   0.669   0.906   2.542 -0.0715  0.0854  0.5027
 8981SOL    HW138576   0.679   0.868   2.454 -3.0569  1.4231 -0.4183
 8981SOL    HW238577   0.677   0.819   2.582  2.6094  1.2931  2.6026
 8982SOL     OW38578   1.343   4.134   8.021  0.0521  0.0997  0.4216
 8982SOL    HW138579   1.420   4.155   8.075 -1.1708 -1.8701  2.9499
 8982SOL    HW238580   1.392   4.096   7.947 -2.3189 -0.9155 -0.6262
 8983SOL     OW38581   2.406   3.348  17.444  0.1121 -0.7656 -0.0628
 8983SOL    HW138582   2.404   3.256  17.469  0.8477 -0.8825 -0.4318
 8983SOL    HW238583   2.468   3.352  17.371  0.5462  2.4527  0.4667
 8984SOL     OW38584   1.899   4.233  10.857  0.3190 -0.1966  0.1727
 8984SOL    HW138585   1.845   4.298  10.812  1.5969  2.1603  2.0623
 8984SOL    HW238586   1.985   4.233  10.816  1.4349  0.7728  2.4844
 8985SOL     OW38587   3.594   3.007  11.451 -0.2535 -0.5085 -0.0612
 8985SOL    HW138588   3.499   3.001  11.452 -0.2415 -0.5811  0.5822
 8985SOL    HW238589   3.621   2.915  11.454  1.7176  0.1154  2.0819
 8986SOL     OW38590   2.665   0.565  10.318  0.3951 -0.3274  0.3775
 8986SOL    HW138591   2.688   0.473  10.323  0.7261 -0.2892 -0.3634
 8986SOL    HW238592   2.600   0.564  10.247 -0.0418 -0.9533  0.7937
 8987SOL     OW38593   2.528   4.483   8.417  0.3227 -0.8061 -0.4419
 8987SOL    HW138594   2.563   4.394   8.423  0.1938 -0.6984  1.8052
 8987SOL    HW238595   2.441   4.469   8.379  1.0128  1.5665 -2.8782
 8988SOL     OW38596   0.048   1.534  16.674  0.1040  0.1887  0.5411
 8988SOL    HW138597   0.086   1.540  16.587  1.8594  1.1317  1.3802
 8988SOL    HW238598   0.079   1.445  16.691 -2.8837 -0.7164  1.2347
 8989SOL     OW38599   0.346   0.125   2.642 -0.3501  0.4760  0.1607
 8989SOL    HW138600   0.397   0.058   2.597 -0.8065  0.0915  0.2189
 8989SOL    HW238601   0.413   0.187   2.672 -0.9170  1.3535 -0.3831
 8990SOL     OW38602   2.902   2.994   9.147 -0.7255  0.5887  0.7838
 8990SOL    HW138603   2.933   3.017   9.059  1.3181 -1.8540  0.8687
 8990SOL    HW238604   2.906   2.899   9.150  0.8445  0.6660  1.2421
 8991SOL     OW38605   1.439   2.006   5.311 -0.0082 -0.6618 -0.2614
 8991SOL    HW138606   1.376   2.049   5.368  0.4893 -0.0997 -0.1379
 8991SOL    HW238607   1.500   2.079   5.313  0.0122 -0.6609 -0.8502
 8992SOL     OW38608   1.926   1.001   7.692  0.1256  0.1538  0.1051
 8992SOL    HW138609   1.890   0.924   7.736  0.8352 -0.4877 -0.4478
 8992SOL    HW238610   1.866   1.001   7.617  0.4668  0.3818 -0.1656
 8993SOL     OW38611   1.221   4.299   2.524  0.1474  0.1388 -0.2426
 8993SOL    HW138612   1.134   4.314   2.560  0.0213  1.3754 -1.0624
 8993SOL    HW238613   1.211   4.280   2.431 -3.8023  1.0707 -0.0022
 8994SOL     OW38614   0.163   2.335   2.111  0.4267 -0.0959  0.2850
 8994SOL    HW138615   0.088   2.390   2.132  0.4254 -0.1097  0.3174
 8994SOL    HW238616   0.117   2.251   2.099  0.0512  0.1113  0.2804
 8995SOL     OW38617   2.458   0.024   8.449  0.2158  0.7969  0.1459
 8995SOL    HW138618   2.530   0.040   8.388  0.0827  2.2021  0.3676
 8995SOL    HW238619   2.470   4.670   8.465  1.5164  0.7168 -1.2976
 8996SOL     OW38620   2.482   0.385   5.822 -0.0945 -0.1344 -0.1654
 8996SOL    HW138621   2.456   0.469   5.783 -2.3384 -0.2975  0.9846
 8996SOL    HW238622   2.476   0.405   5.915  1.9617 -1.1692  0.1930
 8997SOL     OW38623   0.321   4.533   7.793  0.1372 -0.1975 -0.5255
 8997SOL    HW138624   0.293   4.525   7.884 -1.2954  0.2166 -0.9409
 8997SOL    HW238625   0.244   4.489   7.757  1.1192 -2.5097  0.2167
 8998SOL     OW38626   3.796   3.346   7.827 -0.0801  0.4151  0.1092
 8998SOL    HW138627   3.795   3.322   7.920 -1.5764 -0.4043 -0.1061
 8998SOL    HW238628   3.842   3.430   7.832  2.0719 -0.6473 -1.9009
 8999SOL     OW38629   3.115   3.062   5.534  0.4052  0.1119  0.2790
 8999SOL    HW138630   3.084   3.005   5.604  1.6185  0.5652  1.1911
 8999SOL    HW238631   3.039   3.078   5.478 -0.0668 -0.2433  0.8160
 9000SOL     OW38632   0.816   1.233   3.843 -0.3169 -0.4259 -0.4015
 9000SOL    HW138633   0.909   1.252   3.858 -0.7770  2.0037 -0.5576
 9000SOL    HW238634   0.789   1.169   3.909  1.0988  0.9315  1.5306
 9001SOL     OW38635   4.579   2.991   0.470  0.2425  0.0112 -0.0851
 9001SOL    HW138636   4.664   3.037   0.467 -0.4624  1.4221  2.0143
 9001SOL    HW238637   4.598   2.919   0.409 -0.6316  0.7152 -1.1941
 9002SOL     OW38638   1.081   0.512   2.074  0.5353  0.5203  0.6175
 9002SOL    HW138639   1.084   0.509   2.170 -0.3333 -0.9563  0.5963
 9002SOL    HW238640   1.173   0.521   2.049  0.4407 -1.4024 -0.3759
 9003SOL     OW38641   2.230   3.284   5.336  0.0235 -0.3498 -0.4806
 9003SOL    HW138642   2.261   3.256   5.250  0.2715 -1.7887  0.0760
 9003SOL    HW238643   2.226   3.377   5.313 -1.0842 -0.4460 -0.6698
 9004SOL     OW38644   1.319   4.081  10.092  0.2630 -0.2019 -0.1359
 9004SOL    HW138645   1.363   4.043  10.015 -0.3995  0.4039 -0.8146
 9004SOL    HW238646   1.228   4.084  10.064 -0.0756 -0.8485  0.9330
 9005SOL     OW38647   4.497   3.127   1.095 -0.6934  0.3844  0.1413
 9005SOL    HW138648   4.574   3.101   1.146  1.0094  0.3691 -2.4576
 9005SOL    HW238649   4.514   3.221   1.082  1.0148  0.0108 -0.3808
 9006SOL     OW38650   1.127   3.656  10.648 -0.2558  0.1670 -1.1232
 9006SOL    HW138651   1.065   3.634  10.578 -0.9934  0.2613 -0.5059
 9006SOL    HW238652   1.213   3.648  10.609  0.5925 -1.8923  1.1819
 9007SOL     OW38653   0.076   2.816   3.697  0.2882  0.4019  0.1691
 9007SOL    HW138654   0.078   2.877   3.772  0.2041 -0.4607  0.8690
 9007SOL    HW238655   0.162   2.840   3.662  1.0848 -1.4771  0.8780
 9008SOL     OW38656   3.026   0.379  11.807  0.5794 -0.0582 -0.1959
 9008SOL    HW138657   3.084   0.430  11.864  0.3848 -1.0447  0.8739
 9008SOL    HW238658   2.993   0.314  11.869  1.5397  1.8269  2.2998
 9009SOL     OW38659   0.459   1.836  14.938  0.6457  0.1557  0.2738
 9009SOL    HW138660   0.552   1.827  14.960  0.8031 -0.4333 -0.6275
 9009SOL    HW238661   0.423   1.886  15.011  3.0650  0.1018  1.4940
 9010SOL     OW38662   1.214   2.511   3.064  0.0974 -0.0890  0.7428
 9010SOL    HW138663   1.147   2.535   2.999  0.4476  1.0043  0.7774
 9010SOL    HW238664   1.282   2.519   2.997  0.5737  0.2267  1.2624
 9011SOL     OW38665   0.209   2.167   6.519  0.1437  0.4520  0.0146
 9011SOL    HW138666   0.191   2.103   6.588  0.4910 -0.1450 -0.4442
 9011SOL    HW238667   0.117   2.190   6.503  0.0528  1.0111  1.3322
 9012SOL     OW38668   3.262   3.878   3.470 -0.3897 -0.4081  0.2262
 9012SOL    HW138669   3.296   3.791   3.453  1.0585  0.0631  0.6829
 9012SOL    HW238670   3.274   3.894   3.564  2.9135  1.6499 -0.5299
 9013SOL     OW38671   3.620   3.311   9.652  0.4304 -0.1364 -0.2147
 9013SOL    HW138672   3.696   3.369   9.659 -0.0885  0.2332  2.4477
 9013SOL    HW238673   3.588   3.322   9.742 -1.0052 -0.1570 -0.7178
 9014SOL     OW38674   0.317   1.209  15.937 -0.7707 -0.2516 -0.1411
 9014SOL    HW138675   0.238   1.257  15.962 -0.6074  0.5272 -1.1266
 9014SOL    HW238676   0.313   1.209  15.841  2.9279  3.1980 -0.3132
 9015SOL     OW38677   1.476   3.602   9.771  0.1019  0.1515  0.2430
 9015SOL    HW138678   1.533   3.561   9.706  0.9759 -0.2734  1.2646
 9015SOL    HW238679   1.534   3.626   9.843 -0.2331 -1.5389  1.0809
 9016SOL     OW38680   2.699   0.976   5.882  0.1350 -0.4091  0.5459
 9016SOL    HW138681   2.745   0.999   5.801 -0.5661 -0.9997 -0.0238
 9016SOL    HW238682   2.611   1.012   5.878 -0.7851 -2.8460 -1.1811
 9017SOL     OW38683   0.748   2.353   2.617 -0.3758 -0.0675 -0.4130
 9017SOL    HW138684   0.833   2.321   2.586 -0.9876 -1.1656 -0.9326
 9017SOL    HW238685   0.697   2.360   2.537 -0.3274  0.8405 -0.3722
 9018SOL     OW38686   0.892   0.403   4.929  0.4789  0.0283  0.1179
 9018SOL    HW138687   0.827   0.368   4.989  1.1333 -0.1250  0.7490
 9018SOL    HW238688   0.965   0.417   4.990  0.0663 -2.0559  1.1031
 9019SOL     OW38689   1.796   3.648   2.267  0.5988  0.1823  0.3090
 9019SOL    HW138690   1.857   3.623   2.198 -0.3857 -1.4474  0.0163
 9019SOL    HW238691   1.715   3.636   2.217  0.6237 -0.1221  0.3393
 9020SOL     OW38692   2.956   2.685   1.924 -0.1078 -0.5295 -0.1045
 9020SOL    HW138693   2.947   2.759   1.863 -0.3568  0.8877  1.6649
 9020SOL    HW238694   2.924   2.723   2.005  1.9517 -1.9818  1.3622
 9021SOL     OW38695   1.774   4.561   2.246  0.5874 -0.2205 -0.6226
 9021SOL    HW138696   1.715   4.610   2.189 -0.7677  2.1480  2.8452
 9021SOL    HW238697   1.723   4.563   2.327  1.4319 -3.0559 -0.0366
 9022SOL     OW38698   4.007   0.582   6.689 -0.3351  0.0867 -0.3505
 9022SOL    HW138699   4.041   0.618   6.771 -2.3486  1.2541 -0.0233
 9022SOL    HW238700   3.957   0.657   6.657  0.6529  0.8685 -0.0756
 9023SOL     OW38701   0.029   1.199   4.894 -0.2613  0.0525 -0.1094
 9023SOL    HW138702   0.047   1.135   4.964 -0.3188 -0.1735 -0.3014
 9023SOL    HW238703   0.043   1.284   4.936 -0.6919 -0.2046  0.5607
 9024SOL     OW38704   2.508   0.036   4.577  0.2784  0.2216  0.4787
 9024SOL    HW138705   2.503   0.131   4.583 -1.1802  0.1084  1.1395
 9024SOL    HW238706   2.476   0.009   4.663 -0.7196  2.3244  0.7714
 9025SOL     OW38707   1.545   3.333   4.757  0.4885  0.3842  0.4866
 9025SOL    HW138708   1.483   3.375   4.816 -0.6017  0.7885 -0.9421
 9025SOL    HW238709   1.492   3.321   4.678 -0.1760 -2.4630  1.3449
 9026SOL     OW38710   4.688   1.336  10.270 -0.8667  0.6984  0.0138
 9026SOL    HW138711   4.737   1.415  10.294  1.7535 -1.3780  1.4565
 9026SOL    HW238712   4.738   1.269  10.315 -1.0059  0.1750 -0.6141
 9027SOL     OW38713   0.971   0.548   6.271 -0.2525  0.1802 -0.4888
 9027SOL    HW138714   1.048   0.567   6.217  1.1042 -1.7565  0.7796
 9027SOL    HW238715   0.987   0.595   6.352 -1.3304  0.0155 -0.1814
 9028SOL     OW38716   4.413   2.694   3.020  0.1050 -0.4063  0.1556
 9028SOL    HW138717   4.507   2.702   3.037 -0.2713  0.5199  1.8523
 9028SOL    HW238718   4.379   2.715   3.107 -0.1110 -0.0032 -0.0278
 9029SOL     OW38719   2.651   1.764   4.853 -0.0923  0.7540  0.0236
 9029SOL    HW138720   2.676   1.823   4.924 -1.3729 -0.3472  1.3948
 9029SOL    HW238721   2.712   1.792   4.784 -0.0847  1.2291  0.2246
 9030SOL     OW38722   3.322   0.301   1.406  0.6830  0.6300  0.1444
 9030SOL    HW138723   3.345   0.256   1.324  0.3942 -0.0055  0.4085
 9030SOL    HW238724   3.395   0.362   1.418  1.1965  0.1737 -0.6459
 9031SOL     OW38725   4.613   4.107  12.167  0.0497 -0.2208  0.0111
 9031SOL    HW138726   4.576   4.186  12.205 -1.5607 -1.2671  0.6010
 9031SOL    HW238727   4.603   4.115  12.072  0.7980  0.4137 -0.0140
 9032SOL     OW38728   2.150   1.242   5.176 -0.2326 -0.3277  0.2740
 9032SOL    HW138729   2.164   1.334   5.154  2.1639 -0.2294  2.2340
 9032SOL    HW238730   2.157   1.212   5.085 -1.1095  0.0023  0.1049
 9033SOL     OW38731   2.753   4.460   4.919 -0.0153  0.5221  0.5070
 9033SOL    HW138732   2.678   4.514   4.942 -0.6626 -0.3239  0.4157
 9033SOL    HW238733   2.708   4.376   4.933 -1.2800  0.8362 -1.5814
 9034SOL     OW38734   2.004   1.936   6.881 -0.1084 -0.1219 -0.0637
 9034SOL    HW138735   1.928   1.979   6.920 -0.1542 -0.8330  0.6169
 9034SOL    HW238736   1.977   1.918   6.791 -0.2554 -0.9858  0.1584
 9035SOL     OW38737   1.351   4.420   2.183  0.0318 -0.3251  0.2451
 9035SOL    HW138738   1.365   4.397   2.091 -0.8091  0.3629 -0.0547
 9035SOL    HW238739   1.325   4.511   2.173  1.2513  0.1391  1.3490
 9036SOL     OW38740   4.645   1.805   6.033 -0.3263  0.5982  0.0832
 9036SOL    HW138741   4.698   1.800   5.954  1.1638  1.0027  1.0516
 9036SOL    HW238742   4.597   1.723   6.028 -0.9982  1.0396 -0.7693
 9037SOL     OW38743   0.058   0.547   2.613 -0.6858  0.1769  0.0596
 9037SOL    HW138744   0.105   0.473   2.575 -0.6844 -0.1639  0.7263
 9037SOL    HW238745   0.101   0.541   2.698 -0.9725 -2.0897  0.0247
 9038SOL     OW38746   2.822   1.603   8.327  0.3528 -0.3048 -0.3206
 9038SOL    HW138747   2.872   1.549   8.266  3.3170  1.3640  0.6235
 9038SOL    HW238748   2.889   1.656   8.371 -0.1214  0.3407 -0.3825
 9039SOL     OW38749   0.938   1.343   7.166  0.1249  0.1025  0.6531
 9039SOL    HW138750   0.935   1.432   7.133 -1.4951 -1.1908 -2.7574
 9039SOL    HW238751   0.899   1.354   7.253 -0.0042  0.9247  0.4826
 9040SOL     OW38752   3.094   3.487   7.175 -0.4640 -0.3568 -0.2743
 9040SOL    HW138753   3.118   3.407   7.128  0.7130  0.2962 -0.7778
 9040SOL    HW238754   3.099   3.557   7.110  0.2022  0.5254  0.7363
 9041SOL     OW38755   3.765   2.144   8.904  0.2543 -0.1985 -0.1295
 9041SOL    HW138756   3.772   2.188   8.820  1.2243 -2.6031 -1.3006
 9041SOL    HW238757   3.675   2.168   8.926  0.7995  1.6064  0.0561
 9042SOL     OW38758   2.357   1.340   3.479 -0.0211 -0.3580  0.5888
 9042SOL    HW138759   2.340   1.250   3.453  1.1382 -0.2039 -0.7167
 9042SOL    HW238760   2.452   1.352   3.472  0.0159 -2.4925 -2.5012
 9043SOL     OW38761   1.316   1.453   1.067 -0.4525  0.8909 -0.0520
 9043SOL    HW138762   1.306   1.495   0.982  0.6100 -0.1602 -0.6879
 9043SOL    HW238763   1.342   1.529   1.119  0.4440 -0.8580  2.0872
 9044SOL     OW38764   1.041   0.143   9.274 -0.0354 -0.5054 -0.6130
 9044SOL    HW138765   0.962   0.131   9.222 -1.3473  2.2143  0.8219
 9044SOL    HW238766   1.016   0.213   9.333  0.2653 -0.3814 -0.6303
 9045SOL     OW38767   1.902   3.371   6.461  0.0163 -0.3357 -0.2601
 9045SOL    HW138768   1.869   3.453   6.425  1.5132  1.3481  2.1790
 9045SOL    HW238769   1.940   3.336   6.380 -0.3191  1.1493 -1.0472
 9046SOL     OW38770   1.129   2.537   4.906 -0.5605  0.6249 -0.0763
 9046SOL    HW138771   1.051   2.577   4.946 -2.1826 -3.7615  1.1760
 9046SOL    HW238772   1.123   2.591   4.827 -1.1703  0.2934 -0.2524
 9047SOL     OW38773   0.633   1.752   8.484 -0.4949  0.6717 -0.8334
 9047SOL    HW138774   0.719   1.788   8.465  0.7745 -0.8886  1.9775
 9047SOL    HW238775   0.605   1.720   8.398 -1.4918 -0.0483 -0.2451
 9048SOL     OW38776   2.305   2.909   2.676 -0.1683 -0.0727  0.2960
 9048SOL    HW138777   2.328   2.860   2.754  1.4453  2.0283  1.1400
 9048SOL    HW238778   2.210   2.918   2.668 -0.2718 -0.7549  0.7763
 9049SOL     OW38779   3.120   2.950   4.977  0.6685 -0.0878  0.0149
 9049SOL    HW138780   3.180   2.883   5.009  4.0222  3.0263  0.1887
 9049SOL    HW238781   3.185   3.012   4.943  0.8279 -0.3882 -0.2197
 9050SOL     OW38782   2.569   3.558   4.917 -0.3527 -0.3278  0.5873
 9050SOL    HW138783   2.558   3.494   4.988 -2.2422  0.4014  0.9429
 9050SOL    HW238784   2.604   3.504   4.846 -1.1518 -0.6115  0.4120
 9051SOL     OW38785   0.614   4.272   3.977  0.1587 -0.4323  0.0423
 9051SOL    HW138786   0.645   4.187   4.010 -0.4409  0.2327  2.3483
 9051SOL    HW238787   0.550   4.228   3.921  0.5834 -1.8962  0.7056
 9052SOL     OW38788   2.205   4.716   7.098 -0.0411  0.1406 -0.2930
 9052SOL    HW138789   2.245   4.630   7.100 -1.4806 -0.4661  2.3327
 9052SOL    HW238790   2.116   4.699   7.066  0.6475 -0.9408 -1.6149
 9053SOL     OW38791   2.107   2.594   7.358  0.6112  0.8061 -0.4452
 9053SOL    HW138792   2.103   2.649   7.436  2.0856  2.2577 -1.4259
 9053SOL    HW238793   2.039   2.625   7.299  0.4942  0.9776 -0.2189
 9054SOL     OW38794   1.372   2.037   6.530  0.3487  0.5041  0.5145
 9054SOL    HW138795   1.293   2.024   6.582 -0.8718 -1.2010 -1.8219
 9054SOL    HW238796   1.343   2.066   6.444  1.1669 -0.6656 -0.1642
 9055SOL     OW38797   3.666   4.133  12.202 -0.4590 -0.1670 -0.1649
 9055SOL    HW138798   3.744   4.078  12.199 -1.4977 -1.5516 -1.7300
 9055SOL    HW238799   3.700   4.220  12.223  0.8877 -0.5880 -0.5670
 9056SOL     OW38800   2.061   3.473   4.719 -0.6627  0.2083  0.0714
 9056SOL    HW138801   1.984   3.494   4.665 -0.3441 -0.2456 -0.5591
 9056SOL    HW238802   2.050   3.378   4.718  1.5267 -0.0532  1.3029
 9057SOL     OW38803   3.543   3.342   8.508  0.0113 -0.0287 -0.0123
 9057SOL    HW138804   3.587   3.425   8.492  0.1171  0.4937  3.1144
 9057SOL    HW238805   3.580   3.310   8.590 -0.7483  0.5514  0.5593
 9058SOL     OW38806   1.127   3.981   8.391  0.9308 -0.3341  0.6559
 9058SOL    HW138807   1.191   3.913   8.373 -0.0475 -1.1551  0.2406
 9058SOL    HW238808   1.156   4.047   8.329  2.7003  0.8714  2.7608
 9059SOL     OW38809   2.237   3.701   5.879 -0.1634  0.3460 -0.1409
 9059SOL    HW138810   2.190   3.732   5.802 -1.3986  1.4207  1.0386
 9059SOL    HW238811   2.301   3.770   5.896 -0.3314  0.4607  0.0223
 9060SOL     OW38812   0.040   4.258  17.199  0.2408 -0.3574  0.5282
 9060SOL    HW138813   0.055   4.171  17.162  1.0417  0.7904 -1.8295
 9060SOL    HW238814   4.699   4.244  17.248 -0.4329  0.9981 -0.2146
 9061SOL     OW38815   0.676   1.558   6.256  0.2521  0.2159 -0.2367
 9061SOL    HW138816   0.679   1.513   6.172 -0.3178  0.3451 -0.3274
 9061SOL    HW238817   0.582   1.567   6.275  0.0321 -2.6467 -0.0327
 9062SOL     OW38818   0.433   2.671  12.484 -0.2471  0.2138  0.0198
 9062SOL    HW138819   0.439   2.609  12.558 -3.1942 -0.4389 -0.2676
 9062SOL    HW238820   0.490   2.634  12.417 -0.1210  0.5455 -0.0528
 9063SOL     OW38821   2.648   3.357  10.987  0.2269 -0.1582 -0.3839
 9063SOL    HW138822   2.736   3.392  11.000 -0.4461  0.3001  2.9351
 9063SOL    HW238823   2.598   3.438  10.993  1.7762  0.7886 -0.3805
 9064SOL     OW38824   2.598   4.551   3.251  0.4384 -0.1462 -0.0822
 9064SOL    HW138825   2.569   4.575   3.163  0.1548  0.8831  0.2983
 9064SOL    HW238826   2.629   4.462   3.235  0.1021 -0.2983  0.1053
 9065SOL     OW38827   2.528   4.591  11.924  0.2055  0.1274  0.5354
 9065SOL    HW138828   2.571   4.512  11.959  1.5172  0.1927 -0.9012
 9065SOL    HW238829   2.480   4.550  11.852  0.4284  1.7424 -0.5299
 9066SOL     OW38830   3.047   0.683   8.368 -0.4033  0.4482  0.2499
 9066SOL    HW138831   3.015   0.642   8.287  2.4718  0.6930 -1.0114
 9066SOL    HW238832   3.089   0.618   8.424  0.3381  1.6665  1.1020
 9067SOL     OW38833   2.005   4.168   1.882  0.2306 -0.1160  0.3465
 9067SOL    HW138834   2.055   4.109   1.940  0.2027  1.2792  1.8050
 9067SOL    HW238835   1.923   4.143   1.924 -0.0660  0.2946  0.0054
 9068SOL     OW38836   1.735   1.532   8.010  0.0188  0.4149  0.0085
 9068SOL    HW138837   1.659   1.566   7.963 -0.2639  0.4031  0.4575
 9068SOL    HW238838   1.697   1.458   8.057  2.2924 -0.7411  0.0287
 9069SOL     OW38839   0.530   0.510  12.778  0.3454 -0.2335  0.2732
 9069SOL    HW138840   0.464   0.531  12.844  1.5099  1.8579  0.7792
 9069SOL    HW238841   0.588   0.460  12.835  1.1091  3.2454  2.5404
 9070SOL     OW38842   1.638   1.683   1.414  0.3529  0.8625 -0.3284
 9070SOL    HW138843   1.731   1.707   1.411  0.0471  2.1422  0.1325
 9070SOL    HW238844   1.648   1.592   1.387  1.8677  0.7295  0.6763
 9071SOL     OW38845   3.498   0.918  17.202 -0.0243 -0.4688 -0.2722
 9071SOL    HW138846   3.436   0.918  17.129  1.0030 -1.0887 -1.1274
 9071SOL    HW238847   3.577   0.938  17.153 -0.3624  1.1072 -0.1609
 9072SOL     OW38848   4.677   1.776   3.793  0.3246  0.3844 -0.1506
 9072SOL    HW138849   4.647   1.866   3.782  0.7622  0.5359 -0.1141
 9072SOL    HW238850   4.620   1.736   3.859  1.2862  1.1664  1.1473
 9073SOL     OW38851   4.507   2.818  11.186 -0.0576 -0.5766 -0.2684
 9073SOL    HW138852   4.506   2.782  11.098  2.7670  1.3298 -1.0909
 9073SOL    HW238853   4.577   2.883  11.175 -0.3247 -0.0839  0.9469
 9074SOL     OW38854   2.894   2.187   1.707 -0.1813  0.1778 -0.1271
 9074SOL    HW138855   2.809   2.180   1.750 -0.4224 -0.1199 -0.6525
 9074SOL    HW238856   2.931   2.246   1.773  1.3120 -1.5019  0.5224
 9075SOL     OW38857   2.538   3.638   3.530  0.0027 -0.2932 -0.1465
 9075SOL    HW138858   2.557   3.550   3.563  0.8028 -1.0146 -2.5258
 9075SOL    HW238859   2.520   3.683   3.613 -0.8339  1.0721 -1.0773
 9076SOL     OW38860   1.094   0.267   7.160 -0.1266 -0.6281  0.2741
 9076SOL    HW138861   1.067   0.185   7.119  0.4315  0.0009 -1.3478
 9076SOL    HW238862   1.172   0.258   7.215 -0.2993  0.0155  0.6297
 9077SOL     OW38863   0.820   1.752   7.427  0.6789 -0.1179 -0.4020
 9077SOL    HW138864   0.835   1.662   7.456  1.4666  0.2752  0.4314
 9077SOL    HW238865   0.745   1.742   7.369  1.4035 -1.0248 -1.1811
 9078SOL     OW38866   0.877   1.526  15.190 -0.2308  0.3598 -0.3173
 9078SOL    HW138867   0.939   1.506  15.260  0.5782  0.9380 -0.8843
 9078SOL    HW238868   0.944   1.572  15.141 -0.4172 -0.3158 -1.2010
 9079SOL     OW38869   1.955   2.681   7.137  0.2209 -0.0001 -0.3024
 9079SOL    HW138870   1.904   2.762   7.135  1.4324  0.7622  0.0292
 9079SOL    HW238871   1.920   2.638   7.059 -0.7327  0.3937 -0.0912
 9080SOL     OW38872   2.196   4.713   5.080 -0.6333 -0.4630  0.2605
 9080SOL    HW138873   2.106   0.005   5.081 -0.2375  0.6656 -0.4972
 9080SOL    HW238874   2.174   4.633   5.031  1.4023  0.7240 -2.6172
 9081SOL     OW38875   2.830   1.899   5.994 -0.0967  0.0256  0.4932
 9081SOL    HW138876   2.805   1.808   6.009  0.3487  0.1622  1.9960
 9081SOL    HW238877   2.908   1.883   5.940 -1.0370  2.2931 -1.5415
 9082SOL     OW38878   3.687   3.719   7.437  0.4177  0.5140 -0.0497
 9082SOL    HW138879   3.646   3.652   7.382  0.5783  0.9905 -0.7545
 9082SOL    HW238880   3.711   3.664   7.512  0.1397  0.0567 -0.2914
 9083SOL     OW38881   1.062   2.195  12.215  0.4938  0.0773 -0.1473
 9083SOL    HW138882   1.112   2.143  12.277  0.3284  0.3536  0.2207
 9083SOL    HW238883   0.977   2.187  12.258 -0.7547  2.6110 -2.1385
 9084SOL     OW38884   1.140   4.338   6.942 -0.2251 -0.3714  0.7210
 9084SOL    HW138885   1.099   4.286   7.012 -0.8238 -0.7891  0.0559
 9084SOL    HW238886   1.148   4.423   6.985 -0.4018 -0.0538  0.1244
 9085SOL     OW38887   0.059   2.518   1.267 -0.7703  0.5566  0.0314
 9085SOL    HW138888   0.153   2.502   1.264 -0.7871  0.4940 -0.1846
 9085SOL    HW238889   0.047   2.603   1.309  1.4051  0.2306  1.3102
 9086SOL     OW38890   3.567   0.643   0.703  0.3844 -0.0321 -0.2342
 9086SOL    HW138891   3.475   0.619   0.714  0.0701  0.9562 -0.6960
 9086SOL    HW238892   3.542   0.731   0.676  1.3075 -0.0052 -1.0225
 9087SOL     OW38893   2.819   0.868   7.546  0.3262 -0.0533  0.1170
 9087SOL    HW138894   2.814   0.774   7.530 -1.0185  0.3964 -2.0955
 9087SOL    HW238895   2.826   0.874   7.641 -0.3325  0.8555  0.1126
 9088SOL     OW38896   1.339   1.792   9.891 -0.0022  0.0970 -0.3528
 9088SOL    HW138897   1.383   1.837   9.963  0.7638 -0.2630 -0.5986
 9088SOL    HW238898   1.383   1.707   9.890 -1.0073 -0.4373  0.2472
 9089SOL     OW38899   0.166   0.341  10.989 -0.2804  0.3566  0.4988
 9089SOL    HW138900   0.143   0.301  10.905 -1.1634  0.5139  0.6628
 9089SOL    HW238901   0.217   0.276  11.039 -2.6213 -0.1629  2.2077
 9090SOL     OW38902   2.389   2.096   4.785 -0.2610 -0.5836 -0.7576
 9090SOL    HW138903   2.298   2.074   4.767 -0.4322  0.8372 -1.5502
 9090SOL    HW238904   2.428   2.094   4.698  2.6041  1.0531  0.4925
 9091SOL     OW38905   1.015   1.835  17.735  0.3906  0.2693 -0.0726
 9091SOL    HW138906   0.947   1.850  17.669  1.3399 -0.5203 -1.2449
 9091SOL    HW238907   1.070   1.769  17.691  0.0313 -0.3309  0.3786
 9092SOL     OW38908   2.603   1.476   6.794  0.2857  1.1641 -0.0396
 9092SOL    HW138909   2.651   1.511   6.869  0.6898  2.5738 -0.9457
 9092SOL    HW238910   2.544   1.549   6.773 -0.8860  0.1362 -0.3303
 9093SOL     OW38911   4.735   2.361   7.387  0.4780  0.3084 -0.2744
 9093SOL    HW138912   4.645   2.391   7.395 -0.6392 -2.9924 -0.4078
 9093SOL    HW238913   4.732   2.306   7.309 -0.0457  2.4976 -1.7760
 9094SOL     OW38914   3.697   3.232  10.317 -0.0862 -0.1263  0.2439
 9094SOL    HW138915   3.778   3.283  10.311 -0.1652 -0.0130  0.1427
 9094SOL    HW238916   3.642   3.298  10.358  0.9219  0.7984  0.1213
 9095SOL     OW38917   3.980   1.234   0.916  0.5288  0.3253 -0.5278
 9095SOL    HW138918   3.944   1.208   0.831  2.4758  0.3298 -1.3634
 9095SOL    HW238919   4.013   1.149   0.943  1.0577  0.4563 -0.7665
 9096SOL     OW38920   2.742   0.936   8.779  0.2426  0.7120  0.3251
 9096SOL    HW138921   2.781   0.849   8.778 -0.8735  0.2259 -0.4559
 9096SOL    HW238922   2.689   0.939   8.699  1.4628  2.9467 -0.3940
 9097SOL     OW38923   2.588   0.895   1.320  0.8220 -0.2508 -0.1890
 9097SOL    HW138924   2.626   0.982   1.333  2.4601 -0.8536 -0.8612
 9097SOL    HW238925   2.635   0.856   1.246 -0.7423 -0.2193 -1.1999
 9098SOL     OW38926   3.554   2.956   7.320 -0.0705 -0.3878  0.0755
 9098SOL    HW138927   3.634   2.955   7.372 -0.0283 -1.5388 -0.0129
 9098SOL    HW238928   3.491   2.951   7.392  0.5175  0.9464  0.6936
 9099SOL     OW38929   4.102   2.122  14.078 -0.0876 -0.2371  0.6320
 9099SOL    HW138930   4.148   2.167  14.007 -1.1617 -0.7721 -0.4060
 9099SOL    HW238931   4.088   2.037  14.036 -1.9038 -0.4075  1.5954
 9100SOL     OW38932   1.829   2.204   2.014  0.4004  0.1134 -0.4459
 9100SOL    HW138933   1.891   2.245   1.953  2.7086 -0.0183  1.7947
 9100SOL    HW238934   1.885   2.142   2.062  0.5068 -0.2463 -1.0401
 9101SOL     OW38935   4.706   1.398  12.239 -0.0006 -0.3195 -0.0289
 9101SOL    HW138936   0.054   1.409  12.202  0.4346 -0.5524  0.9437
 9101SOL    HW238937   4.721   1.427  12.329  1.5843  0.6956 -0.6319
 9102SOL     OW38938   2.569   0.546   6.302  1.1386 -0.1692  0.5613
 9102SOL    HW138939   2.636   0.603   6.342  1.5382 -0.5183  0.3893
 9102SOL    HW238940   2.558   0.477   6.367 -0.5306 -1.5258 -1.1630
 9103SOL     OW38941   0.797   1.831   9.914  0.1607 -0.3057  0.4739
 9103SOL    HW138942   0.884   1.863   9.890 -0.4218 -1.0570 -2.6634
 9103SOL    HW238943   0.751   1.914   9.903  0.1987 -0.2428  0.7781
 9104SOL     OW38944   4.236   0.076   1.239  0.6803 -0.6898 -0.2952
 9104SOL    HW138945   4.231   0.169   1.218 -1.4977 -0.4005  1.4813
 9104SOL    HW238946   4.193   0.049   1.158 -1.6767  0.4919  0.5570
 9105SOL     OW38947   4.722   0.286  11.516  0.1889 -0.1349 -0.0007
 9105SOL    HW138948   0.043   0.323  11.452  0.8938 -0.1075  0.6875
 9105SOL    HW238949   4.735   0.354  11.582 -3.2929  1.9072 -1.4097
 9106SOL     OW38950   0.824   3.688   7.325  0.5526  0.9699 -0.1840
 9106SOL    HW138951   0.860   3.657   7.243  1.5502 -2.0037  1.3569
 9106SOL    HW238952   0.767   3.757   7.291 -0.8127  0.0670  0.2618
 9107SOL     OW38953   3.977   2.265   1.931  0.5769 -0.1583 -0.2047
 9107SOL    HW138954   3.914   2.322   1.974 -0.8105 -3.0702  1.6621
 9107SOL    HW238955   3.976   2.187   1.987 -1.1658 -0.0553 -0.1132
 9108SOL     OW38956   1.972   0.480   6.017  0.0664 -0.1486 -0.3464
 9108SOL    HW138957   1.943   0.447   5.931  0.9104  2.0892 -1.4972
 9108SOL    HW238958   1.958   0.572   5.995 -0.4233 -1.2217 -4.7118
 9109SOL     OW38959   0.669   3.288   6.297 -0.3044 -0.9013  0.1602
 9109SOL    HW138960   0.732   3.240   6.244  0.9345 -1.4791  2.1583
 9109SOL    HW238961   0.584   3.287   6.252  0.0783  0.6798 -0.6321
 9110SOL     OW38962   2.175   0.932   4.962 -0.1007 -0.3947  0.4410
 9110SOL    HW138963   2.221   0.850   4.950 -0.7284 -0.5946 -0.6192
 9110SOL    HW238964   2.235   0.998   4.927 -1.1008  0.8041  0.9592
 9111SOL     OW38965   1.706   1.021  15.024  0.5959  0.6632 -0.0758
 9111SOL    HW138966   1.767   1.093  15.008 -0.1569  1.2635 -0.3090
 9111SOL    HW238967   1.758   0.947  14.996  1.5653  0.9816  0.8837
 9112SOL     OW38968   0.170   1.269   5.274  0.6987 -0.9106  0.1148
 9112SOL    HW138969   0.075   1.273   5.268  0.5933 -4.6800 -1.1170
 9112SOL    HW238970   0.179   1.334   5.344  1.2219 -1.0823  0.2104
 9113SOL     OW38971   4.001   0.209   7.368  0.1165 -0.4613  0.5030
 9113SOL    HW138972   4.061   0.241   7.300 -0.4577 -1.3819 -0.4429
 9113SOL    HW238973   4.052   0.181   7.444  2.0650 -0.9318 -0.9719
 9114SOL     OW38974   2.996   0.660   4.801  0.0487 -0.2685 -0.1181
 9114SOL    HW138975   2.981   0.754   4.806 -0.6691 -0.4046  0.3382
 9114SOL    HW238976   2.922   0.627   4.750 -0.2554  0.7501 -0.3386
 9115SOL     OW38977   0.953   3.110   5.610  0.8572  0.3849 -0.1471
 9115SOL    HW138978   0.931   3.147   5.696 -2.2721 -1.3273 -0.2209
 9115SOL    HW238979   0.972   3.189   5.559 -2.0691  0.3742 -1.2061
 9116SOL     OW38980   3.770   1.306   9.505  0.3264 -0.4076  0.5124
 9116SOL    HW138981   3.761   1.301   9.601  4.2868 -0.5634  0.8650
 9116SOL    HW238982   3.851   1.254   9.502  0.2962 -0.5914  2.8505
 9117SOL     OW38983   1.035   3.739  17.415  0.3971  0.7380  0.3506
 9117SOL    HW138984   1.010   3.798  17.485 -1.1749  0.1118  0.3276
 9117SOL    HW238985   0.972   3.668  17.432  1.7000 -0.5390 -0.1435
 9118SOL     OW38986   0.597   1.804  16.418  0.4310  0.4273 -0.2902
 9118SOL    HW138987   0.658   1.758  16.476 -0.0275 -3.1360 -2.6710
 9118SOL    HW238988   0.629   1.793  16.329  0.0875 -1.6304 -0.1608
 9119SOL     OW38989   4.457   0.821  13.395 -0.2389  0.7931 -0.7157
 9119SOL    HW138990   4.376   0.846  13.350  0.0754 -0.0245 -1.7486
 9119SOL    HW238991   4.481   0.743  13.345  0.1845  0.8241 -0.5655
 9120SOL     OW38992   1.871   0.207  12.900  0.5124 -0.2628  0.4556
 9120SOL    HW138993   1.904   0.214  12.810  0.6037 -0.8779  0.4378
 9120SOL    HW238994   1.944   0.241  12.952  1.2765 -2.7548  1.0497
 9121SOL     OW38995   2.983   4.086  14.090  0.3275  0.5392  0.8236
 9121SOL    HW138996   3.056   4.136  14.053  0.0510  0.8836  0.7399
 9121SOL    HW238997   2.925   4.093  14.014  0.9164 -0.3433  0.2956
 9122SOL     OW38998   2.618   2.234   8.697 -0.6931 -0.5579 -0.0803
 9122SOL    HW138999   2.523   2.248   8.703 -0.5872 -0.1099  0.5916
 9122SOL    HW239000   2.622   2.148   8.738 -1.7039 -1.0238 -0.9746
 9123SOL     OW39001   1.609   3.052  12.314 -0.5188  0.4200  0.1583
 9123SOL    HW139002   1.545   3.113  12.278 -1.4817  0.3041  1.6427
 9123SOL    HW239003   1.589   3.035  12.406  0.3887 -0.6434  0.1643
 9124SOL     OW39004   1.145   3.225   9.361 -0.7151 -0.0930 -0.1539
 9124SOL    HW139005   1.101   3.310   9.356  1.6377  0.8774 -4.9577
 9124SOL    HW239006   1.179   3.214   9.450  0.3826  2.5692 -0.2290
 9125SOL     OW39007   3.065   4.446   6.638  0.0822  0.1013  0.0064
 9125SOL    HW139008   3.105   4.367   6.675 -0.1741  0.4858  1.1303
 9125SOL    HW239009   3.131   4.480   6.579  0.9383  0.5572  1.2260
 9126SOL     OW39010   4.182   0.876   4.514 -0.2934 -0.4094 -0.4188
 9126SOL    HW139011   4.204   0.788   4.545  0.7586 -0.0233 -0.0653
 9126SOL    HW239012   4.243   0.933   4.562  0.0150 -0.5858 -0.5994
 9127SOL     OW39013   0.209   0.230  14.505  0.4617  0.1640 -0.2452
 9127SOL    HW139014   0.196   0.325  14.515 -0.5413  0.1534 -1.3584
 9127SOL    HW239015   0.281   0.230  14.442  0.9935 -2.2170  0.3836
 9128SOL     OW39016   3.546   2.869  16.549 -0.0359 -0.0455  0.2079
 9128SOL    HW139017   3.567   2.839  16.637 -0.3578 -0.5590  0.1074
 9128SOL    HW239018   3.633   2.876  16.510 -0.5438  0.7539 -0.8040
 9129SOL     OW39019   0.131   2.537   7.550  0.5465 -0.5915 -0.2522
 9129SOL    HW139020   0.197   2.578   7.493 -0.1681 -0.6775 -1.1432
 9129SOL    HW239021   0.084   2.476   7.494  0.2552 -0.7231  0.1389
 9130SOL     OW39022   0.618   1.225  12.122 -0.1577 -0.8445  0.0446
 9130SOL    HW139023   0.631   1.320  12.128  1.2118 -0.9449 -1.3157
 9130SOL    HW239024   0.625   1.212  12.027  1.3128  0.0070  0.0396
 9131SOL     OW39025   2.201   1.044   7.660 -0.0996 -0.1017  0.8751
 9131SOL    HW139026   2.261   1.022   7.730 -0.2200 -0.2188  0.9423
 9131SOL    HW239027   2.113   1.026   7.695 -0.5893 -0.9746 -0.7905
 9132SOL     OW39028   1.248   2.178   9.910  0.7439  0.3626 -0.2376
 9132SOL    HW139029   1.270   2.268   9.887  0.0285  1.1147  1.9266
 9132SOL    HW239030   1.274   2.128   9.833  1.9422  2.0055 -0.9054
 9133SOL     OW39031   2.912   0.040   7.788  0.1290  0.2300  0.0239
 9133SOL    HW139032   2.970   4.717   7.744 -1.6657 -0.5640 -1.2143
 9133SOL    HW239033   2.891   4.739   7.871  0.6846  1.5536  0.8356
 9134SOL     OW39034   3.911   4.544  13.469 -0.2434  0.2006  0.3442
 9134SOL    HW139035   3.913   4.565  13.376  0.8757 -3.1052 -0.3552
 9134SOL    HW239036   3.817   4.536  13.480 -0.3030 -0.9017 -1.0002
 9135SOL     OW39037   1.352   3.658   3.647  0.2785 -0.5309 -0.4048
 9135SOL    HW139038   1.265   3.653   3.688  2.0272 -0.4705  3.3387
 9135SOL    HW239039   1.342   3.607   3.567  0.8517 -0.2863 -0.6348
 9136SOL     OW39040   2.910   2.567  15.985  0.3844 -0.0291  0.0243
 9136SOL    HW139041   2.814   2.561  15.978  0.3743  1.4763 -1.1647
 9136SOL    HW239042   2.921   2.563  15.890 -0.9516 -1.4615 -0.0708
 9137SOL     OW39043   4.255   1.262   9.994  0.7099  0.2622 -0.0444
 9137SOL    HW139044   4.227   1.210  10.069  0.1580 -0.1464 -0.5319
 9137SOL    HW239045   4.194   1.242   9.922  1.1211 -1.6987  0.1546
 9138SOL     OW39046   0.244   3.304   5.000 -0.0564  0.1731 -0.2993
 9138SOL    HW139047   0.172   3.267   4.949 -0.0818 -0.3591  0.1268
 9138SOL    HW239048   0.233   3.265   5.087  1.9040 -3.1865 -1.5431
 9139SOL     OW39049   1.940   2.344   3.405 -0.6867 -0.2759  0.5864
 9139SOL    HW139050   1.939   2.248   3.407 -2.9776 -0.2791  0.0459
 9139SOL    HW239051   1.878   2.359   3.333 -0.9177  2.2399  1.3287
 9140SOL     OW39052   4.470   3.391   3.098 -0.1311 -0.0645 -0.1363
 9140SOL    HW139053   4.419   3.407   3.019  1.1511  4.2940 -0.0332
 9140SOL    HW239054   4.558   3.364   3.070  0.8411  1.1832  1.7162
 9141SOL     OW39055   4.098   0.436  13.898  0.3052  0.0954  0.2509
 9141SOL    HW139056   4.107   0.531  13.904  1.6687  0.0563 -1.3886
 9141SOL    HW239057   4.007   0.421  13.873  1.1460 -1.5282 -1.7789
 9142SOL     OW39058   4.249   4.292   5.838 -0.3793  0.0563  0.0379
 9142SOL    HW139059   4.175   4.236   5.815 -0.3308 -0.0530  0.1428
 9142SOL    HW239060   4.233   4.286   5.933 -0.5241  0.9833  0.0689
 9143SOL     OW39061   0.533   2.243   7.045 -0.0822 -0.0720  0.1775
 9143SOL    HW139062   0.606   2.255   6.985  0.5296 -1.8762  0.5531
 9143SOL    HW239063   0.569   2.306   7.107  0.2926  1.4661 -1.6349
 9144SOL     OW39064   3.455   3.184   5.760  0.8011  0.4115 -0.1095
 9144SOL    HW139065   3.517   3.244   5.718 -1.0206  1.8613 -0.7453
 9144SOL    HW239066   3.384   3.243   5.787 -0.6426 -0.9627 -0.8742
 9145SOL     OW39067   3.539   0.618   9.109  0.4654  0.3435  0.0401
 9145SOL    HW139068   3.505   0.589   9.024  2.1674  2.7216 -1.4153
 9145SOL    HW239069   3.535   0.713   9.104 -2.0947  0.2347 -0.4824
 9146SOL     OW39070   1.637   2.790   4.899  0.5822 -0.7498 -0.1379
 9146SOL    HW139071   1.607   2.863   4.845 -0.7252 -1.4901 -0.4066
 9146SOL    HW239072   1.561   2.733   4.887 -0.6406  0.9745 -0.5361
 9147SOL     OW39073   3.806   1.968  14.727  0.1493 -0.0994  0.3489
 9147SOL    HW139074   3.872   1.988  14.793  1.6191  2.5725 -1.9841
 9147SOL    HW239075   3.859   1.936  14.655  0.0337  0.5318 -0.0100
 9148SOL     OW39076   0.343   1.581   1.422 -0.1144  0.1306  0.2466
 9148SOL    HW139077   0.386   1.639   1.359  0.9434 -0.8122  0.1173
 9148SOL    HW239078   0.380   1.493   1.415  1.5072  0.6651  2.1432
 9149SOL     OW39079   1.383   0.763   8.964 -0.0284 -0.5379 -0.2964
 9149SOL    HW139080   1.441   0.772   8.889  0.2495  0.2820  0.0230
 9149SOL    HW239081   1.297   0.751   8.924  0.2385  0.0818 -1.0358
 9150SOL     OW39082   0.592   1.790  11.374  0.8705  0.0783  0.0420
 9150SOL    HW139083   0.585   1.854  11.304 -2.2011 -0.8785 -0.5372
 9150SOL    HW239084   0.529   1.828  11.435 -0.6953  1.2795 -2.3195
 9151SOL     OW39085   0.853   2.610   2.602 -0.5778  0.1417 -0.2010
 9151SOL    HW139086   0.814   2.656   2.677  0.7063  0.8381  0.0281
 9151SOL    HW239087   0.829   2.520   2.625 -1.5372  0.4884  0.1601
 9152SOL     OW39088   1.993   0.782   3.479  0.2330  0.1518 -0.1969
 9152SOL    HW139089   1.977   0.695   3.442 -2.2747 -0.0533  1.4167
 9152SOL    HW239090   2.038   0.818   3.403  1.4479 -2.7708 -0.8908
 9153SOL     OW39091   3.077   0.736  13.668  0.1218  0.2564 -0.4634
 9153SOL    HW139092   3.018   0.672  13.706 -0.7802  1.3953  0.0627
 9153SOL    HW239093   3.157   0.685  13.672 -0.5395 -0.7121  0.3750
 9154SOL     OW39094   3.407   4.162  11.787 -0.5714 -0.1707 -0.0527
 9154SOL    HW139095   3.319   4.198  11.779 -0.1023  0.5309 -2.1277
 9154SOL    HW239096   3.417   4.187  11.879 -3.2052 -1.9081  0.7118
 9155SOL     OW39097   2.394   2.703   0.151 -0.4729 -0.2656  0.4051
 9155SOL    HW139098   2.332   2.761   0.106 -1.7830 -1.4611  0.6513
 9155SOL    HW239099   2.416   2.745   0.235  0.3640  2.4734 -1.1851
 9156SOL     OW39100   4.014   0.666   3.049 -0.0820  0.6070 -0.4105
 9156SOL    HW139101   4.081   0.630   2.992  0.4948  0.3886  0.4038
 9156SOL    HW239102   4.050   0.747   3.086  0.2891 -0.3109  1.2646
 9157SOL     OW39103   0.695   0.059   4.699 -0.4599  0.4524 -0.1085
 9157SOL    HW139104   0.664   4.709   4.684 -0.5745  0.0158  2.6886
 9157SOL    HW239105   0.753   0.079   4.625  1.0531  0.5251  1.0864
 9158SOL     OW39106   3.046   3.286   6.352  0.0922 -0.4258  0.0605
 9158SOL    HW139107   2.992   3.304   6.275  1.8879  2.7808 -0.4126
 9158SOL    HW239108   3.106   3.217   6.324  0.0738 -0.9514  1.3162
 9159SOL     OW39109   1.307   0.474   3.357  0.2478 -0.1642  0.4035
 9159SOL    HW139110   1.293   0.482   3.451  2.0241  1.4432  0.5311
 9159SOL    HW239111   1.274   0.553   3.316  1.4996  1.4574  2.5461
 9160SOL     OW39112   0.682   2.021   8.202 -0.9542  0.2388 -0.1307
 9160SOL    HW139113   0.657   1.966   8.128 -0.6474 -0.6563  0.4311
 9160SOL    HW239114   0.600   2.014   8.251 -1.5211 -0.0511 -1.1174
 9161SOL     OW39115   4.646   1.307   9.721 -0.5125  0.0674  0.3747
 9161SOL    HW139116   4.708   1.380   9.729  1.1248 -1.0211 -2.0927
 9161SOL    HW239117   4.651   1.263   9.806  0.3248  1.0478  0.8450
 9162SOL     OW39118   1.574   3.097  15.148  0.4393  0.1263 -0.3595
 9162SOL    HW139119   1.534   3.168  15.198  1.7494  0.6351 -0.0182
 9162SOL    HW239120   1.656   3.141  15.124 -0.3106  2.5083  1.4223
 9163SOL     OW39121   2.930   1.731   7.279 -0.4012  0.0968 -0.7210
 9163SOL    HW139122   2.973   1.717   7.195  3.1777 -1.1844  1.3425
 9163SOL    HW239123   2.893   1.819   7.265  2.5510  1.3874 -0.4292
 9164SOL     OW39124   2.566   1.495   3.887  0.1716  0.5663 -0.2171
 9164SOL    HW139125   2.474   1.496   3.912  1.2510 -0.7596  3.7028
 9164SOL    HW239126   2.591   1.424   3.945  0.7137  1.4534  0.6389
 9165SOL     OW39127   2.663   2.661   7.976  0.3293  0.1348 -0.0114
 9165SOL    HW139128   2.730   2.728   7.993 -1.0669  1.5107  0.0902
 9165SOL    HW239129   2.602   2.676   8.048  1.2858  0.9228  0.6441
 9166SOL     OW39130   1.355   3.944   6.095  0.3784 -0.1119 -0.7722
 9166SOL    HW139131   1.355   3.896   6.177 -2.2333 -0.0097 -0.7218
 9166SOL    HW239132   1.275   3.906   6.058  0.4293 -0.9691  0.0115
 9167SOL     OW39133   3.526   0.572   7.921  0.2368  0.5538  0.3308
 9167SOL    HW139134   3.577   0.495   7.948 -0.3032  0.0380 -0.0976
 9167SOL    HW239135   3.511   0.558   7.827 -0.4182  0.1638  0.4970
 9168SOL     OW39136   2.303   3.954   8.157  0.1315 -0.4444 -0.4825
 9168SOL    HW139137   2.265   3.869   8.181  1.3351 -0.1599  2.3749
 9168SOL    HW239138   2.231   4.008   8.188  1.4811  0.4381  1.0867
 9169SOL     OW39139   1.433   0.805   9.227 -0.3565  0.1062 -0.2049
 9169SOL    HW139140   1.421   0.800   9.133  0.8154 -1.9023 -0.2609
 9169SOL    HW239141   1.412   0.713   9.245  0.3518 -0.3223 -1.6346
 9170SOL     OW39142   2.730   1.347   6.586  1.3512  0.2451 -0.0559
 9170SOL    HW139143   2.651   1.305   6.554 -0.5308  1.1213  3.4328
 9170SOL    HW239144   2.695   1.381   6.669  1.4383  0.9192 -0.2924
 9171SOL     OW39145   3.987   2.396  16.950  0.1869  0.2280  0.3669
 9171SOL    HW139146   4.044   2.472  16.933 -0.2381  0.5229  0.2501
 9171SOL    HW239147   4.049   2.328  16.977 -0.0037 -0.1737 -0.2102
 9172SOL     OW39148   4.362   4.006  12.129  0.0269 -0.3346 -0.4719
 9172SOL    HW139149   4.453   4.030  12.149 -1.0832  0.5289  3.4965
 9172SOL    HW239150   4.342   4.062  12.053 -0.6286  2.8159  2.0133
 9173SOL     OW39151   0.267   1.854   2.291 -0.5533 -0.0467  0.5021
 9173SOL    HW139152   0.299   1.904   2.216 -1.1786 -1.1298 -0.4588
 9173SOL    HW239153   0.275   1.923   2.358 -2.1763  0.8796 -0.2672
 9174SOL     OW39154   4.424   0.991   6.320  0.1189  0.1216  1.0168
 9174SOL    HW139155   4.498   1.012   6.378  2.8409 -1.9265 -1.7811
 9174SOL    HW239156   4.355   0.987   6.387  0.4116 -4.4812  1.0333
 9175SOL     OW39157   3.099   1.932   5.937  0.2679  0.0112  0.4657
 9175SOL    HW139158   3.107   2.025   5.957 -2.7843  0.7621 -1.7956
 9175SOL    HW239159   3.071   1.943   5.846  0.1369 -0.8297  0.4053
 9176SOL     OW39160   2.280   2.954  17.101 -0.3869  0.0415  0.4910
 9176SOL    HW139161   2.368   2.973  17.068 -0.5358  0.4789  0.3356
 9176SOL    HW239162   2.232   3.011  17.041  0.8657  0.8545  0.2510
 9177SOL     OW39163   3.223   0.646  17.312 -0.0771  0.3925  0.3500
 9177SOL    HW139164   3.308   0.691  17.316 -0.5044  0.9863  2.4025
 9177SOL    HW239165   3.177   0.705  17.252  0.1606 -0.0322 -0.2509
 9178SOL     OW39166   1.558   0.417   5.267  0.4311  0.4230  0.1208
 9178SOL    HW139167   1.544   0.440   5.175 -0.2841 -0.2212  0.0682
 9178SOL    HW239168   1.551   0.502   5.311  2.1919 -0.3570  1.8996
 9179SOL     OW39169   1.075   0.145  13.167  0.1635  0.0565  0.5488
 9179SOL    HW139170   1.079   0.064  13.117 -2.1900  0.7925 -0.8733
 9179SOL    HW239171   1.036   0.196  13.095 -0.4458  0.1630  0.9577
 9180SOL     OW39172   2.916   3.936   2.124 -0.0438 -0.4942  0.3259
 9180SOL    HW139173   2.962   3.908   2.046  0.6025  1.1557  0.1189
 9180SOL    HW239174   2.824   3.917   2.105  0.2004 -1.6033  0.2544
 9181SOL     OW39175   3.995   4.055   4.127  0.0492 -0.4619 -0.6851
 9181SOL    HW139176   3.964   4.131   4.078 -0.0667 -0.3133 -0.3809
 9181SOL    HW239177   3.984   4.086   4.217 -0.8190 -0.9558 -0.6243
 9182SOL     OW39178   2.183   0.689   7.592  0.0011  0.0331  0.7390
 9182SOL    HW139179   2.127   0.687   7.670  1.1075  1.2505  1.5642
 9182SOL    HW239180   2.264   0.732   7.619  0.2950 -0.5390  0.7546
 9183SOL     OW39181   1.396   3.504   4.964  0.6173 -0.0054  0.3417
 9183SOL    HW139182   1.431   3.578   4.914  1.5045  0.9931  2.3965
 9183SOL    HW239183   1.418   3.529   5.054 -0.7943  0.0037  0.6772
 9184SOL     OW39184   3.335   0.803   7.804 -0.1180  0.6299 -0.1188
 9184SOL    HW139185   3.283   0.723   7.799 -0.7836  1.0778 -0.2632
 9184SOL    HW239186   3.271   0.873   7.797 -2.1650 -1.1936  0.4240
 9185SOL     OW39187   2.607   3.078  12.659  0.5203 -0.0256 -0.5196
 9185SOL    HW139188   2.679   3.042  12.710 -0.1799 -1.7588 -0.7763
 9185SOL    HW239189   2.535   3.030  12.700  2.2650 -0.6526  1.7801
 9186SOL     OW39190   3.011   1.484   4.717  0.2793 -0.1178 -0.7046
 9186SOL    HW139191   3.022   1.485   4.622  0.4920  0.6970 -0.6715
 9186SOL    HW239192   2.973   1.572   4.722 -0.7472 -0.5725 -0.5585
 9187SOL     OW39193   0.017   0.693   8.907 -0.4549 -0.2803  0.2351
 9187SOL    HW139194   0.033   0.754   8.979 -1.2706  0.8253 -0.5243
 9187SOL    HW239195   4.738   0.754   8.837  0.3231  0.3221  0.5415
 9188SOL     OW39196   3.621   0.500   0.194  0.2702 -0.4954 -0.2630
 9188SOL    HW139197   3.653   0.442   0.263  2.7797  0.0460 -0.9717
 9188SOL    HW239198   3.651   0.459   0.113  0.0912 -0.2217 -0.4692
 9189SOL     OW39199   1.937   3.694   9.086  0.4917  0.2629 -0.4594
 9189SOL    HW139200   1.845   3.721   9.088  0.3511 -0.3341  1.1926
 9189SOL    HW239201   1.935   3.601   9.109  0.1839  0.6597  1.1108
 9190SOL     OW39202   3.987   0.687   0.075  0.4630 -0.0780  0.7682
 9190SOL    HW139203   3.989   0.594   0.098  2.1026 -0.3416 -0.4323
 9190SOL    HW239204   3.912   0.715   0.128  0.5545 -0.8360  1.3100
 9191SOL     OW39205   0.111   2.296   3.041 -0.1516 -0.7281 -0.4005
 9191SOL    HW139206   0.062   2.215   3.028 -0.7400 -0.4009 -0.1750
 9191SOL    HW239207   0.055   2.367   3.010 -0.7649 -1.7659 -1.6731
 9192SOL     OW39208   2.943   4.368  17.756 -0.9557  0.4460 -0.3697
 9192SOL    HW139209   2.873   4.419  17.714  0.9702  3.4031 -0.0365
 9192SOL    HW239210   2.906   4.281   0.008 -0.5478  0.4302  0.9957
 9193SOL     OW39211   1.230   2.027   4.037 -0.0570 -0.0900  0.7783
 9193SOL    HW139212   1.302   2.001   3.981  0.5470  2.1711  0.5160
 9193SOL    HW239213   1.249   2.121   4.049  0.2059 -0.3125  2.1548
 9194SOL     OW39214   4.194   3.406   4.933 -0.1242 -0.1152  0.4024
 9194SOL    HW139215   4.275   3.452   4.911  0.0868 -0.7662 -0.1952
 9194SOL    HW239216   4.126   3.463   4.897 -1.6193 -1.1670  1.5741
 9195SOL     OW39217   0.762   1.956   3.462  0.1352 -0.5248 -0.5325
 9195SOL    HW139218   0.839   1.926   3.414  0.6370  0.4118 -0.3184
 9195SOL    HW239219   0.785   2.048   3.453 -0.8713 -0.2988 -0.8507
 9196SOL     OW39220   1.792   2.277  13.255 -0.4435  1.0111 -0.2648
 9196SOL    HW139221   1.814   2.287  13.347 -1.9605  0.8355  0.1263
 9196SOL    HW239222   1.738   2.198  13.260 -0.8062  1.1509 -1.8335
 9197SOL     OW39223   2.265   2.920   3.977  0.4533  0.3464  0.0144
 9197SOL    HW139224   2.340   2.889   3.926 -0.1413 -3.3674  1.3236
 9197SOL    HW239225   2.200   2.906   3.908  0.4512  1.6025 -0.2213
 9198SOL     OW39226   2.922   0.830   3.594  0.2209  0.0069 -0.2251
 9198SOL    HW139227   3.002   0.842   3.644  1.2710 -0.3633 -1.8010
 9198SOL    HW239228   2.937   0.744   3.556 -0.3669 -0.3119  0.2634
 9199SOL     OW39229   3.850   1.780   4.180  0.2913  0.2414  0.1650
 9199SOL    HW139230   3.782   1.812   4.240 -0.0582 -2.4084  1.1665
 9199SOL    HW239231   3.905   1.858   4.174  1.4343 -0.5414  0.5254
 9200SOL     OW39232   2.558   3.314   9.034  0.0788 -0.0104 -0.6700
 9200SOL    HW139233   2.565   3.258   8.957  0.4158 -4.1136  2.3549
 9200SOL    HW239234   2.570   3.258   9.111  0.0928 -0.2854 -0.8743
 9201SOL     OW39235   2.530   3.298  13.221 -0.0659  0.6346  0.0358
 9201SOL    HW139236   2.462   3.361  13.195  0.3095  1.6649  1.5834
 9201SOL    HW239237   2.487   3.219  13.187  1.4247 -0.0167 -0.3313
 9202SOL     OW39238   1.049   1.379   1.136  0.1943  0.2011  0.3339
 9202SOL    HW139239   1.144   1.367   1.142  0.2381 -0.3480 -1.6673
 9202SOL    HW239240   1.035   1.417   1.050  0.1848  1.1577  0.7594
 9203SOL     OW39241   1.360   1.405  13.192  0.3960 -0.0778 -0.1671
 9203SOL    HW139242   1.337   1.498  13.199  1.5153  0.1632  0.3673
 9203SOL    HW239243   1.290   1.384  13.131 -0.0992  0.5334  0.1930
 9204SOL     OW39244   2.217   0.414  16.534  0.2846  0.5181 -0.3982
 9204SOL    HW139245   2.258   0.427  16.619  1.1584 -1.3764 -0.5364
 9204SOL    HW239246   2.126   0.394  16.557 -0.0739  1.1251 -1.2796
 9205SOL     OW39247   1.989   0.010   7.798  0.2577 -0.2658  0.2858
 9205SOL    HW139248   1.948   4.675   7.841  0.3402  0.0113  0.8495
 9205SOL    HW239249   2.017   0.067   7.869 -1.3446 -0.0167  0.7203
 9206SOL     OW39250   1.771   2.656  13.451 -0.1754 -0.2868 -0.3567
 9206SOL    HW139251   1.708   2.709  13.500  0.9037  1.6294 -1.0344
 9206SOL    HW239252   1.757   2.694  13.364 -0.6909 -0.8140 -0.5048
 9207SOL     OW39253   0.871   4.340   3.927 -0.1078  0.6041 -0.2090
 9207SOL    HW139254   0.777   4.327   3.943  0.5453 -2.5027  1.2171
 9207SOL    HW239255   0.878   4.420   3.978 -0.2458  1.6666 -1.8706
 9208SOL     OW39256   0.171   2.165   3.266  0.3731 -0.0614  0.1195
 9208SOL    HW139257   0.149   2.223   3.194 -1.3359 -0.6798  0.1515
 9208SOL    HW239258   0.153   2.224   3.339 -1.3592 -2.4355  1.6083
 9209SOL     OW39259   4.262   3.087   8.030  0.4840 -0.3984 -0.0776
 9209SOL    HW139260   4.207   3.121   8.100 -0.3790 -1.4433 -0.2552
 9209SOL    HW239261   4.202   3.032   7.980 -0.2503  1.3921 -1.1537
 9210SOL     OW39262   2.979   2.385   1.864 -0.1843  0.9447  0.0894
 9210SOL    HW139263   2.944   2.473   1.875 -1.2490  0.0120  4.2746
 9210SOL    HW239264   3.069   2.391   1.896 -0.1376 -0.4645  0.2137
 9211SOL     OW39265   2.356   2.544  12.882  0.5434  0.5085  0.4143
 9211SOL    HW139266   2.287   2.597  12.923  0.7638 -0.1873  1.6701
 9211SOL    HW239267   2.428   2.562  12.942 -0.1641  1.9113  0.8561
 9212SOL     OW39268   2.308   4.052   1.918  0.0069  0.2679  0.2938
 9212SOL    HW139269   2.333   4.129   1.969 -1.5507  0.0545  1.4006
 9212SOL    HW239270   2.358   3.993   1.975 -1.1054 -2.6316 -1.7685
 9213SOL     OW39271   4.430   0.507  13.327 -0.7888  0.4224  0.1438
 9213SOL    HW139272   4.482   0.534  13.251 -0.3255 -0.6587  0.0708
 9213SOL    HW239273   4.485   0.435  13.358 -0.4889  0.0211 -1.3478
 9214SOL     OW39274   4.230   2.799   0.579  0.2375 -0.1004 -0.7977
 9214SOL    HW139275   4.248   2.893   0.574 -0.1098 -0.0549 -1.1581
 9214SOL    HW239276   4.148   2.783   0.532 -0.3280 -0.6874  0.3928
 9215SOL     OW39277   4.564   4.725   2.819 -0.1851 -0.7131 -0.2599
 9215SOL    HW139278   4.508   4.727   2.897  0.0794  0.2545 -0.1079
 9215SOL    HW239279   4.495   0.003   2.755  0.8361  0.4058 -1.0395
 9216SOL     OW39280   4.668   2.299   1.127 -0.0862 -0.8326 -0.3244
 9216SOL    HW139281   4.699   2.361   1.193  0.1557 -0.0846 -1.1314
 9216SOL    HW239282   4.642   2.226   1.183 -2.9923  0.5024  0.0260
 9217SOL     OW39283   3.835   3.920   8.768 -0.0198 -0.4543 -0.0344
 9217SOL    HW139284   3.887   3.999   8.785 -0.7246 -0.3498  1.7185
 9217SOL    HW239285   3.787   3.904   8.850  2.7612 -0.7358  1.5545
 9218SOL     OW39286   2.381   4.336   2.739  0.4950 -0.6998 -0.2007
 9218SOL    HW139287   2.318   4.265   2.747 -2.1644  1.6914  0.1808
 9218SOL    HW239288   2.329   4.401   2.691  1.6230 -1.2014 -2.0875
 9219SOL     OW39289   3.906   3.221   7.038 -0.1113  0.2535 -0.2234
 9219SOL    HW139290   3.812   3.235   7.023 -0.4713 -0.6607  1.1349
 9219SOL    HW239291   3.945   3.191   6.956  0.3639  1.6480 -0.5051
 9220SOL     OW39292   4.375   0.031   2.151  0.3224 -0.1837 -0.2307
 9220SOL    HW139293   4.353   0.104   2.092 -2.2528 -1.3333 -0.6723
 9220SOL    HW239294   4.287   4.735   2.160 -0.6841  1.8925 -1.5989
 9221SOL     OW39295   3.691   1.201   1.625 -0.1817 -0.0205  0.4557
 9221SOL    HW139296   3.772   1.251   1.626  0.8585 -1.6645 -2.1044
 9221SOL    HW239297   3.687   1.172   1.533 -1.4192  3.0583 -0.4607
 9222SOL     OW39298   2.475   4.314   7.863 -0.5190 -0.4901  0.6720
 9222SOL    HW139299   2.424   4.393   7.882 -0.1640 -0.1808  0.3284
 9222SOL    HW239300   2.410   4.247   7.883 -2.6125  1.0030 -1.1617
 9223SOL     OW39301   4.401   2.819   9.651  0.4606  0.6653 -0.9404
 9223SOL    HW139302   4.396   2.725   9.665  1.6204  0.6775 -0.4970
 9223SOL    HW239303   4.389   2.849   9.741 -1.3300  0.0506 -0.9736
 9224SOL     OW39304   0.009   0.020   0.809 -0.0888  0.2742 -0.4412
 9224SOL    HW139305   4.719   4.682   0.856 -1.5084  0.3082 -1.2902
 9224SOL    HW239306   4.692   0.026   0.732 -0.5469 -0.3370 -0.1495
 9225SOL     OW39307   1.847   3.549   8.474  0.3560 -0.4184 -0.2678
 9225SOL    HW139308   1.933   3.589   8.490 -0.6622  1.2307  1.0714
 9225SOL    HW239309   1.876   3.460   8.456  0.2775 -0.5490  0.2572
 9226SOL     OW39310   0.016   1.956   5.040  0.4454  0.5833 -0.6735
 9226SOL    HW139311   0.082   1.927   5.104 -0.5201 -0.3713 -0.1136
 9226SOL    HW239312   0.030   1.893   4.969  0.2453 -0.2299  0.0113
 9227SOL     OW39313   0.723   3.618   3.490 -0.5547  0.2241 -0.0819
 9227SOL    HW139314   0.708   3.659   3.576  1.7875 -0.9590  0.8965
 9227SOL    HW239315   0.817   3.602   3.502 -0.0997  1.3789 -2.1243
 9228SOL     OW39316   3.031   4.078  12.887 -0.3938 -0.0693  0.0295
 9228SOL    HW139317   3.012   4.102  12.977 -1.1594 -3.2990  0.7041
 9228SOL    HW239318   3.115   4.033  12.896 -0.0392  0.5202 -0.2715
 9229SOL     OW39319   3.225   1.008  11.669 -0.3708  0.2975  0.3040
 9229SOL    HW139320   3.186   0.998  11.582  0.5900  1.5844 -0.2749
 9229SOL    HW239321   3.158   1.058  11.716 -3.9704 -0.7995 -3.6383
 9230SOL     OW39322   1.912   2.417   5.688  0.1281 -0.0812  0.4370
 9230SOL    HW139323   1.874   2.349   5.743 -1.8985  1.3562  0.8144
 9230SOL    HW239324   1.865   2.491   5.726  0.5878  1.6414 -2.3327
 9231SOL     OW39325   3.755   2.403   7.160  0.1096  0.2243 -0.1256
 9231SOL    HW139326   3.696   2.456   7.106 -0.4144 -0.8430 -0.5846
 9231SOL    HW239327   3.692   2.359   7.217 -0.4804  2.8333  1.2935
 9232SOL     OW39328   2.943   3.764  13.340 -0.5053  0.1263  0.5378
 9232SOL    HW139329   2.973   3.735  13.253  1.5146 -0.8750  1.5786
 9232SOL    HW239330   2.865   3.818  13.326 -1.0110 -0.8174 -0.3066
 9233SOL     OW39331   4.296   4.557   4.099  0.5484  0.1651 -0.0807
 9233SOL    HW139332   4.285   4.548   4.194 -2.9572 -0.3056 -0.5201
 9233SOL    HW239333   4.345   4.639   4.097 -0.0514  0.4981 -0.9889
 9234SOL     OW39334   0.889   3.982  10.283  0.0090 -0.3087 -0.1429
 9234SOL    HW139335   0.873   4.067  10.322  1.4645  1.5125 -3.5123
 9234SOL    HW239336   0.984   3.993  10.279 -0.1650  1.5914  0.9430
 9235SOL     OW39337   1.990   2.264   3.980  0.1425  0.4031  0.0833
 9235SOL    HW139338   2.021   2.254   4.070  0.4261  0.7008  0.0197
 9235SOL    HW239339   1.941   2.185   3.961 -1.4181  1.3843  0.0114
 9236SOL     OW39340   1.938   1.585   6.514 -0.2496 -0.5563  0.3914
 9236SOL    HW139341   1.946   1.506   6.460 -1.4614 -1.3831  1.4072
 9236SOL    HW239342   1.848   1.569   6.544 -0.4450  0.9606  0.6229
 9237SOL     OW39343   0.878   1.765   8.245  0.1361 -0.3820  0.6352
 9237SOL    HW139344   0.897   1.765   8.339 -1.1027 -2.6948  0.8857
 9237SOL    HW239345   0.806   1.704   8.230 -1.6811  1.8550  0.2917
 9238SOL     OW39346   2.335   2.025   3.497 -0.1361  0.2339 -0.1043
 9238SOL    HW139347   2.426   2.042   3.522  0.0173 -1.0967  0.2170
 9238SOL    HW239348   2.326   2.069   3.412  1.2956  2.0497  0.6755
 9239SOL     OW39349   2.866   3.377   4.537 -0.2301  0.1076  0.2225
 9239SOL    HW139350   2.833   3.466   4.547 -0.0526  0.2329 -0.2935
 9239SOL    HW239351   2.949   3.393   4.582  0.3101  0.0053 -0.7544
 9240SOL     OW39352   4.636   2.308   6.194  0.1301  0.1342 -0.6771
 9240SOL    HW139353   4.543   2.332   6.194  0.3975  1.2034  1.0369
 9240SOL    HW239354   4.625   2.238   6.131 -0.6025 -0.7387  0.4248
 9241SOL     OW39355   3.133   3.324   2.078 -0.4264 -0.6711 -0.1734
 9241SOL    HW139356   3.188   3.339   2.155 -0.6826 -0.0624 -0.1104
 9241SOL    HW239357   3.166   3.238   2.050 -1.9921 -1.3998  0.2063
 9242SOL     OW39358   1.508   4.156   7.092  0.7049  0.2392  0.6280
 9242SOL    HW139359   1.500   4.185   7.183 -0.6088 -1.4304  1.0502
 9242SOL    HW239360   1.501   4.062   7.109 -0.8453  0.0899 -0.7975
 9243SOL     OW39361   1.455   2.825   9.504  0.0704 -0.0463 -0.4972
 9243SOL    HW139362   1.507   2.802   9.581 -1.6424  0.7205  0.8886
 9243SOL    HW239363   1.435   2.918   9.510 -0.1114 -0.0648 -0.8128
 9244SOL     OW39364   1.038   1.700  16.118 -0.6157  0.5375 -0.3576
 9244SOL    HW139365   1.001   1.772  16.169 -1.5870  2.0341 -3.1857
 9244SOL    HW239366   1.004   1.615  16.147  0.8128  0.1386  0.1616
 9245SOL     OW39367   3.964   3.632  12.604 -0.5753 -0.1135  0.2792
 9245SOL    HW139368   3.987   3.560  12.545  0.9102 -0.6374  1.4835
 9245SOL    HW239369   4.030   3.698  12.584  1.0852 -1.7994  0.0999
 9246SOL     OW39370   3.126   0.720   9.176 -0.0166 -0.3004  0.0996
 9246SOL    HW139371   3.192   0.664   9.218  0.3486  0.0154 -0.0450
 9246SOL    HW239372   3.126   0.794   9.236  2.1463  1.0677 -1.5647
 9247SOL     OW39373   1.953   4.190   6.235 -0.1597  0.5960 -0.2858
 9247SOL    HW139374   1.959   4.101   6.269  1.8694  0.1041 -1.9910
 9247SOL    HW239375   1.994   4.175   6.151 -1.0860 -0.3474 -0.5747
 9248SOL     OW39376   1.809   0.921   8.944 -0.2997 -0.4701 -0.0311
 9248SOL    HW139377   1.756   0.994   8.913 -0.5284 -0.4369  0.4306
 9248SOL    HW239378   1.854   0.969   9.014  0.3282  0.8730 -1.3708
 9249SOL     OW39379   0.983   0.605   9.362 -0.1093 -0.4825  0.4589
 9249SOL    HW139380   1.045   0.594   9.290 -0.0974 -0.4150  0.4589
 9249SOL    HW239381   1.048   0.658   9.409  0.3463 -0.9602  0.3711
 9250SOL     OW39382   3.718   4.394  12.254  0.4387 -0.1455 -0.4217
 9250SOL    HW139383   3.746   4.476  12.213 -0.8854 -0.3184 -1.6413
 9250SOL    HW239384   3.692   4.431  12.339 -1.1248  1.7885 -1.7560
 9251SOL     OW39385   2.259   2.087   5.294 -0.3971  0.0205  0.0022
 9251SOL    HW139386   2.265   2.162   5.352 -0.0452  0.3193 -0.4212
 9251SOL    HW239387   2.184   2.119   5.244 -0.7305 -0.9440 -0.1176
 9252SOL     OW39388   3.778   2.935   6.908 -0.4001 -0.0638  0.3631
 9252SOL    HW139389   3.723   3.008   6.881 -1.4841 -0.6804  0.9005
 9252SOL    HW239390   3.722   2.885   6.968  0.2129 -0.9636  0.2056
 9253SOL     OW39391   0.221   0.182   8.058 -0.6135 -0.1702 -0.0256
 9253SOL    HW139392   0.248   0.193   8.149 -0.2140 -1.2053 -0.0133
 9253SOL    HW239393   0.207   0.087   8.056  0.2228 -0.3162  1.7919
 9254SOL     OW39394   0.646   1.110   1.439 -0.1436 -0.0164 -0.0346
 9254SOL    HW139395   0.636   1.130   1.532  1.6020  0.4937  0.0585
 9254SOL    HW239396   0.705   1.037   1.458  1.7584  1.5107 -0.0146
 9255SOL     OW39397   3.483   2.207   2.504  0.6290 -0.0102 -0.0535
 9255SOL    HW139398   3.579   2.216   2.506  0.6586 -0.0171 -1.1195
 9255SOL    HW239399   3.456   2.297   2.487 -0.8306 -0.0952  1.8439
 9256SOL     OW39400   0.148   4.605  10.654  0.2337  0.2380  0.3918
 9256SOL    HW139401   0.222   4.548  10.677 -1.4018 -1.2793  1.8789
 9256SOL    HW239402   0.172   4.650  10.573 -0.3200 -0.7709 -0.3380
 9257SOL     OW39403   0.515   2.851   2.666 -0.3644  0.3954 -0.0211
 9257SOL    HW139404   0.477   2.931   2.631  1.5225  2.5647  2.8806
 9257SOL    HW239405   0.589   2.845   2.606 -1.6268 -0.7454 -1.4697
 9258SOL     OW39406   1.874   0.666   2.468 -0.2511  0.3200  0.1709
 9258SOL    HW139407   1.893   0.685   2.376  2.1397 -2.5690  0.0661
 9258SOL    HW239408   1.800   0.605   2.466  1.9633 -2.5128  3.6464
 9259SOL     OW39409   2.235   0.552   1.302  0.1268  0.0974 -0.0729
 9259SOL    HW139410   2.194   0.622   1.251 -2.9213 -3.1367 -2.0954
 9259SOL    HW239411   2.166   0.488   1.281 -1.5000  1.1618  2.0184
 9260SOL     OW39412   3.770   1.792   2.894  0.4488 -0.1522  0.3486
 9260SOL    HW139413   3.739   1.807   2.804  5.0370 -2.7818 -1.6642
 9260SOL    HW239414   3.824   1.713   2.881  0.3130  0.1844 -2.2929
 9261SOL     OW39415   2.179   2.505  16.693 -0.2823  0.4380  0.3607
 9261SOL    HW139416   2.086   2.492  16.672 -0.2295  0.0605  0.3637
 9261SOL    HW239417   2.207   2.414  16.703 -0.7671  0.4707  1.9441
 9262SOL     OW39418   3.440   2.409   0.432 -0.8892  0.1244 -0.5253
 9262SOL    HW139419   3.489   2.429   0.511  2.2147  0.7959 -2.6097
 9262SOL    HW239420   3.353   2.439   0.459 -1.0732  0.7680 -1.8166
 9263SOL     OW39421   4.714   4.433  11.522  0.5633  0.7879  0.3471
 9263SOL    HW139422   4.696   4.479  11.440 -0.0137  0.8564  0.5189
 9263SOL    HW239423   0.070   4.433  11.518  0.5213  2.8442 -0.9785
 9264SOL     OW39424   3.852   0.636   0.614  0.3618 -0.0858 -0.3272
 9264SOL    HW139425   3.771   0.645   0.664 -0.0399 -1.9433 -0.6480
 9264SOL    HW239426   3.839   0.559   0.560  0.2207  0.1536 -0.6368
 9265SOL     OW39427   1.067   2.840   6.211  0.1550 -1.0170  0.0580
 9265SOL    HW139428   1.043   2.894   6.286 -0.5897 -0.7114 -0.3961
 9265SOL    HW239429   1.051   2.893   6.133 -1.7950 -1.2725  0.2939
 9266SOL     OW39430   1.246   3.141   2.050  0.0987 -0.1657 -0.5605
 9266SOL    HW139431   1.293   3.062   2.080 -0.9349 -0.4910  0.2126
 9266SOL    HW239432   1.310   3.203   2.015 -1.9050  3.3623  2.1129
 9267SOL     OW39433   4.066   1.345   1.337  0.1166  0.3877 -0.2583
 9267SOL    HW139434   4.120   1.269   1.359  0.9650  0.6312 -1.4659
 9267SOL    HW239435   3.991   1.309   1.290  0.6520 -0.3190 -0.5733
 9268SOL     OW39436   3.470   3.614  10.887  0.0414  0.2573 -0.3564
 9268SOL    HW139437   3.419   3.606  10.806 -0.9880 -0.6707  0.3832
 9268SOL    HW239438   3.467   3.525  10.921 -1.8961  0.5844  0.3149
 9269SOL     OW39439   0.091   2.732   5.926 -0.5293  0.0546 -0.1884
 9269SOL    HW139440   0.109   2.646   5.964 -1.2281  0.0227  0.0635
 9269SOL    HW239441   0.174   2.745   5.879  0.1505  1.0281  1.2625
 9270SOL     OW39442   2.230   2.925   5.948  0.2722  0.2774  0.3166
 9270SOL    HW139443   2.197   2.872   5.875  0.4210  0.8009 -0.1314
 9270SOL    HW239444   2.255   3.009   5.910 -2.3687  0.2765 -1.4325
 9271SOL     OW39445   4.636   1.900  15.766 -0.5083  0.1483 -0.2665
 9271SOL    HW139446   4.600   1.982  15.732 -3.4768 -1.0554  0.0010
 9271SOL    HW239447   4.630   1.919  15.860  1.3992  2.0907 -0.5378
 9272SOL     OW39448   0.080   0.282   7.226 -0.2968 -0.3299 -0.4719
 9272SOL    HW139449   0.150   0.342   7.251 -1.0794  0.1165  0.6183
 9272SOL    HW239450   0.033   0.261   7.306  1.9070  0.3411  0.9944
 9273SOL     OW39451   2.491   4.601   3.502  0.6185  0.8825 -0.0306
 9273SOL    HW139452   2.545   4.585   3.425 -1.1010 -0.3183 -0.9737
 9273SOL    HW239453   2.441   4.671   3.461 -0.8775  0.4531  1.0633
 9274SOL     OW39454   2.835   1.731  17.661 -0.4747 -0.2216 -0.3505
 9274SOL    HW139455   2.900   1.719  17.730 -0.2895 -1.0903 -0.6779
 9274SOL    HW239456   2.849   1.825  17.649 -1.4866  0.2875  2.3097
 9275SOL     OW39457   4.049   2.035  14.328  0.0706  0.0539  0.7649
 9275SOL    HW139458   4.091   1.949  14.330  1.3690  0.5803 -4.1088
 9275SOL    HW239459   4.072   2.058  14.238  1.4304  1.6797  1.5290
 9276SOL     OW39460   0.157   0.873  15.083  0.0397  0.4319 -0.8477
 9276SOL    HW139461   0.081   0.883  15.140  0.2707 -0.2353 -0.4275
 9276SOL    HW239462   0.118   0.912  15.005 -0.7744  1.2899  0.0018
 9277SOL     OW39463   1.696   3.876  17.057  0.1208 -0.6456  0.2012
 9277SOL    HW139464   1.693   3.917  17.144  3.5581  0.5682 -0.2074
 9277SOL    HW239465   1.775   3.912  17.015 -0.0259 -1.6465 -0.9289
 9278SOL     OW39466   2.441   2.375   5.117 -0.0568 -0.0496 -0.4616
 9278SOL    HW139467   2.530   2.384   5.083 -0.5395 -0.0120 -1.7216
 9278SOL    HW239468   2.442   2.279   5.109  1.9491 -0.0630 -0.0067
 9279SOL     OW39469   1.222   1.418  11.436  0.3006  0.1396  0.6179
 9279SOL    HW139470   1.141   1.386  11.395  2.0481 -0.6943 -2.2034
 9279SOL    HW239471   1.193   1.413  11.527 -1.8147 -2.1356 -0.1940
 9280SOL     OW39472   0.983   0.493   3.787  0.2391 -0.0685  0.1012
 9280SOL    HW139473   0.949   0.525   3.703  0.8007 -0.3558 -0.2283
 9280SOL    HW239474   1.077   0.504   3.776 -0.0149 -1.2038 -3.2216
 9281SOL     OW39475   4.151   2.252   4.294  0.9174  0.4164 -0.2179
 9281SOL    HW139476   4.174   2.271   4.203  1.4691  0.8090 -0.0013
 9281SOL    HW239477   4.087   2.321   4.307  0.8932  0.3756 -0.1201
 9282SOL     OW39478   3.261   1.454   8.624  0.2148 -0.3433 -0.8020
 9282SOL    HW139479   3.190   1.427   8.682 -0.7742  1.1222 -1.3507
 9282SOL    HW239480   3.334   1.411   8.670  0.0992  0.6381  0.3076
 9283SOL     OW39481   1.326   1.298   3.067 -0.3643 -0.0524 -0.2594
 9283SOL    HW139482   1.232   1.291   3.051 -0.4022  0.5859 -0.3156
 9283SOL    HW239483   1.348   1.349   2.989  1.9382 -0.5432  0.0631
 9284SOL     OW39484   2.059   2.442   2.220  0.3265  0.4946  0.0909
 9284SOL    HW139485   2.115   2.515   2.193  0.9607 -0.1577 -0.3777
 9284SOL    HW239486   2.035   2.415   2.131  1.7936 -2.0097  0.4611
 9285SOL     OW39487   2.026   2.969   4.811  0.2465 -0.0798  0.6312
 9285SOL    HW139488   1.942   2.948   4.770  0.7777 -0.3083 -0.3353
 9285SOL    HW239489   2.059   3.039   4.754 -2.9173  1.3688  0.5682
 9286SOL     OW39490   1.677   1.586   4.499 -0.9706 -0.5101 -0.3703
 9286SOL    HW139491   1.675   1.580   4.404 -0.8065 -2.1645 -0.2659
 9286SOL    HW239492   1.598   1.637   4.520  1.3824  2.2435  1.8119
 9287SOL     OW39493   0.152   0.110   8.510 -0.3728 -0.4909 -0.2582
 9287SOL    HW139494   0.158   0.032   8.454 -1.4837 -0.3002 -0.6487
 9287SOL    HW239495   0.080   0.088   8.569  0.5662 -0.1813  0.9987
 9288SOL     OW39496   4.138   4.404  13.104 -0.0694 -0.5128 -0.1484
 9288SOL    HW139497   4.058   4.387  13.055  0.5349 -1.1184 -0.9478
 9288SOL    HW239498   4.157   4.318  13.142  2.4007  0.1900  0.2496
 9289SOL     OW39499   1.352   1.741   6.210  0.2916 -0.0808 -0.0521
 9289SOL    HW139500   1.355   1.739   6.305  1.0797  0.1071 -0.0723
 9289SOL    HW239501   1.265   1.780   6.206  0.7316  0.8359 -0.9004
 9290SOL     OW39502   2.696   0.142   8.329 -0.0822  0.4007 -0.2096
 9290SOL    HW139503   2.764   0.208   8.340  0.0532  0.4659 -1.4361
 9290SOL    HW239504   2.660   0.170   8.245 -1.8746 -0.0238  0.4158
 9291SOL     OW39505   4.302   1.205   3.258  0.2780  0.0114  0.3986
 9291SOL    HW139506   4.323   1.288   3.300 -0.6214  1.2539 -1.6033
 9291SOL    HW239507   4.381   1.189   3.205 -0.3110  1.3606 -0.8636
 9292SOL     OW39508   0.533   3.248   2.151 -0.0534  0.1836 -0.0891
 9292SOL    HW139509   0.464   3.268   2.214  0.7587  0.4790  0.7103
 9292SOL    HW239510   0.521   3.299   2.072 -0.0639  0.0062 -0.2023
 9293SOL     OW39511   4.391   1.702   7.990 -0.0577 -0.1152  0.1547
 9293SOL    HW139512   4.442   1.621   7.982  1.7009  1.1087 -1.0137
 9293SOL    HW239513   4.394   1.698   8.086 -0.5577  0.3892  0.1894
 9294SOL     OW39514   0.161   1.588  16.448 -0.1979 -0.2859 -0.0073
 9294SOL    HW139515   0.205   1.667  16.478  0.7804 -1.1659  0.9065
 9294SOL    HW239516   0.168   1.592  16.353 -0.3396  0.1506  0.0045
 9295SOL     OW39517   2.254   4.662   9.434 -0.3476 -0.4874 -0.4878
 9295SOL    HW139518   2.328   4.722   9.446 -0.4911 -0.1927 -1.0698
 9295SOL    HW239519   2.276   4.629   9.347  2.9006 -0.5874  0.3568
 9296SOL     OW39520   2.590   0.290   8.080 -0.1012  0.0000  0.2288
 9296SOL    HW139521   2.590   0.312   7.987 -0.1303  2.5635  0.8540
 9296SOL    HW239522   2.600   0.373   8.125  2.1154 -0.1624  0.0195
 9297SOL     OW39523   4.549   0.231   9.888  0.2900 -0.3688  0.0289
 9297SOL    HW139524   4.521   0.301   9.828 -2.9141 -3.1140 -1.6496
 9297SOL    HW239525   4.477   0.168   9.883 -1.1100  1.0113  2.3446
 9298SOL     OW39526   4.682   0.128   6.699  0.4412 -0.1349 -0.2247
 9298SOL    HW139527   4.602   0.103   6.745  0.3060  2.5339  0.9385
 9298SOL    HW239528   4.733   0.157   6.774  0.3314 -0.4449 -0.0289
 9299SOL     OW39529   0.297   3.567   4.893 -0.0089 -0.7098  0.0287
 9299SOL    HW139530   0.287   3.472   4.887  0.6977 -0.8171  0.5691
 9299SOL    HW239531   0.237   3.573   4.968  0.6177 -2.2925  0.6774
 9300SOL     OW39532   0.025   3.238   3.229 -0.0586  0.7387  0.2401
 9300SOL    HW139533   0.001   3.328   3.250 -1.2007 -0.0468  2.3139
 9300SOL    HW239534   0.041   3.202   3.317  0.7492 -0.7662 -0.5162
 9301SOL     OW39535   4.159   2.228   4.004  0.6388 -0.5596  0.0502
 9301SOL    HW139536   4.153   2.143   3.960 -1.7106 -0.2549 -0.2183
 9301SOL    HW239537   4.229   2.267   3.951 -0.6109  2.9840  1.0572
 9302SOL     OW39538   4.528   3.791  12.811 -0.2286  0.0191 -0.0176
 9302SOL    HW139539   4.545   3.885  12.823  2.8859 -1.0226  3.7672
 9302SOL    HW239540   4.449   3.778  12.864  1.4190 -1.4144  2.0943
 9303SOL     OW39541   2.702   1.552   7.041  0.2756  0.1606  0.1978
 9303SOL    HW139542   2.766   1.490   7.076  0.4328  0.2306  0.0278
 9303SOL    HW239543   2.732   1.634   7.080 -0.6477  0.4882  0.2240
 9304SOL     OW39544   4.289   1.550   7.272 -0.1553  0.0308 -0.1325
 9304SOL    HW139545   4.244   1.531   7.354  1.7249 -1.3502  0.5819
 9304SOL    HW239546   4.355   1.481   7.267 -0.2492  0.0209 -1.1574
 9305SOL     OW39547   3.398   2.420   8.505  0.3668  0.7828 -0.6939
 9305SOL    HW139548   3.408   2.341   8.558  1.4889  0.1064 -1.8992
 9305SOL    HW239549   3.382   2.387   8.416  0.1430 -0.9179 -0.0258
 9306SOL     OW39550   4.712   3.269   2.395 -0.4962 -0.1400 -0.3313
 9306SOL    HW139551   0.001   3.359   2.413  0.6512 -0.4233 -0.7202
 9306SOL    HW239552   4.724   3.261   2.300 -0.3295  1.3352 -0.4383
 9307SOL     OW39553   2.084   1.323   2.162 -0.2634 -0.0315  0.2563
 9307SOL    HW139554   2.061   1.307   2.071 -1.2039  1.3422  0.2502
 9307SOL    HW239555   2.144   1.251   2.180 -1.2826 -0.7744  0.7003
 9308SOL     OW39556   0.516   0.626   1.310  0.0682  0.1759  0.2283
 9308SOL    HW139557   0.542   0.643   1.220 -0.2655  0.6049  0.2121
 9308SOL    HW239558   0.597   0.633   1.361  0.1470 -1.7388  0.3501
 9309SOL     OW39559   3.831   1.388  12.924  0.5722 -0.4621  0.2251
 9309SOL    HW139560   3.868   1.325  12.984  1.7927  2.0257  2.0979
 9309SOL    HW239561   3.800   1.450  12.990  0.1393 -0.0050 -0.3955
 9310SOL     OW39562   2.125   0.772   1.745 -0.4267  0.3267 -0.5334
 9310SOL    HW139563   2.081   0.688   1.737 -2.2764  1.3705 -1.3869
 9310SOL    HW239564   2.079   0.819   1.675 -1.9659 -0.1598  0.1549
 9311SOL     OW39565   0.407   1.319   3.537  0.0641  0.0599  0.2241
 9311SOL    HW139566   0.451   1.322   3.452 -1.0881 -0.3411 -0.3965
 9311SOL    HW239567   0.479   1.330   3.599  1.0324 -3.1494 -0.3477
 9312SOL     OW39568   3.224   3.777  10.165  0.2777 -0.0538 -0.6637
 9312SOL    HW139569   3.279   3.748  10.092 -1.7535 -1.0357 -1.8166
 9312SOL    HW239570   3.288   3.806  10.231 -0.4799  2.6468 -1.1195
 9313SOL     OW39571   4.125   3.318   2.951 -0.2990 -0.3330  0.8568
 9313SOL    HW139572   4.137   3.369   2.870 -2.3134 -0.7927  0.2495
 9313SOL    HW239573   4.107   3.234   2.909  0.8952 -0.0115 -0.3274
 9314SOL     OW39574   2.254   4.136   3.005  0.9768  0.3335 -0.1617
 9314SOL    HW139575   2.212   4.065   3.053 -0.2148  1.3947  0.3365
 9314SOL    HW239576   2.177   4.191   2.989  2.2780  1.9268 -1.0029
 9315SOL     OW39577   2.839   1.804   2.872  0.0781  0.1612 -0.3784
 9315SOL    HW139578   2.753   1.841   2.891  0.5242 -0.0345  1.9271
 9315SOL    HW239579   2.889   1.872   2.917  0.0528  0.2501 -0.4859
 9316SOL     OW39580   2.063   2.505  11.245 -0.4076  0.0169 -0.2250
 9316SOL    HW139581   2.035   2.555  11.321  0.9457 -0.7538  0.7922
 9316SOL    HW239582   1.993   2.451  11.207 -1.9309  1.4615  0.5302
 9317SOL     OW39583   1.815   0.008   5.781  0.1546 -0.1691  0.7887
 9317SOL    HW139584   1.825   4.733   5.687 -2.1663  1.4795  0.2751
 9317SOL    HW239585   1.751   4.679   5.801  1.6078 -1.7065  0.1626
 9318SOL     OW39586   2.311   4.452   2.284  0.2828  0.3474  0.5139
 9318SOL    HW139587   2.306   4.543   2.312 -0.2374  0.0585  1.3281
 9318SOL    HW239588   2.217   4.443   2.266  0.3432  2.1852 -0.7037
 9319SOL     OW39589   4.010   3.734   2.496 -0.4862  0.9092 -0.3195
 9319SOL    HW139590   4.093   3.755   2.537  0.3460 -3.2282  0.1556
 9319SOL    HW239591   4.024   3.650   2.451  1.0279  0.3393  1.2441
 9320SOL     OW39592   1.714   3.097   5.015  0.0436  0.2597 -0.9317
 9320SOL    HW139593   1.723   3.090   4.920 -0.1850 -1.0533 -0.8589
 9320SOL    HW239594   1.691   3.005   5.032  1.6313  0.0770  0.1867
 9321SOL     OW39595   2.844   0.656   5.537  0.0421 -0.3037  0.3011
 9321SOL    HW139596   2.932   0.623   5.518  0.1289 -0.5000  1.0179
 9321SOL    HW239597   2.793   0.582   5.505  1.4074 -1.9767  1.9822
 9322SOL     OW39598   1.513   1.286  10.751 -0.1382  0.4125  0.2224
 9322SOL    HW139599   1.513   1.251  10.840 -0.8433  3.4844  1.4279
 9322SOL    HW239600   1.558   1.212  10.711 -0.0041 -0.7144  2.4333
 9323SOL     OW39601   1.572   0.706   5.296  0.4185  0.0504  0.3921
 9323SOL    HW139602   1.621   0.774   5.341 -0.3815  1.7520 -1.3193
 9323SOL    HW239603   1.614   0.711   5.210 -0.1775  1.8350  0.2101
 9324SOL     OW39604   3.948   0.882   8.064 -0.2129 -0.3376 -0.2030
 9324SOL    HW139605   3.995   0.829   8.129  1.4478 -1.2718 -2.1734
 9324SOL    HW239606   3.858   0.864   8.090 -0.5942  1.9310  0.0183
 9325SOL     OW39607   3.653   4.439   4.444  0.0249  0.1273  0.3519
 9325SOL    HW139608   3.706   4.373   4.400 -0.7766  0.0726 -0.5202
 9325SOL    HW239609   3.570   4.394   4.458  0.4097  0.0551  2.3602
 9326SOL     OW39610   0.150   3.284  12.477 -0.1393  0.0628 -0.7457
 9326SOL    HW139611   0.120   3.193  12.475 -0.6279  0.2284 -0.9548
 9326SOL    HW239612   0.180   3.298  12.568  0.6951  1.7920 -1.2773
 9327SOL     OW39613   4.072   2.055   5.041  0.0355 -0.2209  0.2299
 9327SOL    HW139614   4.099   2.135   5.086  1.2112  0.1641 -1.1439
 9327SOL    HW239615   3.986   2.082   5.009 -1.0786 -3.2710  0.6620
 9328SOL     OW39616   2.321   4.487   4.909 -0.3171  0.8785 -0.3995
 9328SOL    HW139617   2.372   4.557   4.868 -0.2145  1.0105 -0.0525
 9328SOL    HW239618   2.229   4.496   4.884 -0.3809  0.6287 -0.2497
 9329SOL     OW39619   3.394   2.946   2.568  0.0124 -0.0430  0.2846
 9329SOL    HW139620   3.431   3.025   2.606  1.4167 -0.2692 -0.5796
 9329SOL    HW239621   3.428   2.955   2.478 -1.4180 -1.8947 -0.4384
 9330SOL     OW39622   1.887   0.118   6.307  0.1283  0.4307  0.5917
 9330SOL    HW139623   1.820   0.050   6.293  0.7671 -0.0139 -0.3275
 9330SOL    HW239624   1.967   0.071   6.284 -0.7757 -0.7039 -0.3276
 9331SOL     OW39625   3.024   0.061   8.240 -0.3837  0.5115 -0.0195
 9331SOL    HW139626   3.107   0.075   8.286  0.5317 -0.0113 -1.5087
 9331SOL    HW239627   3.018   0.146   8.196 -1.8436 -0.4523 -1.6445
 9332SOL     OW39628   2.467   2.194   7.126  0.4347 -0.4496 -0.2420
 9332SOL    HW139629   2.496   2.104   7.111  1.8968 -0.3880  2.2193
 9332SOL    HW239630   2.539   2.231   7.177 -0.8933 -0.3004  1.5448
 9333SOL     OW39631   3.829   3.716  14.617 -0.0854 -0.2219 -0.0269
 9333SOL    HW139632   3.797   3.790  14.565 -1.0949  0.3303  1.3873
 9333SOL    HW239633   3.866   3.660  14.549 -2.3401 -1.6811 -0.0651
 9334SOL     OW39634   0.757   1.437   7.410 -0.2698 -0.9046 -0.0779
 9334SOL    HW139635   0.777   1.419   7.502  0.9426  1.1147  0.0463
 9334SOL    HW239636   0.667   1.403   7.410 -0.6058 -0.0036 -0.9838
 9335SOL     OW39637   2.169   4.492   2.570 -0.3760 -0.5391 -0.2045
 9335SOL    HW139638   2.221   4.540   2.507 -0.8090  0.1376 -0.0439
 9335SOL    HW239639   2.134   4.569   2.614 -2.0629 -0.4056 -1.7266
 9336SOL     OW39640   4.569   3.961   9.390  0.1854 -0.5744  0.0557
 9336SOL    HW139641   4.584   3.959   9.295  0.8290 -0.6015  0.1575
 9336SOL    HW239642   4.506   3.889   9.402 -1.7493  0.9029 -1.2334
 9337SOL     OW39643   1.960   1.260   1.921  0.1580 -0.3092  0.1910
 9337SOL    HW139644   1.906   1.196   1.968  0.8700 -1.1361 -0.1094
 9337SOL    HW239645   1.895   1.318   1.882 -1.2466 -1.4967  0.7797
 9338SOL     OW39646   2.168   1.746  15.105  0.1782 -0.0928 -0.3874
 9338SOL    HW139647   2.087   1.712  15.142 -0.3336  1.5707  0.0077
 9338SOL    HW239648   2.186   1.815  15.169 -0.7113 -0.4401  0.2410
 9339SOL     OW39649   0.259   1.418   6.911 -0.4294  0.2775  0.2834
 9339SOL    HW139650   0.285   1.425   6.819  1.4185  1.6312  0.9062
 9339SOL    HW239651   0.319   1.476   6.957  0.0228  1.1948 -1.4572
 9340SOL     OW39652   3.709   3.057  11.179 -0.3209 -0.0569  0.6709
 9340SOL    HW139653   3.679   3.018  11.261  0.2923 -1.6659  0.1239
 9340SOL    HW239654   3.665   3.141  11.195 -1.1175 -0.3885  0.2102
 9341SOL     OW39655   4.678   4.735   8.035 -0.3356  0.1118 -0.2943
 9341SOL    HW139656   4.683   0.064   7.969 -0.4778 -0.6787 -1.1342
 9341SOL    HW239657   4.631   4.657   8.006  0.2296 -0.7453  1.0995
 9342SOL     OW39658   4.661   4.271   9.763  0.0586 -0.1395 -0.3016
 9342SOL    HW139659   4.629   4.216   9.834 -0.2615 -0.5715 -0.7767
 9342SOL    HW239660   4.610   4.350   9.775  1.1867  0.5221  0.1384
 9343SOL     OW39661   4.226   0.153   8.792 -0.0350  0.1334 -0.3070
 9343SOL    HW139662   4.162   0.094   8.752 -0.0549 -0.6597  0.8863
 9343SOL    HW239663   4.292   0.090   8.819  0.4664 -0.2521 -2.4219
 9344SOL     OW39664   3.551   3.385   6.033 -0.2746  0.2156  0.6078
 9344SOL    HW139665   3.535   3.368   6.126 -0.1874 -1.8234  0.2341
 9344SOL    HW239666   3.458   3.376   6.010 -0.4874  2.2181  0.6537
 9345SOL     OW39667   2.784   4.165  17.754 -0.1080 -0.0798  0.1623
 9345SOL    HW139668   2.747   4.090  17.708 -0.1260 -0.4884  0.8404
 9345SOL    HW239669   2.772   4.144   0.089  0.7634 -1.2314  0.0081
 9346SOL     OW39670   0.374   2.072   3.089  0.3501 -0.0339 -0.4908
 9346SOL    HW139671   0.311   2.095   3.157  1.8186 -1.0870  1.2228
 9346SOL    HW239672   0.354   1.979   3.082 -1.0306  0.1636  0.9048
 9347SOL     OW39673   4.194   2.651   8.393 -0.3719 -0.2210  0.7114
 9347SOL    HW139674   4.130   2.579   8.400  0.3583 -0.7262  2.0424
 9347SOL    HW239675   4.273   2.598   8.399 -0.1525  0.0991  0.5990
 9348SOL     OW39676   1.154   0.150  15.451  0.2685  0.8121  0.3338
 9348SOL    HW139677   1.107   0.233  15.458  0.0094  0.5779  1.3763
 9348SOL    HW239678   1.243   0.173  15.425  1.2115 -2.2016  0.8547
 9349SOL     OW39679   2.112   4.035   6.038  0.0924  0.3205  0.5481
 9349SOL    HW139680   2.178   4.014   5.973 -0.4431  1.3453 -0.3307
 9349SOL    HW239681   2.059   3.956   6.039  0.0514  0.3445  0.1705
 9350SOL     OW39682   3.144   1.056   2.612 -0.1572 -0.5387 -0.3394
 9350SOL    HW139683   3.179   1.133   2.568  0.0679  1.1046  2.7188
 9350SOL    HW239684   3.196   0.986   2.573 -0.4354 -0.5869 -0.6255
 9351SOL     OW39685   4.601   4.131  10.491  0.0199  0.4598  0.5257
 9351SOL    HW139686   4.684   4.161  10.526 -0.0631  1.6268 -0.2611
 9351SOL    HW239687   4.541   4.189  10.539  2.2966  1.4234  2.1716
 9352SOL     OW39688   3.832   3.644   8.759  0.3645 -0.0233  0.0784
 9352SOL    HW139689   3.923   3.619   8.773  0.1750 -0.8831 -0.2228
 9352SOL    HW239690   3.839   3.740   8.756 -0.6853  0.0490 -0.2691
 9353SOL     OW39691   0.108   4.217  13.747  0.3919 -0.0148  0.2603
 9353SOL    HW139692   0.135   4.173  13.828  0.9179  0.0703  0.1318
 9353SOL    HW239693   0.181   4.180  13.699 -0.2985 -0.4919 -0.4167
 9354SOL     OW39694   0.700   3.017   4.450 -0.1648 -0.3691  0.0125
 9354SOL    HW139695   0.619   3.007   4.500  0.9199  1.3805  2.1076
 9354SOL    HW239696   0.677   2.982   4.364  0.1255  1.3777 -0.7602
 9355SOL     OW39697   2.065   3.792   7.100  0.0817  0.4334  0.1578
 9355SOL    HW139698   2.026   3.786   7.013  2.0980  1.6616 -0.8229
 9355SOL    HW239699   2.021   3.717   7.141  2.9129 -0.6124  1.3180
 9356SOL     OW39700   2.109   3.937   7.327 -0.4778 -0.1709 -0.6495
 9356SOL    HW139701   2.202   3.919   7.343 -0.7356  0.1592  1.1399
 9356SOL    HW239702   2.101   3.885   7.246 -0.9880 -0.5647 -0.3448
 9357SOL     OW39703   2.282   4.208   6.203 -0.2437  0.6096 -0.1378
 9357SOL    HW139704   2.218   4.181   6.137  0.5293  1.4195 -1.2181
 9357SOL    HW239705   2.287   4.142   6.273 -0.6625  0.2481 -0.4461
 9358SOL     OW39706   4.465   0.475   6.733  0.1168 -0.2077  0.1521
 9358SOL    HW139707   4.531   0.411   6.709  3.1141  2.4777  1.2906
 9358SOL    HW239708   4.439   0.512   6.649  0.8812  0.4790  0.2231
 9359SOL     OW39709   2.283   2.127   5.911 -0.2681 -0.2909 -1.2701
 9359SOL    HW139710   2.327   2.210   5.896  0.4141 -0.4843 -0.3146
 9359SOL    HW239711   2.350   2.078   5.864 -0.8822 -1.4738 -0.9160
 9360SOL     OW39712   0.293   1.236   4.778 -0.1732  0.1439 -0.5063
 9360SOL    HW139713   0.200   1.224   4.798  0.2694 -1.7946  0.3845
 9360SOL    HW239714   0.324   1.228   4.868 -0.8688 -0.2489 -0.3035
 9361SOL     OW39715   0.821   1.860   5.350 -0.0321 -1.0977  0.2624
 9361SOL    HW139716   0.729   1.850   5.328  0.1357  1.7053 -1.6922
 9361SOL    HW239717   0.829   1.788   5.413 -1.9114 -1.0894  0.5096
 9362SOL     OW39718   4.366   0.956   4.050 -0.6505  0.4512 -0.3307
 9362SOL    HW139719   4.281   0.921   4.075 -1.8469  0.7544 -3.9171
 9362SOL    HW239720   4.400   0.987   4.134  0.2903 -0.5636 -0.3328
 9363SOL     OW39721   1.729   1.185   3.548 -0.5122  0.0773  0.2041
 9363SOL    HW139722   1.648   1.189   3.599  0.5959 -0.4551  1.9994
 9363SOL    HW239723   1.733   1.091   3.532  1.1791 -0.1898  2.2374
 9364SOL     OW39724   1.148   4.319   4.549  0.5050  0.1512 -0.2487
 9364SOL    HW139725   1.159   4.289   4.639  0.0467 -1.0677 -0.5982
 9364SOL    HW239726   1.065   4.275   4.531  0.1343 -0.2117  2.4504
 9365SOL     OW39727   0.606   1.132   4.091 -0.4314  0.4418 -0.1147
 9365SOL    HW139728   0.551   1.082   4.150  1.8510  0.8530  2.3755
 9365SOL    HW239729   0.667   1.065   4.059 -0.9184 -0.3117  0.5627
 9366SOL     OW39730   2.331   4.531   7.967 -0.0571 -0.3203 -0.2357
 9366SOL    HW139731   2.295   4.598   8.025  2.2065  0.1721  0.6024
 9366SOL    HW239732   2.419   4.567   7.951 -0.1384 -0.0609 -0.0989
 9367SOL     OW39733   0.632   3.653  16.137 -0.2106  0.7289 -0.1199
 9367SOL    HW139734   0.614   3.747  16.142 -0.3494  0.7184 -0.4606
 9367SOL    HW239735   0.673   3.641  16.052 -0.5219 -2.8713  0.2476
 9368SOL     OW39736   1.125   2.315   2.193  0.6527 -0.4550  0.2247
 9368SOL    HW139737   1.174   2.341   2.115 -0.8030  0.2438 -0.4646
 9368SOL    HW239738   1.063   2.250   2.161 -0.4508 -0.1245  1.6734
 9369SOL     OW39739   3.134   3.992   6.452  0.2082 -0.0410 -0.2107
 9369SOL    HW139740   3.122   4.052   6.379 -0.9954  0.0735  0.0797
 9369SOL    HW239741   3.050   3.995   6.498  0.0552 -0.9247 -0.4322
 9370SOL     OW39742   3.366   3.199   4.221  0.0010 -0.4128  0.3334
 9370SOL    HW139743   3.289   3.146   4.242 -0.5193 -0.0697 -0.7058
 9370SOL    HW239744   3.422   3.173   4.294 -0.1841 -0.2983  0.5139
 9371SOL     OW39745   1.120   0.728   8.790 -0.2700 -0.3336 -0.1731
 9371SOL    HW139746   1.165   0.662   8.738 -2.9664 -1.1878 -1.3856
 9371SOL    HW239747   1.028   0.711   8.773 -0.4540  0.2722  0.1987
 9372SOL     OW39748   1.602   0.265   2.823 -0.5190 -0.6506 -0.3048
 9372SOL    HW139749   1.679   0.308   2.785 -2.0187  1.1904 -1.2877
 9372SOL    HW239750   1.574   0.342   2.872  1.5591 -1.8888  2.7817
 9373SOL     OW39751   4.677   2.511  12.028  0.1638  0.1823  0.1944
 9373SOL    HW139752   4.645   2.455  12.099  0.4461  0.0873  0.2504
 9373SOL    HW239753   4.609   2.511  11.960  0.7583 -2.3330 -0.4126
 9374SOL     OW39754   0.950   3.159   0.229  0.1470  0.7440 -0.5913
 9374SOL    HW139755   1.008   3.120   0.163 -0.9009 -0.6503 -0.6756
 9374SOL    HW239756   0.896   3.084   0.251  1.9086 -0.2896  0.2426
 9375SOL     OW39757   2.610   1.728   9.455 -0.3901  0.1854 -0.2811
 9375SOL    HW139758   2.647   1.813   9.478 -1.4423  0.5328  0.1144
 9375SOL    HW239759   2.619   1.733   9.360  1.7703  0.6450 -0.0633
 9376SOL     OW39760   2.627   3.472   9.489  0.0474 -0.4185  0.1136
 9376SOL    HW139761   2.649   3.526   9.413  1.1882 -1.2223 -0.1291
 9376SOL    HW239762   2.558   3.415   9.456 -0.5599  1.1604 -1.3257
 9377SOL     OW39763   2.945   2.730   3.264  0.1573 -0.0935 -0.3124
 9377SOL    HW139764   3.030   2.765   3.290 -0.1435  1.4960 -1.4939
 9377SOL    HW239765   2.879   2.770   3.321  2.2245 -0.6689  2.4464
 9378SOL     OW39766   1.937   3.826   5.979  0.0511 -0.0297  0.1809
 9378SOL    HW139767   1.858   3.861   6.021 -0.3009 -0.4773 -0.1115
 9378SOL    HW239768   1.911   3.787   5.896 -0.2490 -1.6508  1.0290
 9379SOL     OW39769   4.472   1.197   8.510 -0.1613 -0.1183 -0.2550
 9379SOL    HW139770   4.447   1.290   8.515 -3.2423 -1.0657  1.4412
 9379SOL    HW239771   4.410   1.153   8.452 -0.8363 -0.0671  0.4382
 9380SOL     OW39772   3.429   2.858   3.181  0.4901  0.1427 -0.1284
 9380SOL    HW139773   3.524   2.850   3.169  0.3876  1.7502 -2.0727
 9380SOL    HW239774   3.431   2.843   3.275 -0.5758 -1.3984 -0.3402
 9381SOL     OW39775   3.335   2.552   1.872  0.2521 -0.0369  0.5890
 9381SOL    HW139776   3.367   2.495   1.802  0.4396  1.7596 -0.8119
 9381SOL    HW239777   3.276   2.493   1.919  0.9965  1.8654  3.9114
 9382SOL     OW39778   1.509   2.939   8.254 -0.2747  0.5631  0.2000
 9382SOL    HW139779   1.597   2.909   8.230 -1.1908 -1.9857  0.0188
 9382SOL    HW239780   1.506   2.949   8.349  4.2292 -1.5346  0.5730
 9383SOL     OW39781   0.716   2.859  11.585 -0.4339 -0.1026  0.7208
 9383SOL    HW139782   0.672   2.924  11.641  0.1599  0.2548  0.7648
 9383SOL    HW239783   0.753   2.794  11.645 -0.8095 -0.1528  0.9054
 9384SOL     OW39784   4.580   2.560   6.335  0.3980 -0.0196  0.7492
 9384SOL    HW139785   4.646   2.629   6.334  2.0713 -1.6356 -0.1691
 9384SOL    HW239786   4.617   2.501   6.269 -0.0260 -1.1868  1.5501
 9385SOL     OW39787   3.829   3.559   2.181  0.1341  0.3000  0.1302
 9385SOL    HW139788   3.782   3.476   2.177 -0.2580  0.5124  0.3886
 9385SOL    HW239789   3.898   3.547   2.246 -1.1470 -5.1952  0.4132
 9386SOL     OW39790   2.809   1.089   7.099  0.1384  0.4706  0.2732
 9386SOL    HW139791   2.766   1.004   7.101  2.5424 -0.7631 -0.7695
 9386SOL    HW239792   2.847   1.089   7.187 -1.1229  0.6485  0.8093
 9387SOL     OW39793   0.325   0.452   6.596 -0.5986  0.2703 -0.2258
 9387SOL    HW139794   0.340   0.357   6.600  2.0357  0.6220 -1.7551
 9387SOL    HW239795   0.412   0.484   6.620  0.8510 -2.4742 -1.8670
 9388SOL     OW39796   3.694   3.944   6.288  0.2717 -0.4741 -0.1462
 9388SOL    HW139797   3.613   3.984   6.254 -1.3818 -1.5647  2.5202
 9388SOL    HW239798   3.764   3.983   6.236 -0.7668  1.3221 -0.2011
 9389SOL     OW39799   1.811   1.842   5.627 -0.6862 -0.7672  0.5038
 9389SOL    HW139800   1.903   1.853   5.651 -0.8206 -0.3856  0.8450
 9389SOL    HW239801   1.800   1.746   5.624 -0.0689 -0.8055 -0.3997
 9390SOL     OW39802   0.263   0.875   2.810 -0.2284 -0.2042  0.0789
 9390SOL    HW139803   0.209   0.922   2.873  0.6805  0.1385  0.6127
 9390SOL    HW239804   0.238   0.921   2.730 -0.6108 -1.3160 -0.4399
 9391SOL     OW39805   0.618   0.029   4.365 -0.4853 -0.1745 -0.7489
 9391SOL    HW139806   0.604   0.046   4.272 -0.2018 -0.3138 -0.8190
 9391SOL    HW239807   0.685   0.092   4.392  0.9629 -0.9541 -2.4448
 9392SOL     OW39808   2.956   1.172  16.310  0.0292  0.4310  0.4159
 9392SOL    HW139809   2.950   1.159  16.215  1.7858 -1.9493  0.6321
 9392SOL    HW239810   3.038   1.220  16.306  0.5296 -0.5491 -1.0588
 9393SOL     OW39811   0.862   3.363   9.686  0.5861  0.3435  0.4875
 9393SOL    HW139812   0.797   3.341   9.619  2.9188  2.4513 -2.4295
 9393SOL    HW239813   0.933   3.394   9.630 -0.8813  2.7766 -0.0291
 9394SOL     OW39814   2.054   2.512   9.684 -0.6054 -0.1557  0.2311
 9394SOL    HW139815   2.120   2.475   9.742  0.4042  0.9053 -0.2423
 9394SOL    HW239816   2.109   2.524   9.607 -2.0280  1.6470 -0.4952
 9395SOL     OW39817   0.482   0.256  15.257 -0.4867 -0.4303  0.7712
 9395SOL    HW139818   0.571   0.280  15.283 -0.6704 -0.5917  1.5523
 9395SOL    HW239819   0.439   0.341  15.247  1.3235  0.4083  0.0926
 9396SOL     OW39820   3.140   2.059   3.305 -0.2851  0.0191  0.9893
 9396SOL    HW139821   3.206   2.124   3.280  1.6886 -3.0330 -1.6572
 9396SOL    HW239822   3.189   1.993   3.354 -0.7861 -0.3356  1.0176
 9397SOL     OW39823   1.652   4.587   2.472 -0.3308 -0.3321 -0.3599
 9397SOL    HW139824   1.648   4.580   2.568 -0.9104  0.1478 -0.3550
 9397SOL    HW239825   1.567   4.551   2.448 -1.1774  0.7697  0.9733
 9398SOL     OW39826   3.863   1.525   6.132 -0.5535 -0.2691 -0.2686
 9398SOL    HW139827   3.942   1.489   6.091 -0.1610 -0.4383  0.6390
 9398SOL    HW239828   3.846   1.601   6.076  0.4142  0.8035  0.8784
 9399SOL     OW39829   4.703   3.831  13.131 -0.8059 -0.1811 -0.3398
 9399SOL    HW139830   4.708   3.737  13.112 -1.5713 -0.0948 -0.9589
 9399SOL    HW239831   4.709   3.869  13.043  1.3883  1.4497  0.5301
 9400SOL     OW39832   2.791   0.330   3.969  0.0018  0.4705 -0.1528
 9400SOL    HW139833   2.830   0.248   3.938 -0.0664  0.5006 -0.3209
 9400SOL    HW239834   2.763   0.381   3.893 -2.2177 -0.9941 -0.3252
 9401SOL     OW39835   0.765   1.487   3.016 -0.2243 -0.0457  0.4150
 9401SOL    HW139836   0.689   1.434   3.041 -0.6234  0.1937 -0.2860
 9401SOL    HW239837   0.727   1.545   2.950 -1.1409  2.3916  3.1118
 9402SOL     OW39838   1.675   4.443   4.984 -0.1246 -0.4111  0.0732
 9402SOL    HW139839   1.694   4.496   4.907 -0.5903 -0.6972 -0.2413
 9402SOL    HW239840   1.751   4.442   5.042 -0.8411  0.1066  1.0220
 9403SOL     OW39841   1.278   1.720   3.489 -0.0552 -0.0635 -0.2902
 9403SOL    HW139842   1.241   1.743   3.574 -2.5787 -0.7539 -1.1783
 9403SOL    HW239843   1.327   1.800   3.473 -0.7639  0.4983  0.3485
 9404SOL     OW39844   2.199   0.892   8.629 -0.7289  0.4029 -0.7172
 9404SOL    HW139845   2.111   0.873   8.659  0.1959 -0.5776  1.3592
 9404SOL    HW239846   2.244   0.878   8.712 -0.2708 -0.2607 -1.0790
 9405SOL     OW39847   2.490   3.881   6.288 -0.1719 -0.4158  0.4606
 9405SOL    HW139848   2.399   3.907   6.302  0.7524  1.7886  2.3319
 9405SOL    HW239849   2.489   3.798   6.335  1.4873 -0.3195  0.6628
 9406SOL     OW39850   0.324   3.223   0.674  0.0077 -0.4194 -0.0608
 9406SOL    HW139851   0.346   3.130   0.675  2.0406  0.0276 -1.7777
 9406SOL    HW239852   0.262   3.225   0.747  0.3723 -1.1202  0.2668
 9407SOL     OW39853   4.321   2.283  12.752  0.2771  0.2983 -0.1807
 9407SOL    HW139854   4.387   2.259  12.817 -0.7402 -3.1073 -0.3710
 9407SOL    HW239855   4.358   2.237  12.676  0.3215  0.9367 -0.5428
 9408SOL     OW39856   1.546   1.776  13.194 -0.2813 -0.4433 -0.6709
 9408SOL    HW139857   1.459   1.745  13.170 -0.1422 -0.7129 -0.8206
 9408SOL    HW239858   1.599   1.706  13.157  0.8748 -0.4653  1.0700
 9409SOL     OW39859   2.012   2.887  13.263 -0.2167  0.7826  0.0501
 9409SOL    HW139860   1.924   2.857  13.239  0.1254 -0.7229  0.7081
 9409SOL    HW239861   2.064   2.807  13.250 -0.5723  1.1889 -3.9164
 9410SOL     OW39862   2.968   0.584   3.497 -0.2041  0.1821  0.1172
 9410SOL    HW139863   2.956   0.589   3.403  0.7507 -2.1938 -0.1305
 9410SOL    HW239864   3.045   0.527   3.496 -0.3446  0.0008 -0.2117
 9411SOL     OW39865   3.886   2.020   8.211  0.3602  0.2669  0.0883
 9411SOL    HW139866   3.940   1.964   8.266  2.1159  1.9124  0.0501
 9411SOL    HW239867   3.804   1.972   8.224  0.4769  0.3437  1.1431
 9412SOL     OW39868   2.080   0.184   5.684 -0.1036 -0.2634 -1.1681
 9412SOL    HW139869   2.118   0.231   5.609  0.3629  2.7041  0.9685
 9412SOL    HW239870   2.072   0.095   5.650 -0.4695 -0.0055 -1.7597
 9413SOL     OW39871   2.619   0.199   9.636 -0.5801 -0.0446 -0.7062
 9413SOL    HW139872   2.667   0.144   9.698  0.1512  0.0287 -1.1949
 9413SOL    HW239873   2.664   0.283   9.637  0.6794 -0.7383  3.1784
 9414SOL     OW39874   1.105   1.172   6.436  0.2878  0.3416  0.3896
 9414SOL    HW139875   1.154   1.093   6.415 -0.0424  0.3672 -0.4861
 9414SOL    HW239876   1.153   1.244   6.394 -0.1802  0.3534 -0.1235
 9415SOL     OW39877   4.234   2.833   4.813 -0.0520 -0.1385 -0.4291
 9415SOL    HW139878   4.179   2.841   4.891 -1.2139  1.3926 -1.4239
 9415SOL    HW239879   4.315   2.799   4.852  0.0933 -1.0260 -1.5245
 9416SOL     OW39880   2.153   0.374   6.955  0.0969  0.0705 -0.3647
 9416SOL    HW139881   2.220   0.437   6.932  0.6576 -0.7420 -0.9674
 9416SOL    HW239882   2.197   0.339   7.033 -0.4866 -0.1408 -0.1230
 9417SOL     OW39883   3.407   2.086   6.114 -0.0275 -0.2304  0.0094
 9417SOL    HW139884   3.347   2.064   6.185  1.5259 -0.2811  1.2947
 9417SOL    HW239885   3.336   2.106   6.053  0.6349 -0.4150 -0.8235
 9418SOL     OW39886   3.193   3.121  10.647 -0.3721 -0.1157  0.0162
 9418SOL    HW139887   3.262   3.101  10.583  0.5850  2.0377  0.3515
 9418SOL    HW239888   3.218   3.209  10.678 -0.5227  0.2041 -0.7568
 9419SOL     OW39889   0.989   3.485  10.475 -0.5704 -0.3641 -0.1221
 9419SOL    HW139890   0.922   3.484  10.543 -0.2908 -1.2544  0.1431
 9419SOL    HW239891   0.940   3.494  10.394  0.8780 -0.8855 -1.0638
 9420SOL     OW39892   2.949   0.235   8.045  0.1486 -0.1760  1.0982
 9420SOL    HW139893   2.903   0.308   8.004  0.3722 -0.8116 -0.2600
 9420SOL    HW239894   3.013   0.211   7.978 -0.3505  1.0202  0.2057
 9421SOL     OW39895   1.901   4.523  14.339 -0.1295  0.4557 -0.1277
 9421SOL    HW139896   1.807   4.533  14.352 -0.3398  0.3054 -1.5522
 9421SOL    HW239897   1.934   4.561  14.420  1.6397 -1.3970 -0.0076
 9422SOL     OW39898   3.136   1.747   6.541 -0.0505 -0.0862  0.0432
 9422SOL    HW139899   3.194   1.791   6.604 -0.5260  0.9958 -0.2750
 9422SOL    HW239900   3.071   1.813   6.515  0.2539  1.4001  3.0503
 9423SOL     OW39901   1.623   3.622   3.693 -0.1934  0.7780 -0.0670
 9423SOL    HW139902   1.659   3.710   3.703 -1.1551  1.1777 -0.0626
 9423SOL    HW239903   1.530   3.643   3.682 -0.4809 -0.9471 -0.9560
 9424SOL     OW39904   1.854   0.390   6.240  0.3919 -0.0641  0.1817
 9424SOL    HW139905   1.861   0.295   6.238  0.2409 -0.1220  1.7366
 9424SOL    HW239906   1.894   0.417   6.158 -1.6420 -1.6448 -1.3040
 9425SOL     OW39907   0.142   1.080   2.935  0.1042 -0.5639  0.8542
 9425SOL    HW139908   0.083   1.037   2.996  0.3413 -0.7043  0.9843
 9425SOL    HW239909   0.079   1.136   2.889 -1.4489 -2.5684  0.5214
 9426SOL     OW39910   2.029   4.416   2.146  0.1747  0.1546 -0.1649
 9426SOL    HW139911   1.948   4.430   2.194  0.4555  3.2937 -0.6412
 9426SOL    HW239912   2.024   4.486   2.082  0.5900  0.3507  0.0161
 9427SOL     OW39913   2.256   1.859  12.633  0.0268 -0.4592  0.4000
 9427SOL    HW139914   2.287   1.844  12.544  0.5065 -0.6445  0.5958
 9427SOL    HW239915   2.301   1.943  12.643  1.9373 -1.2965 -1.1299
 9428SOL     OW39916   1.383   4.267   6.898  0.1440  0.5720 -0.1230
 9428SOL    HW139917   1.297   4.297   6.929 -0.6774 -1.7742 -0.1344
 9428SOL    HW239918   1.420   4.223   6.975  0.4486  1.2271  0.1071
 9429SOL     OW39919   3.882   0.451  11.043  0.1214  0.2059 -0.0527
 9429SOL    HW139920   3.957   0.416  11.091 -1.4056 -1.3785  1.2125
 9429SOL    HW239921   3.926   0.495  10.971  0.0118  2.2007  1.1054
 9430SOL     OW39922   1.882   0.044   2.916 -0.5326 -0.1723 -0.6922
 9430SOL    HW139923   1.902   4.700   2.876 -0.9131 -1.6094  2.2083
 9430SOL    HW239924   1.789   0.051   2.935 -0.3703  0.8666 -0.2605
 9431SOL     OW39925   1.517   1.154  11.004 -0.7993 -0.1105  0.6780
 9431SOL    HW139926   1.444   1.097  11.028 -0.5686  0.2533  2.2030
 9431SOL    HW239927   1.491   1.233  11.052 -1.4833  2.0354 -3.2006
 9432SOL     OW39928   0.882   2.154  12.862 -0.1095 -0.1778  0.0422
 9432SOL    HW139929   0.938   2.096  12.914  0.0294 -0.3889 -0.3399
 9432SOL    HW239930   0.822   2.189  12.927  0.2950  0.1450  0.2468
 9433SOL     OW39931   0.329   3.983   2.699 -0.3852  0.2708 -1.0571
 9433SOL    HW139932   0.233   3.989   2.697 -0.3557  0.4154 -2.0159
 9433SOL    HW239933   0.355   4.068   2.663  0.3841  0.9660  1.1777
 9434SOL     OW39934   3.572   2.492   3.148 -0.1410 -0.3459 -0.2825
 9434SOL    HW139935   3.638   2.520   3.212 -0.4152  0.9827 -0.5833
 9434SOL    HW239936   3.489   2.498   3.197  1.1765  0.5020  1.8325
 9435SOL     OW39937   3.105   2.080   2.608 -0.3464  0.2055  0.6915
 9435SOL    HW139938   3.191   2.058   2.572 -0.2565 -0.1638  1.1389
 9435SOL    HW239939   3.132   2.082   2.699 -1.5184 -0.6667  1.0529
 9436SOL     OW39940   1.781   2.106   5.120  0.1013  0.2774 -0.2495
 9436SOL    HW139941   1.868   2.145   5.112  0.9240 -1.4375  0.2158
 9436SOL    HW239942   1.811   2.047   5.189  3.0739  1.3279 -0.6493
 9437SOL     OW39943   1.997   0.823   6.453 -0.0062  0.2002  0.1631
 9437SOL    HW139944   2.030   0.754   6.395 -2.5729 -1.3030  0.4761
 9437SOL    HW239945   1.948   0.783   6.524 -0.8656 -0.4897 -0.8054
 9438SOL     OW39946   4.286   3.810  13.521 -0.3960 -0.2496  0.0338
 9438SOL    HW139947   4.195   3.783  13.530 -1.0824  1.7456 -0.9716
 9438SOL    HW239948   4.288   3.903  13.542  0.6366 -0.0854 -0.7462
 9439SOL     OW39949   2.072   0.276   7.452  0.0386  0.0883 -0.1305
 9439SOL    HW139950   2.055   0.185   7.478  1.5293  0.1061  0.8900
 9439SOL    HW239951   2.024   0.319   7.523  1.8878 -0.6579  1.5618
 9440SOL     OW39952   0.746   2.336   4.956 -0.6908 -0.2711 -0.3996
 9440SOL    HW139953   0.708   2.372   4.875 -1.9587  1.1941  0.8434
 9440SOL    HW239954   0.683   2.267   4.975 -0.3726 -0.8398 -1.4011
 9441SOL     OW39955   2.425   2.672   1.637 -0.4790 -0.0068 -0.1077
 9441SOL    HW139956   2.518   2.689   1.653 -0.5317  1.1313 -1.0100
 9441SOL    HW239957   2.390   2.761   1.642 -1.2752 -0.0797 -4.6950
 9442SOL     OW39958   1.481   2.018  11.839  0.3185  0.4223  0.4609
 9442SOL    HW139959   1.519   2.106  11.836  0.6791  0.2581  0.2169
 9442SOL    HW239960   1.450   2.009  11.749 -2.6245  1.1379  1.4212
 9443SOL     OW39961   1.202   4.235   9.615 -0.1370  0.0414 -0.4500
 9443SOL    HW139962   1.173   4.308   9.671 -0.6375 -1.6907  1.5647
 9443SOL    HW239963   1.200   4.277   9.529 -0.3962 -1.2940 -1.0817
 9444SOL     OW39964   0.640   1.309   3.666  0.1074 -0.3188 -0.0147
 9444SOL    HW139965   0.715   1.295   3.725 -0.8948 -0.8928  1.1110
 9444SOL    HW239966   0.691   1.334   3.589  0.0091  0.8044  0.2885
 9445SOL     OW39967   1.128   3.723   6.401 -0.5595 -0.0791  0.3908
 9445SOL    HW139968   1.136   3.721   6.306  1.1333 -0.7105  0.5537
 9445SOL    HW239969   1.084   3.808   6.402 -1.4587 -0.5440 -0.4302
 9446SOL     OW39970   0.214   3.509   5.896 -0.3647 -0.2320 -0.3254
 9446SOL    HW139971   0.155   3.570   5.940  0.2914 -0.7197  1.2536
 9446SOL    HW239972   0.239   3.547   5.812  0.6878 -0.2279 -0.0083
 9447SOL     OW39973   1.280   0.509   1.516  0.1335 -0.2258  0.0547
 9447SOL    HW139974   1.225   0.490   1.592 -2.7866  1.1264 -1.7176
 9447SOL    HW239975   1.334   0.431   1.523 -1.1012 -0.9409  1.7505
 9448SOL     OW39976   0.989   2.541  15.306 -0.6482 -0.2090 -0.3091
 9448SOL    HW139977   0.953   2.628  15.288 -0.2845  0.2219  1.0793
 9448SOL    HW239978   1.064   2.532  15.248 -1.6690  0.5789 -1.7645
 9449SOL     OW39979   3.280   1.007   2.178  0.2321  0.3214  0.0817
 9449SOL    HW139980   3.331   1.085   2.153  1.8647 -0.1149  2.0123
 9449SOL    HW239981   3.192   1.042   2.183 -1.1124 -3.1151  0.6778
 9450SOL     OW39982   3.084   1.939   1.938 -0.4742  0.4226  0.2379
 9450SOL    HW139983   3.142   1.954   2.013  1.7048 -2.0471 -0.9408
 9450SOL    HW239984   3.142   1.970   1.868  0.9741 -1.9430  0.3771
 9451SOL     OW39985   2.255   3.754   7.545  0.3120 -0.0285 -0.4052
 9451SOL    HW139986   2.220   3.827   7.596  1.6593  0.0178  0.4261
 9451SOL    HW239987   2.179   3.696   7.557 -0.7008  1.5500  0.7770
 9452SOL     OW39988   4.661   2.638   7.707  0.0815  0.0374  0.1089
 9452SOL    HW139989   4.739   2.649   7.653 -0.3492  0.6344 -0.3957
 9452SOL    HW239990   4.600   2.609   7.640 -0.4884  3.2108 -0.7622
 9453SOL     OW39991   3.053   1.749   0.093 -0.1211  0.3472  0.0180
 9453SOL    HW139992   3.042   1.751   0.188  0.0115  0.0185  0.0421
 9453SOL    HW239993   3.114   1.822   0.086 -0.1376  0.5858  2.3517
 9454SOL     OW39994   2.463   4.231   2.430 -0.1096 -0.0479  0.2410
 9454SOL    HW139995   2.387   4.178   2.453 -1.0018  0.6222 -1.2346
 9454SOL    HW239996   2.422   4.314   2.409  2.3659  1.2092  0.3797
 9455SOL     OW39997   1.906   0.006   4.635 -0.0731  0.0104  0.1230
 9455SOL    HW139998   1.940   0.058   4.708 -0.6782  0.4300  0.1029
 9455SOL    HW239999   1.884   0.070   4.568 -3.4435 -0.8839  0.3965
 9456SOL     OW40000   3.500   1.287   8.685  0.4034 -0.4344  0.7945
 9456SOL    HW140001   3.498   1.321   8.596  2.3076  0.2847  1.0169
 9456SOL    HW240002   3.531   1.198   8.664  5.1817  1.4578 -0.1775
 9457SOL     OW40003   3.837   2.095   3.310  0.3417  0.2168  0.4830
 9457SOL    HW140004   3.868   2.103   3.220 -1.3189  1.0219 -0.0130
 9457SOL    HW240005   3.881   2.011   3.326 -1.4760 -1.0342 -1.2035
 9458SOL     OW40006   3.928   0.340   8.979  0.1040 -0.1596  0.1748
 9458SOL    HW140007   3.852   0.383   9.016 -1.2775 -0.6609 -2.0939
 9458SOL    HW240008   3.953   0.385   8.899  0.2427 -0.9709 -0.2451
 9459SOL     OW40009   3.001   4.367   5.633 -0.3594 -0.3930 -0.1255
 9459SOL    HW140010   2.926   4.395   5.685  2.1358  2.5721  1.8781
 9459SOL    HW240011   3.021   4.289   5.684 -1.2144  0.0563  0.9099
 9460SOL     OW40012   1.731   2.227   8.065 -0.5031  0.6990 -0.0173
 9460SOL    HW140013   1.820   2.233   8.030 -0.4474 -2.5336 -0.3779
 9460SOL    HW240014   1.681   2.182   7.998  2.6406 -0.1844 -1.8015
 9461SOL     OW40015   4.068   1.345   3.161 -0.4067  0.5432 -0.3568
 9461SOL    HW140016   4.138   1.294   3.201 -0.3963  0.4940 -0.4390
 9461SOL    HW240017   3.994   1.285   3.173 -1.7753  2.3759  0.6113
 9462SOL     OW40018   1.552   2.542  15.695  0.5380  0.1221 -0.3057
 9462SOL    HW140019   1.598   2.527  15.777 -0.2771 -0.0092  0.1218
 9462SOL    HW240020   1.477   2.601  15.704  0.1091 -0.3934 -0.4638
 9463SOL     OW40021   0.031   2.906  11.194  0.5479 -0.4716 -0.4955
 9463SOL    HW140022   0.082   2.842  11.144 -0.3503 -0.3512 -1.5536
 9463SOL    HW240023   0.042   2.876  11.284  2.8841 -1.4181 -1.0870
 9464SOL     OW40024   3.260   2.742   5.104  0.6504  0.2119  0.1405
 9464SOL    HW140025   3.196   2.670   5.100  0.9150 -0.0791  1.3141
 9464SOL    HW240026   3.289   2.738   5.195 -0.1190  1.3000  0.4297
 9465SOL     OW40027   1.416   2.168   2.306 -0.5326 -0.1480 -0.0659
 9465SOL    HW140028   1.433   2.078   2.279  4.2579  0.6659  0.2185
 9465SOL    HW240029   1.340   2.180   2.250 -0.8777 -0.4187  0.3404
 9466SOL     OW40030   0.669   2.916   6.161  0.0062 -0.3540  0.7528
 9466SOL    HW140031   0.585   2.961   6.166  0.7332  1.0668  0.0879
 9466SOL    HW240032   0.674   2.877   6.074 -1.3969 -0.2674  0.6242
 9467SOL     OW40033   3.565   0.220  15.075 -0.1685 -0.1282 -0.1966
 9467SOL    HW140034   3.548   0.160  15.148  0.6353  2.2387  1.9546
 9467SOL    HW240035   3.493   0.277  15.102 -1.1058 -1.4211  0.0583
 9468SOL     OW40036   0.682   0.084   5.924  0.1851  0.3941  0.6250
 9468SOL    HW140037   0.681   4.728   5.926 -1.6910  0.4112  0.2512
 9468SOL    HW240038   0.656   0.103   6.014 -0.8581 -0.3572  0.4813
 9469SOL     OW40039   4.111   0.605   5.381 -0.0847  0.2478 -0.0105
 9469SOL    HW140040   4.100   0.510   5.380  0.2549  0.2092  0.0215
 9469SOL    HW240041   4.056   0.628   5.455  0.3185 -0.4851  0.5131
 9470SOL     OW40042   3.923   2.603  13.864  0.0570 -0.3779 -0.4391
 9470SOL    HW140043   4.000   2.633  13.815 -0.9129  1.1216 -1.0450
 9470SOL    HW240044   3.972   2.572  13.940 -0.1930  0.5611  0.0954
 9471SOL     OW40045   3.944   2.898  15.710  0.3386  0.3562  0.6875
 9471SOL    HW140046   3.873   2.837  15.730  1.7472 -1.5285 -0.1361
 9471SOL    HW240047   4.021   2.858  15.752 -0.2452 -1.7674 -0.2671
 9472SOL     OW40048   1.798   1.515  13.628 -0.1021  0.6472 -0.5050
 9472SOL    HW140049   1.867   1.508  13.562 -0.2599  2.2759 -0.8447
 9472SOL    HW240050   1.726   1.555  13.581  0.1600  0.0716 -1.3959
 9473SOL     OW40051   3.257   2.217   0.816 -0.3515  0.0266 -0.8270
 9473SOL    HW140052   3.349   2.195   0.800  0.5499  2.0807  1.4615
 9473SOL    HW240053   3.270   2.283   0.884 -0.4888 -0.3442 -0.4361
 9474SOL     OW40054   0.522   2.679  17.541  0.3075  0.4747  0.1759
 9474SOL    HW140055   0.551   2.735  17.469 -0.4579 -0.6015 -0.9728
 9474SOL    HW240056   0.530   2.599  17.489  2.0166  1.0726 -0.4613
 9475SOL     OW40057   1.192   0.994   2.599 -0.1493  0.0620 -0.1798
 9475SOL    HW140058   1.227   0.906   2.608 -5.3889 -2.0029 -0.1966
 9475SOL    HW240059   1.099   0.981   2.613  0.1316 -3.5338 -1.7254
 9476SOL     OW40060   2.718   1.184   2.239  0.0299 -0.1614  0.3109
 9476SOL    HW140061   2.777   1.212   2.310  1.9361 -0.5537 -1.1263
 9476SOL    HW240062   2.722   1.264   2.186  1.5667  1.2915  2.6130
 9477SOL     OW40063   0.080   2.866   8.941  0.1429 -0.5797  0.5108
 9477SOL    HW140064   4.738   2.818   8.927  0.8197 -1.6553  0.2521
 9477SOL    HW240065   0.057   2.959   8.942 -1.5362 -0.9792  0.7393
 9478SOL     OW40066   3.609   2.971  10.093 -0.5499 -0.1213  0.0669
 9478SOL    HW140067   3.701   2.948  10.080 -0.2155  1.9457 -1.3097
 9478SOL    HW240068   3.611   3.036  10.163 -1.7185 -1.7708  1.6382
 9479SOL     OW40069   1.734   0.442  16.747  0.6602  0.2379 -0.6192
 9479SOL    HW140070   1.721   0.453  16.841 -0.1597 -0.6014 -0.6443
 9479SOL    HW240071   1.642   0.440  16.722  0.5628  0.4930 -0.2893
 9480SOL     OW40072   3.619   0.044   4.894 -0.0146 -0.4720  0.0938
 9480SOL    HW140073   3.579   0.129   4.880 -0.8142 -0.7002  0.9560
 9480SOL    HW240074   3.547   4.721   4.897  0.0290 -0.6130 -1.9489
 9481SOL     OW40075   4.700   2.046  12.751  0.4828 -0.1469 -0.6664
 9481SOL    HW140076   4.732   1.981  12.688  1.6246 -1.2867  1.0847
 9481SOL    HW240077   4.702   2.124  12.696  1.4191 -0.6203 -1.3100
 9482SOL     OW40078   3.858   1.266   2.509  0.1397  0.4573 -0.0969
 9482SOL    HW140079   3.769   1.244   2.483  0.7433 -2.4755  0.3565
 9482SOL    HW240080   3.849   1.301   2.598 -0.9499  1.6039 -0.6618
 9483SOL     OW40081   4.004   4.188  15.448  0.3755 -0.2017  0.6260
 9483SOL    HW140082   4.014   4.110  15.502 -1.0169 -1.5663 -1.0834
 9483SOL    HW240083   4.085   4.230  15.477  1.6832 -2.5878  0.4615
 9484SOL     OW40084   4.380   3.006  16.559 -0.6176 -0.0837  0.2879
 9484SOL    HW140085   4.430   2.950  16.500  0.5465  2.0267 -0.7041
 9484SOL    HW240086   4.305   3.025  16.504 -0.1387 -2.6118 -1.2379
 9485SOL     OW40087   4.298   2.276   2.886  0.9457 -0.0222  0.2869
 9485SOL    HW140088   4.335   2.312   2.805 -0.4259 -1.7642 -1.1161
 9485SOL    HW240089   4.205   2.262   2.869  1.2168 -2.2182  0.6018
 9486SOL     OW40090   2.738   1.050   1.742  0.0991  0.1632 -0.3760
 9486SOL    HW140091   2.664   1.022   1.796  2.1370 -1.8765  1.3850
 9486SOL    HW240092   2.774   1.129   1.782 -2.5785  0.3811  1.5523
 9487SOL     OW40093   2.934   3.298   5.917 -0.1680  0.6640 -0.3581
 9487SOL    HW140094   2.883   3.346   5.851 -0.9007  0.5163  0.1066
 9487SOL    HW240095   2.869   3.302   5.987 -3.1572  0.2874 -3.1434
 9488SOL     OW40096   0.192   2.585   3.590  0.0245  0.0855  0.3501
 9488SOL    HW140097   0.124   2.645   3.619  0.4932  0.2147  1.1987
 9488SOL    HW240098   0.252   2.590   3.665  0.1670 -1.3429  0.3341
 9489SOL     OW40099   1.862   2.351   4.907  0.1206 -0.2381 -1.1557
 9489SOL    HW140100   1.768   2.333   4.915 -0.1173  0.9651 -1.2332
 9489SOL    HW240101   1.858   2.434   4.860 -1.2332  1.2379  1.5770
 9490SOL     OW40102   2.963   0.792  10.934  0.2663  0.1925  0.1696
 9490SOL    HW140103   3.018   0.725  10.976 -1.5469 -1.5784 -0.3159
 9490SOL    HW240104   2.933   0.838  11.012  2.0353 -0.1566  1.0635
 9491SOL     OW40105   0.800   3.745   5.021  0.2787  0.3755 -0.1180
 9491SOL    HW140106   0.709   3.753   4.989  0.2556  0.4607 -0.0295
 9491SOL    HW240107   0.848   3.801   4.960  1.2255 -0.3772 -0.0573
 9492SOL     OW40108   3.178   0.970   2.895 -0.0853 -0.0522  0.1532
 9492SOL    HW140109   3.160   1.006   2.807  0.5709  1.8006  0.7747
 9492SOL    HW240110   3.154   0.878   2.885  0.7902 -0.0362 -2.0444
 9493SOL     OW40111   4.465   0.519   9.738  0.4387  0.0839  0.7470
 9493SOL    HW140112   4.531   0.534   9.805 -2.0362  2.6470  2.6124
 9493SOL    HW240113   4.504   0.552   9.657 -1.5353 -2.2135 -1.1703
 9494SOL     OW40114   1.450   2.546   6.409  0.2125 -0.2090  0.1224
 9494SOL    HW140115   1.364   2.509   6.430  0.4288 -0.0263  1.3462
 9494SOL    HW240116   1.422   2.637   6.405 -0.2694 -0.4186 -1.4550
 9495SOL     OW40117   0.978   2.021   8.163 -0.2534 -0.1803  0.3698
 9495SOL    HW140118   0.987   1.926   8.168  1.5734 -0.1095 -1.5701
 9495SOL    HW240119   0.884   2.025   8.177 -0.3953 -0.9427 -0.4043
 9496SOL     OW40120   2.189   1.809   2.844  0.1771  0.2359 -0.0784
 9496SOL    HW140121   2.114   1.776   2.892 -0.3115  1.0011 -0.3267
 9496SOL    HW240122   2.197   1.731   2.788  0.8339  0.1255  0.1681
 9497SOL     OW40123   1.570   4.567  13.128 -0.2312 -0.3185  0.0764
 9497SOL    HW140124   1.570   4.624  13.051  1.4566 -0.9796 -0.4167
 9497SOL    HW240125   1.658   4.586  13.162  0.0722 -0.5635 -0.5862
 9498SOL     OW40126   2.462   0.755  15.441  0.1175  0.8867 -0.2167
 9498SOL    HW140127   2.555   0.775  15.439  0.8357 -2.4677  0.0670
 9498SOL    HW240128   2.427   0.806  15.368  2.4590  3.4548  0.4689
 9499SOL     OW40129   2.478   0.988  14.874 -0.2012  0.3536 -0.2439
 9499SOL    HW140130   2.499   1.049  14.803  0.6726  0.4692  0.1073
 9499SOL    HW240131   2.412   1.034  14.925 -1.0236 -1.4274  0.2700
 9500SOL     OW40132   3.809   3.938   0.084 -0.2017  0.1350  0.1760
 9500SOL    HW140133   3.766   4.009   0.132 -0.0096  0.8636 -0.7320
 9500SOL    HW240134   3.800   3.862   0.140  2.4389 -1.1447 -1.1576
 9501SOL     OW40135   1.441   0.514  15.490  0.5181  0.4619  0.0922
 9501SOL    HW140136   1.510   0.576  15.511 -0.3840  1.4933 -0.0153
 9501SOL    HW240137   1.373   0.581  15.488  0.1165  0.1415  3.5949
 9502SOL     OW40138   2.350   4.108   4.205  0.0058  0.0297 -0.3677
 9502SOL    HW140139   2.389   4.192   4.229 -0.3503  0.4664 -1.2906
 9502SOL    HW240140   2.427   4.051   4.199  0.0449 -0.0309  0.7172
 9503SOL     OW40141   2.371   2.540   7.223 -0.4686  0.1886 -0.1554
 9503SOL    HW140142   2.292   2.489   7.241  0.8967 -0.9930  2.4488
 9503SOL    HW240143   2.331   2.624   7.200 -0.5923 -0.1558 -1.1986
 9504SOL     OW40144   3.416   0.324   2.463 -0.8515  0.7436  0.4377
 9504SOL    HW140145   3.447   0.386   2.397  1.5380 -1.8998 -0.9240
 9504SOL    HW240146   3.494   0.316   2.518 -0.1054  0.0667 -0.7227
 9505SOL     OW40147   1.499   1.810  15.363  0.1843  0.1430 -0.1665
 9505SOL    HW140148   1.479   1.867  15.289  0.1066 -0.7796 -0.8579
 9505SOL    HW240149   1.587   1.787  15.334  0.1846  0.1639 -0.1823
 9506SOL     OW40150   3.652   4.682   8.886 -0.1417 -0.7521  0.2775
 9506SOL    HW140151   3.657   0.017   8.827 -0.1280 -0.0694  1.1481
 9506SOL    HW240152   3.715   4.706   8.954  1.1638  1.0416 -1.5486
 9507SOL     OW40153   1.267   0.488  16.566  0.0449  0.0724  0.0446
 9507SOL    HW140154   1.204   0.559  16.555  0.2574  0.0683 -1.1749
 9507SOL    HW240155   1.326   0.501  16.491 -0.7816  2.4463 -0.1917
 9508SOL     OW40156   3.167   3.331   5.472 -0.1529  0.1019 -0.1779
 9508SOL    HW140157   3.141   3.394   5.538 -1.1923  1.4408 -1.8634
 9508SOL    HW240158   3.148   3.251   5.522  0.7402  1.6177  2.5525
 9509SOL     OW40159   1.764   3.985   4.344 -0.1223 -0.1756  0.0522
 9509SOL    HW140160   1.778   4.048   4.274  0.8266  0.7475  1.0630
 9509SOL    HW240161   1.843   3.989   4.399 -0.1548 -0.2791  0.1071
 9510SOL     OW40162   3.412   0.030   4.032 -0.4851 -0.2029 -1.0458
 9510SOL    HW140163   3.333   0.030   3.978  1.6138 -2.2270 -4.0745
 9510SOL    HW240164   3.397   0.113   4.076  0.2948  0.3302 -1.7939
 9511SOL     OW40165   1.491   0.671   9.530 -0.2262  0.0859 -0.3839
 9511SOL    HW140166   1.456   0.608   9.593  3.1465  0.1566  1.6031
 9511SOL    HW240167   1.534   0.733   9.589 -0.4537 -0.1464  0.0236
 9512SOL     OW40168   0.398   0.877  16.353 -0.2377  0.9413 -0.4588
 9512SOL    HW140169   0.349   0.831  16.285 -0.4044  3.4216 -1.9949
 9512SOL    HW240170   0.374   0.819  16.426 -0.0782  1.6201  0.1307
 9513SOL     OW40171   3.181   2.967   7.167  0.1060 -0.4765  0.5472
 9513SOL    HW140172   3.239   2.919   7.109  0.2404 -1.4916  1.5172
 9513SOL    HW240173   3.155   2.901   7.231 -0.2148  0.4966  1.4338
 9514SOL     OW40174   2.168   0.403   9.528 -0.2525 -0.2426  0.1979
 9514SOL    HW140175   2.230   0.363   9.467  0.2382  1.6308 -0.5334
 9514SOL    HW240176   2.181   0.361   9.613  0.9744 -0.3307 -0.0305
 9515SOL     OW40177   2.240   0.838  11.193  0.0323  0.6732  0.3660
 9515SOL    HW140178   2.182   0.899  11.238 -1.5838  1.3191 -2.5742
 9515SOL    HW240179   2.189   0.799  11.122 -0.6570  2.4715 -0.1431
 9516SOL     OW40180   0.589   1.706   3.886  0.6418  0.0898 -0.2227
 9516SOL    HW140181   0.508   1.741   3.925  0.3058  1.3144 -2.0293
 9516SOL    HW240182   0.561   1.681   3.798 -0.9965 -1.1324  0.6490
 9517SOL     OW40183   3.075   4.116   2.229 -0.4857  0.8835 -0.6091
 9517SOL    HW140184   3.064   4.069   2.312  2.6272  0.6571 -0.3306
 9517SOL    HW240185   3.025   4.056   2.173 -1.4004 -0.1999  1.3579
 9518SOL     OW40186   1.542   1.552   2.787  0.4967 -0.0139  0.0879
 9518SOL    HW140187   1.609   1.485   2.793  0.5445 -0.1519 -1.8462
 9518SOL    HW240188   1.460   1.503   2.796  0.6112 -0.2614 -0.2028
 9519SOL     OW40189   1.170   1.772   7.520  0.3338  0.6853  0.1936
 9519SOL    HW140190   1.100   1.725   7.566  0.9176  0.9790  1.3783
 9519SOL    HW240191   1.203   1.823   7.594 -0.5254  3.5060 -1.3923
 9520SOL     OW40192   2.802   2.079   9.179 -0.4423  0.3809  0.3881
 9520SOL    HW140193   2.815   2.093   9.085  0.2109  1.3239  0.6293
 9520SOL    HW240194   2.815   1.985   9.196 -0.1649  0.5019  0.8474
 9521SOL     OW40195   0.203   1.094   4.338  0.0479 -0.8012  0.5580
 9521SOL    HW140196   0.199   1.013   4.288  0.6461 -0.3855 -0.1626
 9521SOL    HW240197   0.224   1.059   4.425 -1.4567 -0.0737  1.1972
 9522SOL     OW40198   1.650   4.620   1.647  0.8289 -0.1633  0.9421
 9522SOL    HW140199   1.649   4.712   1.673  0.6008  0.2680 -0.5828
 9522SOL    HW240200   1.716   4.614   1.579  1.1917 -0.6491  1.3397
 9523SOL     OW40201   2.237   3.727   8.362 -0.0441  0.2116 -0.3948
 9523SOL    HW140202   2.294   3.706   8.436  0.0045  0.6188 -0.3141
 9523SOL    HW240203   2.187   3.646   8.370 -1.1265  1.0954  1.7166
 9524SOL     OW40204   1.987   0.323   3.761  0.1779  0.0716  0.5377
 9524SOL    HW140205   2.026   0.349   3.845  0.4270 -1.2223  0.8272
 9524SOL    HW240206   1.998   0.228   3.748  0.5769  0.4848 -2.1839
 9525SOL     OW40207   1.318   1.657   4.890  0.2710  0.7292 -0.3120
 9525SOL    HW140208   1.389   1.631   4.948 -2.6800 -1.4224  2.3208
 9525SOL    HW240209   1.254   1.682   4.957  1.0169  0.7998  0.3677
 9526SOL     OW40210   0.480   0.072  17.618 -0.2097 -0.5751  0.1868
 9526SOL    HW140211   0.551   0.039  17.562 -1.2442 -0.2844 -1.3000
 9526SOL    HW240212   0.406   0.032  17.572  0.3278  0.6099 -1.6988
 9527SOL     OW40213   1.797   4.279  16.606  0.2787 -0.5236  0.1516
 9527SOL    HW140214   1.813   4.256  16.698 -2.7164 -0.4340  0.6821
 9527SOL    HW240215   1.864   4.235  16.553 -0.0370 -0.5739 -0.2006
 9528SOL     OW40216   4.025   0.459   5.897 -1.1061 -0.3063 -0.0516
 9528SOL    HW140217   3.942   0.472   5.851 -0.7571  2.2835  0.0512
 9528SOL    HW240218   3.998   0.504   5.976 -2.1022 -0.3268 -0.3839
 9529SOL     OW40219   2.132   3.030   5.077 -0.3664  0.3262 -0.3676
 9529SOL    HW140220   2.192   3.099   5.049 -0.5915  0.2648 -0.9871
 9529SOL    HW240221   2.085   2.999   5.000 -0.9764 -0.4796  0.3137
 9530SOL     OW40222   2.505   1.845  16.047 -0.5060  0.1671 -0.9023
 9530SOL    HW140223   2.448   1.865  16.121 -0.0540 -1.2224 -0.1835
 9530SOL    HW240224   2.577   1.799  16.089 -1.1579  2.1801  2.4396
 9531SOL     OW40225   3.686   2.761  17.636  0.6611 -0.1664  0.6516
 9531SOL    HW140226   3.625   2.832  17.655 -0.5904 -0.4255 -2.4067
 9531SOL    HW240227   3.631   2.684  17.622 -0.1979  0.4223  0.8049
 9532SOL     OW40228   2.973   2.108   2.386  0.5308  0.3014  0.4899
 9532SOL    HW140229   2.880   2.123   2.407 -0.1656 -1.1712 -1.5140
 9532SOL    HW240230   3.006   2.102   2.476 -0.5043 -2.5343  0.6825
 9533SOL     OW40231   3.169   0.457   6.805  0.3873 -0.3990 -0.3770
 9533SOL    HW140232   3.168   0.362   6.795  0.3284 -0.5565  1.1049
 9533SOL    HW240233   3.259   0.469   6.776  1.2398  0.2432  2.5546
 9534SOL     OW40234   2.516   2.901   2.189 -0.0455  0.0313  0.1644
 9534SOL    HW140235   2.456   2.940   2.125 -0.5184  0.6632  0.9925
 9534SOL    HW240236   2.576   2.860   2.126  0.9328  0.0169  1.1105
 9535SOL     OW40237   4.609   4.529   2.223 -0.5433  0.6214  0.0453
 9535SOL    HW140238   4.547   4.457   2.208  1.6212 -1.0441 -0.9769
 9535SOL    HW240239   4.564   4.594   2.277 -0.4871  0.0503  0.7812
 9536SOL     OW40240   3.995   0.186   0.006 -0.3748 -0.0501 -0.2965
 9536SOL    HW140241   4.070   0.129  17.751  0.1287  0.3944  0.7101
 9536SOL    HW240242   3.961   0.201  17.676 -1.9019  1.5600  0.5578
 9537SOL     OW40243   2.068   4.325   2.851  0.1612 -0.2767  0.3020
 9537SOL    HW140244   2.111   4.255   2.802 -1.2335  0.2035 -1.5811
 9537SOL    HW240245   1.993   4.276   2.885 -0.5748  0.7186  0.1111
 9538SOL     OW40246   3.808   1.277   3.812 -0.2438 -0.1063  0.0286
 9538SOL    HW140247   3.714   1.264   3.821 -0.4592  1.7042  0.4636
 9538SOL    HW240248   3.825   1.201   3.757  1.0390  0.7516 -0.7573
 9539SOL     OW40249   4.377   2.039   2.497 -0.3276 -0.2629 -0.1680
 9539SOL    HW140250   4.308   2.085   2.544  0.1727 -0.6113  0.9029
 9539SOL    HW240251   4.410   2.108   2.440 -1.9667 -0.7446 -1.6889
 9540SOL     OW40252   0.358   2.911   1.779  0.1957 -0.2197  0.2855
 9540SOL    HW140253   0.377   2.923   1.872  0.6577  1.5849 -0.0413
 9540SOL    HW240254   0.264   2.893   1.773  0.5220 -2.0638  0.8678
 9541SOL     OW40255   2.134   2.958   5.564 -0.5685 -0.3472 -0.1358
 9541SOL    HW140256   2.178   3.025   5.616 -0.2138  0.9203 -2.0790
 9541SOL    HW240257   2.171   2.966   5.476  2.0438  2.1614  1.1751
 9542SOL     OW40258   3.561   1.578  17.401  0.1617  0.2169 -0.3886
 9542SOL    HW140259   3.578   1.651  17.341  0.4177 -0.0318 -0.6167
 9542SOL    HW240260   3.485   1.537  17.360  1.0937 -1.2821 -0.6322
 9543SOL     OW40261   3.049   1.781   2.363 -0.4298 -0.6564 -0.4001
 9543SOL    HW140262   2.960   1.793   2.396 -0.1709  0.8774 -0.2447
 9543SOL    HW240263   3.061   1.870   2.330  2.5859 -0.5598  0.9801
 9544SOL     OW40264   0.628   2.517  12.217  0.0289  0.7607  0.0196
 9544SOL    HW140265   0.653   2.470  12.138 -0.1131 -0.0029  0.4323
 9544SOL    HW240266   0.539   2.547  12.198  0.3218  2.2769  1.0139
 9545SOL     OW40267   2.319   1.426   0.897  0.0099  0.2551  0.5435
 9545SOL    HW140268   2.372   1.347   0.914  2.5373  1.1558 -3.0482
 9545SOL    HW240269   2.371   1.499   0.930  0.7007  0.1761 -0.3423
 9546SOL     OW40270   1.093   0.522   6.985  0.0907 -0.0324 -0.1906
 9546SOL    HW140271   1.006   0.562   6.990  0.1525  0.3526 -2.0376
 9546SOL    HW240272   1.084   0.440   7.034 -1.1654  0.8105  0.9832
 9547SOL     OW40273   4.169   2.884  11.636  0.1211 -0.1600 -0.3621
 9547SOL    HW140274   4.262   2.903  11.629  0.4286 -0.9400  1.5076
 9547SOL    HW240275   4.133   2.926  11.558 -0.8590 -3.0479 -1.4672
 9548SOL     OW40276   4.083   4.323   5.401 -0.2243  0.6288  0.2567
 9548SOL    HW140277   4.150   4.263   5.433 -3.0167 -2.4619  0.2375
 9548SOL    HW240278   4.001   4.293   5.440  0.8834 -0.2871  1.9131
 9549SOL     OW40279   2.877   1.449   0.189 -0.2483 -0.1923 -0.2153
 9549SOL    HW140280   2.877   1.362   0.150  0.3310  0.3579 -1.4345
 9549SOL    HW240281   2.953   1.487   0.145 -0.5711 -1.2464 -1.6635
 9550SOL     OW40282   1.819   3.895   7.216 -0.1278 -0.4484  0.0850
 9550SOL    HW140283   1.871   3.816   7.203 -2.0658 -1.5345 -1.0965
 9550SOL    HW240284   1.729   3.865   7.232  0.5919 -2.6055  0.0782
 9551SOL     OW40285   4.018   1.828  11.997  0.2033 -0.3719  0.4250
 9551SOL    HW140286   4.051   1.770  11.928 -1.5242 -0.0335 -0.6869
 9551SOL    HW240287   4.046   1.776  12.072  0.0156 -0.2078  0.6076
 9552SOL     OW40288   2.303   1.503   4.024  0.1169  0.0073 -0.2567
 9552SOL    HW140289   2.291   1.568   4.094 -3.3321 -1.3247  0.3612
 9552SOL    HW240290   2.288   1.414   4.055 -1.5079  0.8701  1.4412
 9553SOL     OW40291   1.595   0.063  17.389  0.3155  0.4371 -0.0191
 9553SOL    HW140292   1.526   0.124  17.413 -0.1547 -0.3491  0.5939
 9553SOL    HW240293   1.630   0.036  17.474 -1.8619  0.0688  0.7341
 9554SOL     OW40294   4.365   4.438   4.607 -0.1420  0.8061 -0.2891
 9554SOL    HW140295   4.389   4.372   4.542 -2.5833  1.4265 -1.8250
 9554SOL    HW240296   4.278   4.465   4.576 -0.7882 -1.2093 -0.2533
 9555SOL     OW40297   2.419   1.694  14.122  0.8476 -0.1915  0.5265
 9555SOL    HW140298   2.474   1.719  14.197 -0.8382 -0.2468  1.7629
 9555SOL    HW240299   2.383   1.616  14.163 -1.0574  1.0232  1.1431
 9556SOL     OW40300   4.179   3.971  13.060 -0.5240 -0.1329  0.5350
 9556SOL    HW140301   4.110   4.007  13.116 -0.9359 -0.3748  0.1833
 9556SOL    HW240302   4.252   4.006  13.112 -0.6632  0.3002  0.4381
 9557SOL     OW40303   0.632   4.067   1.145  0.2926 -0.0965 -0.0501
 9557SOL    HW140304   0.663   3.987   1.102  1.0172  0.1283  0.0558
 9557SOL    HW240305   0.576   4.033   1.215  0.5832  1.5879  0.9856
 9558SOL     OW40306   0.810   3.677   9.782 -0.2937  0.0054  0.3328
 9558SOL    HW140307   0.832   3.731   9.706  1.8270 -0.3044  0.7309
 9558SOL    HW240308   0.807   3.748   9.846 -0.2320  0.9986 -0.7549
 9559SOL     OW40309   2.471   1.909   3.157 -0.0286  0.3812 -0.1678
 9559SOL    HW140310   2.425   1.840   3.204 -1.9588  1.4329 -0.5326
 9559SOL    HW240311   2.407   1.980   3.152  0.3272  0.7441  0.4560
 9560SOL     OW40312   0.836   4.444   1.964 -0.7270  0.0423  0.3702
 9560SOL    HW140313   0.890   4.453   2.043 -0.1114 -0.8633  0.0440
 9560SOL    HW240314   0.752   4.482   1.990 -0.6843  1.5885 -1.7864
 9561SOL     OW40315   4.453   3.395   8.927 -0.3675 -0.2080  0.3775
 9561SOL    HW140316   4.451   3.346   9.009  0.0177  0.2859  0.6823
 9561SOL    HW240317   4.413   3.476   8.959 -0.8634 -0.3852  0.1973
 9562SOL     OW40318   2.183   3.949   3.202 -0.5158  0.1963  0.1579
 9562SOL    HW140319   2.166   3.960   3.295 -1.6862 -1.0430  0.0980
 9562SOL    HW240320   2.165   3.858   3.181  0.4253 -0.3158  1.6409
 9563SOL     OW40321   2.520   1.510  13.133 -0.3121  0.2718  0.7065
 9563SOL    HW140322   2.477   1.432  13.098  0.0879  0.2338  0.2995
 9563SOL    HW240323   2.524   1.492  13.227 -2.1711  0.9172  0.9088
 9564SOL     OW40324   2.965   0.552   5.059 -0.1530 -0.6554 -0.0901
 9564SOL    HW140325   2.990   0.563   4.968  1.8425 -2.2782  0.2579
 9564SOL    HW240326   3.037   0.497   5.089  0.0818 -1.0397 -1.3748
 9565SOL     OW40327   3.525   2.661   2.936  0.4002  0.1937 -0.1204
 9565SOL    HW140328   3.533   2.605   3.013 -0.3134  0.3219  0.0430
 9565SOL    HW240329   3.564   2.742   2.969 -0.7604 -0.3649  2.6365
 9566SOL     OW40330   1.943   2.684   6.600  0.1069  0.7053 -0.1945
 9566SOL    HW140331   1.896   2.676   6.518  2.3880  0.2565 -1.4504
 9566SOL    HW240332   1.872   2.719   6.654 -1.1922  1.5467 -2.4943
 9567SOL     OW40333   3.011   4.240  13.485  0.2973  0.3147 -0.2580
 9567SOL    HW140334   3.049   4.154  13.502  0.3878  0.9186  2.6260
 9567SOL    HW240335   3.014   4.281  13.571 -1.9432 -1.1216  0.4926
 9568SOL     OW40336   0.189   2.795  11.451  0.6271  0.6768 -0.4797
 9568SOL    HW140337   0.236   2.846  11.516  0.7620  0.6609 -0.5642
 9568SOL    HW240338   0.259   2.764  11.394  0.2529 -0.4446 -0.3325
 9569SOL     OW40339   2.732   4.717   5.703 -0.1197 -0.1594  0.0271
 9569SOL    HW140340   2.757   4.680   5.618 -2.6645  1.0706 -1.2449
 9569SOL    HW240341   2.746   0.071   5.698 -0.2950 -0.3378 -3.7620
 9570SOL     OW40342   0.076   4.231   8.761 -0.0813  0.8474  0.0707
 9570SOL    HW140343   0.125   4.309   8.735 -1.0702  1.8533  1.2207
 9570SOL    HW240344   0.128   4.207   8.838 -2.9113 -0.1477  1.6965
 9571SOL     OW40345   0.535   0.209   6.816  0.0047 -0.2194 -0.4977
 9571SOL    HW140346   0.587   0.192   6.738  0.0110  3.5860 -1.3355
 9571SOL    HW240347   0.578   0.148   6.876 -0.2447  0.5703  0.4906
   4.74006   4.74006  17.75781
